Membrane in water
40167
    1TCq1    O1    1   3.905   3.978  12.072  0.2090  0.6201 -0.9358
    1TCq1    C1    2   3.854   3.856  12.105  0.2309 -0.4395 -1.2741
    1TCq1    O2    3   3.871   3.798  12.212 -0.0547 -0.8290  0.2726
    1TCq1    C2    4   3.722   3.849  12.036 -0.4567 -0.0215 -0.2647
    1TCq1    C3    5   3.709   3.886  11.905 -0.1748 -0.4226 -0.2007
    1TCq1    C4    6   3.597   3.852  11.837 -0.4015 -0.1967 -0.5401
    1TCq1    C5    7   3.499   3.785  11.904  0.5717  0.1020 -0.5027
    1TCq1    C6    8   3.509   3.756  12.037  0.4918 -0.1910 -0.2473
    1TCq1    C7    9   3.626   3.786  12.107  0.3162 -0.3020  0.5216
    1TCq1    C8   10   3.408   3.678  12.099  0.1643 -0.2052  0.6346
    1TCq1    O4   11   3.318   3.635  12.027  0.3631  0.4745  0.8606
    1TCq1    C9   12   3.569   3.889  11.705 -0.1604 -0.0521 -0.2193
    1TCq1    O5   13   3.624   3.993  11.664  0.3500  0.0121  0.2693
    1TCq1    O6   14   3.507   3.811  11.632 -0.0528  0.0778  0.2459
    1TCq1    H1   15   3.892   4.029  11.989  1.5987  1.2811 -0.7550
    1TCq1    H2   16   3.785   3.944  11.854 -0.6701 -1.0511 -1.6503
    1TCq1    H3   17   3.406   3.770  11.850 -0.2001 -1.0307  1.1272
    1TCq1    H4   18   3.641   3.752  12.209 -0.1328 -1.0013  0.3515
    2MPD2     C   19   3.216   3.469  12.515 -0.3372  0.1898 -0.3761
    2MPD2    C1   20   3.188   3.439  12.382 -0.1679  0.4915 -0.3593
    2MPD2    C2   21   3.253   3.517  12.290 -0.1611  0.4560  0.5005
    2MPD2    C3   22   3.345   3.610  12.325  0.2804  0.5305 -0.3147
    2MPD2    C4   23   3.368   3.632  12.454 -0.1042  0.4097  0.2081
    2MPD2    C5   24   3.308   3.561  12.549  0.1794 -0.3797  0.0414
    2MPD2     H   25   3.226   3.477  12.193  0.6920 -2.3040  1.3909
    2MPD2    H1   26   3.442   3.704  12.487 -1.7504  0.7243  3.2664
    2MPD2    H2   27   3.174   3.411  12.596 -0.5524  1.2493  0.2859
    2MPD2    H3   28   3.330   3.588  12.652  0.6164  1.0273 -0.4261
    2MPD2     N   29   3.425   3.681  12.235 -0.4427 -0.6305 -0.0863
    2MPD2    H5   30   3.501   3.735  12.275  1.7822 -3.7021 -0.1365
    2MPD2    N1   31   3.093   3.340  12.335 -0.2484  0.0951  0.0847
    2MPD2    H7   32   3.076   3.343  12.235  1.3224  0.2234 -0.1867
    3TCq1    O1   33   1.938   4.251   9.413  0.2242  0.5934 -0.6216
    3TCq1    C1   34   2.001   4.366   9.366  0.5357 -0.3812  0.1524
    3TCq1    O2   35   2.092   4.373   9.289 -0.0756  0.0542  0.4671
    3TCq1    C2   36   1.995   4.450   9.488  0.1185  0.0193  0.0074
    3TCq1    C3   37   1.926   4.565   9.479  0.2341 -0.9479 -0.7435
    3TCq1    C4   38   1.862   4.611   9.593 -0.1743 -1.0023 -0.2604
    3TCq1    C5   39   1.868   4.548   9.713 -0.8220  0.5081  0.0743
    3TCq1    C6   40   1.944   4.430   9.713 -0.5394 -0.4872 -0.3082
    3TCq1    C7   41   1.997   4.376   9.603 -0.1382 -0.3957 -0.8003
    3TCq1    C8   42   1.973   4.352   9.840 -0.0879  0.3754  0.0360
    3TCq1    O4   43   2.006   4.237   9.830  0.3626 -0.2027  0.2074
    3TCq1    C9   44   1.785   0.012   9.582  0.3200 -0.1678 -0.2995
    3TCq1    O5   45   1.753   0.039   9.463  0.3360  0.0495  0.1146
    3TCq1    O6   46   1.736   0.078   9.680 -0.1937 -0.1166  0.2386
    3TCq1    H1   47   1.877   4.269   9.487 -0.5643 -2.6864 -0.4700
    3TCq1    H2   48   1.928   4.627   9.390  0.1020  2.1132  1.3979
    3TCq1    H3   49   1.832   4.601   9.801 -1.9002  1.4567 -0.9326
    3TCq1    H4   50   2.057   4.287   9.617 -1.2520 -1.1154 -0.6054
    4MPD2     C   51   1.924   4.271  10.347 -0.2507  0.1950 -0.2607
    4MPD2    C1   52   1.911   4.405  10.331  0.1911  0.4225 -0.0122
    4MPD2    C2   53   1.934   4.447  10.198 -0.1688 -0.4777 -0.2065
    4MPD2    C3   54   1.951   4.358  10.087 -0.2592  0.4630  0.8638
    4MPD2    C4   55   1.958   4.223  10.110  0.0163  0.0170 -0.3496
    4MPD2    C5   56   1.942   4.185  10.243  0.1392 -0.3595  0.9336
    4MPD2     H   57   1.933   4.553  10.172  1.1773  0.2041  2.5827
    4MPD2    H1   58   1.979   4.135  10.049 -2.7595 -0.2774 -0.8760
    4MPD2    H2   59   1.913   4.243  10.451  1.4487 -0.6693 -0.3210
    4MPD2    H3   60   1.950   4.083  10.278 -0.4893 -1.9219 -3.3823
    4MPD2     N   61   1.948   4.419   9.954 -0.7576  0.1601  0.0890
    4MPD2    H5   62   1.948   4.520   9.960  2.3072  0.1209  0.3524
    4MPD2    N1   63   1.887   4.498  10.441  0.1054 -0.5239  0.2140
    4MPD2    H7   64   1.858   4.593  10.424  0.6364 -0.6997 -1.6608
    5TCq1    O1   65   3.410   1.441  12.321 -0.0771 -0.4218  0.3713
    5TCq1    C1   66   3.350   1.331  12.264  0.0329  0.2129  0.2094
    5TCq1    O2   67   3.244   1.278  12.300  0.2610 -0.1964 -0.8838
    5TCq1    C2   68   3.423   1.301  12.147 -0.3875 -0.6493 -0.0578
    5TCq1    C3   69   3.473   1.398  12.063  0.3491  0.2000 -0.1544
    5TCq1    C4   70   3.491   1.362  11.929 -0.5694 -0.7921 -0.0141
    5TCq1    C5   71   3.464   1.236  11.882  0.0451  0.2938 -0.3726
    5TCq1    C6   72   3.398   1.151  11.967 -0.1106 -0.2735 -0.2967
    5TCq1    C7   73   3.385   1.185  12.097  0.3245  0.0474  0.2315
    5TCq1    C8   74   3.292   1.065  11.916 -0.2535  0.5189  0.2826
    5TCq1    O4   75   3.312   1.020  11.806  0.1857  1.0696 -0.2361
    5TCq1    C9   76   3.550   1.459  11.845 -0.1166 -0.0133 -0.0431
    5TCq1    O5   77   3.576   1.575  11.890 -0.1154  0.6784 -0.3784
    5TCq1    O6   78   3.567   1.432  11.720 -0.3243  0.1573 -0.4323
    5TCq1    H1   79   3.493   1.470  12.277 -0.4063  1.8998  1.3092
    5TCq1    H2   80   3.503   1.495  12.099 -0.1965  1.1961 -2.3540
    5TCq1    H3   81   3.465   1.214  11.776  3.2981 -0.2723 -0.2221
    5TCq1    H4   82   3.356   1.102  12.161  1.3158  0.7632  1.5926
    6MPD2     C   83   2.966   1.030  12.076 -0.1072 -0.1500 -0.3259
    6MPD2    C1   84   3.067   0.995  11.990  0.0627  0.0125  0.6047
    6MPD2    C2   85   3.039   0.895  11.893  0.3668  0.6288  0.3027
    6MPD2    C3   86   2.918   0.834  11.891 -0.7229 -0.0632 -0.3860
    6MPD2    C4   87   2.815   0.882  11.971  0.2781  1.2237 -0.0250
    6MPD2    C5   88   2.842   0.976  12.062 -0.0283 -0.1221  0.2544
    6MPD2     H   89   3.123   0.854  11.838 -0.5739  1.0737 -1.4406
    6MPD2    H1   90   2.715   0.842  11.975  0.4393  0.7841 -0.4483
    6MPD2    H2   91   2.970   1.103  12.155 -1.1027 -3.6144  2.9681
    6MPD2    H3   92   2.768   1.006  12.136 -1.3482 -2.1899 -0.2242
    6MPD2     N   93   2.900   0.713  11.814 -0.7746 -0.5101  0.2360
    6MPD2    H5   94   2.984   0.692  11.761 -0.3057 -0.6217  1.0216
    6MPD2    N1   95   3.185   1.068  12.004 -0.0039 -0.2534 -0.1892
    6MPD2    H7   96   3.189   1.129  12.085  1.6316  0.2683 -0.6655
    7TCq1    O1   97   0.403   1.008  12.407 -0.5073  0.4647 -0.0545
    7TCq1    C1   98   0.342   0.952  12.511  0.4259  0.1178  0.1746
    7TCq1    O2   99   0.303   1.003  12.613  1.0589 -0.2248  0.3961
    7TCq1    C2  100   0.358   0.804  12.506 -0.4454 -0.2003  0.6982
    7TCq1    C3  101   0.402   0.742  12.393 -0.8312  0.7541  0.5382
    7TCq1    C4  102   0.436   0.607  12.399  0.5171  0.3077 -0.4211
    7TCq1    C5  103   0.422   0.537  12.519  0.6339 -0.4893  0.4041
    7TCq1    C6  104   0.379   0.609  12.629 -0.0902  0.9615 -0.0765
    7TCq1    C7  105   0.346   0.742  12.625 -0.4621  0.0931 -0.4893
    7TCq1    C8  106   0.367   0.533  12.751 -0.0066 -0.2440 -0.8583
    7TCq1    O4  107   0.374   0.409  12.747 -0.2235  0.3734  0.0621
    7TCq1    C9  108   0.466   0.538  12.273 -0.2921  0.5617 -0.6732
    7TCq1    O5  109   0.505   0.420  12.276  0.6442 -0.1445 -0.2520
    7TCq1    O6  110   0.463   0.606  12.166 -0.0324  1.3449 -0.0868
    7TCq1    H1  111   0.454   0.951  12.345  1.9735  0.7752  1.7423
    7TCq1    H2  112   0.400   0.794  12.298  0.1267  1.0536  0.6781
    7TCq1    H3  113   0.454   0.433  12.526  1.4913 -0.1769  1.2280
    7TCq1    H4  114   0.306   0.795  12.711 -1.1604 -0.5912 -0.3916
    8MPD2     C  115   0.258   0.513  13.256  0.2149 -0.6420  0.0909
    8MPD2    C1  116   0.273   0.409  13.167 -0.0192  0.0157  0.1661
    8MPD2    C2  117   0.306   0.441  13.038 -1.0891  0.2679  0.2851
    8MPD2    C3  118   0.328   0.569  12.994 -0.1368  0.5326  0.0131
    8MPD2    C4  119   0.320   0.674  13.085 -0.3378 -0.4143  0.3383
    8MPD2    C5  120   0.296   0.637  13.212  0.2417 -0.2590  0.8718
    8MPD2     H  121   0.317   0.359  12.968  0.5207  0.1114  0.7336
    8MPD2    H1  122   0.352   0.772  13.051 -1.6449  0.2638  1.0780
    8MPD2    H2  123   0.238   0.501  13.362 -2.5415 -2.2728 -0.5970
    8MPD2    H3  124   0.297   0.717  13.285  0.4200  0.1071  0.4669
    8MPD2     N  125   0.347   0.613  12.857 -0.0401  0.1297  0.1160
    8MPD2    H5  126   0.358   0.714  12.855 -2.8587  0.4557  0.6125
    8MPD2    N1  127   0.262   0.283  13.221  0.0986 -0.0813  0.0453
    8MPD2    H7  128   0.211   0.278  13.309 -0.1562  0.1081 -0.0915
    9TCq1    O1  129   2.432   4.032  10.609 -0.3818 -0.0456  0.7575
    9TCq1    C1  130   2.483   4.102  10.510  0.4116 -0.2056  0.1755
    9TCq1    O2  131   2.408   4.141  10.418  0.0478  0.4096  0.0480
    9TCq1    C2  132   2.609   4.044  10.468  0.6491 -0.0505  0.1271
    9TCq1    C3  133   2.613   3.996  10.342  0.2171 -0.0924  0.0761
    9TCq1    C4  134   2.732   3.954  10.298 -0.1520 -0.1719 -0.5586
    9TCq1    C5  135   2.839   3.942  10.380  0.3734  0.7739  0.2557
    9TCq1    C6  136   2.822   3.974  10.512 -0.6116  0.3085  0.3608
    9TCq1    C7  137   2.707   4.029  10.562 -0.3406  0.1385 -0.1604
    9TCq1    C8  138   2.915   3.902  10.604  0.0993 -0.3252  0.1637
    9TCq1    O4  139   2.991   3.826  10.547 -0.1823  0.1867 -0.1044
    9TCq1    C9  140   2.739   3.928  10.159  0.1210  0.3624 -0.8673
    9TCq1    O5  141   2.841   3.871  10.117 -0.5100 -0.1220  0.6101
    9TCq1    O6  142   2.648   3.979  10.086 -0.3869 -0.0391  0.5361
    9TCq1    H1  143   2.507   3.984  10.651  2.0167 -0.7576 -4.3449
    9TCq1    H2  144   2.526   4.007  10.279  1.3929  1.3177 -1.3036
    9TCq1    H3  145   2.925   3.892  10.337  0.5353  2.2922 -1.1966
    9TCq1    H4  146   2.682   4.058  10.664 -1.8486 -2.6138  0.2698
   10MPD2     C  147   3.012   3.712  10.820 -0.0154  0.4350 -0.2702
   10MPD2    C1  148   2.937   3.826  10.840 -0.2449  0.8329 -0.2737
   10MPD2    C2  149   2.917   3.863  10.972 -0.1531  0.0403 -0.2306
   10MPD2    C3  150   2.964   3.787  11.075  0.1135  0.6560 -0.1146
   10MPD2    C4  151   3.041   3.681  11.049  0.0861  0.6492 -0.1102
   10MPD2    C5  152   3.060   3.638  10.925 -0.6230  0.1833 -0.3102
   10MPD2     H  153   2.885   3.965  10.989 -2.2808 -0.8448  1.0302
   10MPD2    H1  154   3.072   3.614  11.128 -0.7212 -0.2794 -0.5897
   10MPD2    H2  155   3.036   3.670  10.723 -0.6091  0.0776 -0.2661
   10MPD2    H3  156   3.129   3.555  10.912  0.0434  1.0240 -2.1422
   10MPD2     N  157   2.933   3.819  11.209  0.4217 -0.1584 -0.2395
   10MPD2    H5  158   2.980   3.769  11.284 -0.5286 -1.1881 -0.3401
   10MPD2    N1  159   2.893   3.918  10.737 -0.0304 -0.0967 -0.2039
   10MPD2    H7  160   2.831   3.993  10.766  0.3496 -0.4744  1.5955
   11TCq1    O1  161   3.676   4.079  15.091 -0.1879 -1.1246  0.2911
   11TCq1    C1  162   3.742   3.965  15.070  0.0077 -0.0705 -0.3466
   11TCq1    O2  163   3.790   3.889  15.147  0.8106  0.7567 -0.2144
   11TCq1    C2  164   3.738   3.914  14.931  0.2422 -0.0133 -0.2648
   11TCq1    C3  165   3.822   3.805  14.892 -1.4362 -0.0153  0.1639
   11TCq1    C4  166   3.809   3.762  14.765 -0.0829  0.2728 -0.0005
   11TCq1    C5  167   3.725   3.826  14.680  0.3928  0.1294 -0.0789
   11TCq1    C6  168   3.629   3.912  14.724 -0.2369  0.2624  0.1980
   11TCq1    C7  169   3.635   3.954  14.852 -0.1631  0.6963 -0.3924
   11TCq1    C8  170   3.517   3.954  14.644 -1.0258 -0.1847 -0.1050
   11TCq1    O4  171   3.457   4.056  14.665  1.0932 -0.1055  0.0853
   11TCq1    C9  172   3.895   3.661  14.716 -0.9023 -0.4518 -0.4722
   11TCq1    O5  173   3.981   3.613  14.798 -0.3029 -0.3156  0.0441
   11TCq1    O6  174   3.876   3.619  14.597  0.1091 -0.6300  0.4139
   11TCq1    H1  175   3.671   4.137  15.012 -2.2693 -3.3058 -1.1547
   11TCq1    H2  176   3.888   3.759  14.966 -1.8584 -1.2815 -0.2375
   11TCq1    H3  177   3.722   3.788  14.578 -1.7830  1.8408 -0.6637
   11TCq1    H4  178   3.549   4.014  14.882  0.3559  1.2590 -0.0477
   12MPD2     C  179   3.298   3.958  14.441  0.0318 -0.4916 -0.1576
   12MPD2    C1  180   3.374   3.849  14.469 -0.0322  0.5037  0.7171
   12MPD2    C2  181   3.358   3.735  14.388 -0.3786 -0.0998  0.1557
   12MPD2    C3  182   3.271   3.734  14.283  0.6275 -0.2600 -0.1761
   12MPD2    C4  183   3.184   3.839  14.272  0.0228  0.9216  0.0790
   12MPD2    C5  184   3.198   3.951  14.344 -0.0053  0.9583  0.3584
   12MPD2     H  185   3.415   3.645  14.411  1.1034  0.4501 -1.3495
   12MPD2    H1  186   3.115   3.849  14.189  0.2369 -1.5919 -0.4293
   12MPD2    H2  187   3.315   4.055  14.484  0.5978  0.0306 -1.5508
   12MPD2    H3  188   3.138   4.035  14.312  0.0776  1.2089  0.8538
   12MPD2     N  189   3.270   3.623  14.206 -0.4226 -0.5606  0.3097
   12MPD2    H5  190   3.338   3.549  14.221 -1.2758 -1.2206  0.9453
   12MPD2    N1  191   3.482   3.844  14.563  0.0455 -0.7525  0.3670
   12MPD2    H7  192   3.535   3.758  14.574  0.4207 -0.8143 -1.9121
   13TCq1    O1  193   2.896   3.624  10.117  0.2961 -0.1083 -0.2312
   13TCq1    C1  194   2.921   3.603  10.253 -0.1155  0.0465 -0.3572
   13TCq1    O2  195   3.008   3.529  10.300  0.0108  0.1083  0.4188
   13TCq1    C2  196   2.791   3.587  10.318  0.0213 -0.1519  0.3657
   13TCq1    C3  197   2.672   3.601  10.247  0.8869  0.4738 -0.3758
   13TCq1    C4  198   2.560   3.604  10.323 -1.3227  0.7519 -0.5803
   13TCq1    C5  199   2.560   3.586  10.459  0.6552  0.0566 -0.5763
   13TCq1    C6  200   2.685   3.570  10.519 -0.8599  0.1482 -0.4096
   13TCq1    C7  201   2.799   3.559  10.451 -0.2925 -0.4959 -0.1625
   13TCq1    C8  202   2.676   3.538  10.661  0.2343  0.6029  0.4960
   13TCq1    O4  203   2.578   3.577  10.721  0.1347 -0.2751 -0.0503
   13TCq1    C9  204   2.433   3.614  10.258 -0.7382 -0.8150  0.9452
   13TCq1    O5  205   2.330   3.579  10.319  0.0328  0.5487  0.2023
   13TCq1    O6  206   2.431   3.664  10.145 -0.3487  0.6967 -0.0197
   13TCq1    H1  207   2.851   3.711  10.117 -0.1719 -0.3497 -0.4468
   13TCq1    H2  208   2.668   3.603  10.139 -2.1686 -0.2955 -0.2780
   13TCq1    H3  209   2.463   3.586  10.509  1.2848  3.5541  0.5955
   13TCq1    H4  210   2.892   3.551  10.508  0.0953 -0.9814 -0.8584
   14MPD2     C  211   2.881   3.318  10.891  0.5491 -0.5199  0.4529
   14MPD2    C1  212   2.776   3.398  10.846  0.7054 -0.6075 -0.6333
   14MPD2    C2  213   2.664   3.401  10.923  0.2951 -0.4875 -0.0759
   14MPD2    C3  214   2.648   3.326  11.035 -0.2223  0.5203 -0.2019
   14MPD2    C4  215   2.759   3.252  11.078  0.5474 -0.8577  0.3338
   14MPD2    C5  216   2.877   3.259  11.007 -0.1353 -0.1507  0.5439
   14MPD2     H  217   2.579   3.465  10.902  0.0191 -1.1160 -0.8840
   14MPD2    H1  218   2.753   3.195  11.170  1.7150 -1.4095  0.0706
   14MPD2    H2  219   2.976   3.321  10.838 -0.5951  0.4124 -1.5530
   14MPD2    H3  220   2.969   3.208  11.031  0.9622  0.7602 -1.7364
   14MPD2     N  221   2.519   3.318  11.100 -0.2391  0.2604 -0.3482
   14MPD2    H5  222   2.448   3.381  11.065  1.7775  2.3419 -0.7387
   14MPD2    N1  223   2.778   3.455  10.716 -0.3670 -0.3162  0.0426
   14MPD2    H7  224   2.853   3.421  10.658  0.0687 -0.9381  0.9653
   15TCq1    O1  225   4.574   3.328   2.844  0.2576  0.3303 -0.3743
   15TCq1    C1  226   4.557   3.230   2.755 -0.0849 -0.1279 -0.6994
   15TCq1    O2  227   4.631   3.132   2.727 -0.7576  0.7814  0.4462
   15TCq1    C2  228   4.457   3.260   2.661 -0.5131 -0.4947 -0.1088
   15TCq1    C3  229   4.354   3.347   2.691 -0.6223 -1.0684 -0.1035
   15TCq1    C4  230   4.273   3.386   2.582  0.6834  0.0919  0.0401
   15TCq1    C5  231   4.277   3.333   2.458  0.3268  0.1923  0.5274
   15TCq1    C6  232   4.384   3.252   2.431  0.7411 -0.1900  0.2099
   15TCq1    C7  233   4.468   3.208   2.531 -0.2397 -0.2438  0.2886
   15TCq1    C8  234   4.409   3.194   2.304 -0.1176  0.2851 -0.0737
   15TCq1    O4  235   4.476   3.094   2.298 -0.1692  0.0453 -0.0109
   15TCq1    C9  236   4.174   3.486   2.607 -0.7666 -0.3221 -0.3068
   15TCq1    O5  237   4.157   3.529   2.726  0.1850  0.4980 -0.0449
   15TCq1    O6  238   4.129   3.543   2.504 -0.0897 -0.1485 -0.4075
   15TCq1    H1  239   4.530   3.408   2.808 -1.6318  0.1201  1.5111
   15TCq1    H2  240   4.338   3.379   2.793 -0.7255 -0.6582 -0.2475
   15TCq1    H3  241   4.206   3.373   2.386 -0.9030  0.3052  1.8049
   15TCq1    H4  242   4.564   3.160   2.517 -0.0198  0.2947 -0.0752
   16MPD2     C  243   4.276   3.286   1.974 -0.5854  0.8721 -0.4191
   16MPD2    C1  244   4.358   3.218   2.059  0.1779 -0.1894  0.2962
   16MPD2    C2  245   4.443   3.114   2.009  0.4563 -0.0479  0.3269
   16MPD2    C3  246   4.428   3.069   1.879 -0.2090 -0.0386 -0.0514
   16MPD2    C4  247   4.338   3.136   1.795  0.8519  0.0131 -0.9054
   16MPD2    C5  248   4.272   3.245   1.844 -0.4066 -0.6127  0.2729
   16MPD2     H  249   4.519   3.071   2.074  0.6215 -1.6888 -0.9611
   16MPD2    H1  250   4.328   3.103   1.692 -0.9076 -1.9452 -0.1039
   16MPD2    H2  251   4.210   3.364   2.010 -1.7259 -0.6537  0.7951
   16MPD2    H3  252   4.212   3.305   1.776  0.8468  1.4338  0.9568
   16MPD2     N  253   4.524   2.971   1.840  0.3306  0.2458  0.1339
   16MPD2    H5  254   4.589   2.936   1.909  1.1949  0.3585 -0.6248
   16MPD2    N1  255   4.343   3.252   2.200  0.1275 -0.4371  0.1765
   16MPD2    H7  256   4.282   3.329   2.226 -0.6238 -2.2798  3.8218
   17TCq1    O1  257   1.622   3.608  10.958  0.4668  0.1458 -0.3899
   17TCq1    C1  258   1.648   3.483  10.919 -0.2524  0.7474  0.0446
   17TCq1    O2  259   1.608   3.388  10.987 -0.5744 -0.0790  0.5913
   17TCq1    C2  260   1.769   3.484  10.849 -0.0165  0.3879  0.1112
   17TCq1    C3  261   1.805   3.596  10.780  0.4664  0.2900 -0.1930
   17TCq1    C4  262   1.937   3.608  10.731  1.4743  0.6667 -0.1741
   17TCq1    C5  263   2.032   3.520  10.762 -0.5563  0.3795  0.6948
   17TCq1    C6  264   1.993   3.406  10.828  0.2150  0.2832 -0.2665
   17TCq1    C7  265   1.863   3.385  10.877  0.0868 -0.5284  1.0324
   17TCq1    C8  266   2.087   3.300  10.849 -0.2449  0.7059 -0.5591
   17TCq1    O4  267   2.051   3.222  10.934  0.3073  0.4332  0.1756
   17TCq1    C9  268   1.973   3.727  10.664  0.4702  0.0180  0.2540
   17TCq1    O5  269   2.091   3.756  10.628  0.3389 -0.0520  0.1791
   17TCq1    O6  270   1.879   3.803  10.632 -0.4380  0.1537 -0.5490
   17TCq1    H1  271   1.638   3.669  10.883 -0.6318  0.0827 -0.6800
   17TCq1    H2  272   1.722   3.656  10.743  1.6456  0.4277 -2.6379
   17TCq1    H3  273   2.135   3.537  10.734  0.2540 -0.2133  3.3340
   17TCq1    H4  274   1.825   3.296  10.926 -0.8692 -0.4597  0.4316
   18MPD2     C  275   2.321   3.127  10.887  0.2242  0.4126  0.2636
   18MPD2    C1  276   2.304   3.216  10.781 -0.2559 -0.5808 -0.3721
   18MPD2    C2  277   2.398   3.211  10.680 -0.1701 -0.3752  0.1038
   18MPD2    C3  278   2.504   3.125  10.685 -0.0093 -0.5105 -0.5393
   18MPD2    C4  279   2.524   3.042  10.791 -0.5737 -0.6072 -0.5677
   18MPD2    C5  280   2.432   3.047  10.900 -0.1639  0.3955  0.7319
   18MPD2     H  281   2.383   3.282  10.600 -0.5339  0.5452  0.9888
   18MPD2    H1  282   2.610   2.976  10.796 -0.8841 -0.9624  0.0659
   18MPD2    H2  283   2.253   3.119  10.971 -0.1260 -0.6625 -0.1227
   18MPD2    H3  284   2.447   2.985  10.988  1.1191 -0.7939 -0.3146
   18MPD2     N  285   2.604   3.121  10.586 -0.9145  0.6023 -0.2434
   18MPD2    H5  286   2.681   3.056  10.601 -1.3386  0.0031 -0.6536
   18MPD2    N1  287   2.199   3.301  10.766  0.2362  0.5996 -0.2198
   18MPD2    H7  288   2.198   3.370  10.691  1.2621 -1.0170 -1.7076
   19TMC2    C1  289   4.669   3.376  14.174 -0.0347  0.0449 -0.3067
   19TMC2    C2  290   4.582   3.480  14.157  0.3057  0.1960  0.3218
   19TMC2    C3  291   4.454   3.478  14.183 -0.2817  0.2326  0.0244
   19TMC2    C4  292   4.616   3.258  14.208  0.7650 -0.3943  0.4552
   19TMC2    C5  293   4.475   3.254  14.226 -0.2372 -0.2360 -0.7269
   19TMC2    C6  294   4.393   3.363  14.218  0.0513 -0.4631 -0.4855
   19TMC2     C  295   0.084   3.403  14.182 -0.0226  0.2584  0.4414
   19TMC2     O  296   0.119   3.515  14.147  0.2123 -0.8585  0.4755
   19TMC2     H  297   4.620   3.581  14.147  1.0370 -0.2355 -1.1322
   19TMC2    H1  298   4.671   3.166  14.197 -0.3760 -0.6908 -2.8163
   19TMC2    H2  299   4.289   3.358  14.247  0.4022  3.6505  1.5430
   19TMC2    C7  300   4.397   3.134  14.242  0.2307 -0.1532  0.2958
   19TMC2    C8  301   4.378   3.587  14.129  0.4209  0.1464 -0.4770
   19TMC2    O1  302   4.273   3.146  14.252 -0.3657  0.1510 -0.1274
   19TMC2    O2  303   4.396   3.698  14.174 -0.2384  0.0811 -0.7328
   19TMC2    O5  304   4.366   3.558  13.997 -0.7308  0.5825 -0.2491
   19TMC2    H5  305   4.348   3.462  13.985  0.6496  0.1994  0.7665
   20MPD2     C  306   0.389   3.399  14.200 -0.6312 -0.4900 -0.8478
   20MPD2    C1  307   0.301   3.312  14.266  0.0104 -0.0520  0.8573
   20MPD2    C2  308   0.369   3.213  14.351  0.1299  0.2268  0.4612
   20MPD2    C3  309   0.502   3.228  14.386 -0.2125  1.2963 -0.0927
   20MPD2    C4  310   0.580   3.317  14.314 -0.5367  0.1287 -0.2144
   20MPD2    C5  311   0.519   3.397  14.226 -0.2807  0.0210 -0.2028
   20MPD2     H  312   0.298   3.151  14.405 -1.1068 -0.5745 -2.0818
   20MPD2    H1  313   0.687   3.316  14.330 -0.2754 -1.8955 -2.1965
   20MPD2    H2  314   0.344   3.466  14.128  1.3265  0.6414 -1.0126
   20MPD2    H3  315   0.581   3.467  14.171 -0.8045  1.1510  0.6617
   20MPD2     N  316   0.568   3.150  14.484  0.2524  0.5285  0.1810
   20MPD2    H5  317   0.663   3.178  14.505  1.3614 -2.9235 -0.2450
   20MPD2    N1  318   0.156   3.316  14.254  0.4468 -0.5603  0.3029
   20MPD2    H7  319   0.109   3.247  14.312 -0.8700  1.4090  1.5745
   21MPD2     C  320   2.542   4.099  14.047  0.4503 -0.6071  0.3988
   21MPD2    C1  321   2.568   3.969  14.069 -1.2885  0.4382 -0.1775
   21MPD2    C2  322   2.491   3.867  14.011  0.5262  0.0834 -0.3271
   21MPD2    C3  323   2.369   3.894  13.964 -0.6133 -0.2853  0.7396
   21MPD2    C4  324   2.334   4.022  13.946  0.7814  0.1156  0.1190
   21MPD2    C5  325   2.422   4.120  13.979 -0.5882  0.1900  0.3092
   21MPD2     H  326   2.516   3.765  14.039  0.0376  0.8227  2.7436
   21MPD2    H1  327   2.247   4.052  13.888 -0.4251 -1.1133  1.2615
   21MPD2    H2  328   2.600   4.177  14.095 -1.8833  2.8180 -2.4358
   21MPD2    H3  329   2.382   4.221  13.977  0.3668  0.5618 -0.3159
   21MPD2     N  330   2.278   3.788  13.939 -0.5547 -0.0901  0.5257
   21MPD2    H5  331   2.181   3.816  13.930  0.0203  1.4581 -0.9640
   21MPD2    N1  332   2.676   3.924  14.159 -0.8765  0.3568  0.2577
   21MPD2    H7  333   2.677   3.823  14.167 -1.7015  0.5666  3.0024
   22TCq2    C1  334   2.297   3.655  13.946 -0.0048  0.3352  0.3176
   22TCq2    O2  335   2.404   3.594  13.933  0.4207 -0.0601 -0.6503
   22TCq2    C2  336   2.187   3.585  14.019  0.3767  0.4406 -0.0478
   22TCq2    C3  337   2.208   3.449  14.040 -0.2321  0.2607  0.7817
   22TCq2    C4  338   2.188   3.395  14.168  0.0808  1.5201 -0.0564
   22TCq2    C5  339   2.116   3.459  14.261 -0.1992  0.9681  0.5320
   22TCq2    C6  340   2.086   3.584  14.230  0.1040  0.7861  0.1157
   22TCq2    C7  341   2.110   3.644  14.109 -0.6015 -0.2343 -0.0299
   22TCq2    C8  342   2.042   3.672  14.343  0.1079  0.1839  0.0006
   22TCq2    O4  343   2.078   3.653  14.459  0.1379 -0.1475 -0.3323
   22TCq2    C9  344   2.237   3.262  14.202 -0.2736  0.7132 -0.7922
   22TCq2    O5  345   2.277   3.195  14.105 -0.1613  0.0407  0.0380
   22TCq2    O6  346   2.250   3.231  14.323  0.0899  0.1354  0.0945
   22TCq2    H2  347   2.264   3.400  13.961 -1.0869 -1.1443  1.0637
   22TCq2    H3  348   2.087   3.409  14.353 -1.8119  1.3073  0.2189
   22TCq2    H4  349   2.097   3.752  14.103 -1.1974 -0.5156 -3.3937
   23MPD2     C  350   4.243   4.674  14.638 -0.0647 -0.1205  0.1342
   23MPD2    C1  351   4.170   0.019  14.735 -0.5384  0.7020 -0.3366
   23MPD2    C2  352   4.073   0.115  14.694  0.4126 -0.4309 -0.0989
   23MPD2    C3  353   4.062   0.148  14.559 -0.0608  0.2857 -0.0996
   23MPD2    C4  354   4.143   0.088  14.469 -0.1814  0.1283 -0.2041
   23MPD2    C5  355   4.234   4.712  14.504  0.0482  0.4914  0.4454
   23MPD2     H  356   4.005   0.159  14.766  0.3118 -0.8303  0.0462
   23MPD2    H1  357   4.137   0.106  14.363  0.0071 -2.7648 -0.7039
   23MPD2    H2  358   4.310   4.591  14.660 -0.2830 -0.3054  0.1009
   23MPD2    H3  359   4.296   4.663  14.430 -1.4511 -1.8084  0.6933
   23MPD2     N  360   3.976   0.249  14.512 -0.0793  1.0509 -0.4858
   23MPD2    H5  361   3.982   0.273  14.414  1.9984  0.2336 -0.5646
   23MPD2    N1  362   4.177   4.714  14.872 -0.0610 -0.3776 -0.2112
   23MPD2    H7  363   4.125   0.052  14.935  0.2018 -0.0984 -0.2618
   24TCq2    C1  364   3.857   0.292  14.576 -0.2748 -0.8800 -0.7781
   24TCq2    O2  365   3.806   0.246  14.673  0.6587 -0.4857  0.8342
   24TCq2    C2  366   3.771   0.379  14.488 -1.4206  0.1154 -0.4670
   24TCq2    C3  367   3.838   0.444  14.386  1.4676 -0.7243 -0.0408
   24TCq2    C4  368   3.770   0.480  14.270  0.4411 -0.4861 -0.0465
   24TCq2    C5  369   3.638   0.460  14.269  0.5607  0.2492  0.3620
   24TCq2    C6  370   3.572   0.392  14.365  0.5154  0.3405 -0.8188
   24TCq2    C7  371   3.635   0.350  14.478  0.1364 -0.2377  0.1669
   24TCq2    C8  372   3.444   0.337  14.337  0.4012 -0.1157 -0.0033
   24TCq2    O4  373   3.438   0.297  14.224  0.1158 -0.0008  0.1109
   24TCq2    C9  374   3.841   0.534  14.162  0.5183 -0.2278  0.2056
   24TCq2    O5  375   3.956   0.570  14.186 -0.0282  0.0531  0.1991
   24TCq2    O6  376   3.792   0.536  14.049  0.0444  0.5770  0.1549
   24TCq2    H2  377   3.943   0.467  14.384  1.2211  0.3349 -0.7403
   24TCq2    H3  378   3.575   0.486  14.185  0.6596 -1.3448 -0.2075
   24TCq2    H4  379   3.579   0.286  14.545  2.5376 -1.1417  1.3062
   25TMC2    C1  380   2.527   2.466  11.630 -0.1485  0.2594  0.0538
   25TMC2    C2  381   2.629   2.552  11.660  0.2044  0.4429  0.0424
   25TMC2    C3  382   2.633   2.618  11.781  0.2035  0.3526  0.4755
   25TMC2    C4  383   2.438   2.431  11.726  0.2192 -0.6106 -0.2094
   25TMC2    C5  384   2.452   2.490  11.848  0.1158 -0.3858  0.3747
   25TMC2    C6  385   2.541   2.586  11.882 -0.1704  0.2600 -0.4469
   25TMC2     C  386   2.526   2.411  11.498 -0.1031  0.2156 -0.6605
   25TMC2     O  387   2.613   2.455  11.428  0.0236 -0.4699 -0.4293
   25TMC2     H  388   2.711   2.580  11.594 -0.1855  0.8293 -0.2791
   25TMC2    H1  389   2.364   2.354  11.707 -0.1150  0.0751 -1.7225
   25TMC2    H2  390   2.542   2.636  11.978 -0.9275 -2.2085  0.8473
   25TMC2    C7  391   2.355   2.472  11.945  0.0073  0.4163 -0.2704
   25TMC2    C8  392   2.767   2.624  11.845 -0.0270 -0.0159 -0.1186
   25TMC2    O1  393   2.392   2.492  12.057  0.1488  0.4439  0.0490
   25TMC2    O2  394   2.792   2.546  11.937  0.1203  0.3104  0.0353
   25TMC2    O5  395   2.858   2.663  11.750 -0.3913 -0.3903 -0.2628
   25TMC2    H5  396   2.813   2.724  11.687 -0.3572 -0.4159 -0.3118
   26MPD2     C  397   2.408   2.103  11.103 -0.5646  0.2570 -0.3190
   26MPD2    C1  398   2.340   2.067  11.215 -0.3265  0.7070 -0.3879
   26MPD2    C2  399   2.341   2.149  11.329  0.0336 -0.2377  0.0181
   26MPD2    C3  400   2.429   2.250  11.339  0.2848 -0.6717 -0.6546
   26MPD2    C4  401   2.506   2.287  11.230 -0.2777  0.1120  0.3981
   26MPD2    C5  402   2.491   2.214  11.111  0.1215  0.2381 -0.2661
   26MPD2     H  403   2.272   2.117  11.407 -1.1191  0.2245 -0.8019
   26MPD2    H1  404   2.578   2.368  11.224  0.7092 -0.6218  2.5696
   26MPD2    H2  405   2.401   2.048  11.010 -0.6837 -0.3481  0.0513
   26MPD2    H3  406   2.555   2.235  11.026  0.6172  0.6425  0.2033
   26MPD2     N  407   2.433   2.320  11.461 -0.0926 -0.4105  0.1720
   26MPD2    H5  408   2.355   2.299  11.523 -0.2083 -0.0509  0.1542
   26MPD2    N1  409   2.269   1.946  11.197  0.4033  0.0434  0.0042
   26MPD2    H7  410   2.291   1.895  11.112  0.0138  0.6193 -0.4405
   27TMC2    C1  411   1.329   4.179  11.925  0.3584  0.3354  0.5423
   27TMC2    C2  412   1.454   4.159  11.869 -0.2875  0.4038  0.1566
   27TMC2    C3  413   1.514   4.266  11.813  0.0270  0.2677 -0.2596
   27TMC2    C4  414   1.265   4.302  11.922 -0.2228  0.0816 -0.2763
   27TMC2    C5  415   1.326   4.406  11.846 -0.3063  0.3893 -0.0069
   27TMC2    C6  416   1.446   4.384  11.791  0.1427 -0.4934  0.0643
   27TMC2     C  417   1.277   4.080  12.017  0.1016  0.0685  0.2668
   27TMC2     O  418   1.342   3.974  12.019  0.2188  0.3850 -0.9468
   27TMC2     H  419   1.506   4.070  11.902  0.3732  0.3791 -0.9467
   27TMC2    H1  420   1.171   4.314  11.974  0.4105 -0.0310  0.8994
   27TMC2    H2  421   1.499   4.466  11.743  1.3753 -1.5286 -0.3397
   27TMC2    C7  422   1.287   4.541  11.887 -0.4609  0.0389 -0.0632
   27TMC2    C8  423   1.663   4.270  11.801 -0.4498  0.6599  0.2800
   27TMC2    O1  424   1.239   4.619  11.808  0.1987 -0.4086  0.3898
   27TMC2    O2  425   1.742   4.249  11.893 -0.0300 -0.4441 -0.6336
   27TMC2    O5  426   1.685   4.340  11.684  0.6762 -0.2756  0.5609
   27TMC2    H5  427   1.603   4.334  11.630  0.8907  0.7974  0.1194
   28MPD2     C  428   0.940   3.847  12.321  0.7587  0.3661  0.0788
   28MPD2    C1  429   0.906   3.976  12.312  0.0135  0.2627  0.2356
   28MPD2    C2  430   0.984   4.061  12.237 -0.4380  0.4712  0.2714
   28MPD2    C3  431   1.093   4.020  12.166 -0.9564 -0.8424 -0.0260
   28MPD2    C4  432   1.128   3.884  12.186  0.2241  0.7218 -0.3260
   28MPD2    C5  433   1.051   3.799  12.257  0.5924 -1.0244  0.2375
   28MPD2     H  434   0.949   4.163  12.225 -3.6989 -0.7121 -0.4468
   28MPD2    H1  435   1.220   3.850  12.140  0.0543 -0.3423  0.1098
   28MPD2    H2  436   0.877   3.777  12.375  1.4832  0.3389  0.8825
   28MPD2    H3  437   1.079   3.698  12.284  0.7809 -1.2072 -0.6445
   28MPD2     N  438   1.162   4.111  12.083  0.1888  0.5234  0.1499
   28MPD2    H5  439   1.114   4.200  12.073 -1.5580 -0.3756  0.3647
   28MPD2    N1  440   0.792   4.020  12.382 -0.0734 -0.1213 -0.0004
   28MPD2    H7  441   0.739   3.946  12.428  0.4156 -0.3896  0.1288
   29MPD2     C  442   0.580   1.636  14.076 -0.0131 -0.3829 -0.3005
   29MPD2    C1  443   0.709   1.629  14.142 -0.0216  0.8289 -0.3751
   29MPD2    C2  444   0.743   1.730  14.234  0.2749 -0.3359  0.0612
   29MPD2    C3  445   0.664   1.846  14.252  0.0287 -0.6007 -0.7888
   29MPD2    C4  446   0.556   1.857  14.177 -0.0506  0.4502 -0.5427
   29MPD2    C5  447   0.510   1.756  14.093 -0.1269  0.0229  0.5575
   29MPD2     H  448   0.831   1.724  14.298 -0.2344 -1.7152  0.6279
   29MPD2    H1  449   0.486   1.938  14.190 -0.1315  0.2548  0.2694
   29MPD2    H2  450   0.556   1.562  14.001 -1.6794 -0.8158  0.6624
   29MPD2    H3  451   0.425   1.778  14.029  0.4142  1.6062  0.3653
   29MPD2     N  452   0.691   1.936  14.356 -0.3131 -0.1755  0.1714
   29MPD2    H5  453   0.654   2.029  14.340  0.4866  0.2613  0.8375
   29MPD2    N1  454   0.806   1.529  14.132 -0.1968 -0.5265 -0.0880
   29MPD2    H7  455   0.898   1.557  14.164  0.3446 -0.3520 -1.7965
   30TCq2    C1  456   0.765   1.915  14.473 -0.0892 -0.4618  0.1430
   30TCq2    O2  457   0.805   1.809  14.519 -0.2765 -0.3328 -0.1030
   30TCq2    C2  458   0.772   2.034  14.554  0.0269  0.1025 -0.8459
   30TCq2    C3  459   0.792   2.022  14.691 -0.1799 -0.2718 -0.3449
   30TCq2    C4  460   0.849   2.129  14.767 -0.7554 -0.4924 -0.5784
   30TCq2    C5  461   0.886   2.248  14.701  0.4215  0.3667 -0.6596
   30TCq2    C6  462   0.862   2.249  14.564 -0.4107  0.6252 -0.7323
   30TCq2    C7  463   0.805   2.150  14.498  0.5950  0.6337  0.0354
   30TCq2    C8  464   0.885   2.375  14.497 -0.1371 -0.3948 -0.2708
   30TCq2    O4  465   0.838   2.392  14.387 -0.3167  0.3324 -0.1009
   30TCq2    C9  466   0.889   2.108  14.899  0.1504  0.6495  0.5857
   30TCq2    O5  467   0.842   2.005  14.953  0.0829 -0.8659  0.1826
   30TCq2    O6  468   0.963   2.188  14.956 -0.5625 -1.2313  0.0119
   30TCq2    H2  469   0.777   1.926  14.740 -0.2291 -1.1918 -2.1930
   30TCq2    H3  470   0.929   2.328  14.761  0.3818  0.6389 -0.9922
   30TCq2    H4  471   0.804   2.160  14.390  0.8637 -0.3696 -0.0605
   31MPD2     C  472   3.664   0.824  14.995  0.2736 -0.0856  0.3214
   31MPD2    C1  473   3.536   0.874  14.979 -0.1117 -0.3771 -0.4555
   31MPD2    C2  474   3.446   0.861  15.090  0.2169  0.2015  0.1487
   31MPD2    C3  475   3.480   0.800  15.206  0.0363  0.0221 -0.4212
   31MPD2    C4  476   3.607   0.742  15.212 -0.7735  0.1473  1.0983
   31MPD2    C5  477   3.700   0.765  15.115  0.3724 -0.4107  0.2444
   31MPD2     H  478   3.343   0.891  15.074  0.1243 -0.8769 -1.3820
   31MPD2    H1  479   3.636   0.690  15.302 -0.8255 -0.5044  0.7376
   31MPD2    H2  480   3.732   0.830  14.910 -0.0992  0.0688  0.0363
   31MPD2    H3  481   3.799   0.722  15.125  0.8580  0.6275 -0.1597
   31MPD2     N  482   3.382   0.777  15.307 -0.4852 -0.6265 -0.0114
   31MPD2    H5  483   3.404   0.706  15.377  1.0868 -1.1463 -1.0318
   31MPD2    N1  484   3.504   0.937  14.860 -0.1407  0.2209  0.1734
   31MPD2    H7  485   3.584   0.941  14.797  1.3897 -3.0976  1.8903
   32TCq2    C1  486   3.246   0.824  15.307 -0.1607  0.7289  0.0208
   32TCq2    O2  487   3.197   0.916  15.243 -0.4124 -0.5129 -0.7646
   32TCq2    C2  488   3.151   0.755  15.402 -0.6711  1.0232  0.1704
   32TCq2    C3  489   3.028   0.812  15.408  0.8747  0.8330 -0.1958
   32TCq2    C4  490   2.929   0.763  15.490 -0.3524 -0.1921 -0.3009
   32TCq2    C5  491   2.965   0.676  15.587  0.1558 -0.0247  0.4970
   32TCq2    C6  492   3.093   0.629  15.586  0.2390  0.3170  0.2080
   32TCq2    C7  493   3.193   0.668  15.500  0.6789  0.3724 -0.1306
   32TCq2    C8  494   3.142   0.584  15.714  0.3189  0.9308 -0.4135
   32TCq2    O4  495   3.261   0.551  15.721  0.3626  0.2315  0.6881
   32TCq2    C9  496   2.796   0.816  15.488  0.3085  0.0073  0.0832
   32TCq2    O5  497   2.743   0.805  15.603 -0.1358  0.3425  0.4994
   32TCq2    O6  498   2.768   0.908  15.407 -0.5861 -0.2382  0.1793
   32TCq2    H2  499   3.009   0.891  15.337  0.3961  0.8126 -0.0945
   32TCq2    H3  500   2.890   0.630  15.650 -0.0115  0.2328  0.4877
   32TCq2    H4  501   3.286   0.612  15.498  0.3820 -0.1029 -0.7980
   33MPD2     C  502   2.644   3.398   9.794  0.5080  0.3132  0.3581
   33MPD2    C1  503   2.762   3.393   9.863 -0.1985 -0.4537 -0.1786
   33MPD2    C2  504   2.876   3.451   9.801  0.0358 -0.0257  0.4926
   33MPD2    C3  505   2.871   3.501   9.673  0.2254  0.7771  0.4167
   33MPD2    C4  506   2.752   3.491   9.607 -0.7026  0.4145  0.2140
   33MPD2    C5  507   2.638   3.441   9.664 -0.0506  0.3772 -0.1570
   33MPD2     H  508   2.973   3.444   9.850  0.7619  0.9119 -0.8029
   33MPD2    H1  509   2.754   3.518   9.502  2.8613 -0.6341  0.0090
   33MPD2    H2  510   2.555   3.378   9.853 -1.5049  1.3285 -2.3871
   33MPD2    H3  511   2.545   3.440   9.609 -0.0158 -0.1398 -0.2023
   33MPD2     N  512   2.983   3.557   9.601  0.7120  0.3966  0.1599
   33MPD2    H5  513   2.980   3.575   9.501  0.7293  0.7053  0.2147
   33MPD2    N1  514   2.759   3.326   9.990  0.0315 -0.1502 -0.1592
   33MPD2    H7  515   2.666   3.322  10.030 -0.0118 -1.3418 -0.3939
   34TCq2    C1  516   3.101   3.594   9.660 -0.0383  0.0765 -0.5760
   34TCq2    O2  517   3.123   3.617   9.779  0.1512 -0.4528 -0.4111
   34TCq2    C2  518   3.213   3.605   9.564  0.8699  0.3958  0.1547
   34TCq2    C3  519   3.194   3.558   9.432  0.1850 -0.4051  0.1767
   34TCq2    C4  520   3.304   3.549   9.354 -0.8268 -0.1625 -0.0693
   34TCq2    C5  521   3.433   3.564   9.410  0.5034  0.3053 -0.0683
   34TCq2    C6  522   3.447   3.596   9.543  0.0783  0.3424  0.4471
   34TCq2    C7  523   3.340   3.632   9.617 -0.3712  0.5971  1.1619
   34TCq2    C8  524   3.577   3.567   9.603  0.3385 -0.0981 -0.3754
   34TCq2    O4  525   3.658   3.508   9.530 -0.0763 -0.1852 -0.6692
   34TCq2    C9  526   3.288   3.517   9.211  0.4502  0.3914 -0.2673
   34TCq2    O5  527   3.175   3.474   9.169  0.0295  0.1484 -0.1970
   34TCq2    O6  528   3.397   3.499   9.143 -0.4922  0.5970 -0.6807
   34TCq2    H2  529   3.100   3.524   9.390 -0.1826 -0.1848  0.8214
   34TCq2    H3  530   3.514   3.541   9.342  0.4411  1.4123 -0.5168
   34TCq2    H4  531   3.349   3.642   9.725 -1.0349 -0.8086  1.3431
   35MPD2     C  532   4.481   0.027  11.809  0.2259 -0.1458  0.2888
   35MPD2    C1  533   4.521   4.615  11.817  0.3570  0.2374 -0.6869
   35MPD2    C2  534   4.450   4.512  11.758 -0.8434 -0.1722  0.6597
   35MPD2    C3  535   4.328   4.544  11.704  0.2714  0.5801  0.2970
   35MPD2    C4  536   4.293   4.672  11.696 -0.2385  0.2968 -0.1134
   35MPD2    C5  537   4.365   0.054  11.741 -0.4313  0.4164 -0.4480
   35MPD2     H  538   4.482   4.408  11.760 -1.3028 -0.3125  0.7793
   35MPD2    H1  539   4.196   4.698  11.656 -0.2741 -1.6749 -1.3179
   35MPD2    H2  540   4.528   0.112  11.856  1.0742 -0.3425 -0.2075
   35MPD2    H3  541   4.334   0.157  11.726  0.5648  0.5392 -1.6360
   35MPD2     N  542   4.246   4.437  11.654  0.1842 -0.2895  0.4052
   35MPD2    H5  543   4.278   4.343  11.677  0.4560 -1.3660 -4.2970
   35MPD2    N1  544   4.639   4.590  11.891  0.1093  0.0297 -0.3540
   35MPD2    H7  545   4.685   4.670  11.934 -0.0948  0.5068 -1.0419
   36TCq2    C1  546   4.118   4.451  11.594  0.4060 -0.1720  0.0980
   36TCq2    O2  547   4.046   4.551  11.588 -0.0660 -0.1262  0.6237
   36TCq2    C2  548   4.076   4.329  11.541  0.3429  0.6139  0.5833
   36TCq2    C3  549   3.939   4.312  11.532 -0.0276 -0.6565 -0.4600
   36TCq2    C4  550   3.905   4.206  11.456 -0.5008  0.1883  0.4131
   36TCq2    C5  551   3.985   4.116  11.402  0.1127  0.3581 -0.1765
   36TCq2    C6  552   4.120   4.128  11.425 -0.0044 -0.8093 -0.3319
   36TCq2    C7  553   4.171   4.237  11.493  0.4374  0.0161  0.5114
   36TCq2    C8  554   4.190   4.007  11.412 -0.2975  0.4230 -0.0580
   36TCq2    O4  555   4.178   3.945  11.309  0.1748 -0.1202 -0.1733
   36TCq2    C9  556   3.763   4.182  11.441 -0.6039  1.1768  0.4147
   36TCq2    O5  557   3.724   4.090  11.360  0.1592 -0.2120 -0.1806
   36TCq2    O6  558   3.685   4.242  11.519 -0.2384 -0.4943  0.0964
   36TCq2    H2  559   3.866   4.370  11.588  2.6763 -0.3683  2.7164
   36TCq2    H3  560   3.958   4.029  11.343 -0.7559  2.3873 -2.7732
   36TCq2    H4  561   4.278   4.244  11.501  0.5494  0.5301 -1.5226
   37TMC2    C1  562   1.799   4.700  11.502  0.9259 -0.3259 -0.1348
   37TMC2    C2  563   1.761   4.648  11.379  0.4777 -0.4544 -0.0685
   37TMC2    C3  564   1.857   4.632  11.281 -0.4929  0.0885  0.5600
   37TMC2    C4  565   1.934   4.708  11.538 -0.9398  0.1274  0.2600
   37TMC2    C5  566   2.025   4.671  11.444 -0.2093  0.3224  0.4064
   37TMC2    C6  567   1.992   4.639  11.319  0.1803 -0.0404 -0.2593
   37TMC2     C  568   1.711   4.692  11.608 -0.2715  0.7081  0.9422
   37TMC2     O  569   1.605   0.029  11.589  0.0856  0.2005 -0.0415
   37TMC2     H  570   1.658   4.631  11.351  0.2771  0.3484  0.1987
   37TMC2    H1  571   1.964   0.025  11.634 -0.3984  1.5881 -0.5081
   37TMC2    H2  572   2.075   4.611  11.255  1.1580 -2.1764  1.9515
   37TMC2    C7  573   2.163   4.671  11.484  0.5025 -0.3294 -0.2948
   37TMC2    C8  574   1.799   4.558  11.163  1.0432 -0.8990 -0.0119
   37TMC2    O1  575   2.197   0.028  11.573  0.2452  0.1326 -0.5955
   37TMC2    O2  576   1.708   4.481  11.182  0.5296  0.5068  0.1909
   37TMC2    O5  577   1.908   4.538  11.084 -0.3808  0.0967 -0.3883
   37TMC2    H5  578   1.946   4.628  11.074 -2.6871  0.9115 -1.6975
   38MPD2     C  579   1.638   4.693  12.118 -0.5834  0.0937 -0.0199
   38MPD2    C1  580   1.761   4.638  12.082 -0.4207  0.0264 -0.2863
   38MPD2    C2  581   1.798   4.627  11.953 -0.1258  0.2118  0.4402
   38MPD2    C3  582   1.714   4.655  11.854 -0.2498 -0.6476  0.4289
   38MPD2    C4  583   1.589   4.709  11.883  0.1185  0.7338 -0.2715
   38MPD2    C5  584   1.559   0.015  12.013 -0.9189  0.6539 -0.3874
   38MPD2     H  585   1.886   4.571  11.924 -1.6984 -1.1803 -1.6426
   38MPD2    H1  586   1.521   0.017  11.803 -1.7924  0.1829  1.1376
   38MPD2    H2  587   1.610   4.710  12.221  2.3457  0.6633  0.6749
   38MPD2    H3  588   1.460   0.050  12.038 -1.2922 -0.0897 -0.8337
   38MPD2     N  589   1.767   4.645  11.724 -0.1146 -0.4017  0.1223
   38MPD2    H5  590   1.858   4.602  11.712 -0.0963 -0.4978  0.5967
   38MPD2    N1  591   1.855   4.587  12.176 -0.0434  0.5725  0.1048
   38MPD2    H7  592   1.946   4.558  12.142 -0.0043 -1.1117  1.6723
   39MPD2     C  593   0.778   2.034   1.658 -0.2857 -0.4348  0.2201
   39MPD2    C1  594   0.706   2.137   1.718  0.8384 -1.0380  0.1593
   39MPD2    C2  595   0.571   2.164   1.689  0.7714 -0.1761  0.5288
   39MPD2    C3  596   0.511   2.081   1.599  0.2430  0.7032 -0.6665
   39MPD2    C4  597   0.577   1.963   1.552  0.4612  0.6656  0.3242
   39MPD2    C5  598   0.711   1.948   1.572  0.3272  0.2614 -0.0877
   39MPD2     H  599   0.509   2.225   1.753 -0.3992  1.9535 -2.6523
   39MPD2    H1  600   0.532   1.902   1.475  1.1885 -0.7951  1.0511
   39MPD2    H2  601   0.882   2.013   1.678 -0.5461 -1.7844  0.1899
   39MPD2    H3  602   0.768   1.864   1.532  1.9322  1.2300  0.1821
   39MPD2     N  603   0.378   2.085   1.560 -0.1071 -0.2891 -0.2273
   39MPD2    H5  604   0.335   2.010   1.508  0.6431 -0.3650 -0.7393
   39MPD2    N1  605   0.775   2.198   1.827 -0.2187  0.3207  0.3541
   39MPD2    H7  606   0.870   2.163   1.838 -0.4219 -0.2767  0.2090
   40TCq2    C1  607   0.732   2.302   1.908 -0.0735  0.0768 -0.4766
   40TCq2    O2  608   0.634   2.374   1.883  0.6550  0.0897 -0.5971
   40TCq2    C2  609   0.825   2.330   2.018 -0.1371 -0.6433 -0.1054
   40TCq2    C3  610   0.793   2.453   2.075  0.4787 -0.3726 -0.7126
   40TCq2    C4  611   0.889   2.521   2.144 -0.2046 -0.1490  0.0350
   40TCq2    C5  612   1.016   2.461   2.152 -0.0444 -0.1178 -0.2350
   40TCq2    C6  613   1.041   2.335   2.104  0.0680  0.4387 -0.0910
   40TCq2    C7  614   0.948   2.266   2.030 -0.5406 -0.1123  0.4231
   40TCq2    C8  615   1.172   2.271   2.119 -0.6605 -0.4297 -0.1656
   40TCq2    O4  616   1.181   2.160   2.072  0.4650  0.2460  0.2114
   40TCq2    C9  617   0.865   2.653   2.186  0.0435  0.2958 -0.4215
   40TCq2    O5  618   0.743   2.679   2.211  0.1283  0.1085  0.4539
   40TCq2    O6  619   0.967   2.713   2.236  0.7719  0.3905 -0.4351
   40TCq2    H2  620   0.706   2.515   2.054 -0.2412 -0.1728  2.7589
   40TCq2    H3  621   1.089   2.517   2.210 -0.2550  1.7253 -1.7350
   40TCq2    H4  622   0.962   2.161   2.006  2.4454  0.3725  0.1282
   41TMC2    C1  623   4.532   0.120  13.768 -0.4769  0.1065 -0.8384
   41TMC2    C2  624   4.441   0.204  13.821 -0.0141  0.0634  0.9401
   41TMC2    C3  625   4.400   0.313  13.747 -0.1185  0.3566  0.8133
   41TMC2    C4  626   4.581   0.142  13.644  0.0196 -0.0086 -0.1711
   41TMC2    C5  627   4.536   0.251  13.568  0.0528  0.0063  0.0433
   41TMC2    C6  628   4.447   0.337  13.621 -0.1902  1.2689 -0.5803
   41TMC2     C  629   4.544   4.717  13.834 -0.2234  0.1037 -0.2698
   41TMC2     O  630   4.547   4.612  13.769 -0.2195 -0.3926 -0.1366
   41TMC2     H  631   4.399   0.178  13.918  1.0008  1.1239  1.6592
   41TMC2    H1  632   4.661   0.078  13.606  0.5618  1.3942 -1.3623
   41TMC2    H2  633   4.405   0.421  13.568 -0.5850  0.7948 -1.0107
   41TMC2    C7  634   4.595   0.275  13.434  0.4418  0.1523 -0.4669
   41TMC2    C8  635   4.293   0.401  13.792 -0.8396  0.0482  0.2178
   41TMC2    O1  636   4.663   0.183  13.386  0.2466 -0.0925 -0.6882
   41TMC2    O2  637   4.280   0.512  13.746 -0.4778  0.2552  0.1750
   41TMC2    O5  638   4.225   0.350  13.900  0.2114  0.6848 -0.4267
   41TMC2    H5  639   4.262   0.269  13.939 -0.4039  0.9246  0.6557
   42MPD2     C  640   4.521   4.513  14.059 -0.3449 -0.3681  0.0860
   42MPD2    C1  641   4.541   4.650  14.073  0.0173  0.1026 -0.4353
   42MPD2    C2  642   4.559   4.699  14.198  0.7128  0.1781 -1.3266
   42MPD2    C3  643   4.559   4.619  14.303  0.8503  0.3702 -0.0566
   42MPD2    C4  644   4.558   4.483  14.287 -0.8619 -0.2849  0.0688
   42MPD2    C5  645   4.533   4.426  14.158 -0.4485  0.4378 -0.1161
   42MPD2     H  646   4.563   0.084  14.206  0.3486  0.1398 -0.6598
   42MPD2    H1  647   4.562   4.419  14.374 -1.1437  1.0063  1.0330
   42MPD2    H2  648   4.484   4.484  13.962 -0.6092  1.8148 -0.4500
   42MPD2    H3  649   4.544   4.319  14.140  0.0107  0.6070 -0.8299
   42MPD2     N  650   4.562   4.680  14.435 -0.0397  0.6859  0.0666
   42MPD2    H5  651   4.556   4.621  14.518  3.6256 -0.0463 -0.1932
   42MPD2    N1  652   4.553   0.017  13.972  0.4394 -0.1840  0.6242
   42MPD2    H7  653   4.564   0.110  14.009  0.7320  0.9257 -2.1985
   43MPD2     C  654   0.378   2.954   0.752  0.2057 -0.3199  0.4568
   43MPD2    C1  655   0.488   2.930   0.827  0.2055 -0.2203  0.0263
   43MPD2    C2  656   0.520   3.008   0.936 -0.6477 -0.4004  0.6440
   43MPD2    C3  657   0.444   3.121   0.966 -0.6319  0.7154  0.4670
   43MPD2    C4  658   0.331   3.147   0.880  0.0374  1.0104  0.2735
   43MPD2    C5  659   0.301   3.069   0.773  0.3240  0.0000  0.3557
   43MPD2     H  660   0.602   2.984   1.003  1.0851  3.5508 -0.0643
   43MPD2    H1  661   0.281   3.241   0.901 -0.7593  0.7087 -0.2582
   43MPD2    H2  662   0.352   2.884   0.673 -1.6764  1.0675 -0.1647
   43MPD2    H3  663   0.217   3.099   0.711 -0.0284 -2.8063 -0.5368
   43MPD2     N  664   0.469   3.207   1.072 -0.1012  0.3394 -0.3548
   43MPD2    H5  665   0.396   3.276   1.085  0.3657  0.4173  1.8248
   43MPD2    N1  666   0.576   2.820   0.804 -0.1498 -0.7239  0.1097
   43MPD2    H7  667   0.656   2.804   0.864  0.7693  0.4496 -0.8327
   44TCq2    C1  668   0.724   3.342   1.584 -0.3296 -0.1541  0.0858
   44TCq2    O2  669   0.836   3.296   1.570  0.2308  0.2254 -0.3523
   44TCq2    C2  670   0.633   3.365   1.474 -0.0591 -0.4694  0.7658
   44TCq2    C3  671   0.520   3.441   1.498  0.1066 -0.4464  0.6316
   44TCq2    C4  672   0.429   3.446   1.397  0.0980 -0.1564 -0.3113
   44TCq2    C5  673   0.441   3.375   1.285 -0.0471  0.1741  0.0390
   44TCq2    C6  674   0.552   3.294   1.271  0.4713  0.3709 -0.4365
   44TCq2    C7  675   0.652   3.296   1.359 -0.1721 -0.2415  0.5393
   44TCq2    C8  676   0.573   3.208   1.156 -0.1201  0.2330  0.0145
   44TCq2    O4  677   0.671   3.132   1.156 -0.0503 -0.0027 -0.4701
   44TCq2    C9  678   0.314   3.536   1.406 -0.0367  0.8767  0.2495
   44TCq2    O5  679   0.270   3.558   1.524 -0.3942  0.2607  0.5312
   44TCq2    O6  680   0.273   3.579   1.299 -0.8564 -0.0560 -0.6802
   44TCq2    H2  681   0.500   3.506   1.583 -1.4498  0.1084 -0.1501
   44TCq2    H3  682   0.357   3.377   1.216  0.6447 -0.8770 -0.8412
   44TCq2    H4  683   0.747   3.252   1.334  0.0733  0.3292  0.4761
   45TMC2    C1  684   1.324   0.202   9.478  0.5307 -0.5175  0.4315
   45TMC2    C2  685   1.346   0.079   9.546 -0.4556 -0.4093 -0.5318
   45TMC2    C3  686   1.412   0.097   9.665  0.2897 -0.0082  0.6520
   45TMC2    C4  687   1.356   0.322   9.528  0.1465  0.6027 -0.0966
   45TMC2    C5  688   1.420   0.329   9.652 -0.6642  0.3680 -0.0728
   45TMC2    C6  689   1.452   0.217   9.722  0.5283 -0.0295 -0.4877
   45TMC2     C  690   1.235   0.187   9.367  0.0869 -0.0777 -0.8700
   45TMC2     O  691   1.272   0.099   9.292 -0.2662  0.3445 -0.1407
   45TMC2     H  692   1.311   4.703   9.517 -0.2564 -0.2405 -1.3442
   45TMC2    H1  693   1.349   0.410   9.465  0.5633  1.2601  0.7788
   45TMC2    H2  694   1.495   0.238   9.819 -0.5819 -2.2844  0.5012
   45TMC2    C7  695   1.463   0.461   9.703  0.0645 -0.5691  0.0208
   45TMC2    C8  696   1.421   4.707   9.753  0.7664 -0.4994  0.5283
   45TMC2    O1  697   1.557   0.466   9.780 -0.3959 -0.1123 -0.4796
   45TMC2    O2  698   1.331   4.624   9.775  0.4885 -0.6711  0.4236
   45TMC2    O5  699   1.534   0.004   9.824  0.1486 -0.4201 -0.5896
   45TMC2    H5  700   1.606   0.053   9.778  0.1192 -2.4787 -2.8291
   46MPD2     C  701   0.988   0.189   9.186 -0.2373 -0.1527  0.0293
   46MPD2    C1  702   1.031   0.292   9.270 -0.1313  0.5202 -0.5006
   46MPD2    C2  703   0.947   0.402   9.290 -1.1100  0.2289  0.0880
   46MPD2    C3  704   0.819   0.405   9.235  1.0629  0.1633 -0.9476
   46MPD2    C4  705   0.775   0.304   9.151 -0.7258 -0.4956 -0.2727
   46MPD2    C5  706   0.861   0.202   9.132  0.3932  0.2489 -0.3117
   46MPD2     H  707   0.991   0.478   9.355 -0.9750 -0.5383  0.8913
   46MPD2    H1  708   0.676   0.300   9.108 -1.5044 -2.5632  1.7232
   46MPD2    H2  709   1.050   0.102   9.164 -1.3529 -0.8124 -0.5163
   46MPD2    H3  710   0.830   0.122   9.066  1.4439 -0.0642 -0.4342
   46MPD2     N  711   0.738   0.518   9.275 -0.3348 -0.4335 -0.1464
   46MPD2    H5  712   0.775   0.590   9.336 -0.3146 -0.9137  0.4182
   46MPD2    N1  713   1.142   0.286   9.356 -0.1257  0.7050 -0.7806
   46MPD2    H7  714   1.141   0.355   9.430 -0.9017 -0.9434  0.7440
   47TMC2    C1  715   2.538   0.532   9.872 -0.2823 -0.1583  0.0120
   47TMC2    C2  716   2.524   0.402   9.909 -0.1865  0.2550 -0.6218
   47TMC2    C3  717   2.411   0.342   9.859  0.2008  0.1646  0.1191
   47TMC2    C4  718   2.452   0.596   9.796 -0.1986 -1.1473 -0.4600
   47TMC2    C5  719   2.352   0.522   9.742  0.1975  0.4299  0.0121
   47TMC2    C6  720   2.327   0.395   9.770  0.0090  0.3993  0.5227
   47TMC2     C  721   2.632   0.618   9.937 -0.3459 -0.1829  0.2266
   47TMC2     O  722   2.609   0.740   9.927 -0.1157  0.1035 -0.4794
   47TMC2     H  723   2.573   0.358   9.995 -1.6280 -0.3343 -0.0914
   47TMC2    H1  724   2.485   0.688   9.750  0.1051 -0.7854  0.4955
   47TMC2    H2  725   2.247   0.344   9.718  0.6494 -0.2544  0.1853
   47TMC2    C7  726   2.280   0.572   9.631  0.1329 -0.4458 -0.1288
   47TMC2    C8  727   2.381   0.214   9.916 -0.2835  0.1419  0.4132
   47TMC2    O1  728   2.226   0.507   9.546  0.2842  0.5791 -0.6834
   47TMC2    O2  729   2.463   0.147   9.982 -0.3392  0.2688  0.4325
   47TMC2    O5  730   2.245   0.215   9.948 -0.8749  0.0506 -0.4720
   47TMC2    H5  731   2.193   0.281   9.896  0.3480  2.8070  1.8345
   48MPD2     C  732   2.878   0.728  10.073 -0.1984 -0.9040  0.4363
   48MPD2    C1  733   2.854   0.596  10.059  0.3656 -0.3759  0.1495
   48MPD2    C2  734   2.938   0.496  10.116 -0.6281 -1.0266  0.2009
   48MPD2    C3  735   3.059   0.535  10.175 -0.2419 -1.0467 -0.1366
   48MPD2    C4  736   3.085   0.673  10.175  0.1787 -0.1111  0.0644
   48MPD2    C5  737   2.994   0.770  10.131 -0.0748 -0.0475  0.2419
   48MPD2     H  738   2.908   0.394  10.097 -2.9325  0.0138 -1.8005
   48MPD2    H1  739   3.173   0.719  10.220  0.6722 -0.1337 -0.8788
   48MPD2    H2  740   2.812   0.806  10.038 -1.0571 -1.4470  0.8585
   48MPD2    H3  741   3.019   0.875  10.130  1.8054 -0.4849  1.4202
   48MPD2     N  742   3.152   0.436  10.222  0.0838 -0.2549 -0.6331
   48MPD2    H5  743   3.132   0.338  10.207  0.2471 -0.3073 -0.5196
   48MPD2    N1  744   2.732   0.547  10.001  0.2465  0.0473  0.3610
   48MPD2    H7  745   2.720   0.447   9.986  0.5352 -0.1406  1.3855
   49MPD2     C  746   3.097   3.013  10.655  1.1091 -0.8346  0.4988
   49MPD2    C1  747   2.995   2.916  10.633 -0.4009 -0.5143  0.4588
   49MPD2    C2  748   2.916   2.870  10.737 -0.3739 -0.0312  0.2034
   49MPD2    C3  749   2.948   2.917  10.862  0.6220  0.4971  0.5732
   49MPD2    C4  750   3.058   3.010  10.883  0.8431 -0.5042  0.2141
   49MPD2    C5  751   3.123   3.065  10.777 -0.2151  0.1012  0.0995
   49MPD2     H  752   2.828   2.810  10.717 -0.5343  0.8309 -1.7158
   49MPD2    H1  753   3.104   3.036  10.977 -1.8056  1.2523  0.9902
   49MPD2    H2  754   3.167   3.058  10.585 -2.1094  3.3799 -0.0338
   49MPD2    H3  755   3.209   3.131  10.786  1.4148 -2.0806  0.5235
   49MPD2     N  756   2.879   2.877  10.976  0.3695  0.0899 -0.2186
   49MPD2    H5  757   2.920   2.896  11.067 -0.7056 -1.2984  0.5524
   49MPD2    N1  758   2.969   2.877  10.497  0.8261  0.5740 -0.3630
   49MPD2    H7  759   2.879   2.835  10.476 -0.1651  0.7748  3.4251
   50TCq2    C1  760   3.060   2.892  10.394 -0.1045  0.1569 -0.1711
   50TCq2    O2  761   3.179   2.906  10.404  0.1200  0.3461  0.3104
   50TCq2    C2  762   3.007   2.885  10.261  0.1943 -0.4125  0.5553
   50TCq2    C3  763   3.091   2.883  10.159  0.1458  0.4481  0.1152
   50TCq2    C4  764   3.057   2.881  10.028 -0.2993  0.2621 -0.2571
   50TCq2    C5  765   2.929   2.888  10.001 -0.1232  0.2581 -0.4893
   50TCq2    C6  766   2.835   2.904  10.101  0.0063 -0.4620 -0.1980
   50TCq2    C7  767   2.875   2.897  10.234  0.7238  0.2600 -0.0369
   50TCq2    C8  768   2.694   2.924  10.077 -0.1867 -0.5396  0.7453
   50TCq2    O4  769   2.610   2.907  10.167 -0.3320  0.0801 -0.4520
   50TCq2    C9  770   3.159   2.871   9.924 -0.0594  0.7556 -0.2708
   50TCq2    O5  771   3.117   2.889   9.810  0.4683  0.3019  0.1103
   50TCq2    O6  772   3.277   2.846   9.956 -0.0425  0.1502 -0.5081
   50TCq2    H2  773   3.199   2.881  10.166  0.3059 -1.1267 -2.6729
   50TCq2    H3  774   2.909   2.879   9.895  1.8222  0.8964 -0.9058
   50TCq2    H4  775   2.799   2.882  10.309  0.0074 -0.5265 -0.9193
   51MPD2     C  776   2.958   0.383   2.308 -0.0078  0.3935 -0.1097
   51MPD2    C1  777   2.979   0.477   2.212 -0.6588  0.2712  0.6112
   51MPD2    C2  778   2.994   0.609   2.243 -0.3769  0.3115  0.3423
   51MPD2    C3  779   3.017   0.643   2.380  0.1184  0.2925 -0.1291
   51MPD2    C4  780   3.011   0.548   2.475  0.0839 -0.6425  0.0137
   51MPD2    C5  781   2.994   0.421   2.436 -0.0088 -0.0238 -0.0151
   51MPD2     H  782   2.999   0.686   2.167 -1.1384  2.4432  2.4700
   51MPD2    H1  783   3.034   0.573   2.578  0.0137  0.1741 -0.1648
   51MPD2    H2  784   2.937   0.278   2.289  0.0119 -0.0094  2.1064
   51MPD2    H3  785   2.994   0.350   2.518  0.5472 -1.5584 -1.3445
   51MPD2     N  786   3.046   0.773   2.426 -0.2638  0.6174 -0.5001
   51MPD2    H5  787   3.050   0.792   2.526  0.2832  0.4867 -0.4938
   51MPD2    N1  788   2.954   0.448   2.077  0.0087  0.5966 -0.0117
   51MPD2    H7  789   2.975   0.525   2.015  2.1325  0.9112  1.0925
   52TCq2    C1  790   3.058   0.886   2.346 -0.7566  0.0528  0.1536
   52TCq2    O2  791   3.056   0.899   2.223  0.1641 -0.1859  0.4821
   52TCq2    C2  792   3.115   1.005   2.411 -0.5693 -0.6519 -0.3539
   52TCq2    C3  793   3.150   1.004   2.542  0.2601 -0.5960  0.4573
   52TCq2    C4  794   3.192   1.115   2.607  0.1192  0.4959  0.3794
   52TCq2    C5  795   3.227   1.223   2.535  0.0861 -0.9653  0.3692
   52TCq2    C6  796   3.185   1.227   2.402 -0.2163  0.1866  0.3633
   52TCq2    C7  797   3.124   1.123   2.335  0.3124  0.3548 -0.9388
   52TCq2    C8  798   3.187   1.347   2.336 -0.0620 -0.3632  0.4076
   52TCq2    O4  799   3.125   1.369   2.233 -0.1610  0.1667 -0.1264
   52TCq2    C9  800   3.216   1.107   2.746 -0.1194  0.1103  0.4066
   52TCq2    O5  801   3.262   0.992   2.781 -0.7089 -0.3062  0.5996
   52TCq2    O6  802   3.198   1.210   2.814  0.2594 -0.0206 -0.6193
   52TCq2    H2  803   3.150   0.914   2.603 -2.0832 -0.4337  0.7069
   52TCq2    H3  804   3.257   1.308   2.595 -0.3367  0.1126 -0.9531
   52TCq2    H4  805   3.082   1.130   2.236 -0.1052  2.0687 -0.6291
   53TMC2    C1  806   2.833   0.021  11.770  0.0028  0.4096 -0.4860
   53TMC2    C2  807   2.957   0.002  11.812 -0.8330  0.1921 -0.4064
   53TMC2    C3  808   3.008   0.076  11.910 -0.3172 -0.4187 -0.4190
   53TMC2    C4  809   2.759   0.129  11.820  0.0245  0.1970  0.2223
   53TMC2    C5  810   2.812   0.197  11.926  0.8995 -0.2949  0.1871
   53TMC2    C6  811   2.936   0.178  11.974 -0.1379  0.1661 -0.1764
   53TMC2     C  812   2.781   4.642  11.682 -0.2980  0.3308 -0.0537
   53TMC2     O  813   2.863   4.575  11.617 -0.8438 -0.3175  0.5766
   53TMC2     H  814   3.012   4.640  11.773 -0.9565 -0.9063  1.8122
   53TMC2    H1  815   2.657   0.136  11.785 -0.2321 -1.8348  0.5675
   53TMC2    H2  816   2.974   0.236  12.058  1.9434 -2.4276  0.6553
   53TMC2    C7  817   2.709   0.264  12.003  0.6281  0.1690 -0.0637
   53TMC2    C8  818   3.142   0.036  11.956  0.3202 -0.3404 -0.1801
   53TMC2    O1  819   2.632   0.327  11.929  0.6156  0.0505 -0.0151
   53TMC2    O2  820   3.237   0.027  11.879 -0.0845  0.3907  0.3484
   53TMC2    O5  821   3.150   0.047  12.089  0.0792  0.4610 -0.1675
   53TMC2    H5  822   3.064   0.024  12.131 -0.0395 -0.0633 -0.7054
   54MPD2     C  823   2.612   4.434  11.524  0.6524 -0.8144  0.1665
   54MPD2    C1  824   2.573   4.557  11.582  0.2791 -0.0874  0.0798
   54MPD2    C2  825   2.441   4.587  11.563 -0.4062 -0.3172 -0.8395
   54MPD2    C3  826   2.358   4.524  11.473  0.3736 -0.6864 -0.6574
   54MPD2    C4  827   2.404   4.408  11.426 -0.1935 -1.0349 -0.0069
   54MPD2    C5  828   2.523   4.360  11.446 -0.6033  0.0462  0.1768
   54MPD2     H  829   2.410   4.677  11.616 -0.3546 -1.5739  1.3223
   54MPD2    H1  830   2.334   4.352  11.366  0.4951  0.6371 -2.3743
   54MPD2    H2  831   2.718   4.410  11.530  0.9436  0.9370  2.0480
   54MPD2    H3  832   2.548   4.262  11.406 -0.6387  0.7612 -1.6304
   54MPD2     N  833   2.227   4.563  11.436 -0.5133  0.0840 -0.1809
   54MPD2    H5  834   2.173   4.498  11.379 -0.1218 -2.0269  1.8789
   54MPD2    N1  835   2.646   4.648  11.662  0.6049  0.0932 -0.7364
   54MPD2    H7  836   2.599   0.004  11.704 -3.5627 -3.7747  1.8962
   55MPD2     C  837   3.591   2.603  17.569 -0.7963 -0.2009 -0.9065
   55MPD2    C1  838   3.559   2.538  17.690  0.1126 -0.2326  0.2975
   55MPD2    C2  839   3.442   2.579   0.054 -0.1094 -0.2455 -0.6209
   55MPD2    C3  840   3.368   2.680   0.007  0.9044 -0.6481  0.3629
   55MPD2    C4  841   3.395   2.737  17.577 -0.1006 -0.5573 -0.2794
   55MPD2    C5  842   3.512   2.704  17.512 -0.4825  0.1966  0.5634
   55MPD2     H  843   3.410   2.525   0.143  2.3482 -0.6857  0.0185
   55MPD2    H1  844   3.329   2.805  17.524 -0.9874 -1.6106 -0.5352
   55MPD2    H2  845   3.681   2.582  17.513  1.4635  0.0543  2.6329
   55MPD2    H3  846   3.542   2.753  17.421 -1.9817  0.3071  0.1276
   55MPD2     N  847   3.269   2.733   0.087 -0.2249 -0.2797  0.5483
   55MPD2    H5  848   3.283   2.710   0.185  0.0617 -0.9621  0.3479
   55MPD2    N1  849   3.645   2.435   0.044 -0.2459  0.4458  0.1000
   55MPD2    H7  850   3.734   2.429  17.687 -0.5482 -0.4178 -0.3460
   56TCq2    C1  851   3.614   2.350   0.144 -0.1662 -0.2437 -0.2580
   56TCq2    O2  852   3.512   2.342   0.207 -0.1693 -0.0637 -0.2418
   56TCq2    C2  853   3.722   2.271   0.191  0.2056 -0.2241  0.3311
   56TCq2    C3  854   3.826   2.237   0.105  0.2960 -0.0748  0.5183
   56TCq2    C4  855   3.916   2.148   0.145  0.8329  0.0698  0.4492
   56TCq2    C5  856   3.913   2.092   0.271  0.2886  0.1237 -0.4153
   56TCq2    C6  857   3.805   2.119   0.351  0.8245 -0.4301 -0.0135
   56TCq2    C7  858   3.713   2.216   0.318  0.8857 -0.3664  0.4967
   56TCq2    C8  859   3.826   2.076   0.485 -0.4805  0.6425  0.6992
   56TCq2    O4  860   3.943   2.065   0.522 -0.3634  0.2852 -0.4319
   56TCq2    C9  861   4.024   2.111   0.055  0.3736 -1.1051 -0.6169
   56TCq2    O5  862   4.046   2.195  17.654  0.1944  0.2962  0.1122
   56TCq2    O6  863   4.101   2.017   0.092 -0.0059  0.4400 -0.6334
   56TCq2    H2  864   3.831   2.283   0.008  0.9065 -1.2450 -0.0056
   56TCq2    H3  865   3.996   2.034   0.312  2.3749  2.6010 -1.1187
   56TCq2    H4  866   3.643   2.253   0.393 -0.5411 -0.2728 -0.8651
   57TMC2    C1  867   3.176   3.950  13.552  0.0367  0.0487  0.5475
   57TMC2    C2  868   3.086   4.003  13.640  0.5759 -0.4049 -0.6879
   57TMC2    C3  869   3.100   3.971  13.771 -0.0476  0.5859 -0.5886
   57TMC2    C4  870   3.266   3.860  13.597  0.1276  0.2006 -0.3387
   57TMC2    C5  871   3.287   3.831  13.725 -0.3666  0.2921  0.2632
   57TMC2    C6  872   3.199   3.885  13.814  0.0182  0.3984  0.1988
   57TMC2     C  873   3.118   3.923  13.426  0.2577  0.1897 -0.5154
   57TMC2     O  874   3.199   3.939  13.333 -0.5389 -0.2139  0.3363
   57TMC2     H  875   3.011   4.076  13.610 -0.8111 -2.0913 -1.3408
   57TMC2    H1  876   3.333   3.820  13.521 -1.3971 -1.7393 -0.6786
   57TMC2    H2  877   3.211   3.868  13.920 -1.8494 -0.4453  0.2700
   57TMC2    C7  878   3.373   3.720  13.766  0.2554  0.4355  0.8432
   57TMC2    C8  879   2.993   4.016  13.864  0.3659 -0.0919 -0.0477
   57TMC2    O1  880   3.400   3.716  13.886 -0.2403  0.0112  0.3392
   57TMC2    O2  881   2.913   4.105  13.839  0.2001  0.5675 -0.0381
   57TMC2    O5  882   2.963   3.915  13.955 -0.2168  0.0623  0.1085
   57TMC2    H5  883   3.015   3.832  13.957 -1.4396 -0.7283 -0.5951
   58MPD2     C  884   2.742   3.752  13.135 -0.1411 -0.7514  0.5979
   58MPD2    C1  885   2.691   3.755  13.262  1.2320  0.9121 -0.0857
   58MPD2    C2  886   2.766   3.818  13.357  0.0865 -0.3339  0.2073
   58MPD2    C3  887   2.898   3.866  13.329  0.0306  0.5490  0.3337
   58MPD2    C4  888   2.942   3.863  13.198  0.4042 -0.4948 -0.0046
   58MPD2    C5  889   2.858   3.823  13.101 -0.1157  0.8365 -0.3223
   58MPD2     H  890   2.737   3.815  13.461  0.6383 -3.8281  0.2634
   58MPD2    H1  891   3.042   3.892  13.168  0.1172 -0.6457 -1.0934
   58MPD2    H2  892   2.691   3.707  13.051  0.2687 -1.1467  0.5645
   58MPD2    H3  893   2.903   3.823  13.002 -1.2111 -3.1891 -0.8452
   58MPD2     N  894   2.983   3.895  13.439  0.5243 -0.2753  0.4021
   58MPD2    H5  895   2.947   3.895  13.534 -0.3272  0.7523  0.0789
   58MPD2    N1  896   2.568   3.685  13.286  0.5254 -0.3256 -0.7604
   58MPD2    H7  897   2.523   3.638  13.209 -1.3819 -0.1550  0.2446
   59MPD2     C  898   0.252   3.683  12.845 -0.6387  0.4178  0.4527
   59MPD2    C1  899   0.379   3.674  12.782  0.7149 -0.0759  0.4039
   59MPD2    C2  900   0.490   3.697  12.862  0.2519 -0.2175 -0.7101
   59MPD2    C3  901   0.479   3.720  12.998 -0.5937 -0.4538  0.6456
   59MPD2    C4  902   0.350   3.722  13.055  0.3750 -0.1883  0.1114
   59MPD2    C5  903   0.243   3.710  12.975 -0.3341  0.1362  0.0531
   59MPD2     H  904   0.589   3.684  12.818  0.2399 -1.2712 -0.4227
   59MPD2    H1  905   0.335   3.741  13.161 -0.9319 -1.7153  0.2086
   59MPD2    H2  906   0.157   3.660  12.799 -1.3400  1.3929  1.4093
   59MPD2    H3  907   0.145   3.715  13.022 -0.4774 -0.5618 -0.1667
   59MPD2     N  908   0.589   3.739  13.089  0.0438  0.3166 -0.0662
   59MPD2    H5  909   0.557   3.757  13.184 -1.0961 -0.8699 -0.2238
   59MPD2    N1  910   0.394   3.638  12.645 -1.3780 -0.9035 -0.8895
   59MPD2    H7  911   0.484   3.653  12.601  0.2044 -4.9116  0.9813
   60TCq2    C1  912   0.292   3.578  12.578  1.0583  0.0391  0.4619
   60TCq2    O2  913   0.197   3.518  12.628  0.2572  0.1189 -0.3231
   60TCq2    C2  914   0.341   3.537  12.443 -0.5087  0.4370 -0.8467
   60TCq2    C3  915   0.301   3.409  12.403  0.6768 -0.3268 -0.1629
   60TCq2    C4  916   0.371   3.355  12.303  0.5672 -0.1842 -0.2419
   60TCq2    C5  917   0.455   3.426  12.228  0.7715  0.4468  0.0516
   60TCq2    C6  918   0.491   3.558  12.266  0.3425 -0.2812  0.5076
   60TCq2    C7  919   0.431   3.612  12.375  0.3910  0.4344  0.7466
   60TCq2    C8  920   0.556   3.645  12.166  0.8950  0.5380  0.0810
   60TCq2    O4  921   0.605   3.582  12.076  0.3779 -0.1099  0.3793
   60TCq2    C9  922   0.337   3.221  12.270 -0.2469  0.0612  0.0165
   60TCq2    O5  923   0.256   3.161  12.351  0.6849  0.0702  0.4360
   60TCq2    O6  924   0.413   3.164  12.187  0.1521  0.1549 -0.1264
   60TCq2    H2  925   0.222   3.356  12.454  0.6988  1.1056  1.3533
   60TCq2    H3  926   0.494   3.392  12.133 -0.8649  0.3642 -0.5806
   60TCq2    H4  927   0.454   3.707  12.424  1.6597  0.1278  0.7437
   61MPD2     C  928   4.415   0.508  14.425  0.8509 -0.0908 -0.8467
   61MPD2    C1  929   4.472   0.628  14.460  0.2529  0.5371 -0.3115
   61MPD2    C2  930   4.402   0.745  14.439  0.2859 -0.2722 -0.6550
   61MPD2    C3  931   4.272   0.746  14.391  0.8114 -0.0433 -0.5706
   61MPD2    C4  932   4.216   0.624  14.367 -0.0720  0.1341 -0.9201
   61MPD2    C5  933   4.285   0.506  14.388 -0.3803 -0.2356 -0.1900
   61MPD2     H  934   4.445   0.839  14.472  0.3451 -0.3817 -0.4288
   61MPD2    H1  935   4.116   0.608  14.328  0.0201  0.3238 -1.2355
   61MPD2    H2  936   4.454   0.408  14.441 -2.1011 -0.9799  0.6687
   61MPD2    H3  937   4.238   0.410  14.370 -0.2428 -0.6102  1.4463
   61MPD2     N  938   4.189   0.859  14.382 -0.3927  0.9473 -0.2700
   61MPD2    H5  939   4.090   0.836  14.381 -0.0688 -0.4803 -0.0175
   61MPD2    N1  940   4.587   0.641  14.540  0.0599 -0.6684 -0.2185
   61MPD2    H7  941   4.606   0.732  14.582  0.6372 -0.3100 -1.2623
   62TCq2    C1  942   4.660   0.538  14.589 -0.2140 -0.6291  0.2706
   62TCq2    O2  943   4.667   0.426  14.544 -1.0024 -0.2966 -0.2124
   62TCq2    C2  944   4.698   0.569  14.723 -0.5018  0.0523  0.0178
   62TCq2    C3  945   0.018   0.452  14.791  0.2545 -0.5938 -0.0703
   62TCq2    C4  946   4.714   0.448  14.923 -0.1550 -0.8521 -0.1486
   62TCq2    C5  947   4.648   0.549  14.984  0.0854 -1.3312  0.3560
   62TCq2    C6  948   4.602   0.656  14.912  0.2792  0.6350  0.0147
   62TCq2    C7  949   4.641   0.680  14.783 -1.5154 -0.6258  0.2524
   62TCq2    C8  950   4.564   0.784  14.981  0.2031  0.2125 -0.2234
   62TCq2    O4  951   4.604   0.885  14.930  0.4568  0.5387 -0.9619
   62TCq2    C9  952   0.034   0.340  15.000  0.3591  0.0053 -0.5854
   62TCq2    O5  953   4.691   0.312  15.103 -0.3377 -0.1038 -0.1599
   62TCq2    O6  954   0.124   0.265  14.954  0.5190  0.2292  0.4671
   62TCq2    H2  955   0.053   0.360  14.744  1.7907 -0.1146  0.1286
   62TCq2    H3  956   4.630   0.544  15.091 -1.9336 -2.9186 -0.0574
   62TCq2    H4  957   4.608   0.765  14.725  1.0296  0.6455  0.6898
   63TMC2    C1  958   3.112   1.065  11.553 -0.6488  0.5816 -0.8669
   63TMC2    C2  959   3.066   1.161  11.646 -0.0255  0.3594  0.5901
   63TMC2    C3  960   3.143   1.272  11.659 -0.1951 -0.4174  0.2455
   63TMC2    C4  961   3.226   1.082  11.476 -0.3800  0.3783 -0.3466
   63TMC2    C5  962   3.284   1.207  11.475  0.6718 -0.4726 -0.0589
   63TMC2    C6  963   3.253   1.300  11.573 -0.6611  1.2693 -0.1301
   63TMC2     C  964   3.029   0.949  11.511 -0.1931  0.1822  0.0605
   63TMC2     O  965   2.913   0.977  11.496 -0.3792  1.0646 -0.1322
   63TMC2     H  966   2.984   1.146  11.715  1.8082  0.5987  2.8342
   63TMC2    H1  967   3.260   1.011  11.401  1.0353  1.0645 -0.3623
   63TMC2    H2  968   3.302   1.396  11.585  0.0531  0.7841  0.8603
   63TMC2    C7  969   3.301   1.256  11.338 -1.0040 -0.5023  0.2364
   63TMC2    C8  970   3.104   1.364  11.765 -0.1641 -0.0177  0.1170
   63TMC2    O1  971   3.289   1.173  11.248  0.3483 -0.0493 -0.0418
   63TMC2    O2  972   3.189   1.424  11.830  0.0471  0.2265  0.2721
   63TMC2    O5  973   2.976   1.388  11.743  0.5879 -0.3890 -0.0198
   63TMC2    H5  974   2.940   1.354  11.659  0.4373  0.5490 -0.3362
   64MPD2     C  975   2.976   0.489  11.276 -0.0626  0.2766  0.0728
   64MPD2    C1  976   3.107   0.498  11.330  0.2737 -0.0146 -0.1127
   64MPD2    C2  977   3.138   0.611  11.401  0.1720 -0.6446  0.2348
   64MPD2    C3  978   3.052   0.718  11.418 -0.4267  0.4471  0.2229
   64MPD2    C4  979   2.925   0.698  11.376 -0.2640  0.8079  0.5189
   64MPD2    C5  980   2.887   0.585  11.315  0.1888 -0.6476 -0.3766
   64MPD2     H  981   3.237   0.621  11.442 -0.0059 -1.8904  0.9442
   64MPD2    H1  982   2.850   0.773  11.398 -0.7976  0.0976  1.1164
   64MPD2    H2  983   2.932   0.401  11.230  0.7085 -0.8434  1.4916
   64MPD2    H3  984   2.780   0.579  11.295  0.0381  0.6457  0.0528
   64MPD2     N  985   3.099   0.836  11.479  1.2602 -0.1232 -0.3755
   64MPD2    H5  986   3.199   0.835  11.491  1.1056  1.4840  1.1233
   64MPD2    N1  987   3.209   0.399  11.313 -0.5216 -0.1907  0.9904
   64MPD2    H7  988   3.299   0.411  11.359 -0.0121  0.1016 -0.0810
   65MPD2     C  989   0.536   4.659  15.875  0.7172  0.9544  0.0389
   65MPD2    C1  990   0.481   4.627  15.748  0.0474  0.1351 -1.1056
   65MPD2    C2  991   0.542   4.533  15.664  0.2984  0.1849 -0.2935
   65MPD2    C3  992   0.646   4.460  15.720  0.3303 -0.6486 -0.7488
   65MPD2    C4  993   0.707   4.495  15.839  0.3260  0.1438 -0.3433
   65MPD2    C5  994   0.650   4.595  15.917  0.4097  0.1268  0.1824
   65MPD2     H  995   0.504   4.516  15.564 -1.7420  1.3353  0.2758
   65MPD2    H1  996   0.792   4.442  15.880 -1.0442 -2.2442 -0.5665
   65MPD2    H2  997   0.508   0.022  15.936  1.9497  1.5448 -0.2079
   65MPD2    H3  998   0.704   4.624  16.007  0.1456 -0.0100  0.3842
   65MPD2     N  999   0.691   4.349  15.648  0.6432  0.4335  0.4513
   65MPD2    H5 1000   0.750   4.284  15.700  1.0825  1.7498  1.6211
   65MPD2    N1 1001   0.377   4.699  15.688 -0.3101 -0.1974 -0.0786
   65MPD2    H7 1002   0.348   4.671  15.595 -2.2785 -0.6346  0.6835
   66TCq2    C1 1003   0.314   0.085  15.734  0.3550 -1.0533  0.2102
   66TCq2    O2 1004   0.327   0.142  15.838 -0.1622  0.2959 -0.5446
   66TCq2    C2 1005   0.212   0.138  15.648  0.0775 -0.1804  0.6196
   66TCq2    C3 1006   0.143   0.058  15.562 -0.6843 -0.5624  0.4884
   66TCq2    C4 1007   0.037   0.105  15.489  0.0281 -0.1132  0.3533
   66TCq2    C5 1008   4.719   0.232  15.513  0.2011  0.0386 -0.1613
   66TCq2    C6 1009   0.061   0.316  15.603  0.1497 -0.7940 -0.2931
   66TCq2    C7 1010   0.167   0.264  15.674  0.3858  0.5747 -0.7885
   66TCq2    C8 1011   0.036   0.453  15.599  0.4571 -0.2217 -0.0195
   66TCq2    O4 1012   4.700   0.496  15.504  0.1535  0.0620 -0.0658
   66TCq2    C9 1013   4.706   0.033  15.377  0.1631 -0.1829  0.3744
   66TCq2    O5 1014   0.003   4.634  15.362 -0.1245 -0.7139  0.2641
   66TCq2    O6 1015   4.642   0.105  15.294  0.6902  0.3933 -0.7217
   66TCq2    H2 1016   0.178   4.679  15.550 -0.6813 -0.8692  3.1653
   66TCq2    H3 1017   4.640   0.263  15.445  0.0618 -1.7901 -0.8292
   66TCq2    H4 1018   0.219   0.328  15.745 -0.5216 -0.6144  0.9424
   67MPD2     C 1019   0.545   4.034  13.719 -0.8313  0.7949 -0.9733
   67MPD2    C1 1020   0.511   4.111  13.826 -0.5921  0.5484  0.2564
   67MPD2    C2 1021   0.387   4.164  13.843  0.6620  0.1175  0.2438
   67MPD2    C3 1022   0.288   4.145  13.744  0.6719  0.1853  0.1681
   67MPD2    C4 1023   0.327   4.075  13.636  1.1919 -0.9317  0.2078
   67MPD2    C5 1024   0.450   4.018  13.625  0.4900  0.0410 -0.4248
   67MPD2     H 1025   0.362   4.228  13.926 -0.9271  0.1408 -0.2568
   67MPD2    H1 1026   0.259   4.061  13.553  1.2024 -1.2523  0.2538
   67MPD2    H2 1027   0.643   3.989  13.711 -0.2066  1.6698  1.9190
   67MPD2    H3 1028   0.471   3.954  13.540  1.3604  0.2664 -0.3755
   67MPD2     N 1029   0.150   4.188  13.756  0.6473 -0.5175  0.7579
   67MPD2    H5 1030   0.098   4.191  13.669  1.4031  0.7901  0.3414
   67MPD2    N1 1031   0.600   4.137  13.929 -0.3291  0.0985  0.2315
   67MPD2    H7 1032   0.568   4.195  14.006 -3.3457 -0.7696 -0.3837
   68TCq2    C1 1033   0.723   4.087  13.952  0.2738  0.9581  0.5538
   68TCq2    O2 1034   0.781   3.988  13.914  0.0243  0.0176 -0.1736
   68TCq2    C2 1035   0.797   4.162  14.061 -0.1834 -0.6845 -0.6870
   68TCq2    C3 1036   0.751   4.284  14.099  0.5301  0.0769 -1.1833
   68TCq2    C4 1037   0.809   4.346  14.206 -0.2152  0.6320 -0.2692
   68TCq2    C5 1038   0.898   4.284  14.285  0.5169 -0.9636  0.0685
   68TCq2    C6 1039   0.942   4.164  14.246  0.0260 -0.0271 -0.3420
   68TCq2    C7 1040   0.894   4.101  14.135  0.3849  0.0101 -0.4328
   68TCq2    C8 1041   1.036   4.098  14.338  0.1491  0.4458 -0.4369
   68TCq2    O4 1042   1.095   3.999  14.296  0.9733  0.0085 -0.2461
   68TCq2    C9 1043   0.765   4.482  14.236 -0.8014 -0.2645  0.1168
   68TCq2    O5 1044   0.772   4.505  14.360  0.3635 -0.2011 -0.4264
   68TCq2    O6 1045   0.695   4.544  14.152 -0.0020  0.0812 -0.0822
   68TCq2    H2 1046   0.689   4.342  14.032 -0.4111  0.5171  0.0621
   68TCq2    H3 1047   0.944   4.347  14.360 -1.1103  1.1424 -0.7311
   68TCq2    H4 1048   0.930   4.002  14.110 -1.4370 -0.5300 -0.9979
   69TMC2    C1 1049   3.045   0.580  12.718  0.7147 -0.7176 -0.0097
   69TMC2    C2 1050   2.914   0.616  12.740  0.3027 -0.3091  0.1304
   69TMC2    C3 1051   2.888   0.748  12.747 -0.1419  0.0198  0.0987
   69TMC2    C4 1052   3.142   0.662  12.674 -0.0864  0.2951  0.1148
   69TMC2    C5 1053   3.111   0.795  12.674  0.1536  0.2642 -0.8098
   69TMC2    C6 1054   2.983   0.842  12.709 -0.0696 -0.5899 -0.5235
   69TMC2     C 1055   3.073   0.446  12.739  0.8283  0.7640 -0.4719
   69TMC2     O 1056   3.176   0.425  12.802  0.3334 -0.1049  0.0628
   69TMC2     H 1057   2.840   0.545  12.774 -2.4513  2.1624 -0.7360
   69TMC2    H1 1058   3.243   0.627  12.654  1.0014  3.1033  0.7086
   69TMC2    H2 1059   2.963   0.948  12.710  1.5339 -0.2634 -2.0304
   69TMC2    C7 1060   3.217   0.895  12.655  0.0124 -0.8978 -0.2094
   69TMC2    C8 1061   2.750   0.795  12.742 -0.2321 -0.8908 -0.2534
   69TMC2    O1 1062   3.224   0.978  12.747  0.1602 -0.8411 -0.6100
   69TMC2    O2 1063   2.719   0.909  12.714  0.0477  0.1036 -0.3789
   69TMC2    O5 1064   2.683   0.705  12.822 -0.3781  0.1403 -0.4001
   69TMC2    H5 1065   2.726   0.625  12.858 -1.4069 -0.3113 -0.1652
   70MPD2     C 1066   2.819   0.206  12.792  0.5830 -0.4114 -0.9425
   70MPD2    C1 1067   2.948   0.245  12.791 -0.0612  0.0584  0.2458
   70MPD2    C2 1068   3.042   0.165  12.855  0.3562  0.5241 -0.6637
   70MPD2    C3 1069   3.013   0.042  12.909 -0.2783 -0.1978  0.4548
   70MPD2    C4 1070   2.881   0.001  12.904 -0.4208  0.1657 -0.4502
   70MPD2    C5 1071   2.788   0.086  12.852 -0.2478 -0.9045 -0.2475
   70MPD2     H 1072   3.146   0.195  12.852  0.3561  0.9259  3.3815
   70MPD2    H1 1073   2.843   4.631  12.943  2.6667 -0.6856  0.5116
   70MPD2    H2 1074   2.743   0.253  12.732 -0.8710 -1.5366  0.0095
   70MPD2    H3 1075   2.689   0.043  12.842 -0.9377  0.5162  0.4209
   70MPD2     N 1076   3.102   4.681  12.988 -0.1131 -0.0623  0.0809
   70MPD2    H5 1077   3.062   4.594  13.022 -1.8919  0.9280  0.4778
   70MPD2    N1 1078   2.967   0.366  12.720 -0.3250 -0.2859  0.2248
   70MPD2    H7 1079   2.888   0.408  12.673 -1.5845 -0.8075  1.8872
   71TMC2    C1 1080   0.279   1.759   1.743 -0.2364 -0.6558  0.7937
   71TMC2    C2 1081   0.389   1.813   1.800 -0.1336  0.1136 -0.1465
   71TMC2    C3 1082   0.362   1.894   1.905 -0.1542  0.5839  0.3055
   71TMC2    C4 1083   0.150   1.775   1.785  0.2350 -0.3480 -0.5661
   71TMC2    C5 1084   0.134   1.853   1.900  0.1343  0.1534  0.2096
   71TMC2    C6 1085   0.232   1.927   1.951 -0.1062  0.6185  0.2275
   71TMC2     C 1086   0.280   1.761   1.600 -0.3920  0.6010  0.8567
   71TMC2     O 1087   0.196   1.843   1.553 -0.8015 -0.3190  0.3523
   71TMC2     H 1088   0.487   1.801   1.755  0.1457 -0.0251  0.4935
   71TMC2    H1 1089   0.071   1.751   1.714 -1.2048  0.9265  0.6034
   71TMC2    H2 1090   0.220   1.998   2.031  1.0688  0.5129  0.4980
   71TMC2    C7 1091   0.000   1.878   1.956 -0.1740  0.1160  0.4697
   71TMC2    C8 1092   0.473   1.976   1.951  0.1359  0.0651 -0.2732
   71TMC2    O1 1093   4.709   1.957   2.051 -0.3110 -0.5931  0.0128
   71TMC2    O2 1094   0.457   2.067   2.033 -0.0959 -0.0452  0.0854
   71TMC2    O5 1095   0.585   1.898   1.951  0.4692  0.0754 -0.5871
   71TMC2    H5 1096   0.580   1.824   1.886 -0.7127 -0.6924  0.3944
   72MPD2     C 1097   0.441   1.594   1.137 -0.5299 -0.2196  0.3789
   72MPD2    C1 1098   0.358   1.700   1.173 -0.1883 -0.3136 -0.5051
   72MPD2    C2 1099   0.325   1.720   1.307  0.1953 -0.2142 -0.1908
   72MPD2    C3 1100   0.376   1.641   1.409  0.5721  0.9204 -0.4232
   72MPD2    C4 1101   0.445   1.531   1.369 -0.1735  0.2059  0.0405
   72MPD2    C5 1102   0.474   1.508   1.235 -0.2025 -0.2267  0.4877
   72MPD2     H 1103   0.278   1.808   1.351 -0.5111 -0.4187 -0.5380
   72MPD2    H1 1104   0.494   1.463   1.439 -0.9452 -0.8757 -0.4766
   72MPD2    H2 1105   0.480   1.593   1.036 -2.9088 -0.0413 -0.5409
   72MPD2    H3 1106   0.535   1.423   1.206 -0.1816  0.3284 -1.1260
   72MPD2     N 1107   0.364   1.673   1.546 -0.4440  0.3835  0.3247
   72MPD2    H5 1108   0.409   1.607   1.609  1.2410 -1.2095 -2.5643
   72MPD2    N1 1109   0.323   1.797   1.077  0.1795  0.3518  0.2175
   72MPD2    H7 1110   0.269   1.875   1.114  0.6196  1.1447 -0.8223
   73TMC2    C1 1111   4.295   2.819  13.861 -0.1204 -0.3680  0.0018
   73TMC2    C2 1112   4.292   2.723  13.759 -0.0685  0.0358 -0.1562
   73TMC2    C3 1113   4.350   2.596  13.780 -0.7839  0.6003  0.1984
   73TMC2    C4 1114   4.363   2.788  13.975 -0.1487  0.0416 -0.0977
   73TMC2    C5 1115   4.437   2.670  13.983 -0.3472 -0.6712 -0.5609
   73TMC2    C6 1116   4.424   2.569  13.894  0.6579  0.2184  0.3484
   73TMC2     C 1117   4.300   2.958  13.820 -0.5512 -0.4124 -0.9193
   73TMC2     O 1118   4.403   3.004  13.871  0.1207 -0.1219 -0.1648
   73TMC2     H 1119   4.259   2.746  13.659  2.0176  1.2618 -0.5692
   73TMC2    H1 1120   4.358   2.859  14.056  1.4595  1.2037 -1.0045
   73TMC2    H2 1121   4.480   2.479  13.915  2.1005  0.9543 -0.4055
   73TMC2    C7 1122   4.566   2.705  14.033 -1.1335  0.4740 -0.5352
   73TMC2    C8 1123   4.332   2.502  13.678 -0.3568 -0.2563  0.2763
   73TMC2    O1 1124   4.635   2.604  14.058  0.6640  0.3443 -0.0563
   73TMC2    O2 1125   4.233   2.483  13.612 -0.0421 -0.5488  0.4985
   73TMC2    O5 1126   4.450   2.441  13.678  0.1123 -0.0815 -0.7580
   73TMC2    H5 1127   4.518   2.487  13.732  0.6682 -2.4991  0.6203
   74MPD2     C 1128   4.305   3.293  13.443  0.1645  0.1764 -0.1862
   74MPD2    C1 1129   4.396   3.274  13.544 -0.2510 -0.1711 -0.7535
   74MPD2    C2 1130   4.370   3.176  13.640  1.0958  0.4677  0.9603
   74MPD2    C3 1131   4.255   3.105  13.629 -0.0022 -0.5046 -0.6337
   74MPD2    C4 1132   4.161   3.127  13.524 -0.3190 -0.3394  0.2010
   74MPD2    C5 1133   4.191   3.222  13.430  0.3597 -0.1635 -0.7435
   74MPD2     H 1134   4.453   3.148  13.705 -0.2005  0.3154  2.5419
   74MPD2    H1 1135   4.077   3.061  13.506 -0.7073  0.4296 -0.8282
   74MPD2    H2 1136   4.328   3.380  13.383  2.5654 -0.0004  0.4593
   74MPD2    H3 1137   4.114   3.253  13.360  1.1117  0.0935 -1.4500
   74MPD2     N 1138   4.225   2.993  13.711  0.1901  0.2270 -0.7682
   74MPD2    H5 1139   4.148   2.937  13.675  0.4448 -0.3016 -0.4831
   74MPD2    N1 1140   4.515   3.355  13.541  0.0889 -0.3369  0.1763
   74MPD2    H7 1141   4.524   3.424  13.468  1.0533  1.5474  2.0920
   75TCq2    C1 1142   0.079   4.197  13.870 -0.2813 -0.1862 -0.0312
   75TCq2    O2 1143   0.113   4.154  13.978  0.3260  0.3907  0.3827
   75TCq2    C2 1144   4.655   4.218  13.855  0.0647  0.5136  0.3379
   75TCq2    C3 1145   4.576   4.148  13.943 -0.2650  0.0293  0.1613
   75TCq2    C4 1146   4.440   4.152  13.927 -1.2204  0.8051 -0.0428
   75TCq2    C5 1147   4.381   4.211  13.821  0.2713  0.1043  0.3313
   75TCq2    C6 1148   4.464   4.278  13.739 -0.1286  0.2502  0.0906
   75TCq2    C7 1149   4.601   4.288  13.745  0.2327 -0.1710 -0.4387
   75TCq2    C8 1150   4.416   4.319  13.611 -0.2915  0.3515 -0.0651
   75TCq2    O4 1151   4.325   4.254  13.560  0.5312 -0.2446 -0.2337
   75TCq2    C9 1152   4.350   4.065  13.999 -0.2395 -0.3721  0.4599
   75TCq2    O5 1153   4.388   3.958  14.050 -0.2745  0.0624 -0.3959
   75TCq2    O6 1154   4.231   4.101  13.998 -0.4070 -0.2850 -0.1564
   75TCq2    H2 1155   4.620   4.098  14.028 -1.8930  0.0149  0.9908
   75TCq2    H3 1156   4.276   4.203  13.795  0.7534 -1.4727 -1.1290
   75TCq2    H4 1157   4.662   4.344  13.676 -0.9032 -0.1067 -1.3932
   76MPD2     C 1158   4.227   0.463  12.133 -0.5323  0.5946  0.5061
   76MPD2    C1 1159   4.112   0.412  12.074 -0.0666  0.4303  0.0202
   76MPD2    C2 1160   4.106   0.283  12.022  0.1306  0.0624  0.5434
   76MPD2    C3 1161   4.199   0.189  12.061 -0.5654  0.5846 -0.0273
   76MPD2    C4 1162   4.296   0.238  12.140 -0.3195 -0.4010  0.0177
   76MPD2    C5 1163   4.316   0.368  12.170 -0.1949  0.1068 -0.0141
   76MPD2     H 1164   4.028   0.249  11.954  1.1253  0.9792 -1.0646
   76MPD2    H1 1165   4.373   0.173  12.178 -1.5683 -0.1515  2.9745
   76MPD2    H2 1166   4.242   0.570  12.141  2.1995  0.1687  1.1198
   76MPD2    H3 1167   4.401   0.396  12.232 -1.3607  2.2846  0.5894
   76MPD2     N 1168   4.186   0.051  12.039 -1.2143 -0.4505  0.6899
   76MPD2    H5 1169   4.259   4.714  12.076  0.1700  0.9078  0.1451
   76MPD2    N1 1170   4.010   0.498  12.036 -0.1962 -0.1605 -0.1568
   76MPD2    H7 1171   3.927   0.463  11.988 -1.2064  2.5564 -0.3998
   77TCq2    C1 1172   4.077   4.710  11.989 -0.0155  0.8692  0.6919
   77TCq2    O2 1173   3.969   0.034  11.950 -0.1318 -0.2808 -0.0259
   77TCq2    C2 1174   4.088   4.568  11.966 -0.6568 -0.2550 -0.7059
   77TCq2    C3 1175   3.977   4.492  11.930 -0.3676  0.5608  0.1903
   77TCq2    C4 1176   3.990   4.357  11.951  0.4237 -0.5813  1.1955
   77TCq2    C5 1177   4.095   4.294  12.005 -0.6603 -0.5884  0.3202
   77TCq2    C6 1178   4.204   4.370  12.046 -0.0140  0.0147 -0.0850
   77TCq2    C7 1179   4.201   4.504  12.017  0.3348 -0.8482 -0.2068
   77TCq2    C8 1180   4.325   4.318  12.106  0.3488 -0.1397  0.9891
   77TCq2    O4 1181   4.334   4.197  12.086  0.2402 -0.0157 -0.1061
   77TCq2    C9 1182   3.871   4.286  11.912  0.2248 -0.3837 -0.1557
   77TCq2    O5 1183   3.780   4.350  11.855 -0.0022 -0.1562  0.1663
   77TCq2    O6 1184   3.892   4.163  11.891 -0.0545  0.0134  0.0731
   77TCq2    H2 1185   3.886   4.541  11.897  0.2166  1.0759 -0.6684
   77TCq2    H3 1186   4.093   4.185  12.008 -0.2239 -0.6159 -0.4271
   77TCq2    H4 1187   4.294   4.556  12.037  0.5865 -1.3718 -0.0201
   78MPD1     C 1188   1.871   4.378   2.367  0.3559  0.1748  0.5834
   78MPD1    C1 1189   1.985   4.292   2.358  0.5524  0.2382  0.7808
   78MPD1    C2 1190   2.109   4.349   2.324  0.7594 -0.2847  0.1064
   78MPD1    C3 1191   2.121   4.479   2.286  0.3173 -0.5400 -0.2737
   78MPD1    C4 1192   2.003   4.560   2.280 -0.8040  0.0805  0.0780
   78MPD1    C5 1193   1.884   4.510   2.327  0.4077  0.0270  0.1906
   78MPD1     H 1194   2.200   4.292   2.334 -0.2264 -2.5015 -3.5956
   78MPD1    H1 1195   2.008   4.664   2.250 -0.0210  0.3006  1.0020
   78MPD1    H2 1196   1.773   4.347   2.402  0.3630  0.0052  0.4520
   78MPD1    H3 1197   1.804   4.579   2.348  0.6006  0.9247 -2.0887
   78MPD1     N 1198   2.240   4.532   2.220 -0.5958 -0.4495 -0.3331
   78MPD1    H5 1199   2.223   4.626   2.185  1.5440 -0.3744 -1.1599
   78MPD1    N1 1200   1.985   4.159   2.406 -0.3242 -0.5113 -0.3672
   78MPD1    H6 1201   1.890   4.124   2.411 -0.2315 -0.7922 -0.6091
   78MPD1    H7 1202   2.044   4.085   2.368  0.4767 -2.1184  4.0237
   79TCq2    C1 1203   2.355   4.466   2.193  0.0943 -0.0747  0.2578
   79TCq2    O2 1204   2.392   4.353   2.234  0.4195  0.2456  0.0079
   79TCq2    C2 1205   2.443   4.544   2.105 -0.3828 -0.1243  0.2543
   79TCq2    C3 1206   2.565   4.480   2.081  0.5489 -0.2168  0.3502
   79TCq2    C4 1207   2.666   4.555   2.028  0.2150  0.4600 -0.3758
   79TCq2    C5 1208   2.648   4.686   2.025 -0.3013  0.3649  0.4744
   79TCq2    C6 1209   2.523   0.018   2.028 -0.1625 -0.3292 -0.4541
   79TCq2    C7 1210   2.417   4.677   2.077 -0.4013  0.4685 -0.3318
   79TCq2    C8 1211   2.509   0.162   2.001 -0.2925  0.3144  0.0946
   79TCq2    O4 1212   2.607   0.230   2.006 -0.2310  0.3428  0.8698
   79TCq2    C9 1213   2.799   4.508   2.005 -0.4956  0.0211 -0.0998
   79TCq2    O5 1214   2.887   4.591   1.967 -1.0239  0.5011  0.1444
   79TCq2    O6 1215   2.823   4.387   2.036 -0.2080 -0.0624  0.8137
   79TCq2    H2 1216   2.583   4.378   2.114 -0.5996 -0.4293  0.3217
   79TCq2    H3 1217   2.731   0.032   2.008  1.8518 -1.6387  2.8928
   79TCq2    H4 1218   2.318   4.721   2.080 -0.1626  0.9165  0.8359
   80MPD2     C 1219   2.807   4.479  12.401 -0.3292 -0.0810  0.5270
   80MPD2    C1 1220   2.730   4.461  12.291  0.2736  0.2538 -0.2640
   80MPD2    C2 1221   2.595   4.468  12.312  0.2044  0.5039  0.2902
   80MPD2    C3 1222   2.537   4.490  12.431  0.0277  0.2540 -0.8670
   80MPD2    C4 1223   2.614   4.504  12.544  0.3409 -0.9552  0.0638
   80MPD2    C5 1224   2.749   4.511  12.526 -0.2392 -0.6926  0.4769
   80MPD2     H 1225   2.536   4.464  12.222  0.4072  1.1836  0.1265
   80MPD2    H1 1226   2.574   4.530  12.641 -0.2376 -1.9665  0.0948
   80MPD2    H2 1227   2.915   4.479  12.395 -0.4545  0.5022 -1.5634
   80MPD2    H3 1228   2.816   4.531  12.609 -0.2781 -1.2979  0.6524
   80MPD2     N 1229   2.400   4.502  12.452 -0.2092  0.4936 -0.0310
   80MPD2    H5 1230   2.380   4.523  12.549  2.7186 -2.6684  1.2617
   80MPD2    N1 1231   2.778   4.443  12.161  0.7971  0.8273  0.0018
   80MPD2    H7 1232   2.715   4.403  12.092  0.0776  0.3691  0.9264
   81TCq2    C1 1233   2.913   4.443  12.122 -0.5452 -0.1151  0.8344
   81TCq2    O2 1234   3.002   4.509  12.170 -0.3147  0.2530 -0.3683
   81TCq2    C2 1235   2.941   4.370  11.996 -0.4405 -0.0311 -0.4409
   81TCq2    C3 1236   3.062   4.394  11.937 -0.0695 -0.4654 -0.2816
   81TCq2    C4 1237   3.072   4.334  11.816  0.4674  0.4052  0.4308
   81TCq2    C5 1238   2.970   4.265  11.752 -0.5370 -0.3712 -0.0635
   81TCq2    C6 1239   2.857   4.226  11.826  0.1526  0.3586  0.2264
   81TCq2    C7 1240   2.846   4.277  11.951  0.3349 -0.7638 -0.1574
   81TCq2    C8 1241   2.740   4.178  11.754 -0.2087 -0.2086  0.3579
   81TCq2    O4 1242   2.750   4.163  11.633  0.0648  0.1997 -0.2520
   81TCq2    C9 1243   3.191   4.363  11.745  0.2848  0.2959  0.6453
   81TCq2    O5 1244   3.289   4.402  11.819  0.2500  0.1255  0.4928
   81TCq2    O6 1245   3.202   4.323  11.625  0.1998 -0.1642  0.5336
   81TCq2    H2 1246   3.135   4.461  11.981 -1.0789  0.2784  0.2636
   81TCq2    H3 1247   2.984   4.244  11.646 -1.2181  0.8027 -0.3854
   81TCq2    H4 1248   2.755   4.257  12.005  0.2069  1.6504  0.4705
   82MPD2     C 1249   0.893   4.315  10.209 -0.2117  0.2330  0.2851
   82MPD2    C1 1250   0.846   4.186  10.232  0.3234 -0.0205  0.3490
   82MPD2    C2 1251   0.920   4.098  10.300  0.3824 -0.1627  0.2145
   82MPD2    C3 1252   1.040   4.139  10.356  0.0260  0.3151  1.1889
   82MPD2    C4 1253   1.078   4.269  10.343 -0.4865  0.2140  0.4858
   82MPD2    C5 1254   1.007   4.358  10.266 -0.1418  0.1084  0.1043
   82MPD2     H 1255   0.882   4.000  10.326  1.7649 -0.5725  0.7200
   82MPD2    H1 1256   1.170   4.294  10.395 -0.1725 -0.3641  0.2151
   82MPD2    H2 1257   0.843   4.382  10.139 -0.2037  0.7051  0.7278
   82MPD2    H3 1258   1.032   4.463  10.258  0.5671  0.0033  0.9174
   82MPD2     N 1259   1.128   4.042  10.418 -0.0020 -0.2544  0.9889
   82MPD2    H5 1260   1.197   4.080  10.482  2.0607 -2.2737 -0.0624
   82MPD2    N1 1261   0.713   4.153  10.186 -0.0341  0.2749 -0.1154
   82MPD2    H7 1262   0.666   4.234  10.148 -0.4018 -0.5105 -1.3149
   83TCq2    C1 1263   1.101   3.911  10.441  0.3791 -0.7458 -0.6295
   83TCq2    O2 1264   1.021   3.834  10.384 -0.2698 -0.1600  0.1027
   83TCq2    C2 1265   1.178   3.855  10.540 -0.0370  0.0044 -0.3074
   83TCq2    C3 1266   1.303   3.907  10.570  0.0066 -0.3576 -0.4182
   83TCq2    C4 1267   1.378   3.835  10.665  0.3373  0.6170 -0.2369
   83TCq2    C5 1268   1.326   3.724  10.724 -0.5480 -0.8534  0.0826
   83TCq2    C6 1269   1.206   3.684  10.695  0.2639  0.2430 -0.0975
   83TCq2    C7 1270   1.134   3.733  10.589 -0.2673 -0.4853 -0.4192
   83TCq2    C8 1271   1.148   3.577  10.777 -0.6240  0.9480 -0.1573
   83TCq2    O4 1272   1.190   3.552  10.889  0.1124 -0.0875 -0.1707
   83TCq2    C9 1273   1.517   3.867  10.695 -0.3444 -0.0473  0.5226
   83TCq2    O5 1274   1.564   3.954  10.616  0.0992  0.7491 -0.3424
   83TCq2    O6 1275   1.570   3.809  10.793  0.3655 -0.1058 -0.1175
   83TCq2    H2 1276   1.352   3.990  10.522  0.6570  0.2860  1.3304
   83TCq2    H3 1277   1.378   3.678  10.807  1.3922 -0.2167 -0.7782
   83TCq2    H4 1278   1.033   3.698  10.573 -0.6507  0.3504  0.2193
   84TCq2    C1 1279   2.766   2.799  10.983  0.0717 -0.6919  0.3087
   84TCq2    O2 1280   2.703   2.742  10.897  0.0670 -0.1484  0.4789
   84TCq2    C2 1281   2.706   2.793  11.124  0.1728 -0.3073  0.2748
   84TCq2    C3 1282   2.780   2.821  11.233 -0.4662  0.3834 -0.2929
   84TCq2    C4 1283   2.716   2.820  11.354 -0.1666  0.0418  0.0633
   84TCq2    C5 1284   2.588   2.779  11.370  0.7667 -0.1908 -0.0978
   84TCq2    C6 1285   2.525   2.735  11.252  0.0657 -0.2892  0.3070
   84TCq2    C7 1286   2.582   2.742  11.122 -0.0967 -0.7817 -0.4397
   84TCq2    C8 1287   2.389   2.687  11.266  0.4660 -0.1398 -0.2325
   84TCq2    O4 1288   2.321   2.720  11.361  0.7544  0.3157  0.2487
   84TCq2    C9 1289   2.793   2.843  11.479 -0.4217 -0.0933  0.5953
   84TCq2    O5 1290   2.737   2.823  11.592 -0.5328 -0.4559  0.2813
   84TCq2    O6 1291   2.917   2.873  11.470  0.2280  0.5849 -0.5720
   84TCq2    H2 1292   2.887   2.812  11.243 -0.6042 -0.0373  0.9293
   84TCq2    H3 1293   2.540   2.771  11.466  0.2782 -2.4450 -0.5300
   84TCq2    H4 1294   2.521   2.740  11.033 -1.3260  0.5118  0.3648
   85MPD2     C 1295   2.431   0.852  16.435 -1.0518  0.0684  0.0704
   85MPD2    C1 1296   2.543   0.802  16.388  0.0111  1.0162 -0.0307
   85MPD2    C2 1297   2.639   0.892  16.357 -0.2040  0.4390  0.3049
   85MPD2    C3 1298   2.607   1.031  16.364 -0.3255  0.4558  0.1780
   85MPD2    C4 1299   2.481   1.077  16.413  0.2083 -0.3320  0.1974
   85MPD2    C5 1300   2.396   0.982  16.454 -0.0610 -0.2924  0.1234
   85MPD2     H 1301   2.737   0.856  16.330 -0.1640  0.3487  0.5792
   85MPD2    H1 1302   2.448   1.180  16.425  0.0173 -0.1751 -1.6858
   85MPD2    H2 1303   2.348   0.785  16.456 -0.9622  0.6370  2.2776
   85MPD2    H3 1304   2.293   1.006  16.476 -0.2306 -0.8838 -0.0233
   85MPD2     N 1305   2.710   1.118  16.331  0.0406  0.4254 -0.1692
   85MPD2    H5 1306   2.799   1.078  16.304 -0.8251 -1.9588  0.4334
   85MPD2    N1 1307   2.552   0.662  16.389 -0.1570  0.2175  0.1155
   85MPD2    H7 1308   2.477   0.611  16.435  1.0892 -1.5623  0.1385
   86TCq2    C1 1309   2.702   1.254  16.336  0.1950  0.0994  0.3335
   86TCq2    O2 1310   2.608   1.329  16.349 -0.2170  1.0352 -0.2656
   86TCq2    C2 1311   2.828   1.330  16.307  1.4670 -0.0197 -0.2224
   86TCq2    C3 1312   2.825   1.463  16.337  0.0746 -0.4571  0.0424
   86TCq2    C4 1313   2.903   1.554  16.269 -0.3714 -0.6481  1.0494
   86TCq2    C5 1314   2.985   1.514  16.171 -0.3347  0.4307 -0.0465
   86TCq2    C6 1315   2.981   1.383  16.131  1.1370  0.1030 -0.7083
   86TCq2    C7 1316   2.910   1.290  16.199  0.2122 -0.1430 -0.1979
   86TCq2    C8 1317   3.048   1.339  16.009 -0.1405 -0.1383 -0.3130
   86TCq2    O4 1318   3.104   1.230  16.018  0.1242 -0.0165  0.2823
   86TCq2    C9 1319   2.886   1.697  16.283  0.1007  0.7523  0.0835
   86TCq2    O5 1320   2.797   1.727  16.369  0.8749 -0.2506 -0.3779
   86TCq2    O6 1321   2.912   1.767  16.180 -0.8731 -0.2109 -0.7041
   86TCq2    H2 1322   2.751   1.503  16.406 -0.3167  0.7749 -1.0882
   86TCq2    H3 1323   3.051   1.584  16.122  1.1854 -0.2926  0.9623
   86TCq2    H4 1324   2.910   1.186  16.170  0.2035 -0.8743  2.4650
   87MPD2     C 1325   4.198   4.713   1.262  0.0495 -0.1386  0.6845
   87MPD2    C1 1326   4.323   0.054   1.236  0.3312 -0.1233  0.2317
   87MPD2    C2 1327   4.325   0.158   1.150  0.2116 -0.0621 -0.3380
   87MPD2    C3 1328   4.211   0.212   1.095 -0.9239 -0.1895 -0.1863
   87MPD2    C4 1329   4.088   0.148   1.113 -0.1856 -0.0008  0.0745
   87MPD2    C5 1330   4.090   0.033   1.189  0.3824  0.7690 -0.2660
   87MPD2     H 1331   4.417   0.209   1.125  0.9234 -0.6164  1.1252
   87MPD2    H1 1332   3.991   0.167   1.068 -0.3408  0.8381  0.7666
   87MPD2    H2 1333   4.190   4.623   1.322  0.9695 -0.5699  0.1580
   87MPD2    H3 1334   3.998   4.701   1.206  0.8439  0.5609  1.5769
   87MPD2     N 1335   4.205   0.326   1.010  0.6845  0.3140 -0.0235
   87MPD2    H5 1336   4.112   0.344   0.973  0.6347  1.1106  0.4987
   87MPD2    N1 1337   4.439   4.721   1.285 -0.8119  0.9444 -0.3483
   87MPD2    H7 1338   4.424   4.645   1.350 -0.8363 -0.2993 -1.8158
   88TCq2    C1 1339   4.568   0.017   1.249  0.1695 -0.2412 -0.2786
   88TCq2    O2 1340   4.619   0.088   1.166  0.5632 -0.4801 -0.4126
   88TCq2    C2 1341   4.662   4.678   1.339  0.1358  0.1986 -0.4381
   88TCq2    C3 1342   4.614   4.643   1.464  0.6817 -0.6561 -0.4691
   88TCq2    C4 1343   4.672   4.550   1.538  0.5174  0.5331 -0.2468
   88TCq2    C5 1344   0.049   4.473   1.488  0.9674  0.0648  0.1991
   88TCq2    C6 1345   0.090   4.497   1.363 -0.7261 -0.1481 -0.6111
   88TCq2    C7 1346   0.047   4.605   1.290 -0.1346 -0.4789  0.0142
   88TCq2    C8 1347   0.202   4.423   1.302  0.1551  0.2881 -0.1737
   88TCq2    O4 1348   0.222   4.432   1.184 -0.2742 -0.5370  0.0241
   88TCq2    C9 1349   4.630   4.513   1.677 -0.4341  0.3157  0.6547
   88TCq2    O5 1350   4.705   4.439   1.743  0.1706 -0.0631 -0.0851
   88TCq2    O6 1351   4.517   4.558   1.722  0.1970 -0.1913  0.2949
   88TCq2    H2 1352   4.533   4.695   1.515  1.7562 -1.6254  2.2362
   88TCq2    H3 1353   0.076   4.385   1.544 -2.7271 -1.3373 -0.1774
   88TCq2    H4 1354   0.087   4.609   1.189  1.0875  0.5589  0.5413
   89MPD2     C 1355   1.468   2.215   2.155 -0.6080 -0.8557 -0.1777
   89MPD2    C1 1356   1.405   2.334   2.150 -0.1167 -0.0836 -0.3136
   89MPD2    C2 1357   1.486   2.452   2.154 -0.4070 -0.9285  0.4887
   89MPD2    C3 1358   1.623   2.439   2.163 -0.3529 -0.2964  0.0732
   89MPD2    C4 1359   1.678   2.311   2.166 -0.3903 -0.6169  0.3088
   89MPD2    C5 1360   1.601   2.198   2.168 -0.8477 -0.0936 -0.8578
   89MPD2     H 1361   1.443   2.550   2.137  0.8548 -0.4369  0.2042
   89MPD2    H1 1362   1.784   2.288   2.166 -0.7935 -2.4609 -2.2435
   89MPD2    H2 1363   1.417   2.120   2.153  2.1266 -2.4562  5.6152
   89MPD2    H3 1364   1.647   2.099   2.167  2.0953  1.2571 -1.4625
   89MPD2     N 1365   1.707   2.554   2.152  0.0808  0.4293 -0.3075
   89MPD2    H5 1366   1.658   2.639   2.125  1.1397  1.2449  0.3385
   89MPD2    N1 1367   1.268   2.365   2.140 -0.5641  0.9500 -0.4052
   89MPD2    H7 1368   1.244   2.464   2.139  0.4527  1.2236  2.0029
   90TCq2    C1 1369   1.844   2.556   2.174 -0.3412  0.6677  0.1300
   90TCq2    O2 1370   1.918   2.466   2.216 -0.1737  0.2978  0.6801
   90TCq2    C2 1371   1.904   2.686   2.159 -0.0057 -0.0676 -0.1050
   90TCq2    C3 1372   2.042   2.698   2.143  0.0574  0.0285 -0.1418
   90TCq2    C4 1373   2.088   2.809   2.075  0.3295  0.0137 -0.4822
   90TCq2    C5 1374   2.007   2.907   2.025 -0.2074  0.7200 -0.1791
   90TCq2    C6 1375   1.879   2.899   2.044 -0.0634 -0.3723  0.4154
   90TCq2    C7 1376   1.829   2.788   2.106  0.0305  0.1688 -0.2483
   90TCq2    C8 1377   1.791   2.977   1.963  0.2595 -0.5485  0.0394
   90TCq2    O4 1378   1.682   2.979   2.015  0.2136  0.7030 -0.1861
   90TCq2    C9 1379   2.224   2.808   2.032  0.6808  0.2915 -0.6587
   90TCq2    O5 1380   2.300   2.721   2.078 -0.0758 -0.1692  0.2842
   90TCq2    O6 1381   2.258   2.902   1.958 -0.2513 -0.0588 -0.5781
   90TCq2    H2 1382   2.107   2.614   2.164 -1.9274 -1.9123 -1.7664
   90TCq2    H3 1383   2.044   2.993   1.970 -1.4598  2.2000  1.3282
   90TCq2    H4 1384   1.722   2.791   2.125  0.2924 -1.6113  1.5454
   91TMC2    C1 1385   3.255   2.173  16.875 -0.1443  0.0226 -0.3539
   91TMC2    C2 1386   3.234   2.240  16.765 -0.1201  0.7989  0.2917
   91TMC2    C3 1387   3.125   2.310  16.752 -0.0604  0.9820  0.3187
   91TMC2    C4 1388   3.152   2.155  16.972 -0.7046 -0.4071 -0.3737
   91TMC2    C5 1389   3.036   2.210  16.938  0.8246  0.4946 -0.0125
   91TMC2    C6 1390   3.014   2.284  16.828  0.1711  0.3952 -0.1629
   91TMC2     C 1391   3.374   2.098  16.897  0.1723  0.0946  0.5715
   91TMC2     O 1392   3.380   2.026  16.995 -0.0459 -0.2984 -1.0258
   91TMC2     H 1393   3.302   2.232  16.682 -0.0734  0.4380  0.3645
   91TMC2    H1 1394   3.168   2.094  17.059  0.9002 -0.6471 -0.8285
   91TMC2    H2 1395   2.923   2.344  16.818  0.1861  0.5056  0.3566
   91TMC2    C7 1396   2.923   2.171  17.028  0.0639  0.5727  0.1109
   91TMC2    C8 1397   3.124   2.400  16.636 -0.1681  0.2424 -0.3937
   91TMC2    O1 1398   2.940   2.151  17.150 -0.0958  1.0031  0.1174
   91TMC2    O2 1399   3.219   2.455  16.585  0.0385  0.2252  0.0544
   91TMC2    O5 1400   3.003   2.397  16.584 -0.6496  0.2068 -0.7618
   91TMC2    H5 1401   2.943   2.331  16.624  0.6665 -0.1063  0.6892
   92MPD2     C 1402   3.632   1.945  16.863 -0.0468 -0.9458  0.3819
   92MPD2    C1 1403   3.598   2.057  16.789  0.1288 -0.2983 -0.0465
   92MPD2    C2 1404   3.693   2.133  16.718 -0.2182  0.2484  0.0523
   92MPD2    C3 1405   3.826   2.091  16.708 -0.0417  0.8163  0.3990
   92MPD2    C4 1406   3.856   1.971  16.768 -0.6543  0.3232 -0.7047
   92MPD2    C5 1407   3.767   1.906  16.854 -0.7584  0.6294  0.3207
   92MPD2     H 1408   3.658   2.223  16.669 -0.6726  1.3524  2.4032
   92MPD2    H1 1409   3.956   1.935  16.745  0.0754  1.3847  0.8660
   92MPD2    H2 1410   3.568   1.890  16.932  2.1375 -2.7201  1.0245
   92MPD2    H3 1411   3.798   1.819  16.910  1.6379  2.6905  2.2154
   92MPD2     N 1412   3.910   2.177  16.626 -0.6565  0.0265 -0.4102
   92MPD2    H5 1413   3.852   2.247  16.581  0.1202  0.5553 -0.5845
   92MPD2    N1 1414   3.469   2.119  16.802  0.0276  0.2302  0.0444
   92MPD2    H7 1415   3.456   2.201  16.744 -1.5194  0.0503  0.1279
   93MPD2     C 1416   4.105   2.173  13.611  0.2512 -0.2696 -0.1175
   93MPD2    C1 1417   4.038   2.191  13.728 -0.4508 -0.4556 -0.6763
   93MPD2    C2 1418   3.898   2.187  13.737 -0.9252 -0.0784  0.2175
   93MPD2    C3 1419   3.818   2.166  13.624  0.3737 -0.5745  0.3986
   93MPD2    C4 1420   3.886   2.146  13.506 -0.6855 -0.0813 -0.8427
   93MPD2    C5 1421   4.024   2.153  13.498 -0.2813  0.1280 -0.0022
   93MPD2     H 1422   3.854   2.212  13.833  1.9472  0.4186  1.4086
   93MPD2    H1 1423   3.835   2.119  13.414 -0.2082  1.5692 -1.5917
   93MPD2    H2 1424   4.213   2.178  13.604  0.1562 -1.5206 -2.5593
   93MPD2    H3 1425   4.061   2.128  13.399 -0.2711  1.7601 -0.4051
   93MPD2     N 1426   3.680   2.184  13.627  0.3014  0.6376  0.2252
   93MPD2    H5 1427   3.627   2.178  13.540 -1.8830 -1.0151  1.6595
   93MPD2    N1 1428   4.107   2.209  13.857  0.2664  0.2255 -0.1336
   93MPD2    H7 1429   4.055   2.251  13.933 -0.5856 -0.2641 -0.4472
   94TCq2    C1 1430   4.240   2.192  13.881  0.3270 -0.8655 -1.4984
   94TCq2    O2 1431   4.322   2.132  13.813  0.2887  0.0693 -0.3314
   94TCq2    C2 1432   4.282   2.240  14.018 -0.1358  0.1497 -0.3372
   94TCq2    C3 1433   4.188   2.268  14.118  0.1450 -1.2695 -0.1561
   94TCq2    C4 1434   4.235   2.311  14.243 -0.2775 -0.0970  0.5091
   94TCq2    C5 1435   4.369   2.299  14.269  0.4262 -0.1295 -0.4154
   94TCq2    C6 1436   4.457   2.259  14.172  0.5880 -0.2432  0.3498
   94TCq2    C7 1437   4.416   2.232  14.046 -0.0274 -0.7335  0.6734
   94TCq2    C8 1438   4.595   2.287  14.173  0.6912  0.2452 -0.8003
   94TCq2    O4 1439   4.656   2.318  14.071  0.3230 -0.8198  0.2944
   94TCq2    C9 1440   4.135   2.362  14.339  0.3367  0.1519 -0.3589
   94TCq2    O5 1441   4.030   2.401  14.282  0.1442  0.4422 -0.0700
   94TCq2    O6 1442   4.171   2.370  14.457 -0.6301  0.3941  0.2706
   94TCq2    H2 1443   4.083   2.286  14.102  0.6452 -0.9443 -3.1771
   94TCq2    H3 1444   4.406   2.328  14.367 -0.0109  1.6734 -0.7735
   94TCq2    H4 1445   4.487   2.201  13.970 -0.9465 -0.1596 -0.4279
   95TMC2    C1 1446   0.331   3.416  16.044  0.1152 -0.0535 -0.5635
   95TMC2    C2 1447   0.371   3.291  16.085 -0.2799  0.3160 -0.3305
   95TMC2    C3 1448   0.311   3.237  16.197  0.1706 -0.5449 -0.2142
   95TMC2    C4 1449   0.230   3.483  16.108 -0.5420  0.6867 -0.2569
   95TMC2    C5 1450   0.170   3.422  16.215  0.3070  0.2587  0.2885
   95TMC2    C6 1451   0.217   3.305  16.264  0.1943  0.1970  0.4327
   95TMC2     C 1452   0.413   3.491  15.944 -0.1046 -0.1434  0.3693
   95TMC2     O 1453   0.377   3.602  15.913 -0.2679  0.4358 -0.2273
   95TMC2     H 1454   0.448   3.231  16.038  0.0986  0.0545  0.6094
   95TMC2    H1 1455   0.187   3.574  16.069 -0.0338  0.8440 -0.4362
   95TMC2    H2 1456   0.175   3.268  16.357 -1.0363  1.8927  0.5374
   95TMC2    C7 1457   0.088   3.489  16.309 -0.8928 -0.3963  0.0357
   95TMC2    C8 1458   0.355   3.105  16.238 -0.4179 -0.3036  0.2991
   95TMC2    O1 1459   0.086   3.449  16.424  0.2507 -0.0215 -0.2541
   95TMC2    O2 1460   0.430   3.036  16.173 -0.6110 -0.6694 -0.4439
   95TMC2    O5 1461   0.304   3.068  16.363  0.0693 -0.1595 -0.7483
   95TMC2    H5 1462   0.272   3.144  16.416  1.0944  0.6438 -1.2655
   96MPD2     C 1463   0.793   3.509  15.602  0.0431  0.0097 -0.5803
   96MPD2    C1 1464   0.713   3.611  15.647  0.2036  0.3033 -0.0099
   96MPD2    C2 1465   0.619   3.587  15.747  0.2315 -0.1858  0.1516
   96MPD2    C3 1466   0.609   3.461  15.801 -0.2709 -0.2858  0.2082
   96MPD2    C4 1467   0.691   3.364  15.754  0.0266 -0.2118 -0.2545
   96MPD2    C5 1468   0.783   3.389  15.661 -0.6541 -0.1968 -0.4861
   96MPD2     H 1469   0.551   3.668  15.770 -0.4817 -0.0961 -2.3137
   96MPD2    H1 1470   0.698   3.267  15.801 -1.6560  0.0941  0.6335
   96MPD2    H2 1471   0.875   3.528  15.534 -1.2670  0.6284 -1.9868
   96MPD2    H3 1472   0.843   3.311  15.617  0.0221 -1.3022  2.3712
   96MPD2     N 1473   0.514   3.418  15.895  0.0564 -0.4641  0.3599
   96MPD2    H5 1474   0.515   3.322  15.929 -0.1903 -0.6290 -0.1076
   96MPD2    N1 1475   0.732   3.735  15.581 -0.4875 -0.5166 -0.7241
   96MPD2    H7 1476   0.816   3.742  15.525  0.6812  1.0951  1.2063
   97MPD2     C 1477   2.035   1.324   1.875  0.4830 -0.0052 -0.0951
   97MPD2    C1 1478   2.014   1.432   1.795 -0.5174 -0.0109 -0.2124
   97MPD2    C2 1479   2.023   1.412   1.658 -0.6281 -0.5722  0.2838
   97MPD2    C3 1480   2.059   1.294   1.596 -0.1764  0.0292  0.3233
   97MPD2    C4 1481   2.072   1.187   1.677 -0.4628  0.0769  0.6425
   97MPD2    C5 1482   2.067   1.202   1.815 -0.2786  0.2520 -0.5117
   97MPD2     H 1483   2.001   1.498   1.595  1.5003  0.0660  0.4202
   97MPD2    H1 1484   2.079   1.084   1.642 -1.7290  0.4246 -0.6498
   97MPD2    H2 1485   2.020   1.327   1.982 -0.3796  1.2321 -0.2581
   97MPD2    H3 1486   2.076   1.110   1.872 -0.8226 -0.5054 -1.6702
   97MPD2     N 1487   2.062   1.269   1.461  0.0792 -0.2143  0.4562
   97MPD2    H5 1488   2.079   1.174   1.430  1.0213 -0.1348  0.7435
   97MPD2    N1 1489   1.989   1.560   1.851  0.0073 -0.2013  0.2419
   97MPD2    H7 1490   2.017   1.564   1.949 -2.0560  2.2354  0.7237
   98TCq2    C1 1491   2.057   1.367   1.364 -0.2598  0.2653 -0.6338
   98TCq2    O2 1492   2.100   1.483   1.376  0.5990 -0.1783 -0.3127
   98TCq2    C2 1493   2.022   1.321   1.230 -0.0504 -0.0057 -0.4231
   98TCq2    C3 1494   1.947   1.211   1.218 -1.2447  0.7104  0.3468
   98TCq2    C4 1495   1.942   1.139   1.099  0.0227 -0.0116 -0.4894
   98TCq2    C5 1496   2.018   1.182   0.996  0.0469  0.6033 -0.6135
   98TCq2    C6 1497   2.091   1.303   1.005 -0.1722 -0.4339 -0.0936
   98TCq2    C7 1498   2.102   1.364   1.122 -0.1145  0.1896  0.1226
   98TCq2    C8 1499   2.168   1.351   0.897 -0.3268 -0.6331  0.0642
   98TCq2    O4 1500   2.277   1.403   0.921 -0.0805 -0.0091  0.4019
   98TCq2    C9 1501   1.858   1.021   1.080 -0.7107 -0.0431  0.7829
   98TCq2    O5 1502   1.799   1.016   0.969 -0.3063 -0.1530  0.7248
   98TCq2    O6 1503   1.811   0.969   1.185 -0.0506 -0.0530  0.5873
   98TCq2    H2 1504   1.892   1.169   1.301 -0.9657  0.9806  0.6702
   98TCq2    H3 1505   2.016   1.131   0.900 -1.2748  0.3071 -0.4284
   98TCq2    H4 1506   2.163   1.453   1.133  0.3176 -0.2113  1.0167
   99MPD2     C 1507   0.794   3.297   2.088 -0.3865  0.1147  0.3289
   99MPD2    C1 1508   0.661   3.318   2.073  0.5085 -0.3794  0.3530
   99MPD2    C2 1509   0.618   3.330   1.940 -0.1831 -0.0637 -0.2377
   99MPD2    C3 1510   0.710   3.333   1.830 -0.4065 -0.0013  0.0977
   99MPD2    C4 1511   0.841   3.330   1.856  0.0335  0.7696  0.1940
   99MPD2    C5 1512   0.887   3.325   1.987 -0.2717 -0.1777  0.0802
   99MPD2     H 1513   0.510   3.342   1.932 -0.0425  0.4846 -1.2687
   99MPD2    H1 1514   0.917   3.344   1.780  0.5567  1.6785  0.8825
   99MPD2    H2 1515   0.845   3.291   2.184  3.8342  1.2001 -1.8281
   99MPD2    H3 1516   0.995   3.321   1.999 -0.5796 -2.0089  2.2295
   99MPD2     N 1517   0.652   3.354   1.704  0.2380  0.3910  0.6738
   99MPD2    H5 1518   0.551   3.363   1.697  0.3260  1.7807  1.1830
   99MPD2    N1 1519   0.568   3.322   2.181 -0.9281 -0.1626  0.0102
   99MPD2    H7 1520   0.471   3.351   2.172 -0.4945  1.9709  1.9699
  100TCq2    C1 1521   0.606   3.302   2.311  0.5114  0.1440  0.0695
  100TCq2    O2 1522   0.717   3.290   2.360  0.6691 -0.6110  0.0472
  100TCq2    C2 1523   0.492   3.307   2.414 -0.0149 -0.3807 -0.0429
  100TCq2    C3 1524   0.513   3.245   2.532 -1.0407 -0.3280 -0.0383
  100TCq2    C4 1525   0.431   3.254   2.635 -0.2737 -0.7407  0.7390
  100TCq2    C5 1526   0.320   3.334   2.620 -0.5092 -0.1279  0.5910
  100TCq2    C6 1527   0.294   3.390   2.498 -0.0193 -0.1734  0.3492
  100TCq2    C7 1528   0.374   3.373   2.392  0.2212  0.7083  0.3925
  100TCq2    C8 1529   0.168   3.458   2.474  0.2946 -0.0633  0.2669
  100TCq2    O4 1530   0.119   3.520   2.566  0.0744  0.4141  0.1653
  100TCq2    C9 1531   0.458   3.201   2.773  0.2979  0.0724 -0.7230
  100TCq2    O5 1532   0.415   3.274   2.871  0.6627  0.5671 -0.5397
  100TCq2    O6 1533   0.565   3.133   2.781 -0.2730 -0.4588  0.1591
  100TCq2    H2 1534   0.614   3.212   2.557 -0.4553  2.2520  1.0128
  100TCq2    H3 1535   0.249   3.353   2.699 -0.8812  0.6270  0.0769
  100TCq2    H4 1536   0.356   3.421   2.297 -0.6750 -1.2793 -0.4500
  101MPD2     C 1537   1.419   4.229  12.832 -0.8502 -0.0177 -0.0314
  101MPD2    C1 1538   1.330   4.299  12.913  1.2948 -0.0548 -0.6080
  101MPD2    C2 1539   1.259   4.227  13.006  0.2040  0.3209  0.3187
  101MPD2    C3 1540   1.265   4.091  13.010 -0.1914 -0.4974 -0.2975
  101MPD2    C4 1541   1.354   4.026  12.927 -0.5155 -0.0544 -0.4507
  101MPD2    C5 1542   1.432   4.092  12.840 -0.2844  0.5701 -0.0099
  101MPD2     H 1543   1.187   4.271  13.074  1.9139 -1.7199  3.4608
  101MPD2    H1 1544   1.364   3.918  12.918  3.2923  0.3657 -1.1978
  101MPD2    H2 1545   1.467   4.275  12.746 -1.4840  1.5161  0.4263
  101MPD2    H3 1546   1.482   4.039  12.761 -1.7482  1.1279 -1.3192
  101MPD2     N 1547   1.166   4.035  13.099  0.6596 -0.1715 -0.4303
  101MPD2    H5 1548   1.114   4.093  13.165  1.2268 -0.8363  0.6079
  101MPD2    N1 1549   1.318   4.435  12.890 -0.3648  0.2119 -0.2141
  101MPD2    H7 1550   1.380   4.475  12.820  2.2119  2.4064  3.3195
  102TCq2    C1 1551   1.247   0.086  12.577  0.1131 -0.3718 -0.1324
  102TCq2    O2 1552   1.339   0.018  12.534  0.1936 -0.1114 -0.1192
  102TCq2    C2 1553   1.209   0.063  12.712 -0.0870  0.4322  0.1989
  102TCq2    C3 1554   1.131   0.155  12.783 -0.0377 -0.2984 -0.3625
  102TCq2    C4 1555   1.095   0.119  12.903 -0.6147  0.2034 -0.2351
  102TCq2    C5 1556   1.145   0.015  12.968  0.3736 -0.7886  0.0210
  102TCq2    C6 1557   1.216   4.650  12.896  0.0998  0.5497 -0.1061
  102TCq2    C7 1558   1.247   4.665  12.762  0.8512  0.3759  0.0060
  102TCq2    C8 1559   1.232   4.514  12.955  1.2318 -0.2559 -0.0190
  102TCq2    O4 1560   1.157   4.494  13.047  0.2879  0.1760  0.5074
  102TCq2    C9 1561   1.021   0.216  12.981 -0.0566 -0.1167  0.1574
  102TCq2    O5 1562   1.002   0.185  13.103  0.4311  0.1295  0.5612
  102TCq2    O6 1563   0.959   0.300  12.914  0.1833 -0.3453 -0.1311
  102TCq2    H2 1564   1.114   0.256  12.750  0.0750 -0.3046 -0.4374
  102TCq2    H3 1565   1.116   4.718  13.070  2.9333 -0.5220  0.8215
  102TCq2    H4 1566   1.305   4.584  12.719 -0.2106  0.5823 -1.8056
  103TMC2    C1 1567   0.042   4.646  12.678  0.3449 -0.2709 -1.0712
  103TMC2    C2 1568   0.183   4.656  12.659  0.2273 -0.1445  0.0342
  103TMC2    C3 1569   0.243   0.046  12.720 -0.1370  0.5589  0.1346
  103TMC2    C4 1570   4.698   0.024  12.755  0.3326  0.6724  0.7138
  103TMC2    C5 1571   0.049   0.116  12.821 -0.5803 -0.1730  0.2427
  103TMC2    C6 1572   0.179   0.139  12.802 -0.6924  0.0034  1.0178
  103TMC2     C 1573   4.675   4.576  12.586  0.4537  0.5336  0.3798
  103TMC2     O 1574   4.554   4.584  12.603 -0.1214 -0.0373 -0.1320
  103TMC2     H 1575   0.247   4.590  12.601  0.9544 -1.0472  1.8657
  103TMC2    H1 1576   4.594   0.016  12.786  0.5321 -0.5473  1.0493
  103TMC2    H2 1577   0.238   0.221  12.841  2.4546 -1.0971 -1.4035
  103TMC2    C7 1578   4.695   0.179  12.922 -0.1162  0.7138  0.5999
  103TMC2    C8 1579   0.384   0.047  12.720 -0.5226  0.2863 -0.2516
  103TMC2    O1 1580   4.639   0.105  12.999  0.3879  0.1048  0.5839
  103TMC2    O2 1581   0.445   0.005  12.622  0.3824 -0.2302  0.3691
  103TMC2    O5 1582   0.411   0.008  12.845  0.0080 -0.1086 -0.2528
  103TMC2    H5 1583   0.364   0.070  12.906  1.0884 -1.5347  2.0369
  104MPD2     C 1584   0.049   4.303  12.355 -0.4456 -0.6257 -0.9711
  104MPD2    C1 1585   4.699   4.409  12.402 -0.0203 -0.1329 -0.4114
  104MPD2    C2 1586   4.581   4.439  12.342 -0.1801 -0.0429  1.1238
  104MPD2    C3 1587   4.530   4.362  12.238 -0.8619 -0.1662 -0.1712
  104MPD2    C4 1588   4.603   4.251  12.197 -0.2114  0.0580 -0.2381
  104MPD2    C5 1589   0.006   4.229  12.255 -0.1226 -0.0380  0.3385
  104MPD2     H 1590   4.524   4.528  12.365 -1.4855 -0.9696  1.4507
  104MPD2    H1 1591   4.579   4.189  12.111  0.6663 -0.0078 -0.4346
  104MPD2    H2 1592   0.142   4.278  12.405  0.4078  1.1185 -1.6741
  104MPD2    H3 1593   0.081   4.161  12.217 -0.5742 -0.3377 -0.0111
  104MPD2     N 1594   4.404   4.400  12.180  0.0108 -0.4272 -0.2268
  104MPD2    H5 1595   4.364   4.489  12.208  4.0395  1.0015  0.9059
  104MPD2    N1 1596   0.017   4.480  12.522  0.3777 -0.8717 -0.2689
  104MPD2    H7 1597   0.117   4.473  12.540 -0.0772  0.0257  2.5852
  105MPD2     C 1598   1.353   3.780   0.421 -0.3444 -0.0769 -0.1562
  105MPD2    C1 1599   1.311   3.907   0.397 -0.3010  0.1764  0.0857
  105MPD2    C2 1600   1.234   3.978   0.484  0.2398  0.0383 -0.2413
  105MPD2    C3 1601   1.198   3.912   0.600 -0.3097 -0.0275  0.4973
  105MPD2    C4 1602   1.249   3.789   0.634 -0.3986 -0.0810 -0.4335
  105MPD2    C5 1603   1.329   3.726   0.545 -0.2479  0.4655 -0.1656
  105MPD2     H 1604   1.194   4.076   0.464  1.0578 -0.3792 -3.9160
  105MPD2    H1 1605   1.217   3.736   0.723  0.0144  0.5786  0.1119
  105MPD2    H2 1606   1.410   3.721   0.351 -0.9405  0.2357 -0.9102
  105MPD2    H3 1607   1.346   3.620   0.561  2.6920  0.5392 -2.7622
  105MPD2     N 1608   1.104   3.983   0.683  0.5768 -0.5269 -0.7153
  105MPD2    H5 1609   1.088   4.081   0.660  0.3939 -1.1287 -3.1221
  105MPD2    N1 1610   1.345   3.976   0.279 -0.0999 -0.2406  0.5595
  105MPD2    H7 1611   1.307   4.070   0.275  1.4119  0.4217  1.9091
  106TCq2    C1 1612   1.025   3.923   0.786  0.4497 -0.1338 -0.0109
  106TCq2    O2 1613   1.024   3.812   0.838 -0.2652  0.2947  0.8037
  106TCq2    C2 1614   0.922   4.017   0.843  0.1968  0.1655  0.5934
  106TCq2    C3 1615   0.881   4.121   0.768 -0.2079 -0.1568 -0.2128
  106TCq2    C4 1616   0.755   4.169   0.785  0.3909 -0.2663  0.0394
  106TCq2    C5 1617   0.674   4.119   0.885 -0.1390 -0.2577  0.1285
  106TCq2    C6 1618   0.721   4.022   0.969 -0.3928  0.3021  0.3113
  106TCq2    C7 1619   0.843   3.967   0.946  0.0704 -0.1548 -0.4724
  106TCq2    C8 1620   0.680   4.028   1.104 -0.1080 -0.5662 -0.0047
  106TCq2    O4 1621   0.708   3.929   1.173 -0.8656  0.5849  0.6558
  106TCq2    C9 1622   0.705   4.266   0.697  0.7033 -0.0047 -0.0428
  106TCq2    O5 1623   0.578   4.284   0.691  0.1372 -0.0605  0.3349
  106TCq2    O6 1624   0.772   4.294   0.590 -0.0319 -0.2504  0.0153
  106TCq2    H2 1625   0.940   4.147   0.680  0.1972 -0.6476 -0.0856
  106TCq2    H3 1626   0.573   4.157   0.901 -0.4487 -1.0449  0.0624
  106TCq2    H4 1627   0.878   3.907   1.029  0.2319 -2.0272 -1.8976
  107TMC2    C1 1628   1.619   2.764  11.488  0.5135 -0.4610  0.5502
  107TMC2    C2 1629   1.518   2.807  11.416  0.5489 -0.0403  0.2052
  107TMC2    C3 1630   1.487   2.752  11.294  0.0906 -0.3275 -0.2276
  107TMC2    C4 1631   1.693   2.664  11.448 -0.8235  0.7868  0.3669
  107TMC2    C5 1632   1.669   2.623  11.319  0.0916  0.4523 -0.3575
  107TMC2    C6 1633   1.569   2.659  11.240  0.1319 -0.4777  0.1848
  107TMC2     C 1634   1.618   2.816  11.627  0.1447 -0.4594  0.1980
  107TMC2     O 1635   1.521   2.878  11.666 -0.2629  0.1345  0.0947
  107TMC2     H 1636   1.461   2.891  11.454 -2.9407 -1.7989 -1.1421
  107TMC2    H1 1637   1.766   2.609  11.507 -1.5328  0.1264  0.6375
  107TMC2    H2 1638   1.541   2.616  11.144 -1.7925  2.5305 -0.6171
  107TMC2    C7 1639   1.756   2.521  11.251  0.7487 -0.0068 -0.1932
  107TMC2    C8 1640   1.404   2.829  11.203  0.2937 -0.0082 -0.3848
  107TMC2    O1 1641   1.709   2.439  11.175  0.0222  0.1616 -0.3557
  107TMC2    O2 1642   1.327   2.771  11.132 -0.2822 -0.0097 -0.4860
  107TMC2    O5 1643   1.481   2.937  11.165 -0.3498  0.0933  0.1259
  107TMC2    H5 1644   1.553   2.959  11.227 -2.3948  0.4550  2.3889
  108MPD2     C 1645   1.895   2.769  11.863  0.0853 -0.3596  0.1218
  108MPD2    C1 1646   1.770   2.809  11.820  0.2770 -0.1386  0.3153
  108MPD2    C2 1647   1.689   2.875  11.908  0.5084 -0.2304  0.1037
  108MPD2    C3 1648   1.732   2.903  12.034  0.3632 -0.5335 -0.2467
  108MPD2    C4 1649   1.859   2.872  12.071  0.2266  0.4566 -0.3164
  108MPD2    C5 1650   1.937   2.795  11.991  0.0385 -0.4626  0.2078
  108MPD2     H 1651   1.589   2.907  11.882  0.1818 -2.9276 -1.9616
  108MPD2    H1 1652   1.898   2.915  12.162  1.6949  0.7576 -1.0841
  108MPD2    H2 1653   1.962   2.711  11.801  1.1104  0.6857  0.2640
  108MPD2    H3 1654   2.036   2.759  12.016 -0.1026 -1.2870 -0.4293
  108MPD2     N 1655   1.650   2.987  12.118  0.2244  0.6038  0.1060
  108MPD2    H5 1656   1.674   2.998  12.217 -1.6403 -1.8496  0.8132
  108MPD2    N1 1657   1.738   2.778  11.685 -0.2050 -0.0693 -0.4328
  108MPD2    H7 1658   1.801   2.732  11.620  1.0271  1.7315 -0.5007
  109MPD2     C 1659   2.753   1.035   2.404  0.9411  0.3826 -0.1648
  109MPD2    C1 1660   2.749   1.115   2.294  0.0359 -0.2261  0.3334
  109MPD2    C2 1661   2.795   1.246   2.303  0.2890 -0.1680  0.0626
  109MPD2    C3 1662   2.814   1.309   2.424  1.1942  0.5695  0.3081
  109MPD2    C4 1663   2.814   1.222   2.534  0.1435  0.3623 -0.2963
  109MPD2    C5 1664   2.772   1.093   2.521  0.6476 -0.2029 -0.0499
  109MPD2     H 1665   2.777   1.326   2.232 -1.6088  1.4086  2.3085
  109MPD2    H1 1666   2.858   1.247   2.629 -1.5528 -1.3270  0.9380
  109MPD2    H2 1667   2.735   0.928   2.410 -1.4453  0.7884  0.1336
  109MPD2    H3 1668   2.764   1.037   2.614 -1.2783  1.3648  0.7175
  109MPD2     N 1669   2.850   1.442   2.412  0.4391 -0.0017 -0.0265
  109MPD2    H5 1670   2.835   1.487   2.323  0.2602  0.1531  0.0835
  109MPD2    N1 1671   2.734   1.050   2.172 -1.2730  0.3429  0.9889
  109MPD2    H7 1672   2.691   0.958   2.173  1.8564 -1.1215 -0.8391
  110TCq2    C1 1673   2.893   1.522   2.517  0.6605  0.3892 -0.0042
  110TCq2    O2 1674   2.913   1.494   2.632 -0.0194 -0.5479 -0.6520
  110TCq2    C2 1675   2.894   1.662   2.474  0.5100 -0.0536 -0.0780
  110TCq2    C3 1676   2.969   1.756   2.543 -0.4848  0.2509 -0.6856
  110TCq2    C4 1677   2.955   1.884   2.513 -0.7906 -0.1134  0.4089
  110TCq2    C5 1678   2.862   1.924   2.427 -0.1590 -0.5122  0.4624
  110TCq2    C6 1679   2.792   1.832   2.356 -1.4457 -0.0579  0.9359
  110TCq2    C7 1680   2.809   1.701   2.374 -0.0960  0.1848 -0.2522
  110TCq2    C8 1681   2.691   1.871   2.255 -0.6349 -1.0173  0.3226
  110TCq2    O4 1682   2.614   1.789   2.211 -0.0596  0.4950 -0.7031
  110TCq2    C9 1683   3.018   1.979   2.601  0.2436  0.6973 -0.7713
  110TCq2    O5 1684   3.048   1.935   2.713  0.0948  0.4902  0.5490
  110TCq2    O6 1685   3.029   2.101   2.562  0.2266 -0.0666  0.4529
  110TCq2    H2 1686   3.028   1.725   2.629 -3.2558  0.5741  1.3399
  110TCq2    H3 1687   2.847   2.032   2.427  3.0091 -0.0539  3.9696
  110TCq2    H4 1688   2.739   1.633   2.327  0.4728 -2.8245  3.3336
  111TMC2    C1 1689   1.294   0.175  11.068 -1.2417 -0.0445 -0.7109
  111TMC2    C2 1690   1.246   0.086  11.158  0.7579  0.3978 -0.5377
  111TMC2    C3 1691   1.327   0.059  11.260  0.5161 -0.5268 -0.3917
  111TMC2    C4 1692   1.420   0.234  11.074 -0.2930 -0.0822  0.0724
  111TMC2    C5 1693   1.491   0.209  11.187 -0.1656 -0.7968 -0.5559
  111TMC2    C6 1694   1.450   0.112  11.277  0.9579 -0.1697  0.0652
  111TMC2     C 1695   1.203   0.243  10.978  0.2382 -0.3118 -0.5132
  111TMC2     O 1696   1.240   0.315  10.884  0.8037 -0.0488 -0.2384
  111TMC2     H 1697   1.161   0.022  11.137  0.8883 -0.3490  1.2672
  111TMC2    H1 1698   1.447   0.316  11.008  1.7144 -0.5868  0.2753
  111TMC2    H2 1699   1.500   0.092  11.371 -0.6543 -1.0513  0.7500
  111TMC2    C7 1700   1.612   0.292  11.204  0.5688  1.4607  0.1019
  111TMC2    C8 1701   1.289   4.680  11.369  0.2930  0.2343 -0.6944
  111TMC2    O1 1702   1.683   0.324  11.107 -0.6278  0.0664 -0.2277
  111TMC2    O2 1703   1.369   4.613  11.433  0.3155  0.3202  0.3902
  111TMC2    O5 1704   1.154   4.660  11.356  0.4787 -0.6033 -0.0124
  111TMC2    H5 1705   1.122   0.029  11.344 -1.1476 -1.2307 -0.3956
  112MPD2     C 1706   0.713   0.377  10.876 -0.1637 -0.4141 -0.1491
  112MPD2    C1 1707   0.819   0.354  10.791  0.4693  0.1713  0.7150
  112MPD2    C2 1708   0.944   0.321  10.831 -0.5636  0.3503 -0.0160
  112MPD2    C3 1709   0.968   0.299  10.969 -0.6956  0.3304  0.0947
  112MPD2    C4 1710   0.862   0.317  11.051 -0.5355 -0.1479 -0.5598
  112MPD2    C5 1711   0.738   0.354  11.010  0.0372  0.2470 -0.5165
  112MPD2     H 1712   1.019   0.316  10.753  0.3655  2.2249  0.7598
  112MPD2    H1 1713   0.868   0.275  11.151  0.4592  0.9859 -0.1530
  112MPD2    H2 1714   0.609   0.389  10.848  0.1703  2.7388 -0.0436
  112MPD2    H3 1715   0.658   0.366  11.083  0.5141  0.6308 -0.0588
  112MPD2     N 1716   1.081   0.246  11.035  0.5815 -0.1913  0.0684
  112MPD2    H5 1717   1.066   0.203  11.126  0.9805  0.4143  0.4173
  112MPD2    N1 1718   0.801   0.372  10.653  0.3805 -0.5854  0.1160
  112MPD2    H7 1719   0.883   0.364  10.593 -0.3565 -0.7022 -0.8689
  113MPD2     C 1720   4.513   3.467   1.151 -0.7710 -0.1354  0.6342
  113MPD2    C1 1721   4.473   3.583   1.078  0.2449 -0.1165 -0.3135
  113MPD2    C2 1722   4.373   3.568   0.986 -0.6243  0.5972  0.7286
  113MPD2    C3 1723   4.307   3.442   0.963  0.4368  0.5970  0.1092
  113MPD2    C4 1724   4.361   3.330   1.030 -0.2931 -0.2553  0.0421
  113MPD2    C5 1725   4.455   3.345   1.122  0.2389  0.0367 -0.4264
  113MPD2     H 1726   4.348   3.660   0.935 -0.8174  0.7001  1.0126
  113MPD2    H1 1727   4.315   3.234   1.010  0.3192 -0.0552 -2.2829
  113MPD2    H2 1728   4.579   3.479   1.237  0.0669  1.6091 -0.2507
  113MPD2    H3 1729   4.477   3.265   1.192  0.3294  1.0679  0.7187
  113MPD2     N 1730   4.194   3.422   0.875 -0.2577  0.2167  0.5281
  113MPD2    H5 1731   4.176   3.324   0.859  0.2383  0.2604 -0.2841
  113MPD2    N1 1732   4.528   3.708   1.105  0.4570  0.4298  0.1511
  113MPD2    H7 1733   4.485   3.791   1.066  2.3024  1.9530  1.3681
  114TCq2    C1 1734   4.130   3.519   0.805  0.2934 -0.6217 -0.0483
  114TCq2    O2 1735   4.139   3.642   0.809 -0.0671 -0.0918  0.1708
  114TCq2    C2 1736   4.018   3.466   0.726 -0.0274 -0.0530 -0.2392
  114TCq2    C3 1737   3.958   3.562   0.653 -0.0514  0.2883 -0.6369
  114TCq2    C4 1738   3.840   3.529   0.591 -0.2339 -0.3149 -0.0828
  114TCq2    C5 1739   3.789   3.407   0.615  0.3832 -0.0772 -0.2422
  114TCq2    C6 1740   3.841   3.318   0.704  0.5309 -0.4230 -0.9375
  114TCq2    C7 1741   3.967   3.339   0.749 -0.2242  0.1693  0.4527
  114TCq2    C8 1742   3.764   3.192   0.727  0.3705  0.9247  0.1611
  114TCq2    O4 1743   3.671   3.172   0.649  0.0502  0.4075 -0.2377
  114TCq2    C9 1744   3.786   3.611   0.486 -0.1805 -0.0307 -0.0173
  114TCq2    O5 1745   3.864   3.698   0.429 -0.5394  0.4441  0.0100
  114TCq2    O6 1746   3.668   3.587   0.451  0.0944  0.0264 -0.0414
  114TCq2    H2 1747   4.005   3.654   0.622  1.8906  0.8732  4.0839
  114TCq2    H3 1748   3.691   3.389   0.571 -0.0072  1.3221  0.0405
  114TCq2    H4 1749   4.008   3.267   0.818  0.5594 -0.9201 -1.1571
  115TMC2    C1 1750   0.846   1.258   0.043 -0.2092 -0.2046 -0.5890
  115TMC2    C2 1751   0.979   1.219   0.052  0.0383  0.5500 -0.4873
  115TMC2    C3 1752   1.077   1.320   0.074 -0.3571  0.0255  0.7373
  115TMC2    C4 1753   0.800   1.387   0.054 -0.1440  0.1615  0.3970
  115TMC2    C5 1754   0.900   1.476   0.083  0.5335  0.1934  0.0110
  115TMC2    C6 1755   1.034   1.447   0.087  0.2030 -0.5503  1.0090
  115TMC2     C 1756   0.753   1.145   0.040 -0.8046  0.1759  0.5301
  115TMC2     O 1757   0.793   1.031   0.024 -0.4018 -0.1237 -0.6708
  115TMC2     H 1758   1.002   1.113   0.052  1.0412  0.7649  1.0040
  115TMC2    H1 1759   0.694   1.407   0.041 -0.0039  0.9864  0.5033
  115TMC2    H2 1760   1.108   1.525   0.096 -2.1411  1.6883  0.7806
  115TMC2    C7 1761   0.854   1.615   0.077 -0.1191 -0.2808 -0.2706
  115TMC2    C8 1762   1.212   1.287   0.045  0.5010  0.0697 -0.5067
  115TMC2    O1 1763   0.760   1.644   0.148 -0.7662 -0.0695 -0.7131
  115TMC2    O2 1764   1.303   1.341   0.109 -0.1085  0.0475 -0.0237
  115TMC2    O5 1765   1.218   1.203  17.633  0.1052  0.5444 -0.4978
  115TMC2    H5 1766   1.130   1.195  17.590 -0.3464  0.0277  0.5332
  116MPD2     C 1767   0.279   0.941   0.105  0.3299 -0.2851 -0.0891
  116MPD2    C1 1768   0.388   0.892   0.042 -0.6329 -0.1691  0.2105
  116MPD2    C2 1769   0.515   0.964   0.042 -0.3103  0.0839 -0.5864
  116MPD2    C3 1770   0.517   1.093   0.099 -0.3502  0.0647  0.3192
  116MPD2    C4 1771   0.407   1.130   0.167 -0.2874  0.4019  0.0439
  116MPD2    C5 1772   0.292   1.060   0.168  0.3775  0.4207 -0.2140
  116MPD2     H 1773   0.596   0.920  17.677  0.8697 -0.8163  1.7621
  116MPD2    H1 1774   0.392   1.229   0.208  1.1544  0.1959  1.0343
  116MPD2    H2 1775   0.191   0.878   0.112 -0.9259  1.2032 -2.3836
  116MPD2    H3 1776   0.208   1.103   0.222  0.2859 -0.1066  0.0647
  116MPD2     N 1777   0.631   1.180   0.092  0.4691  0.0870  0.5272
  116MPD2    H5 1778   0.613   1.273   0.129 -1.8602  0.2549 -0.9919
  116MPD2    N1 1779   0.367   0.764  17.675  0.1508 -0.0162 -0.8554
  116MPD2    H7 1780   0.269   0.740  17.662  0.5243 -0.9119 -1.9306
  117TMC2    C1 1781   3.711   2.579  14.370  0.0599 -0.1677  0.4953
  117TMC2    C2 1782   3.745   2.476  14.452 -0.6721 -0.0623  1.0653
  117TMC2    C3 1783   3.859   2.490  14.529 -0.1702  0.3316 -0.0278
  117TMC2    C4 1784   3.801   2.684  14.349 -0.1787 -0.3281 -0.0210
  117TMC2    C5 1785   3.916   2.691  14.430 -0.5319 -0.1938  0.5606
  117TMC2    C6 1786   3.946   2.593  14.519  0.6833  0.4834  0.5047
  117TMC2     C 1787   3.580   2.570  14.308 -0.0453  0.7016 -0.1463
  117TMC2     O 1788   3.516   2.462  14.310  0.9791 -0.2820 -0.3236
  117TMC2     H 1789   3.676   2.393  14.461  0.9551 -1.5541 -0.1694
  117TMC2    H1 1790   3.787   2.756  14.269 -0.8537 -0.5343 -0.0846
  117TMC2    H2 1791   4.029   2.601  14.589  0.7703 -1.5324  0.6376
  117TMC2    C7 1792   4.027   2.757  14.363  0.3665  1.4123  0.6976
  117TMC2    C8 1793   3.870   2.405  14.643  0.6622  0.2306  0.1084
  117TMC2    O1 1794   4.004   2.849  14.284 -0.3672  0.1138 -0.2826
  117TMC2    O2 1795   3.776   2.384  14.715  0.3569  0.6143 -0.3696
  117TMC2    O5 1796   3.997   2.390  14.678  0.1904 -0.2799  0.4134
  117TMC2    H5 1797   4.058   2.397  14.601  1.7291  0.1664  1.6507
  118MPD2     C 1798   4.375   2.651  14.401 -0.3809 -0.2013 -0.1954
  118MPD2    C1 1799   4.275   2.738  14.373 -0.3183  0.5892  0.0556
  118MPD2    C2 1800   4.305   2.867  14.335  0.7447 -0.2682 -0.2392
  118MPD2    C3 1801   4.438   2.898  14.309  0.1462  0.2036  0.3955
  118MPD2    C4 1802   4.537   2.802  14.350 -0.0749 -0.8754  0.4224
  118MPD2    C5 1803   4.505   2.684  14.396 -0.0684  0.3176  0.4455
  118MPD2     H 1804   4.224   2.936  14.315  1.1190 -0.0288 -0.9064
  118MPD2    H1 1805   4.643   2.821  14.340 -0.0576 -3.6992 -4.5061
  118MPD2    H2 1806   4.340   2.552  14.426 -2.8065  0.4195 -1.1361
  118MPD2    H3 1807   4.592   2.622  14.415 -0.7081 -1.3307 -1.9979
  118MPD2     N 1808   4.477   3.026  14.269  0.6659 -0.2980 -0.1929
  118MPD2    H5 1809   4.577   3.037  14.279  0.5156 -1.0998  2.1575
  118MPD2    N1 1810   4.145   2.686  14.390 -0.6270  0.3805 -0.0803
  118MPD2    H7 1811   4.135   2.601  14.444  2.2890  0.1688  0.1342
  119MPD2     C 1812   2.267   3.310  12.924  0.3379 -0.2439  0.8277
  119MPD2    C1 1813   2.241   3.255  13.044 -0.4900  0.1969  0.2596
  119MPD2    C2 1814   2.148   3.150  13.057  0.1478  0.0693 -0.4947
  119MPD2    C3 1815   2.080   3.116  12.940 -0.3833 -0.1646  0.2594
  119MPD2    C4 1816   2.108   3.175  12.818  0.2750  0.1330 -0.9542
  119MPD2    C5 1817   2.206   3.274  12.814  0.6901  0.1643 -0.2987
  119MPD2     H 1818   2.122   3.116  13.157 -0.2232  1.4855 -0.1203
  119MPD2    H1 1819   2.045   3.132  12.741 -1.3221  1.7475 -0.5604
  119MPD2    H2 1820   2.330   3.397  12.915  0.2351 -0.1139  1.3740
  119MPD2    H3 1821   2.238   3.318  12.720  1.8504  0.0470  0.0361
  119MPD2     N 1822   1.971   3.032  12.935  0.4169 -0.0531 -0.0944
  119MPD2    H5 1823   1.907   3.030  12.857  1.7691  0.0640 -1.2080
  119MPD2    N1 1824   2.286   3.335  13.158 -0.5703 -0.4222  0.0783
  119MPD2    H7 1825   2.332   3.422  13.131 -1.1240  0.3494  1.5796
  120TCq2    C1 1826   1.942   2.939  13.029  0.7044 -0.3783  0.2960
  120TCq2    O2 1827   2.007   2.906  13.129  0.3596 -0.0729 -0.0864
  120TCq2    C2 1828   1.805   2.896  13.026 -0.0614 -0.1824  0.5406
  120TCq2    C3 1829   1.791   2.777  13.093 -0.0642  0.2062 -0.1692
  120TCq2    C4 1830   1.680   2.754  13.167  0.0637  0.9343  1.0975
  120TCq2    C5 1831   1.595   2.855  13.199  0.3226  0.0957  0.9751
  120TCq2    C6 1832   1.613   2.979  13.141 -0.3537  0.2762  0.4558
  120TCq2    C7 1833   1.715   2.993  13.047 -0.0600 -0.3921  0.4928
  120TCq2    C8 1834   1.556   3.100  13.193 -0.0340  0.1718 -0.2844
  120TCq2    O4 1835   1.546   3.194  13.114 -0.3085 -0.0779  0.1063
  120TCq2    C9 1836   1.672   2.620  13.220 -0.2405  0.5875  0.2480
  120TCq2    O5 1837   1.757   2.530  13.188 -0.1304 -0.0298  0.1284
  120TCq2    O6 1838   1.553   2.594  13.261  0.7277 -0.0293 -0.3691
  120TCq2    H2 1839   1.866   2.702  13.071 -2.2954 -1.9866 -0.2442
  120TCq2    H3 1840   1.506   2.839  13.259 -0.1888  0.1950  0.2486
  120TCq2    H4 1841   1.727   3.087  12.995 -0.3820 -0.4936  0.2324
  121TMC2    C1 1842   3.953   1.272  14.106  0.1318 -0.0439  0.5267
  121TMC2    C2 1843   3.906   1.212  14.217  0.1661 -0.2978  1.4803
  121TMC2    C3 1844   3.808   1.121  14.204 -0.0739  0.2554 -0.2686
  121TMC2    C4 1845   3.908   1.237  13.979  0.0810 -0.9348  0.1320
  121TMC2    C5 1846   3.810   1.144  13.979 -0.7049  0.3344 -0.0836
  121TMC2    C6 1847   3.751   1.082  14.088 -0.6678  0.5262 -0.0067
  121TMC2     C 1848   4.083   1.342  14.116 -0.2859 -0.1942  0.2688
  121TMC2     O 1849   4.128   1.334  14.231  0.2620 -0.1123 -0.1010
  121TMC2     H 1850   3.932   1.234  14.319 -0.1040  1.4265  1.1669
  121TMC2    H1 1851   3.954   1.261  13.883  1.5206  0.6645  1.2154
  121TMC2    H2 1852   3.691   0.994  14.068  1.0156 -0.6920  0.4068
  121TMC2    C7 1853   3.765   1.095  13.850  0.0396  0.4829 -0.2900
  121TMC2    C8 1854   3.778   1.046  14.322  0.7795 -0.4474  0.1554
  121TMC2    O1 1855   3.843   1.110  13.752  0.2754  0.2257  0.8197
  121TMC2    O2 1856   3.841   1.046  14.426 -0.0507 -0.0465 -0.0456
  121TMC2    O5 1857   3.645   1.026  14.316  0.0600 -0.1776 -0.5062
  121TMC2    H5 1858   3.601   1.054  14.233  0.2031  1.3230 -0.0920
  122MPD2     C 1859   4.347   1.446  14.082 -0.9891  0.4363 -0.0110
  122MPD2    C1 1860   4.260   1.431  13.973 -0.1552  0.2543 -0.7984
  122MPD2    C2 1861   4.301   1.476  13.848 -0.3393 -0.1891 -0.1517
  122MPD2    C3 1862   4.431   1.507  13.823 -0.2619  0.1463 -0.2927
  122MPD2    C4 1863   4.517   1.504  13.929  0.2823 -0.3810  0.2899
  122MPD2    C5 1864   4.472   1.486  14.056  0.0224  0.3195  0.1848
  122MPD2     H 1865   4.235   1.472  13.763 -0.3888 -0.4191 -0.1029
  122MPD2    H1 1866   4.619   1.538  13.917  0.3161 -0.9017 -0.9909
  122MPD2    H2 1867   4.329   1.440  14.189  1.2425  1.6166  0.4294
  122MPD2    H3 1868   4.541   1.498  14.140  1.7451 -0.9417 -1.0498
  122MPD2     N 1869   4.482   1.533  13.696 -0.3308 -0.9604  0.1982
  122MPD2    H5 1870   4.583   1.526  13.686 -0.4734 -2.6311  0.0391
  122MPD2    N1 1871   4.130   1.389  13.995 -0.0724  0.8684  0.0821
  122MPD2    H7 1872   4.065   1.403  13.918  0.9486  1.3131 -0.7014
  123MPD2     C 1873   0.561   3.871   9.069  0.1818 -0.0437 -1.4305
  123MPD2    C1 1874   0.611   3.997   9.060  0.1236  0.1498  0.1942
  123MPD2    C2 1875   0.729   4.036   9.115 -0.1170  0.0714 -0.0495
  123MPD2    C3 1876   0.801   3.938   9.183  0.8197 -0.4797  0.5197
  123MPD2    C4 1877   0.757   3.806   9.185  0.4144  0.2929 -0.1523
  123MPD2    C5 1878   0.631   3.778   9.138 -0.3025 -0.7132  0.3038
  123MPD2     H 1879   0.765   4.137   9.098 -1.5846  0.5993  0.0242
  123MPD2    H1 1880   0.817   3.724   9.223 -1.1478  0.1978  2.1198
  123MPD2    H2 1881   0.468   3.844   9.021 -0.0040 -0.5410 -0.7904
  123MPD2    H3 1882   0.593   3.677   9.142  1.0955 -1.2171  0.6883
  123MPD2     N 1883   0.927   3.980   9.229  0.3002  0.3574 -0.0882
  123MPD2    H5 1884   0.954   4.078   9.218  0.4269  0.3994  0.5957
  123MPD2    N1 1885   0.526   4.092   8.988  0.5831  0.1413  0.1372
  123MPD2    H7 1886   0.436   4.056   8.958  1.6669 -1.6783 -0.8921
  124TCq2    C1 1887   1.012   3.899   9.297  0.6922 -0.2163 -0.5547
  124TCq2    O2 1888   1.006   3.779   9.316  0.4310  0.0341  0.0473
  124TCq2    C2 1889   1.123   3.976   9.332  0.4581 -0.1937 -0.7730
  124TCq2    C3 1890   1.163   4.078   9.244  0.5186 -0.5081  0.4893
  124TCq2    C4 1891   1.251   4.172   9.298  0.3139  0.7203 -0.2878
  124TCq2    C5 1892   1.304   4.149   9.428 -0.2831  0.0926  0.3943
  124TCq2    C6 1893   1.279   4.031   9.499  0.6535 -0.3379 -0.6497
  124TCq2    C7 1894   1.179   3.951   9.448 -0.0956  0.1776  0.3852
  124TCq2    C8 1895   1.355   3.993   9.616 -0.7239  0.2682  0.3004
  124TCq2    O4 1896   1.370   3.874   9.632  0.2014  0.7668  0.6316
  124TCq2    C9 1897   1.309   4.276   9.213  0.4598  0.3008 -0.6435
  124TCq2    O5 1898   1.250   4.299   9.102  0.6464 -0.6935  0.0112
  124TCq2    O6 1899   1.433   4.301   9.234 -0.4259  0.3495 -0.3043
  124TCq2    H2 1900   1.143   4.088   9.138 -0.5249  0.4763  0.7896
  124TCq2    H3 1901   1.386   4.217   9.450 -1.5609  1.0739  2.1889
  124TCq2    H4 1902   1.146   3.865   9.505 -1.8217 -0.1045 -1.0654
  125TMC2    C1 1903   1.640   0.776   8.936  0.2019 -0.3325  0.0669
  125TMC2    C2 1904   1.714   0.680   8.874 -0.5600  0.2338  0.9825
  125TMC2    C3 1905   1.835   0.643   8.927 -0.2686 -0.0274  0.6285
  125TMC2    C4 1906   1.678   0.832   9.056  0.1249 -0.0323  0.3802
  125TMC2    C5 1907   1.794   0.782   9.109  0.3839  0.1745 -0.3899
  125TMC2    C6 1908   1.889   0.708   9.042  0.7027 -0.0358  1.1408
  125TMC2     C 1909   1.530   0.823   8.868 -0.2320  0.0765  0.0613
  125TMC2     O 1910   1.511   0.776   8.755  0.0223 -0.3360  0.1164
  125TMC2     H 1911   1.684   0.628   8.784  1.1369  1.3948 -0.2435
  125TMC2    H1 1912   1.624   0.910   9.108 -1.5614 -2.2331  1.9160
  125TMC2    H2 1913   1.991   0.691   9.072  0.6513 -1.7505  0.3316
  125TMC2    C7 1914   1.827   0.844   9.236 -0.3800  0.2109  1.1766
  125TMC2    C8 1915   1.929   0.574   8.848  0.1377  0.3642 -0.2290
  125TMC2    O1 1916   1.761   0.946   9.266 -0.2910 -0.6882 -0.3454
  125TMC2    O2 1917   2.044   0.610   8.840 -0.0337  0.8939 -0.2906
  125TMC2    O5 1918   1.881   0.458   8.797  0.4077 -0.3326 -0.2795
  125TMC2    H5 1919   1.790   0.434   8.824 -0.8523  1.8559 -2.4980
  126MPD1     C 1920   1.130   1.126   8.808 -0.5003  0.1250  0.2275
  126MPD1    C1 1921   1.173   1.137   8.939 -0.0984 -0.0321 -0.1381
  126MPD1    C2 1922   1.291   1.070   8.976  0.0918 -0.4415 -0.0158
  126MPD1    C3 1923   1.347   0.981   8.889  0.2389 -0.1249  0.0835
  126MPD1    C4 1924   1.295   0.959   8.763  0.3809 -0.7372  0.3991
  126MPD1    C5 1925   1.183   1.035   8.723 -0.1901  1.0195 -0.2683
  126MPD1     H 1926   1.320   1.072   9.081 -0.7531  1.6390  0.1836
  126MPD1    H1 1927   1.333   0.896   8.683  0.6062 -0.0201 -0.0571
  126MPD1    H2 1928   1.050   1.192   8.779 -1.9847 -1.0239  1.7190
  126MPD1    H3 1929   1.129   1.027   8.630  0.4447  0.0049 -0.5620
  126MPD1     N 1930   1.453   0.909   8.935  0.1281 -0.2250 -0.2562
  126MPD1    H5 1931   1.481   0.933   9.029  1.1080 -4.4831  0.5241
  126MPD1    N1 1932   1.122   1.241   9.013 -0.3961  0.0263  0.4102
  126MPD1    H6 1933   1.144   1.223   9.111  0.4684 -1.8438 -0.1217
  126MPD1    H7 1934   1.024   1.261   8.997 -0.1272  1.9987  1.2905
  127MPD2     C 1935   3.403   4.229  10.143 -0.0982 -0.4178  0.5250
  127MPD2    C1 1936   3.480   4.259  10.252 -0.1601  0.0464 -0.7639
  127MPD2    C2 1937   3.473   4.382  10.318 -0.0195 -1.0635 -0.2914
  127MPD2    C3 1938   3.396   4.481  10.261 -0.0269 -0.7523  0.7613
  127MPD2    C4 1939   3.312   4.448  10.157 -0.3619 -0.3660  0.2380
  127MPD2    C5 1940   3.307   4.323  10.103  0.1434  1.0754  0.0550
  127MPD2     H 1941   3.542   4.414  10.395  1.0484 -1.8757 -0.9056
  127MPD2    H1 1942   3.241   4.520  10.119  0.5360 -0.7097 -2.1125
  127MPD2    H2 1943   3.414   4.138  10.087  0.6596  1.2225 -1.9786
  127MPD2    H3 1944   3.236   4.306  10.023 -0.6650  2.7807  0.4089
  127MPD2     N 1945   3.405   4.609  10.311  0.5190  0.0671 -0.3345
  127MPD2    H5 1946   3.455   4.611  10.400 -0.6541  1.6712  0.2998
  127MPD2    N1 1947   3.568   4.157  10.299 -0.0134  0.0631 -0.0209
  127MPD2    H7 1948   3.561   4.065  10.259 -0.7488  0.4754 -0.8368
  128TCq2    C1 1949   3.634   4.157  10.420  0.4518 -0.5707  0.2496
  128TCq2    O2 1950   3.616   4.229  10.515 -0.4575  0.2452 -0.0280
  128TCq2    C2 1951   3.709   4.030  10.448  0.2355 -0.5403  0.2167
  128TCq2    C3 1952   3.750   4.004  10.578 -0.3969  0.3511  0.2849
  128TCq2    C4 1953   3.813   3.887  10.598 -0.8240 -0.9704  0.0658
  128TCq2    C5 1954   3.846   3.805  10.493 -0.4895 -0.5714 -0.6545
  128TCq2    C6 1955   3.813   3.841  10.363 -0.3793  0.3723  0.3282
  128TCq2    C7 1956   3.742   3.950  10.339 -0.4844  0.1340  0.2243
  128TCq2    C8 1957   3.852   3.745  10.255 -0.0821  0.0777  0.0502
  128TCq2    O4 1958   3.944   3.670  10.285 -0.3626  0.1749  0.2655
  128TCq2    C9 1959   3.849   3.841  10.732 -0.6441  0.5873 -0.1706
  128TCq2    O5 1960   3.929   3.748  10.745 -0.4781  0.2977 -0.8592
  128TCq2    O6 1961   3.823   3.920  10.825  0.7491 -0.1780 -0.1528
  128TCq2    H2 1962   3.726   4.068  10.663 -1.1490  1.7737 -1.0081
  128TCq2    H3 1963   3.883   3.708  10.527 -2.3745 -0.4887  1.6618
  128TCq2    H4 1964   3.730   3.984  10.237 -0.4753  0.7164  0.4153
  129MPD2     C 1965   3.058   4.302   1.494 -0.2111 -0.4556  0.1746
  129MPD2    C1 1966   3.018   4.294   1.623 -0.3621  0.0532  0.2035
  129MPD2    C2 1967   2.972   4.408   1.692  0.4710 -0.0488  0.6977
  129MPD2    C3 1968   2.968   4.532   1.630 -0.3364 -0.1126  0.4346
  129MPD2    C4 1969   3.003   4.535   1.492  0.4437  0.0949  0.3768
  129MPD2    C5 1970   3.041   4.419   1.431 -0.3952  0.9374  0.6542
  129MPD2     H 1971   2.928   4.398   1.791 -3.0190  2.0025 -0.6472
  129MPD2    H1 1972   2.986   4.622   1.429 -0.8821 -0.1422  0.4123
  129MPD2    H2 1973   3.089   4.211   1.445 -0.2427 -0.1187 -0.4616
  129MPD2    H3 1974   3.054   4.420   1.323 -2.0337 -2.3497  0.4213
  129MPD2     N 1975   2.912   4.649   1.695  0.4049  0.1104  0.0931
  129MPD2    H5 1976   2.887   4.638   1.793  0.4849  1.8177  0.3040
  129MPD2    N1 1977   3.006   4.170   1.694 -0.6758  0.0804 -0.5686
  129MPD2    H7 1978   2.985   4.156   1.792  2.0635  0.3220  0.0674
  130TCq2    C1 1979   3.040   4.044   1.652  0.0828  0.5113  1.2311
  130TCq2    O2 1980   3.126   4.013   1.568 -0.1453 -0.0855 -0.1417
  130TCq2    C2 1981   3.022   3.940   1.751  0.6516 -0.5766  0.0052
  130TCq2    C3 1982   3.111   3.834   1.756  0.2994 -0.0623 -0.3178
  130TCq2    C4 1983   3.075   3.736   1.843  0.3722 -0.1288  0.1938
  130TCq2    C5 1984   2.950   3.731   1.907 -0.6155  0.4554  0.5748
  130TCq2    C6 1985   2.869   3.835   1.890 -0.2155 -0.0861  0.6099
  130TCq2    C7 1986   2.904   3.943   1.816  0.7264 -0.0490 -0.0167
  130TCq2    C8 1987   2.731   3.824   1.917 -0.5211  0.3406  0.4609
  130TCq2    O4 1988   2.673   3.931   1.930 -0.6106  0.1147 -0.3378
  130TCq2    C9 1989   3.163   3.625   1.863 -0.2255 -0.5851 -0.1218
  130TCq2    O5 1990   3.129   3.539   1.949 -0.6693 -0.7527 -0.1552
  130TCq2    O6 1991   3.240   3.608   1.769  0.1795 -0.0044  0.5289
  130TCq2    H2 1992   3.203   3.836   1.697  1.6137  4.0221  1.8734
  130TCq2    H3 1993   2.928   3.650   1.976 -0.3975  0.5449  0.7519
  130TCq2    H4 1994   2.830   4.010   1.773  0.2609 -0.9447 -0.6088
  131MPD2     C 1995   0.589   0.328   8.793  0.0156 -0.3729 -0.6426
  131MPD2    C1 1996   0.693   0.240   8.776  0.0922  0.2342  0.0088
  131MPD2    C2 1997   0.655   0.108   8.736 -0.5571  0.5763  0.0022
  131MPD2    C3 1998   0.521   0.070   8.735  0.2621 -0.1380  0.5077
  131MPD2    C4 1999   0.424   0.166   8.752  0.3742  0.3733 -0.7834
  131MPD2    C5 2000   0.456   0.297   8.780 -0.1296  0.3084  0.4161
  131MPD2     H 2001   0.729   0.031   8.718 -1.6679 -0.3490 -0.5391
  131MPD2    H1 2002   0.319   0.143   8.769  1.1800 -2.9332 -0.1624
  131MPD2    H2 2003   0.617   0.421   8.841 -1.2991 -1.5762  2.4599
  131MPD2    H3 2004   0.382   0.372   8.806  0.1745  0.2243  1.5156
  131MPD2     N 2005   0.491   4.657   8.727  0.1656  1.2344 -0.1776
  131MPD2    H5 2006   0.574   4.599   8.734 -0.6571  0.0076 -0.6072
  131MPD2    N1 2007   0.826   0.278   8.795  0.4371  0.0296  0.1997
  131MPD2    H7 2008   0.839   0.372   8.830 -0.4164 -0.1109  0.8819
  132TCq2    C1 2009   1.190   0.530   9.008  0.3500  0.4304  0.1243
  132TCq2    O2 2010   1.088   0.595   9.025 -0.1107 -0.7444  0.4701
  132TCq2    C2 2011   1.189   0.420   8.917 -0.1260  0.6358  1.0267
  132TCq2    C3 2012   1.299   0.390   8.840  0.1937 -0.4955 -1.1191
  132TCq2    C4 2013   1.288   0.280   8.758 -0.2365  0.7655  0.3439
  132TCq2    C5 2014   1.170   0.221   8.727  0.2434  0.1121  0.8257
  132TCq2    C6 2015   1.063   0.268   8.792 -0.5021 -0.4991 -0.1335
  132TCq2    C7 2016   1.069   0.355   8.895  0.3924  0.1362 -0.0869
  132TCq2    C8 2017   0.936   0.201   8.771 -0.1553  0.1143  0.1073
  132TCq2    O4 2018   0.945   0.093   8.715 -0.7452  0.0160 -0.1513
  132TCq2    C9 2019   1.395   0.245   8.669 -0.8229  1.1058  0.2587
  132TCq2    O5 2020   1.506   0.290   8.711  0.9003 -0.0024 -0.5691
  132TCq2    O6 2021   1.385   0.147   8.589  0.2005  0.0802 -0.1201
  132TCq2    H2 2022   1.389   0.450   8.837 -1.2773  1.6387 -2.2802
  132TCq2    H3 2023   1.154   0.151   8.645  1.8773  0.9054 -0.1647
  132TCq2    H4 2024   0.981   0.382   8.952  0.4531  0.0219  0.0606
  133MPD2     C 2025   0.747   1.417   9.668 -0.2400 -0.1114  0.1021
  133MPD2    C1 2026   0.836   1.310   9.642  0.3274  0.4948 -0.6876
  133MPD2    C2 2027   0.792   1.192   9.592 -0.6724  0.1875 -0.8167
  133MPD2    C3 2028   0.655   1.173   9.559  0.0026 -0.4560  0.3253
  133MPD2    C4 2029   0.569   1.277   9.591  0.2915  0.0364  0.0487
  133MPD2    C5 2030   0.614   1.401   9.648  0.0135 -0.8122 -0.0771
  133MPD2     H 2031   0.860   1.112   9.563  0.1899  0.7526 -0.3764
  133MPD2    H1 2032   0.464   1.270   9.565  0.1051 -0.3225  0.8747
  133MPD2    H2 2033   0.789   1.514   9.694  0.8786 -0.6855  0.4282
  133MPD2    H3 2034   0.545   1.481   9.669  0.8720 -0.4017  1.1523
  133MPD2     N 2035   0.593   1.057   9.499 -0.1207 -0.2105  0.2332
  133MPD2    H5 2036   0.491   1.057   9.496 -0.1803 -0.5136  2.6043
  133MPD2    N1 2037   0.972   1.337   9.660 -0.5134  0.5467 -0.0494
  133MPD2    H7 2038   0.988   1.421   9.715  0.4345  1.4142 -1.6467
  134TCq2    C1 2039   1.075   1.254   9.634  0.7094  0.3175 -0.3314
  134TCq2    O2 2040   1.088   1.167   9.553 -0.2661  0.6517 -0.0612
  134TCq2    C2 2041   1.199   1.288   9.706  0.4226  1.0412  0.4249
  134TCq2    C3 2042   1.198   1.387   9.811  0.3367  0.4060  0.2386
  134TCq2    C4 2043   1.316   1.450   9.837  0.6714 -0.8827 -0.6453
  134TCq2    C5 2044   1.424   1.423   9.766 -0.0365  0.1918 -0.0951
  134TCq2    C6 2045   1.421   1.331   9.666  0.2328  0.3476 -0.2334
  134TCq2    C7 2046   1.307   1.270   9.629 -0.5920  0.9292 -0.2489
  134TCq2    C8 2047   1.549   1.304   9.595  0.1980 -0.6927 -0.4171
  134TCq2    O4 2048   1.559   1.199   9.534 -0.2936 -0.3621 -0.3506
  134TCq2    C9 2049   1.324   1.554   9.931  0.7850 -0.2590  0.1834
  134TCq2    O5 2050   1.432   1.622   9.928  0.5171 -0.1589 -0.0602
  134TCq2    O6 2051   1.212   1.591   9.980 -0.6523 -0.3455 -0.3073
  134TCq2    H2 2052   1.103   1.400   9.860  1.2923  0.5023  2.0540
  134TCq2    H3 2053   1.519   1.462   9.798 -0.2588 -0.0666  0.9000
  134TCq2    H4 2054   1.312   1.205   9.542 -1.2726  0.1900  0.2687
  135MPD2     C 2055   2.603   0.595   9.458 -0.0608 -0.1830 -0.2674
  135MPD2    C1 2056   2.683   0.672   9.533  0.1559  0.3597  0.5169
  135MPD2    C2 2057   2.767   0.606   9.617 -0.1447 -0.5779  0.7301
  135MPD2    C3 2058   2.776   0.471   9.627  0.3472  0.1877 -0.5663
  135MPD2    C4 2059   2.685   0.397   9.558 -0.8043 -0.1966  0.0311
  135MPD2    C5 2060   2.597   0.465   9.474  0.1357  0.1951  0.7746
  135MPD2     H 2061   2.833   0.671   9.674 -0.1777 -1.4584  1.7794
  135MPD2    H1 2062   2.685   0.289   9.556  0.4694 -0.1645 -1.3177
  135MPD2    H2 2063   2.532   0.636   9.388  3.1703 -0.0624 -3.5017
  135MPD2    H3 2064   2.515   0.411   9.427 -0.8535 -0.0500  2.8115
  135MPD2     N 2065   2.881   0.402   9.695 -0.1554  0.8143 -0.3169
  135MPD2    H5 2066   2.878   0.301   9.690  0.6735  0.7682  0.0879
  135MPD2    N1 2067   2.686   0.812   9.517 -0.7962 -0.2769 -0.3264
  135MPD2    H7 2068   2.734   0.872   9.584  1.3625 -0.9341 -1.2771
  136TCq2    C1 2069   2.655   0.874   9.399 -0.1747  0.4254 -0.1830
  136TCq2    O2 2070   2.633   0.819   9.290 -0.2102  0.3744 -0.3872
  136TCq2    C2 2071   2.671   1.019   9.388  0.4432  0.2523 -0.2755
  136TCq2    C3 2072   2.662   1.071   9.259 -0.2757  0.3182  0.0969
  136TCq2    C4 2073   2.691   1.207   9.235  0.4606 -0.8747 -0.0382
  136TCq2    C5 2074   2.736   1.285   9.340 -0.2701 -0.0304 -0.6567
  136TCq2    C6 2075   2.747   1.232   9.463 -0.0786 -0.3502 -0.1876
  136TCq2    C7 2076   2.707   1.098   9.486  0.3546  0.7349 -0.4774
  136TCq2    C8 2077   2.788   1.319   9.571 -0.1116 -0.5366  0.2162
  136TCq2    O4 2078   2.830   1.429   9.547  0.3088 -0.2334  0.3403
  136TCq2    C9 2079   2.659   1.254   9.098 -0.5231  0.8775  0.4883
  136TCq2    O5 2080   2.687   1.178   9.004 -0.1695 -0.0667 -0.4292
  136TCq2    O6 2081   2.632   1.374   9.082  0.3478  0.1209 -0.3516
  136TCq2    H2 2082   2.628   1.008   9.178 -2.0720 -2.5177  3.0080
  136TCq2    H3 2083   2.758   1.391   9.334 -1.0000  0.2350  1.1076
  136TCq2    H4 2084   2.702   1.055   9.585  0.4474 -0.9196 -1.1922
  137MPD2     C 2085   2.193   4.371  10.584 -0.0179  0.0982  0.0841
  137MPD2    C1 2086   2.222   4.458  10.486  0.6166 -0.5045 -0.5813
  137MPD2    C2 2087   2.242   4.592  10.519 -0.2395 -0.1877 -0.2010
  137MPD2    C3 2088   2.226   4.636  10.649  0.8105 -0.1242  0.5142
  137MPD2    C4 2089   2.184   4.542  10.746 -0.2279  0.2260  0.4275
  137MPD2    C5 2090   2.177   4.413  10.711 -0.8775  0.0415 -0.9902
  137MPD2     H 2091   2.276   4.663  10.445  0.2682 -1.3818 -1.1205
  137MPD2    H1 2092   2.167   4.567  10.851  3.1814 -1.7312  1.4449
  137MPD2    H2 2093   2.175   4.266  10.562  0.3671 -0.1768  1.0737
  137MPD2    H3 2094   2.153   4.341  10.788  1.7469 -0.6179 -0.8055
  137MPD2     N 2095   2.264   0.039  10.695  0.9170 -0.7671 -0.8314
  137MPD2    H5 2096   2.308   0.098  10.626  0.2787 -0.8406 -1.2985
  137MPD2    N1 2097   2.254   4.413  10.356 -0.3081 -0.2986 -0.1742
  137MPD2    H7 2098   2.259   4.313  10.336  2.8743 -0.0236 -0.7850
  138TCq2    C1 2099   2.264   4.487  10.245 -0.3653  0.5056  0.5633
  138TCq2    O2 2100   2.224   4.604  10.229 -0.4065 -0.3446  0.5218
  138TCq2    C2 2101   2.284   4.402  10.127  0.6698 -0.0096 -0.1152
  138TCq2    C3 2102   2.283   4.266  10.124 -0.5006 -0.1861 -0.4375
  138TCq2    C4 2103   2.314   4.197  10.010  0.1675 -0.4983 -0.4150
  138TCq2    C5 2104   2.344   4.258   9.894  0.2684  0.2627  0.1348
  138TCq2    C6 2105   2.336   4.395   9.900  0.6669 -0.8080 -0.1407
  138TCq2    C7 2106   2.321   4.471  10.014 -0.0357 -0.4164  0.0918
  138TCq2    C8 2107   2.321   4.465   9.768  0.0989 -0.9012  0.6330
  138TCq2    O4 2108   2.368   4.402   9.675  0.1711 -0.5367  0.3711
  138TCq2    C9 2109   2.314   4.050  10.013 -0.0463  0.2452 -0.5265
  138TCq2    O5 2110   2.271   3.991  10.120  0.2506  0.0191  0.0416
  138TCq2    O6 2111   2.359   3.995   9.911 -0.0189  0.1462 -0.6351
  138TCq2    H2 2112   2.259   4.205  10.210 -1.4537 -0.1614 -0.6923
  138TCq2    H3 2113   2.356   4.197   9.806  1.4072 -0.6158  0.9027
  138TCq2    H4 2114   2.305   4.578  10.005 -0.7187 -0.5025  0.2341
  139TMC2    C1 2115   3.907   3.580  13.161  0.3186  0.7083 -0.2126
  139TMC2    C2 2116   3.913   3.652  13.044 -0.0265  0.0362  0.2832
  139TMC2    C3 2117   3.921   3.785  13.055 -0.1527 -0.0691 -0.0963
  139TMC2    C4 2118   3.910   3.631  13.288  0.0483 -0.1087  0.5310
  139TMC2    C5 2119   3.903   3.770  13.288  0.0114 -0.2668 -0.1590
  139TMC2    C6 2120   3.914   3.844  13.174 -0.3537 -0.3638  0.5334
  139TMC2     C 2121   3.943   3.440  13.166  0.0102  0.3369 -0.1997
  139TMC2     O 2122   4.028   3.399  13.089 -0.1208  0.1446  0.2719
  139TMC2     H 2123   3.921   3.593  12.953 -0.0032  0.0329  0.2875
  139TMC2    H1 2124   3.900   3.567  13.375  0.5579  0.2543  0.8575
  139TMC2    H2 2125   3.907   3.953  13.174 -1.3735 -0.4270  1.1819
  139TMC2    C7 2126   3.850   3.832  13.400  0.1603  0.2152 -0.1828
  139TMC2    C8 2127   3.866   3.871  12.949  0.0235  0.3437  0.2669
  139TMC2    O1 2128   3.797   3.941  13.382  0.4536  0.1634  0.6223
  139TMC2    O2 2129   3.798   3.972  12.961 -0.2524  0.2117  0.1248
  139TMC2    O5 2130   3.947   3.856  12.848  0.2099  1.3630  0.1849
  139TMC2    H5 2131   4.001   3.777  12.869  0.3893  1.5468  0.4210
  140MPD2     C 2132   3.766   3.176  13.346  0.0346 -0.5490  0.0500
  140MPD2    C1 2133   3.836   3.232  13.234  0.0629 -0.6112 -0.0341
  140MPD2    C2 2134   3.894   3.142  13.144 -0.1118 -0.1702 -0.4287
  140MPD2    C3 2135   3.875   3.005  13.156  0.0124  0.1963 -0.2094
  140MPD2    C4 2136   3.813   2.953  13.274 -0.3014 -0.0806 -0.2583
  140MPD2    C5 2137   3.763   3.040  13.363 -0.6921 -0.4721 -0.3476
  140MPD2     H 2138   3.951   3.185  13.063 -1.5175  0.4633 -1.0816
  140MPD2    H1 2139   3.780   2.850  13.283  2.2482 -0.9660 -1.0164
  140MPD2    H2 2140   3.718   3.242  13.416 -2.7192 -0.9956 -1.4023
  140MPD2    H3 2141   3.707   3.000  13.447  1.3620  0.8990  1.6869
  140MPD2     N 2142   3.920   2.926  13.048  0.4261  0.3452  0.0392
  140MPD2    H5 2143   3.949   2.978  12.965  0.3098 -2.9221 -2.0385
  140MPD2    N1 2144   3.846   3.370  13.234  0.1591 -0.3200  0.5523
  140MPD2    H7 2145   3.792   3.429  13.296 -1.1909 -0.1411 -0.8028
  141TCq2    C1 2146   4.544   0.085  14.467  0.1804 -0.7150 -0.7425
  141TCq2    O2 2147   4.488   0.176  14.407 -0.4237  0.0136 -0.1674
  141TCq2    C2 2148   4.552   0.098  14.613  0.1179  0.4288 -0.1680
  141TCq2    C3 2149   4.628   0.008  14.687  0.3151  1.0016  0.3722
  141TCq2    C4 2150   4.619   0.018  14.817  0.0527 -0.5596  0.6671
  141TCq2    C5 2151   4.555   0.112  14.884 -0.3296  0.7806 -0.3877
  141TCq2    C6 2152   4.492   0.210  14.815  0.3749 -0.3726  0.7712
  141TCq2    C7 2153   4.490   0.202  14.680 -0.4886 -0.1233 -0.4407
  141TCq2    C8 2154   4.403   0.297  14.890 -0.3446  0.6138 -0.3738
  141TCq2    O4 2155   4.393   0.265  15.007 -0.2227  0.2207  0.2626
  141TCq2    C9 2156   4.698   4.655  14.898 -0.7872 -0.5538 -0.7256
  141TCq2    O5 2157   4.717   4.676  15.019  0.4414  0.2491  0.1000
  141TCq2    O6 2158   0.035   4.559  14.843 -0.2575  0.4235 -0.2742
  141TCq2    H2 2159   4.688   4.651  14.643 -2.1077 -0.0190 -1.0625
  141TCq2    H3 2160   4.551   0.111  14.993 -0.6157  1.3135 -0.3921
  141TCq2    H4 2161   4.435   0.267  14.612  0.3283  0.3820 -0.6343
  142MPD2     C 2162   1.569   2.884   9.707  0.3415  0.7072  0.1449
  142MPD2    C1 2163   1.593   2.881   9.844 -0.5427 -0.0987 -0.8313
  142MPD2    C2 2164   1.647   2.989   9.908 -0.2300 -0.0324 -0.0606
  142MPD2    C3 2165   1.682   3.104   9.840  0.0185 -0.0154  0.4351
  142MPD2    C4 2166   1.652   3.109   9.709  0.0736 -0.7967 -0.0570
  142MPD2    C5 2167   1.603   2.997   9.644 -0.4541  0.1659 -0.5671
  142MPD2     H 2168   1.671   2.986  10.014 -1.3423  0.6971  0.2040
  142MPD2    H1 2169   1.679   3.190   9.642  0.2293 -0.0921  0.8485
  142MPD2    H2 2170   1.519   2.807   9.649 -2.1277  1.6992  0.9606
  142MPD2    H3 2171   1.573   3.012   9.541  1.8003 -1.0489 -1.3952
  142MPD2     N 2172   1.725   3.225   9.896 -0.3174  0.1339 -0.5034
  142MPD2    H5 2173   1.735   3.305   9.834  1.4833  0.7870  0.6006
  142MPD2    N1 2174   1.536   2.769   9.917  0.5598  0.0048 -0.5147
  142MPD2    H7 2175   1.485   2.698   9.865 -0.2402  0.9862 -1.0797
  143TCq2    C1 2176   1.754   3.245  10.031 -0.0332  0.0271 -0.0091
  143TCq2    O2 2177   1.746   3.167  10.125 -0.2151  0.5425 -0.1983
  143TCq2    C2 2178   1.780   3.387  10.050 -0.5914 -0.3557 -0.0373
  143TCq2    C3 2179   1.844   3.426  10.161  0.4335  0.4074  0.9240
  143TCq2    C4 2180   1.869   3.558  10.198 -0.6954 -1.0247 -0.6380
  143TCq2    C5 2181   1.813   3.654  10.123  0.4123 -0.3410  0.1523
  143TCq2    C6 2182   1.726   3.617  10.023  0.1998 -0.7618  0.4086
  143TCq2    C7 2183   1.710   3.486   9.981  0.5669  0.5299 -0.4180
  143TCq2    C8 2184   1.648   3.713   9.952 -0.4016  0.2252 -0.5624
  143TCq2    O4 2185   1.561   3.665   9.883  0.0176 -0.3979  0.3464
  143TCq2    C9 2186   1.975   3.585  10.292 -0.0945  0.2349 -0.6083
  143TCq2    O5 2187   2.012   3.484  10.354 -0.4202  0.0291  0.2178
  143TCq2    O6 2188   2.039   3.695  10.275 -0.1638 -0.2932 -0.2680
  143TCq2    H2 2189   1.894   3.345  10.214  1.9964  0.9992  0.3510
  143TCq2    H3 2190   1.833   3.757  10.152 -2.9771  0.9041 -1.8808
  143TCq2    H4 2191   1.640   3.458   9.903  0.6319 -2.8550  0.7575
  144MPD2     C 2192   4.420   2.926   0.591  0.0003 -0.2052 -0.3582
  144MPD2    C1 2193   4.446   2.792   0.562  0.6866  0.3378 -0.2479
  144MPD2    C2 2194   4.543   2.724   0.643  0.5323 -0.4747  0.0809
  144MPD2    C3 2195   4.621   2.786   0.740 -0.2593  0.1477 -0.5624
  144MPD2    C4 2196   4.590   2.919   0.761  0.4635  0.2027  0.2062
  144MPD2    C5 2197   4.495   2.983   0.688 -0.0621  0.1479 -0.1556
  144MPD2     H 2198   4.564   2.622   0.613 -0.5798 -0.0737 -2.0231
  144MPD2    H1 2199   4.648   2.980   0.829  0.5885  0.7918 -0.4254
  144MPD2    H2 2200   4.360   2.993   0.530 -1.8570 -1.1264  0.4554
  144MPD2    H3 2201   4.491   3.090   0.706  0.4424 -0.1383  1.5964
  144MPD2     N 2202   0.022   2.754   0.793 -0.0705 -0.4153 -0.0543
  144MPD2    H5 2203   0.060   2.826   0.854  2.3965 -0.9665 -0.9097
  144MPD2    N1 2204   4.376   2.719   0.459 -0.2738  0.5106  0.8013
  144MPD2    H7 2205   4.404   2.627   0.426 -0.2836  1.4047 -1.7183
  145TCq2    C1 2206   0.083   2.634   0.759 -0.0351 -0.1363  0.2804
  145TCq2    O2 2207   0.054   2.557   0.670 -0.3405  0.0608 -0.3014
  145TCq2    C2 2208   0.213   2.616   0.818 -0.2283  0.1977 -0.3532
  145TCq2    C3 2209   0.281   2.500   0.793 -0.0941 -0.1393 -0.3890
  145TCq2    C4 2210   0.373   2.457   0.883  0.0398 -0.1950  0.0533
  145TCq2    C5 2211   0.396   2.529   0.998 -0.4406 -0.4919  0.0963
  145TCq2    C6 2212   0.345   2.652   1.013 -0.2772  0.4488  0.2067
  145TCq2    C7 2213   0.252   2.697   0.922  0.0208 -0.0875 -0.0250
  145TCq2    C8 2214   0.387   2.729   1.127 -0.0285  0.0849 -0.4246
  145TCq2    O4 2215   0.489   2.695   1.180  0.2073 -0.5497  0.5798
  145TCq2    C9 2216   0.441   2.333   0.865 -0.1121  0.3768  0.3136
  145TCq2    O5 2217   0.492   2.281   0.969 -0.0806  0.3484 -0.1405
  145TCq2    O6 2218   0.457   2.292   0.744  0.0493 -0.1273  0.1515
  145TCq2    H2 2219   0.252   2.436   0.710  0.2413  0.0332 -0.6387
  145TCq2    H3 2220   0.475   2.497   1.065 -2.3428  1.1462  3.1293
  145TCq2    H4 2221   0.211   2.796   0.939  1.5262  0.3489  1.0713
  146TMC2    C1 2222   1.499   0.873  11.996 -0.5810  0.2633  0.5625
  146TMC2    C2 2223   1.461   0.978  11.920 -0.2744  0.5875 -0.0861
  146TMC2    C3 2224   1.544   1.015  11.813  0.7143 -0.4563 -0.0201
  146TMC2    C4 2225   1.613   0.803  11.966  0.0578  0.0216 -0.2065
  146TMC2    C5 2226   1.693   0.850  11.865  0.2160 -0.5766 -0.3151
  146TMC2    C6 2227   1.652   0.948  11.781 -0.4427 -0.1699 -0.2516
  146TMC2     C 2228   1.409   0.832  12.100 -0.3076  0.9103 -0.5518
  146TMC2     O 2229   1.296   0.878  12.092 -0.4188 -0.2117  0.0143
  146TMC2     H 2230   1.365   1.026  11.931  0.2348  1.8880 -1.2564
  146TMC2    H1 2231   1.637   0.708  12.011 -2.6569  0.4258  2.0956
  146TMC2    H2 2232   1.706   0.980  11.692 -2.0885  2.8800 -0.1538
  146TMC2    C7 2233   1.813   0.777  11.828  0.0198  0.5396  0.1321
  146TMC2    C8 2234   1.492   1.100  11.716 -0.5788  0.1380 -0.8119
  146TMC2    O1 2235   1.872   0.826  11.732 -0.0655  0.3739 -0.4938
  146TMC2    O2 2236   1.508   1.086  11.594 -0.4866  0.2525 -0.1367
  146TMC2    O5 2237   1.449   1.213  11.776  0.1744  0.0685  0.1746
  146TMC2    H5 2238   1.452   1.202  11.874 -2.7967  0.0478  0.2668
  147MPD2     C 2239   2.284   0.624  11.934  0.2356 -0.1695  0.3720
  147MPD2    C1 2240   2.211   0.614  12.051 -0.3563  0.7484  0.1181
  147MPD2    C2 2241   2.073   0.638  12.044 -0.0196  0.1569 -0.1976
  147MPD2    C3 2242   2.011   0.672  11.925  0.1489 -0.7133 -0.3502
  147MPD2    C4 2243   2.084   0.677  11.806  0.0411  0.4142  0.5581
  147MPD2    C5 2244   2.215   0.650  11.813  0.1334  0.4737 -0.2231
  147MPD2     H 2245   2.004   0.640  12.128 -0.1329 -1.2162 -0.2639
  147MPD2    H1 2246   2.041   0.694  11.708  0.0112  1.0649  0.6832
  147MPD2    H2 2247   2.389   0.600  11.938  0.6368  1.4912 -0.2381
  147MPD2    H3 2248   2.274   0.654  11.722  0.2929 -1.8513 -0.2221
  147MPD2     N 2249   1.877   0.711  11.929 -0.0403  0.4675  0.1522
  147MPD2    H5 2250   1.824   0.700  12.015  0.5124  2.1687  0.7194
  147MPD2    N1 2251   2.284   0.567  12.166  0.1824 -0.5807  0.1272
  147MPD2    H7 2252   2.385   0.573  12.166  0.1572 -0.0923  0.9660
  148MPD2     C 2253   0.762   0.461  10.024  0.1368 -0.1131 -0.5845
  148MPD2    C1 2254   0.810   0.328  10.002  0.0123 -0.1060 -0.1357
  148MPD2    C2 2255   0.718   0.226   9.981 -0.5920 -0.4088 -0.2792
  148MPD2    C3 2256   0.584   0.246   9.990  0.1280 -0.4907  0.5294
  148MPD2    C4 2257   0.534   0.374  10.011  0.4672 -0.0338  0.1620
  148MPD2    C5 2258   0.623   0.478  10.024  0.6062  0.4651 -0.4179
  148MPD2     H 2259   0.759   0.128   9.956 -0.0820 -0.1213 -0.5851
  148MPD2    H1 2260   0.429   0.400  10.004  0.2702 -0.8448  0.0892
  148MPD2    H2 2261   0.813   0.556  10.026 -0.3046  0.1100  0.0398
  148MPD2    H3 2262   0.592   0.582  10.030 -1.1933 -0.1240  0.1721
  148MPD2     N 2263   0.486   0.148   9.963 -0.8057  0.6845 -0.1666
  148MPD2    H5 2264   0.391   0.168   9.994 -0.2451 -1.0365  2.6222
  148MPD2    N1 2265   0.948   0.300  10.009  0.6386  0.2324 -0.0307
  148MPD2    H7 2266   0.962   0.200   9.996 -1.2200  0.2983 -2.6406
  149TCq2    C1 2267   1.049   0.386  10.050  0.6538 -0.4741 -0.2211
  149TCq2    O2 2268   1.052   0.512  10.051 -0.0531  0.4932 -0.2454
  149TCq2    C2 2269   1.177   0.312  10.060 -0.3752  0.4516 -0.1774
  149TCq2    C3 2270   1.291   0.390  10.066 -0.4766 -0.2410 -0.8513
  149TCq2    C4 2271   1.415   0.333  10.081 -0.1971  0.4297  0.4776
  149TCq2    C5 2272   1.422   0.200  10.116  0.2533 -0.1029  0.9735
  149TCq2    C6 2273   1.309   0.129  10.107 -0.3141 -0.4314 -0.6517
  149TCq2    C7 2274   1.185   0.183  10.079 -0.0998  0.1755  0.8647
  149TCq2    C8 2275   1.318   4.709  10.142 -0.7656 -0.1219 -0.0873
  149TCq2    O4 2276   1.230   4.643  10.095  0.4246 -0.5529  0.1940
  149TCq2    C9 2277   1.524   0.413  10.149 -0.6846 -1.0944  0.0198
  149TCq2    O5 2278   1.595   0.338  10.218 -0.0569 -1.1560  0.4984
  149TCq2    O6 2279   1.508   0.535  10.162  0.4229  0.8927 -1.2016
  149TCq2    H2 2280   1.297   0.498  10.063 -1.4079 -0.0904  2.7902
  149TCq2    H3 2281   1.518   0.151  10.124  0.3044  0.0539  1.2990
  149TCq2    H4 2282   1.100   0.117  10.077 -0.0918  0.1652  0.8613
  150MPD2     C 2283   3.037   3.869  12.058  0.4803  0.3516 -0.7331
  150MPD2    C1 2284   3.071   3.930  11.941  0.7078  0.0790 -0.0436
  150MPD2    C2 2285   3.181   4.016  11.936 -0.3772 -0.3138  0.7452
  150MPD2    C3 2286   3.259   4.018  12.056 -0.8193 -0.7953 -0.5160
  150MPD2    C4 2287   3.210   3.959  12.172  0.1757  0.1811  0.5337
  150MPD2    C5 2288   3.098   3.885  12.179  0.0909 -0.2735  0.1978
  150MPD2     H 2289   3.208   4.070  11.846 -0.7205 -0.6292  0.4545
  150MPD2    H1 2290   3.259   3.988  12.265 -1.0928  1.8612  0.6923
  150MPD2    H2 2291   2.964   3.789  12.050 -1.6190  2.4975 -3.1312
  150MPD2    H3 2292   3.067   3.831  12.268  0.0940 -0.2119  0.2361
  150MPD2     N 2293   3.368   4.106  12.052 -0.6937 -0.7939 -0.2805
  150MPD2    H5 2294   3.372   4.161  11.967  0.4613  0.8906  0.8691
  150MPD2    N1 2295   2.988   3.899  11.828 -0.3446 -0.1760  0.4746
  150MPD2    H7 2296   2.906   3.842  11.846 -0.5664 -0.0972 -0.3087
  151TCq2    C1 2297   3.462   4.108  12.148  0.1793 -0.3089  0.4724
  151TCq2    O2 2298   3.483   4.031  12.237  0.5619  0.0513 -0.3507
  151TCq2    C2 2299   3.548   4.229  12.137 -1.1873  0.5462  0.0458
  151TCq2    C3 2300   3.485   4.348  12.108  0.2382  0.0345 -0.4351
  151TCq2    C4 2301   3.565   4.461  12.123  0.0914 -0.1428  0.0872
  151TCq2    C5 2302   3.693   4.452  12.161  0.4663 -0.3857  0.1529
  151TCq2    C6 2303   3.749   4.333  12.192 -0.2831  0.2572  0.2089
  151TCq2    C7 2304   3.672   4.222  12.192 -0.6026  0.6268 -0.1361
  151TCq2    C8 2305   3.874   4.325  12.268 -0.6689  0.9486  0.3546
  151TCq2    O4 2306   3.916   4.437  12.296 -0.1618  0.1061  0.3005
  151TCq2    C9 2307   3.509   4.585  12.114 -0.2727 -0.0626  0.4497
  151TCq2    O5 2308   3.390   4.588  12.078 -0.0860 -0.8442  0.9590
  151TCq2    O6 2309   3.564   4.690  12.156 -0.1900  0.0021  0.2378
  151TCq2    H2 2310   3.378   4.353  12.096  0.1852  2.9232  1.0964
  151TCq2    H3 2311   3.749   4.542  12.186  1.7140 -0.8981 -0.7650
  151TCq2    H4 2312   3.699   4.129  12.240 -1.8432  0.4606  0.2535
  152MPD2     C 2313   2.764   3.320  12.707  0.4311  0.6477  0.0837
  152MPD2    C1 2314   2.787   3.445  12.643 -0.6312  0.3994  0.3981
  152MPD2    C2 2315   2.693   3.493  12.550  0.1064 -0.0242  0.1512
  152MPD2    C3 2316   2.584   3.415  12.530  0.2441  0.5110  1.0964
  152MPD2    C4 2317   2.558   3.292  12.593  0.7909  0.7102  0.1687
  152MPD2    C5 2318   2.650   3.248  12.682 -0.0560 -0.7173  0.1071
  152MPD2     H 2319   2.701   3.582  12.488 -0.2012 -0.0655  0.0537
  152MPD2    H1 2320   2.467   3.234  12.586  0.7112  1.0983 -1.8842
  152MPD2    H2 2321   2.840   3.284  12.774 -2.8472 -0.1697  3.3694
  152MPD2    H3 2322   2.640   3.155  12.737  2.6556 -0.2304  1.4086
  152MPD2     N 2323   2.491   3.475  12.440  0.6928 -0.6588 -0.1615
  152MPD2    H5 2324   2.516   3.569  12.410  1.4728 -0.5935  0.6621
  152MPD2    N1 2325   2.906   3.520  12.674  0.0998  0.6279  0.6141
  152MPD2    H7 2326   2.965   3.486  12.749  0.5741 -1.5236 -0.7254
  153TCq2    C1 2327   2.939   3.647  12.622  0.2527  0.0566  0.8091
  153TCq2    O2 2328   2.877   3.710  12.535 -0.3556 -0.3340 -0.5231
  153TCq2    C2 2329   3.032   3.720  12.703  0.3741 -0.8737 -0.1393
  153TCq2    C3 2330   3.067   3.679  12.825 -0.1955 -0.7489 -0.5074
  153TCq2    C4 2331   3.175   3.731  12.884  0.8231  0.8979  0.2122
  153TCq2    C5 2332   3.248   3.824  12.813 -0.1772 -0.2321 -0.2998
  153TCq2    C6 2333   3.209   3.858  12.688 -0.3113  0.9043 -0.3093
  153TCq2    C7 2334   3.096   3.811  12.629 -0.0055  0.5408 -0.5904
  153TCq2    C8 2335   3.274   3.967  12.617  0.0272 -0.2677  0.9952
  153TCq2    O4 2336   3.217   4.025  12.527 -0.2343  0.2811  0.1525
  153TCq2    C9 2337   3.221   3.692  13.012 -0.5432 -0.0863  0.0499
  153TCq2    O5 2338   3.328   3.749  13.062 -0.1485 -0.4853 -0.5975
  153TCq2    O6 2339   3.139   3.618  13.075  0.1919 -0.0605  0.2792
  153TCq2    H2 2340   3.001   3.617  12.884 -0.4063  0.5031  0.5717
  153TCq2    H3 2341   3.337   3.851  12.868 -0.6085 -2.8090  1.6680
  153TCq2    H4 2342   3.073   3.838  12.527 -0.4666 -3.4306 -1.5386
  154MPD2     C 2343   4.620   3.817  17.528  0.2213  0.3837 -0.2195
  154MPD2    C1 2344   4.661   3.819  17.658 -0.7769 -0.4636 -0.5713
  154MPD2    C2 2345   4.603   3.913   0.046 -0.4114 -0.0286 -0.1621
  154MPD2    C3 2346   4.508   3.997  17.692  0.7469  0.2979  0.6323
  154MPD2    C4 2347   4.459   3.979  17.562 -0.1923  0.0534  0.2607
  154MPD2    C5 2348   4.524   3.896  17.477  0.0366 -0.2239 -0.3525
  154MPD2     H 2349   4.638   3.935   0.146  0.7485 -0.1312 -0.5456
  154MPD2    H1 2350   4.369   4.025  17.522 -1.8196  0.1891  4.0684
  154MPD2    H2 2351   4.671   3.754  17.455  0.3916 -0.7380  0.8514
  154MPD2    H3 2352   4.492   3.891  17.374 -2.9136 -2.5457  0.6888
  154MPD2     N 2353   4.463   4.092   0.086  0.3329  0.3260 -0.2700
  154MPD2    H5 2354   4.501   4.093   0.181  0.8693 -0.7572 -0.4787
  154MPD2    N1 2355   0.049   3.737   0.007  0.6341 -0.3869  0.5441
  154MPD2    H7 2356   0.102   3.680  17.635 -1.8741 -1.1712 -0.7969
  155TCq2    C1 2357   0.077   3.713   0.138 -0.5227  0.2963 -0.3422
  155TCq2    O2 2358   0.012   3.741   0.239  0.6058  0.1010  0.1337
  155TCq2    C2 2359   0.196   3.634   0.164 -0.4005 -0.6133 -0.7793
  155TCq2    C3 2360   0.213   3.584   0.291 -0.1056  0.7935  0.7163
  155TCq2    C4 2361   0.329   3.524   0.325  0.0239  0.7665 -0.8038
  155TCq2    C5 2362   0.429   3.505   0.229  0.3913  0.0463  0.6157
  155TCq2    C6 2363   0.403   3.561   0.105 -0.0101  0.5575  0.2197
  155TCq2    C7 2364   0.295   3.637   0.073 -0.5436 -0.1074  0.0438
  155TCq2    C8 2365   0.523   3.587   0.032 -0.0889 -0.4194 -0.1799
  155TCq2    O4 2366   0.597   3.494   0.002 -0.1978  0.7007 -0.2037
  155TCq2    C9 2367   0.340   3.472   0.461  1.0407  0.5653 -0.2668
  155TCq2    O5 2368   0.255   3.506   0.549 -0.6001 -0.1205 -0.1185
  155TCq2    O6 2369   0.432   3.384   0.486 -0.2220 -0.4817  0.3555
  155TCq2    H2 2370   0.138   3.586   0.369 -0.9399  0.3863 -0.0808
  155TCq2    H3 2371   0.523   3.453   0.247  1.2187  2.4292  3.3797
  155TCq2    H4 2372   0.290   3.684  17.668  0.3676 -0.8686 -0.3721
  156MPD2     C 2373   2.458   1.509  11.740 -0.5045 -0.7122 -0.2600
  156MPD2    C1 2374   2.578   1.550  11.697 -1.1803  0.7600  0.4695
  156MPD2    C2 2375   2.688   1.527  11.781  0.5289  0.5405  0.2295
  156MPD2    C3 2376   2.670   1.468  11.903  1.1809 -0.0233  0.1956
  156MPD2    C4 2377   2.541   1.430  11.947  0.0822 -0.2858  0.0937
  156MPD2    C5 2378   2.434   1.444  11.861 -0.2484 -0.6641 -0.9599
  156MPD2     H 2379   2.785   1.564  11.753  1.4837 -2.0767  0.0379
  156MPD2    H1 2380   2.526   1.396  12.049  2.5193 -0.0268  0.5531
  156MPD2    H2 2381   2.370   1.530  11.681 -0.3550 -1.1877 -0.6476
  156MPD2    H3 2382   2.333   1.422  11.892 -0.4174  1.8545  0.2661
  156MPD2     N 2383   2.781   1.452  11.978 -0.1821 -0.3262  0.6258
  156MPD2    H5 2384   2.863   1.493  11.935 -2.3649 -0.8210 -4.0357
  156MPD2    N1 2385   2.582   1.616  11.571 -0.5371  0.6838 -0.7253
  156MPD2    H7 2386   2.489   1.628  11.532 -0.9266  2.0460  0.6291
  157TCq2    C1 2387   2.691   1.669  11.519  0.4117 -0.5282  0.1914
  157TCq2    O2 2388   2.804   1.689  11.561  0.4588  0.2118  0.5629
  157TCq2    C2 2389   2.657   1.748  11.400  0.3061 -0.5950  0.4934
  157TCq2    C3 2390   2.571   1.694  11.306  0.0119 -0.5611 -0.3510
  157TCq2    C4 2391   2.565   1.759  11.186  0.3458 -0.1030  0.3434
  157TCq2    C5 2392   2.645   1.868  11.161 -0.2979  0.4340 -0.7855
  157TCq2    C6 2393   2.723   1.920  11.259  0.1033 -0.9936 -0.5228
  157TCq2    C7 2394   2.739   1.857  11.377  0.4794 -0.0440 -0.2320
  157TCq2    C8 2395   2.797   2.049  11.228 -0.9787  0.1523 -0.0369
  157TCq2    O4 2396   2.815   2.081  11.111  0.6235  0.2556 -1.3966
  157TCq2    C9 2397   2.480   1.703  11.089 -0.6936 -0.2546 -0.0476
  157TCq2    O5 2398   2.429   1.589  11.107  0.2331 -0.8730 -0.2140
  157TCq2    O6 2399   2.431   1.779  10.997 -0.2538 -0.1156 -0.3779
  157TCq2    H2 2400   2.515   1.602  11.317 -0.7984 -0.0104  0.1985
  157TCq2    H3 2401   2.648   1.912  11.062  1.9073  0.7892 -0.5649
  157TCq2    H4 2402   2.805   1.891  11.456 -1.5782  0.1691  1.4011
  158TMC2    C1 2403   4.016   0.227  13.535 -0.1794 -0.1035 -0.3413
  158TMC2    C2 2404   4.069   0.331  13.466  0.1816 -0.3451  0.0005
  158TMC2    C3 2405   3.991   0.381  13.365 -0.0546  0.0264 -0.6368
  158TMC2    C4 2406   3.901   0.161  13.508 -0.0846  0.2309 -0.6207
  158TMC2    C5 2407   3.820   0.229  13.416  0.3598 -0.3395  0.0572
  158TMC2    C6 2408   3.865   0.336  13.336  0.2205  0.7327  0.0403
  158TMC2     C 2409   4.104   0.159  13.627  0.4816 -0.0148  1.1189
  158TMC2     O 2410   4.216   0.123  13.593 -0.2210  0.1090 -0.1156
  158TMC2     H 2411   4.147   0.391  13.512 -0.3141 -0.4511  0.9671
  158TMC2    H1 2412   3.870   0.069  13.556  0.7349  1.5411  2.4121
  158TMC2    H2 2413   3.790   0.390  13.279  0.6051  0.3012 -0.8700
  158TMC2    C7 2414   3.675   0.218  13.435  0.3148 -0.3006  0.4046
  158TMC2    C8 2415   4.007   0.523  13.355  0.0947 -0.0057 -0.5151
  158TMC2    O1 2416   3.610   0.317  13.401 -0.0231  0.3171  0.3010
  158TMC2    O2 2417   4.048   0.591  13.447  1.1330 -0.3449  0.0083
  158TMC2    O5 2418   3.949   0.555  13.236  0.2370 -1.0085  0.5091
  158TMC2    H5 2419   3.937   0.478  13.177  0.3492 -1.0707  0.5652
  159MPD2     C 2420   4.148   4.569  14.026 -0.7400  0.4604  0.2552
  159MPD2    C1 2421   4.054   4.661  14.056 -0.1642  0.0152  0.8392
  159MPD2    C2 2422   4.010   0.022  13.952 -0.7363  0.3711  0.0069
  159MPD2    C3 2423   4.088   0.034  13.839 -0.7725  0.3942 -0.3091
  159MPD2    C4 2424   4.197   4.674  13.817  0.1136 -0.4179 -0.2496
  159MPD2    C5 2425   4.223   4.572  13.907  0.0991 -0.8318 -0.2589
  159MPD2     H 2426   3.931   0.094  13.972  1.0675  1.9833  1.2450
  159MPD2    H1 2427   4.249   4.663  13.723  0.9937 -0.2593  0.2202
  159MPD2    H2 2428   4.167   4.485  14.092 -0.1397  1.3206  1.1850
  159MPD2    H3 2429   4.292   4.492  13.885  0.4738 -0.5349 -0.1700
  159MPD2     N 2430   4.038   0.125  13.740  0.1979  0.7055 -0.4165
  159MPD2    H5 2431   3.946   0.168  13.751 -0.6448 -1.1012 -0.3264
  159MPD2    N1 2432   3.997   4.647  14.188  0.3797  0.1081  0.0098
  159MPD2    H7 2433   4.033   4.568  14.241 -1.2538 -0.5170  0.2106
  160TMC2    C1 2434   3.673   3.080   1.611 -0.8508 -0.7853 -0.2384
  160TMC2    C2 2435   3.803   3.111   1.633  0.1427  0.1773  0.5730
  160TMC2    C3 2436   3.884   3.142   1.526 -0.1481 -0.9054 -0.6647
  160TMC2    C4 2437   3.624   3.089   1.485  0.3677 -0.1705 -0.9828
  160TMC2    C5 2438   3.710   3.123   1.385 -0.2947 -0.2003 -0.4065
  160TMC2    C6 2439   3.840   3.148   1.401 -0.7565 -0.8309  0.5371
  160TMC2     C 2440   3.596   3.068   1.733  0.3840  0.0520 -0.7854
  160TMC2     O 2441   3.645   3.036   1.839 -0.8719 -0.0924  0.4595
  160TMC2     H 2442   3.832   3.134   1.734 -1.6993  2.0546  0.6931
  160TMC2    H1 2443   3.519   3.071   1.466 -0.0044  1.1693 -0.1806
  160TMC2    H2 2444   3.907   3.161   1.316 -0.4042 -0.7065  0.8292
  160TMC2    C7 2445   3.647   3.180   1.273 -0.0695 -0.3105 -1.1089
  160TMC2    C8 2446   4.022   3.174   1.541 -0.0676  0.2062 -0.6874
  160TMC2    O1 2447   3.527   3.164   1.268 -0.2343  0.4400 -0.3288
  160TMC2    O2 2448   4.067   3.250   1.455 -0.0755 -0.3993  0.1075
  160TMC2    O5 2449   4.068   3.051   1.573 -0.0308 -0.5284 -0.3170
  160TMC2    H5 2450   4.011   3.015   1.644 -0.5098  1.6793  0.4199
  161MPD2     C 2451   3.358   3.004   1.909  0.4057  0.5064 -0.3332
  161MPD2    C1 2452   3.350   3.074   1.790 -0.8185  0.1229  0.2831
  161MPD2    C2 2453   3.229   3.117   1.745 -0.0029  0.4413 -0.2676
  161MPD2    C3 2454   3.117   3.109   1.825  0.2709  0.3034  0.5100
  161MPD2    C4 2455   3.128   3.050   1.951  0.5815  0.2414  1.0273
  161MPD2    C5 2456   3.247   2.982   1.985  0.8693  0.3037  0.0201
  161MPD2     H 2457   3.219   3.159   1.646  2.5102  0.5990 -0.4534
  161MPD2    H1 2458   3.043   3.028   2.014  0.1188  0.4319  0.4692
  161MPD2    H2 2459   3.450   2.965   1.951  0.8976  1.3216 -0.6431
  161MPD2    H3 2460   3.253   2.930   2.080  1.7143 -2.1123 -1.3432
  161MPD2     N 2461   2.997   3.172   1.796 -0.0693  0.4433  0.2117
  161MPD2    H5 2462   2.924   3.169   1.867 -1.1686  0.4096 -0.9179
  161MPD2    N1 2463   3.457   3.085   1.709 -0.0852  0.2092  0.4708
  161MPD2    H7 2464   3.421   3.111   1.618 -2.4957  1.8331  1.8947
  162TMC2    C1 2465   2.119   0.292   1.425 -0.2789 -0.3716 -0.2133
  162TMC2    C2 2466   2.161   0.424   1.410  0.0692 -0.1519 -0.0502
  162TMC2    C3 2467   2.294   0.454   1.447  0.4878  0.2328  0.0041
  162TMC2    C4 2468   2.188   0.203   1.501 -0.0296 -0.3659 -0.2464
  162TMC2    C5 2469   2.315   0.228   1.539  0.3935 -0.2455 -0.3559
  162TMC2    C6 2470   2.369   0.357   1.515  0.4170  0.5005 -0.1524
  162TMC2     C 2471   2.039   0.237   1.319  0.0131 -0.2635  0.9438
  162TMC2     O 2472   2.054   0.119   1.296  0.3219 -0.7069 -0.2944
  162TMC2     H 2473   2.119   0.491   1.336  0.1246  2.6718  2.5117
  162TMC2    H1 2474   2.143   0.104   1.498  0.6733 -0.6000 -3.0251
  162TMC2    H2 2475   2.465   0.376   1.563 -0.7000 -0.3647  2.4527
  162TMC2    C7 2476   2.388   0.125   1.614  0.5613 -0.7678 -0.3661
  162TMC2    C8 2477   2.318   0.596   1.434 -0.7916 -0.6251  0.0230
  162TMC2    O1 2478   2.504   0.141   1.648  0.1107  0.5219  0.2956
  162TMC2    O2 2479   2.231   0.671   1.404 -0.7911 -0.2035 -0.4132
  162TMC2    O5 2480   2.424   0.623   1.511  0.0562 -0.3182 -0.2154
  162TMC2    H5 2481   2.499   0.559   1.511  0.4129  0.0983  2.0182
  163MPD2     C 2482   1.733   0.292   0.906 -0.7545 -0.5173 -1.3934
  163MPD2    C1 2483   1.833   0.199   0.932 -0.0324 -0.2358  0.5113
  163MPD2    C2 2484   1.901   0.212   1.055 -0.1895  0.2336  0.3840
  163MPD2    C3 2485   1.866   0.307   1.150 -0.0455  0.4402 -0.5146
  163MPD2    C4 2486   1.767   0.399   1.117 -0.1434  0.5220  0.4247
  163MPD2    C5 2487   1.712   0.395   0.994  0.0599  0.1946  0.3561
  163MPD2     H 2488   1.973   0.135   1.079  1.6086  1.7192 -0.2921
  163MPD2    H1 2489   1.744   0.487   1.177  2.5333  1.2381  0.3982
  163MPD2    H2 2490   1.682   0.293   0.810 -3.2651 -0.1078 -0.0649
  163MPD2    H3 2491   1.647   0.477   0.964 -1.4225 -0.7269  1.0581
  163MPD2     N 2492   1.946   0.322   1.267  0.0393  0.1507 -0.3431
  163MPD2    H5 2493   1.932   0.404   1.326  1.4751 -1.7995  2.7359
  163MPD2    N1 2494   1.850   0.086   0.840  0.7518 -0.0719 -0.0689
  163MPD2    H7 2495   1.778   0.073   0.770  2.0955 -2.1972 -1.0664
  164TCq2    C1 2496   1.874   4.462  10.574  0.4618  0.7483  0.1267
  164TCq2    O2 2497   1.860   4.349  10.627  0.1265  0.1239 -0.4217
  164TCq2    C2 2498   1.841   4.577  10.656 -0.5146  0.0327  0.1958
  164TCq2    C3 2499   1.866   4.694  10.600  0.2452  0.4591 -0.0402
  164TCq2    C4 2500   1.778   0.072  10.623 -0.5546 -0.0731  0.5709
  164TCq2    C5 2501   1.677   0.056  10.711 -0.4198 -0.2642 -0.2516
  164TCq2    C6 2502   1.662   4.658  10.772  0.0682  0.0049  0.1151
  164TCq2    C7 2503   1.743   4.554  10.750 -0.4559 -0.4026 -0.3256
  164TCq2    C8 2504   1.535   4.626  10.834  1.0493  0.6264  0.1502
  164TCq2    O4 2505   1.448   4.708  10.814  0.1277  0.0017  0.4335
  164TCq2    C9 2506   1.795   0.190  10.558 -0.4026  0.2811 -0.5662
  164TCq2    O5 2507   1.887   0.195  10.474  0.4648  0.6487  0.2842
  164TCq2    O6 2508   1.693   0.272  10.556 -0.5036  0.6161 -0.0564
  164TCq2    H2 2509   1.946   4.713  10.530 -0.6658  1.7153 -0.7400
  164TCq2    H3 2510   1.608   0.139  10.719  0.3964  0.2622  1.2491
  164TCq2    H4 2511   1.722   4.452  10.780  0.0499 -1.3355 -3.0927
  165MPD2     C 2512   3.335   1.663   2.484  0.1467 -0.3995  0.7420
  165MPD2    C1 2513   3.259   1.588   2.386  0.5189  0.0205  0.8698
  165MPD2    C2 2514   3.207   1.659   2.276  1.1906 -0.1064 -0.6962
  165MPD2    C3 2515   3.241   1.792   2.257 -0.1095  0.7261  0.0213
  165MPD2    C4 2516   3.311   1.863   2.355  0.1781 -0.0645 -0.2655
  165MPD2    C5 2517   3.352   1.801   2.464  0.5832  0.0906 -0.3608
  165MPD2     H 2518   3.159   1.609   2.192  0.7285  0.2225 -0.6326
  165MPD2    H1 2519   3.323   1.971   2.351 -1.2599  0.0858 -0.9025
  165MPD2    H2 2520   3.366   1.615   2.576  0.5289 -1.3332  0.1168
  165MPD2    H3 2521   3.408   1.861   2.535  0.4090  0.8127 -0.8290
  165MPD2     N 2522   3.185   1.863   2.155  0.1571  0.3982  0.1769
  165MPD2    H5 2523   3.223   1.956   2.137 -1.2974  1.4515  2.4566
  165MPD2    N1 2524   3.257   1.445   2.405 -0.1226  0.9679  0.1046
  165MPD2    H7 2525   3.306   1.421   2.491  0.0929 -2.5330 -0.9979
  166TCq2    C1 2526   3.090   1.824   2.069 -0.1064 -0.2923  0.6874
  166TCq2    O2 2527   3.024   1.723   2.051 -0.1766 -0.0351  0.6062
  166TCq2    C2 2528   3.042   1.929   1.985 -0.0961  0.1203 -0.0780
  166TCq2    C3 2529   2.922   1.920   1.917  0.5413 -0.5152  0.0507
  166TCq2    C4 2530   2.891   2.016   1.823  0.2179  0.0213  0.2279
  166TCq2    C5 2531   2.973   2.121   1.799 -0.1330  0.2476 -0.2731
  166TCq2    C6 2532   3.090   2.131   1.866  0.0833  0.3114  0.1080
  166TCq2    C7 2533   3.124   2.038   1.955 -0.1305 -0.0283  0.5037
  166TCq2    C8 2534   3.176   2.244   1.860  0.1375  0.3388 -0.0322
  166TCq2    O4 2535   3.296   2.223   1.883  0.0811  0.3530 -0.1527
  166TCq2    C9 2536   2.770   1.989   1.750  0.1947  0.6127 -0.7637
  166TCq2    O5 2537   2.735   1.867   1.747 -0.2330 -0.0798 -0.3531
  166TCq2    O6 2538   2.730   2.083   1.678 -1.3437 -0.2074 -0.0848
  166TCq2    H2 2539   2.862   1.831   1.928 -0.5302  0.2656  0.5073
  166TCq2    H3 2540   2.945   2.193   1.723 -1.1279  1.5886  1.3399
  166TCq2    H4 2541   3.228   2.031   1.986 -0.7263 -1.3526  2.1943
  167TMC2    C1 2542   0.997   4.461  12.673 -0.3994 -0.7720  0.1068
  167TMC2    C2 2543   0.932   4.507  12.784  0.6982  0.6610  0.0704
  167TMC2    C3 2544   0.907   4.415  12.879 -0.8674  0.0920 -0.1534
  167TMC2    C4 2545   1.029   4.332  12.658 -0.2326 -0.0954 -0.1837
  167TMC2    C5 2546   1.015   4.247  12.765 -0.0322 -0.1153  0.9528
  167TMC2    C6 2547   0.959   4.290  12.884  0.0299  0.0235  0.3222
  167TMC2     C 2548   0.979   4.548  12.558 -0.7424 -0.4988  1.1279
  167TMC2     O 2549   0.911   4.650  12.578 -0.0712  0.3607 -0.0417
  167TMC2     H 2550   0.900   4.609  12.797  1.6526  0.8544  0.8282
  167TMC2    H1 2551   1.051   4.283  12.563 -0.4255  0.0200 -0.2887
  167TMC2    H2 2552   0.926   4.217  12.957  1.1023 -1.3714 -0.5894
  167TMC2    C7 2553   1.017   4.102  12.749 -0.1720 -0.1181  0.6962
  167TMC2    C8 2554   0.837   4.473  12.994 -0.6978  0.6666  0.1140
  167TMC2    O1 2555   0.944   4.032  12.819 -0.3955 -0.2140 -0.3448
  167TMC2    O2 2556   0.807   4.591  13.000 -0.3148 -0.5929  0.0953
  167TMC2    O5 2557   0.806   4.378  13.078  0.2220  0.7361  0.0072
  167TMC2    H5 2558   0.802   4.289  13.036 -0.2386  1.5716 -1.7040
  168MPD2     C 2559   1.005   4.704  12.282  0.3243 -0.8222 -0.4970
  168MPD2    C1 2560   1.079   4.595  12.327 -0.5111 -0.0632 -0.4029
  168MPD2    C2 2561   1.177   4.549  12.240  0.4477  0.7189 -0.1302
  168MPD2    C3 2562   1.191   4.596  12.112  0.2071 -0.8826 -0.2550
  168MPD2    C4 2563   1.119   4.702  12.066 -0.0536  0.0892 -0.3922
  168MPD2    C5 2564   1.022   0.029  12.158  0.6126  0.8085  0.9034
  168MPD2     H 2565   1.240   4.471  12.280 -1.2466 -0.5924 -0.0162
  168MPD2    H1 2566   1.115   0.020  11.965 -1.7192  1.0180  0.0480
  168MPD2    H2 2567   0.940   0.032  12.352  2.0827  1.1800 -0.3331
  168MPD2    H3 2568   0.953   0.104  12.121 -1.9659 -2.5902 -1.1217
  168MPD2     N 2569   1.278   4.532  12.027 -0.1371  0.5359  0.5219
  168MPD2    H5 2570   1.328   4.451  12.063  0.1128  0.9878  1.1889
  168MPD2    N1 2571   1.060   4.520  12.446  0.2118  0.1833  0.2648
  168MPD2    H7 2572   1.123   4.441  12.458 -1.6672 -1.4527 -0.5588
  169MPD1     C 2573   0.241   3.699   9.214  0.3734 -0.5329  0.5197
  169MPD1    C1 2574   0.133   3.708   9.296  0.1732  0.2664 -0.2331
  169MPD1    C2 2575   0.032   3.624   9.273  0.1580 -0.0793  0.7150
  169MPD1    C3 2576   0.027   3.532   9.173  0.4119  0.1983  0.0040
  169MPD1    C4 2577   0.138   3.519   9.095  0.0403 -1.1168  0.2425
  169MPD1    C5 2578   0.242   3.601   9.121  0.2583  0.0951  0.6772
  169MPD1     H 2579   4.675   3.621   9.346  0.9176  0.1431  1.5466
  169MPD1    H1 2580   0.137   3.447   9.014 -2.2424  0.5250 -1.1802
  169MPD1    H2 2581   0.326   3.765   9.221  0.9746 -1.3502  0.9177
  169MPD1    H3 2582   0.337   3.589   9.071  0.3365  1.2847  0.5393
  169MPD1     N 2583   4.639   3.439   9.175  0.0011  0.0285 -0.6309
  169MPD1    H5 2584   4.554   3.463   9.225  0.3341 -1.1563  0.5195
  169MPD1    N1 2585   0.121   3.786   9.413  0.6485 -0.3811 -0.1609
  169MPD1    H6 2586   0.211   3.831   9.430  0.5895 -0.6637  0.8964
  169MPD1    H7 2587   0.041   3.846   9.432  1.4481  0.6613 -0.0589
  170MPD1     C 2588   1.403   2.161  13.465 -0.2440 -0.4070 -0.3202
  170MPD1    C1 2589   1.494   2.257  13.446 -0.5274  0.1015  0.4341
  170MPD1    C2 2590   1.615   2.240  13.506 -0.7167 -0.3460 -0.4108
  170MPD1    C3 2591   1.636   2.148  13.611  0.0660  0.5359 -0.1517
  170MPD1    C4 2592   1.526   2.078  13.650  0.1977  0.3171 -0.1616
  170MPD1    C5 2593   1.415   2.071  13.569 -0.8591  0.2786 -0.3405
  170MPD1     H 2594   1.704   2.299  13.486  0.5680 -2.1870 -0.0825
  170MPD1    H1 2595   1.528   2.004  13.729 -1.9117  0.0569 -0.3385
  170MPD1    H2 2596   1.310   2.168  13.411 -1.9424 -0.2138  2.6459
  170MPD1    H3 2597   1.342   1.992  13.580  0.4686 -1.0194 -0.9056
  170MPD1     N 2598   1.761   2.148  13.682  0.5514  0.2590 -0.2764
  170MPD1    H5 2599   1.836   2.205  13.644 -0.6486  2.5615  0.7539
  170MPD1    N1 2600   1.465   2.342  13.335 -0.6211 -0.0470 -0.1662
  170MPD1    H6 2601   1.366   2.363  13.321 -0.6165  0.7693  0.9325
  170MPD1    H7 2602   1.509   2.434  13.338 -0.4085 -0.1505 -0.1202
  171MPD1     C 2603   1.142   3.370  15.504  0.3034  0.7557 -0.3742
  171MPD1    C1 2604   1.184   3.245  15.459  0.3407 -0.1962 -0.2512
  171MPD1    C2 2605   1.253   3.169  15.551 -0.2497 -0.1927 -0.7275
  171MPD1    C3 2606   1.259   3.202  15.683  0.4411 -0.8467 -0.0564
  171MPD1    C4 2607   1.207   3.324  15.724  0.4772  0.0390  0.3557
  171MPD1    C5 2608   1.148   3.404  15.633 -0.9787 -0.2384 -0.4209
  171MPD1     H 2609   1.295   3.074  15.520 -1.4976 -0.1850 -2.4298
  171MPD1    H1 2610   1.208   3.358  15.827  1.0050  0.9841  0.0315
  171MPD1    H2 2611   1.088   3.436  15.437 -2.0673  0.0691  0.8763
  171MPD1    H3 2612   1.115   3.503  15.663 -2.5367 -0.1921 -2.3201
  171MPD1     N 2613   1.330   3.126  15.780  0.3547  0.3562  0.0942
  171MPD1    H5 2614   1.338   3.174  15.869  2.5819 -0.6467  0.4356
  171MPD1    N1 2615   1.176   3.209  15.327  0.0078 -0.0509  0.6231
  171MPD1    H6 2616   1.169   3.109  15.314  0.4881  0.0767 -0.6085
  171MPD1    H7 2617   1.091   3.249  15.287 -1.2941 -1.3649  2.0707
  172MPD1     C 2618   4.550   2.077   0.111 -0.3259 -0.0142 -0.1443
  172MPD1    C1 2619   4.481   2.168   0.181 -0.0736 -0.1371 -0.1389
  172MPD1    C2 2620   4.539   2.280   0.230 -0.3577 -0.6245  0.0493
  172MPD1    C3 2621   4.678   2.292   0.219  0.2427  0.7524 -0.0886
  172MPD1    C4 2622   0.030   2.201   0.151 -0.3495 -0.3682  0.2659
  172MPD1    C5 2623   4.691   2.094   0.100  0.8297 -0.6360 -0.2149
  172MPD1     H 2624   4.485   2.349   0.294 -0.3128 -0.5256 -0.0182
  172MPD1    H1 2625   0.138   2.202   0.140 -0.3833  0.7652  0.0971
  172MPD1    H2 2626   4.503   1.986   0.077 -0.3700  0.6336 -1.8327
  172MPD1    H3 2627   0.029   2.023   0.044  0.3766  0.7480 -2.4898
  172MPD1     N 2628   0.027   2.409   0.265 -0.5499 -0.5847  0.5595
  172MPD1    H5 2629   0.128   2.414   0.255 -0.7571  0.2501 -1.0850
  172MPD1    N1 2630   4.346   2.142   0.213  0.3379  0.7648 -0.3187
  172MPD1    H6 2631   4.293   2.094   0.140 -0.5733  0.6486  0.4095
  172MPD1    H7 2632   4.285   2.220   0.238 -0.2073 -0.1126  1.0670
  173MPD1     C 2633   1.438   2.607  14.407  0.2832  0.1139 -0.2777
  173MPD1    C1 2634   1.437   2.514  14.308 -0.2491  0.3004 -0.3949
  173MPD1    C2 2635   1.387   2.388  14.339  0.1280 -1.2406  0.5894
  173MPD1    C3 2636   1.333   2.364  14.460  0.5769 -0.6739  0.8729
  173MPD1    C4 2637   1.344   2.460  14.556 -0.1423  0.4906 -0.7918
  173MPD1    C5 2638   1.390   2.581  14.532 -0.0088  0.2779  0.1566
  173MPD1     H 2639   1.382   2.316  14.258 -1.5553  0.2841 -0.6542
  173MPD1    H1 2640   1.312   2.446  14.659  0.4387  0.1824 -0.6543
  173MPD1    H2 2641   1.472   2.709  14.391 -0.5840  0.6487  1.2994
  173MPD1    H3 2642   1.398   2.656  14.609 -1.7488 -0.3205  0.9174
  173MPD1     N 2643   1.290   2.231  14.479 -0.0396 -0.1080 -0.6514
  173MPD1    H5 2644   1.285   2.174  14.395 -3.2678  1.7665 -1.7652
  173MPD1    N1 2645   1.504   2.532  14.184 -0.1091 -0.0128 -0.1016
  173MPD1    H6 2646   1.468   2.470  14.111  0.1176  0.9567 -1.0443
  173MPD1    H7 2647   1.474   2.625  14.157 -1.2863 -0.5741 -0.7655
  174MPD1     C 2648   1.084   1.843  13.785 -0.1469 -1.3199  0.3747
  174MPD1    C1 2649   0.993   1.792  13.875 -0.2776 -0.1388 -0.0067
  174MPD1    C2 2650   1.033   1.793  14.013  0.1780 -0.1337  0.3054
  174MPD1    C3 2651   1.145   1.865  14.063  0.1016 -0.3587  0.3943
  174MPD1    C4 2652   1.227   1.926  13.965  0.6123  0.0133  0.2794
  174MPD1    C5 2653   1.187   1.908  13.830  0.1068  0.1467  0.2991
  174MPD1     H 2654   0.964   1.747  14.084  0.4261 -0.5948  0.2485
  174MPD1    H1 2655   1.316   1.986  13.980  1.5151 -1.1441 -0.4037
  174MPD1    H2 2656   1.073   1.840  13.677 -0.7318 -0.5157  0.4136
  174MPD1    H3 2657   1.246   1.961  13.755  1.9483 -2.5651 -0.1652
  174MPD1     N 2658   1.179   1.875  14.202  0.0327  0.0201  0.0131
  174MPD1    H5 2659   1.256   1.939  14.217  0.9715 -1.1661  0.2639
  174MPD1    N1 2660   0.882   1.713  13.842 -0.5073  0.5738 -0.5621
  174MPD1    H6 2661   0.815   1.692  13.916 -1.4632 -0.5515 -1.7406
  174MPD1    H7 2662   0.839   1.761  13.763 -0.5834  1.1904 -0.1482
  175MPD1     C 2663   1.043   2.401  15.619  0.5211  0.3221 -0.0050
  175MPD1    C1 2664   0.963   2.501  15.565  0.1250 -0.0026  0.2506
  175MPD1    C2 2665   0.891   2.575  15.662 -0.0084 -0.1841  0.1214
  175MPD1    C3 2666   0.882   2.543  15.802 -0.1156 -0.1267  0.3066
  175MPD1    C4 2667   0.973   2.446  15.843  0.1581  0.3285 -0.3305
  175MPD1    C5 2668   1.042   2.373  15.752  0.4838 -0.2254 -0.4933
  175MPD1     H 2669   0.834   2.660  15.629  1.2500  0.1719 -1.1316
  175MPD1    H1 2670   0.984   2.421  15.948 -0.1838 -1.8694 -0.8146
  175MPD1    H2 2671   1.118   2.343  15.566  0.7142  0.2360  0.3618
  175MPD1    H3 2672   1.111   2.295  15.781 -1.2690 -1.3526  0.6303
  175MPD1     N 2673   0.794   2.598  15.892 -0.0585  0.3583 -0.3136
  175MPD1    H5 2674   0.790   2.561  15.987 -0.0441 -1.1349 -0.9055
  175MPD1    N1 2675   0.956   2.542  15.428 -0.6415 -0.4445  0.6627
  175MPD1    H6 2676   1.008   2.482  15.364 -0.4645 -0.9044  1.2435
  175MPD1    H7 2677   1.015   2.626  15.423  0.4571 -1.2309  0.3159
  176MPD1     C 2678   1.920   4.290  16.399 -0.0260 -0.4473  0.1206
  176MPD1    C1 2679   1.854   4.409  16.376 -0.4925  0.2452 -0.0836
  176MPD1    C2 2680   1.828   4.503  16.475  0.5846  0.9798  0.0536
  176MPD1    C3 2681   1.878   4.480  16.606 -1.2067  0.1361 -0.1881
  176MPD1    C4 2682   1.953   4.366  16.628 -0.0730 -0.6033 -0.1964
  176MPD1    C5 2683   1.971   4.271  16.531 -0.5353 -1.2521 -0.3523
  176MPD1     H 2684   1.767   4.589  16.451 -0.0305  0.4557 -0.2565
  176MPD1    H1 2685   1.976   4.342  16.731  0.7459 -2.0799 -0.7247
  176MPD1    H2 2686   1.928   4.212  16.324 -0.7712 -0.7870  0.3964
  176MPD1    H3 2687   2.028   4.181  16.547 -0.0563 -0.8800  0.0165
  176MPD1     N 2688   1.837   4.568  16.708 -0.1518 -0.1300  0.7018
  176MPD1    H5 2689   1.771   4.637  16.672  0.8483  0.4813  0.0534
  176MPD1    N1 2690   1.789   4.414  16.257 -0.6435  0.0876  0.1213
  176MPD1    H6 2691   1.850   4.364  16.192 -1.3865  0.9334 -1.2204
  176MPD1    H7 2692   1.769   4.501  16.209  0.9227  0.2277 -0.2980
  177MPD1     C 2693   3.699   0.437  11.065 -0.0241 -0.6983 -0.3554
  177MPD1    C1 2694   3.608   0.530  11.018 -0.0896 -0.1713 -0.7629
  177MPD1    C2 2695   3.539   0.496  10.906 -0.1776  0.6076  0.0839
  177MPD1    C3 2696   3.569   0.378  10.840  0.2440  0.4068  0.0828
  177MPD1    C4 2697   3.665   0.295  10.890 -0.6746 -0.5559  0.2487
  177MPD1    C5 2698   3.727   0.322  11.006 -0.2859  0.4723 -0.4721
  177MPD1     H 2699   3.463   0.561  10.863 -0.4235  2.3341  3.1148
  177MPD1    H1 2700   3.692   0.204  10.838  0.9152  0.9028 -1.4710
  177MPD1    H2 2701   3.760   0.447  11.154  1.8227  1.6009 -1.8591
  177MPD1    H3 2702   3.799   0.254  11.049 -0.4065  0.0484 -0.9372
  177MPD1     N 2703   3.496   0.343  10.728  0.2265 -0.3047  0.2086
  177MPD1    H5 2704   3.413   0.398  10.705  0.6545  0.2021 -0.1333
  177MPD1    N1 2705   3.576   0.638  11.096  0.0970  0.7200  0.2032
  177MPD1    H6 2706   3.659   0.688  11.126 -0.2275  0.7833  0.9851
  177MPD1    H7 2707   3.512   0.697  11.044  3.0343  3.7631  0.0295
  178MPD1     C 2708   2.063   0.856   0.594  0.1192  1.0978  0.3016
  178MPD1    C1 2709   2.181   0.925   0.568  0.7195  0.3849 -0.3456
  178MPD1    C2 2710   2.226   0.926   0.440 -0.2303  0.3197 -0.0628
  178MPD1    C3 2711   2.154   0.867   0.341  0.1356 -0.1177 -0.1602
  178MPD1    C4 2712   2.034   0.798   0.368 -1.1569 -0.2416 -0.4194
  178MPD1    C5 2713   1.992   0.793   0.498 -0.3980  0.2219  0.0377
  178MPD1     H 2714   2.316   0.981   0.415  0.4509 -0.6533  0.2132
  178MPD1    H1 2715   1.980   0.740   0.294 -0.3159 -0.8364 -0.5675
  178MPD1    H2 2716   2.022   0.845   0.694 -2.2371 -1.9295 -1.0036
  178MPD1    H3 2717   1.895   0.750   0.522 -1.8872  4.1228  0.9681
  178MPD1     N 2718   2.206   0.851   0.213  0.0708 -1.2236 -0.3342
  178MPD1    H5 2719   2.137   0.812   0.150 -1.1010 -1.1855  0.9335
  178MPD1    N1 2720   2.257   0.965   0.682  0.3292 -0.0540  0.2986
  178MPD1    H6 2721   2.288   1.060   0.667  0.6073  0.3904  3.7332
  178MPD1    H7 2722   2.206   0.961   0.770  2.0464 -0.8554  1.2405
  179MPD1     C 2723   2.441   4.492  15.617 -0.2850  0.3636 -0.2950
  179MPD1    C1 2724   2.303   4.491  15.625  0.0778  0.1309 -0.0071
  179MPD1    C2 2725   2.249   4.371  15.663 -0.2386 -0.0868 -0.0213
  179MPD1    C3 2726   2.318   4.257  15.662 -0.7354 -0.1865 -0.3243
  179MPD1    C4 2727   2.452   4.253  15.623 -0.0100 -0.0138  0.2886
  179MPD1    C5 2728   2.510   4.374  15.607  0.5359  0.0996 -0.3064
  179MPD1     H 2729   2.145   4.376  15.694 -0.2456 -0.3777  0.0050
  179MPD1    H1 2730   2.513   4.164  15.626 -0.4913 -0.3052  1.4506
  179MPD1    H2 2731   2.488   4.589  15.606 -0.3400  0.5489  1.1519
  179MPD1    H3 2732   2.617   4.374  15.595  0.6285 -0.9913  0.5347
  179MPD1     N 2733   2.263   4.135  15.710  0.1520  0.0541 -0.7123
  179MPD1    H5 2734   2.321   4.051  15.705  0.8541  0.4152  1.6053
  179MPD1    N1 2735   2.226   4.608  15.642  0.3347 -0.2317 -0.0126
  179MPD1    H6 2736   2.133   4.589  15.606  0.1828 -0.2687  0.4030
  179MPD1    H7 2737   2.259   4.681  15.580  0.5872  0.5217  1.0222
  180MPD1     C 2738   1.193   0.783  15.066  0.0284  0.5238 -0.5549
  180MPD1    C1 2739   1.305   0.860  15.024 -0.3919 -0.2877 -0.1323
  180MPD1    C2 2740   1.358   0.841  14.898 -0.5054  0.3042 -0.3496
  180MPD1    C3 2741   1.299   0.748  14.811 -0.2226  0.8115  0.5308
  180MPD1    C4 2742   1.188   0.673  14.847 -0.2992  0.1880  0.3967
  180MPD1    C5 2743   1.139   0.690  14.975  0.4284  0.1252  1.0841
  180MPD1     H 2744   1.454   0.881  14.867  0.6372 -1.4601  0.9333
  180MPD1    H1 2745   1.145   0.596  14.783  0.7365  0.3130 -0.4540
  180MPD1    H2 2746   1.144   0.793  15.162  1.9583  1.6089  0.3221
  180MPD1    H3 2747   1.052   0.633  15.007  0.5554 -0.7389 -0.1081
  180MPD1     N 2748   1.377   0.725  14.692  0.1156  0.5528  1.0148
  180MPD1    H5 2749   1.461   0.780  14.677 -0.1014  1.0949  1.7926
  180MPD1    N1 2750   1.373   0.939  15.122  0.0276 -0.0741 -0.1526
  180MPD1    H6 2751   1.420   1.016  15.075 -0.3804  0.7650  0.8062
  180MPD1    H7 2752   1.298   0.985  15.174  1.0990  0.6236  0.7782
  181MPD1     C 2753   2.836   2.359   9.336 -0.6778  0.1253 -0.3466
  181MPD1    C1 2754   2.956   2.387   9.287 -0.9355 -0.3558  0.6485
  181MPD1    C2 2755   3.058   2.380   9.380 -0.0852  0.4943  0.4478
  181MPD1    C3 2756   3.046   2.343   9.515  0.6222 -0.2654  0.0570
  181MPD1    C4 2757   2.924   2.311   9.555  0.2260  0.9701  0.7299
  181MPD1    C5 2758   2.818   2.321   9.467  0.1017  0.4734  0.4346
  181MPD1     H 2759   3.160   2.389   9.343 -0.1514  0.8885  0.3658
  181MPD1    H1 2760   2.898   2.276   9.654  1.1031 -1.6505  0.0288
  181MPD1    H2 2761   2.751   2.353   9.269 -0.5606 -0.5088 -0.4315
  181MPD1    H3 2762   2.722   2.282   9.500 -0.4265  2.0292  0.7791
  181MPD1     N 2763   3.154   2.327   9.605  0.1301  0.9174 -0.2958
  181MPD1    H5 2764   3.139   2.265   9.684  1.3194  2.4169  1.0991
  181MPD1    N1 2765   2.988   2.402   9.142  0.2655  0.5862  0.3002
  181MPD1    H6 2766   3.059   2.474   9.131  0.2817  0.7765  1.6832
  181MPD1    H7 2767   2.905   2.431   9.090 -0.9553 -3.1725  0.0778
  182MPD1     C 2768   4.474   2.311   2.315  0.1876 -0.3465 -0.2622
  182MPD1    C1 2769   4.538   2.219   2.234  0.2781  0.7986 -0.8415
  182MPD1    C2 2770   4.479   2.218   2.110 -0.1575 -0.1477 -0.8844
  182MPD1    C3 2771   4.373   2.296   2.063 -0.1070 -0.5795  0.6168
  182MPD1    C4 2772   4.326   2.393   2.148 -0.0301  0.5215 -0.3348
  182MPD1    C5 2773   4.392   2.406   2.268  0.2675  0.1641 -0.4334
  182MPD1     H 2774   4.515   2.129   2.058  0.3652 -0.7574  0.5361
  182MPD1    H1 2775   4.244   2.457   2.117 -1.0498 -0.7567 -0.3029
  182MPD1    H2 2776   4.501   2.328   2.419  2.9620 -0.6961 -0.9087
  182MPD1    H3 2777   4.354   2.482   2.336 -1.1064  0.8079 -1.9505
  182MPD1     N 2778   4.315   2.283   1.938  0.5054 -0.5726 -0.0656
  182MPD1    H5 2779   4.232   2.339   1.918  1.7574  1.1955 -0.3293
  182MPD1    N1 2780   4.623   2.117   2.277 -0.1404  0.1529  0.4100
  182MPD1    H6 2781   4.682   2.137   2.357  0.3549 -0.2845  0.1565
  182MPD1    H7 2782   4.692   2.097   2.204 -0.7652 -0.3086 -0.0515
  183MPD1     C 2783   3.298   0.587   9.023  0.6873 -0.3273 -0.4537
  183MPD1    C1 2784   3.413   0.640   9.079 -0.7234 -0.2137 -0.8287
  183MPD1    C2 2785   3.432   0.776   9.093  0.7150 -0.1193 -0.1330
  183MPD1    C3 2786   3.331   0.867   9.069  1.4157 -0.0150 -0.4656
  183MPD1    C4 2787   3.212   0.811   9.018  0.2579  0.2654 -0.0589
  183MPD1    C5 2788   3.199   0.678   9.000  0.1256 -0.3140  0.2791
  183MPD1     H 2789   3.527   0.816   9.124  1.1204 -0.5493 -0.8319
  183MPD1    H1 2790   3.129   0.869   8.979 -1.2430 -0.7065  1.7038
  183MPD1    H2 2791   3.281   0.480   9.013 -0.7994 -0.0365 -1.0243
  183MPD1    H3 2792   3.105   0.637   8.964  0.5340 -0.8631 -0.1639
  183MPD1     N 2793   3.353   1.000   9.092  0.2162  0.0804 -0.0395
  183MPD1    H5 2794   3.450   1.027   9.108  0.4765  0.7219 -2.6154
  183MPD1    N1 2795   3.524   0.551   9.095  0.2828 -0.4469 -0.3489
  183MPD1    H6 2796   3.585   0.583   9.170  1.5088  0.0220 -1.5447
  183MPD1    H7 2797   3.498   0.459   9.129  0.9386 -0.1850  0.8601
  184MPD1     C 2798   3.764   4.546  10.834 -0.1564  0.2926  0.9437
  184MPD1    C1 2799   3.732   4.632  10.942  0.0749  0.7911  0.4257
  184MPD1    C2 2800   3.606   4.680  10.946 -0.2276  0.2850  0.1521
  184MPD1    C3 2801   3.501   4.638  10.857  0.0150 -0.5389  0.1207
  184MPD1    C4 2802   3.537   4.539  10.767  0.2339  0.3258 -0.0789
  184MPD1    C5 2803   3.663   4.496  10.755 -0.5718  0.0345 -0.3344
  184MPD1     H 2804   3.572   0.036  11.013  0.7158  0.0513  0.8972
  184MPD1    H1 2805   3.460   4.514  10.695  1.8877  2.2753 -2.4951
  184MPD1    H2 2806   3.868   4.525  10.814  0.7711  2.8840  3.0675
  184MPD1    H3 2807   3.692   4.419  10.684 -0.7727 -0.9383  0.6239
  184MPD1     N 2808   3.372   4.699  10.848  0.3456  0.5695 -0.3011
  184MPD1    H5 2809   3.312   4.662  10.775 -2.2253  0.1496  2.0127
  184MPD1    N1 2810   3.832   4.686  11.022 -0.2138 -0.6484  0.1068
  184MPD1    H6 2811   3.905   4.622  11.052 -1.4091 -2.3335 -0.5566
  184MPD1    H7 2812   3.783   4.714  11.107 -0.8721  1.1328 -0.8542
  185MPD1     C 2813   2.750   4.368  10.459 -1.1841 -0.2974  0.2603
  185MPD1    C1 2814   2.668   4.459  10.522  0.3622 -0.0359  0.1649
  185MPD1    C2 2815   2.710   4.544  10.623 -0.2862 -0.2459 -0.2734
  185MPD1    C3 2816   2.842   4.538  10.659  0.6555  0.4302  0.2257
  185MPD1    C4 2817   2.920   4.437  10.607  0.6339 -0.8196 -0.3584
  185MPD1    C5 2818   2.873   4.348  10.512  0.7217  0.0545  0.0508
  185MPD1     H 2819   2.655   4.628  10.664  1.0517  0.3421  0.3108
  185MPD1    H1 2820   3.022   4.422  10.640  0.7574 -0.8325 -0.7442
  185MPD1    H2 2821   2.703   4.307  10.383  2.5228  1.6569 -3.5999
  185MPD1    H3 2822   2.938   4.274  10.467 -1.7319 -1.9440 -0.2408
  185MPD1     N 2823   2.911   4.628  10.748 -0.3189 -0.1398  0.5750
  185MPD1    H5 2824   3.007   4.605  10.771 -0.6508 -1.1851  0.9661
  185MPD1    N1 2825   2.545   4.478  10.459 -0.3095 -0.1117 -0.4023
  185MPD1    H6 2826   2.510   4.402  10.401  0.4067 -1.5544  1.0395
  185MPD1    H7 2827   2.480   4.526  10.522 -0.0969  0.8800 -0.9483
  186MPD1     C 2828   2.712   3.839  15.691 -0.7026 -0.0412  0.4583
  186MPD1    C1 2829   2.671   3.766  15.797 -0.5967  0.5281  0.6262
  186MPD1    C2 2830   2.624   3.823  15.912 -0.3097 -0.0185 -0.6417
  186MPD1    C3 2831   2.605   3.958  15.926  0.3913  0.4933  0.4972
  186MPD1    C4 2832   2.638   4.033  15.813  0.0695 -0.0171 -0.3841
  186MPD1    C5 2833   2.677   3.972  15.695  0.0333 -0.0925 -1.1708
  186MPD1     H 2834   2.591   3.761  15.993 -1.6536  0.3461 -0.9132
  186MPD1    H1 2835   2.623   4.140  15.811  2.2324  0.2900  0.3283
  186MPD1    H2 2836   2.744   3.804  15.594 -2.2985  3.2419 -1.2276
  186MPD1    H3 2837   2.698   4.036  15.610  1.2979  1.5986  0.4159
  186MPD1     N 2838   2.559   4.025  16.041 -0.3351  0.1976 -0.3392
  186MPD1    H5 2839   2.545   4.125  16.049 -1.5958  0.0566 -0.7619
  186MPD1    N1 2840   2.688   3.625  15.785 -0.6669  0.4014  0.6322
  186MPD1    H6 2841   2.688   3.595  15.688 -2.9111 -2.1645  1.4149
  186MPD1    H7 2842   2.599   3.591  15.822 -1.3550  0.8478 -0.6293
  187MPD1     C 2843   1.543   1.254   0.731 -0.6450 -0.2109 -0.1023
  187MPD1    C1 2844   1.516   1.148   0.649  0.0582  0.6279 -0.3817
  187MPD1    C2 2845   1.542   1.159   0.515 -0.2162  0.5646 -0.1780
  187MPD1    C3 2846   1.587   1.279   0.460  0.3480 -1.0945  0.0263
  187MPD1    C4 2847   1.607   1.385   0.543 -0.6629  0.0332  0.8780
  187MPD1    C5 2848   1.584   1.372   0.679 -0.2539  0.0764 -0.2065
  187MPD1     H 2849   1.520   1.081   0.442  0.9240  1.2370 -1.2551
  187MPD1    H1 2850   1.632   1.485   0.510 -0.6224 -1.3296 -3.2510
  187MPD1    H2 2851   1.531   1.238   0.838  0.3540  1.1909  0.2346
  187MPD1    H3 2852   1.607   1.452   0.749 -1.1006  0.3253 -0.2154
  187MPD1     N 2853   1.607   1.299   0.317  0.1959 -0.1711 -0.0040
  187MPD1    H5 2854   1.666   1.376   0.288  0.9078 -0.1981  1.3514
  187MPD1    N1 2855   1.446   1.032   0.687 -0.4339 -0.5108  0.1833
  187MPD1    H6 2856   1.451   0.953   0.623 -1.3607 -1.7788  1.6564
  187MPD1    H7 2857   1.465   1.009   0.785  3.5526  0.5967 -0.3299
  188MPD1     C 2858   0.882   1.074   9.884  0.0963  0.1133  0.5445
  188MPD1    C1 2859   0.754   1.044   9.890  0.0695  0.2478 -0.3806
  188MPD1    C2 2860   0.701   0.930   9.834  0.3427 -0.5525  0.1491
  188MPD1    C3 2861   0.786   0.838   9.768  0.4972 -0.5406  0.4008
  188MPD1    C4 2862   0.923   0.872   9.760 -0.2129  0.3455  0.2216
  188MPD1    C5 2863   0.965   0.984   9.821 -0.1555 -0.0356  0.8309
  188MPD1     H 2864   0.600   0.891   9.844  0.3175 -0.3457  0.7209
  188MPD1    H1 2865   0.988   0.792   9.727 -0.3567 -0.7548  2.6370
  188MPD1    H2 2866   0.924   1.156   9.941  2.2260 -1.1959  0.8353
  188MPD1    H3 2867   1.071   1.007   9.829  0.1699 -0.7951 -1.4080
  188MPD1     N 2868   0.744   0.714   9.715 -0.5027 -0.4897  0.5602
  188MPD1    H5 2869   0.822   0.663   9.674  1.0822  2.0598  0.4182
  188MPD1    N1 2870   0.679   1.119   9.980 -0.2783  0.0580 -0.0792
  188MPD1    H6 2871   0.586   1.137   9.945  0.3919 -1.1388 -2.4620
  188MPD1    H7 2872   0.713   1.211  10.009  0.0809 -1.1041  3.2254
  189MPD1     C 2873   3.386   1.583   0.958 -0.0425 -0.3410 -0.3074
  189MPD1    C1 2874   3.269   1.541   1.012  0.4066 -0.2339  0.4396
  189MPD1    C2 2875   3.152   1.565   0.944  0.1008 -0.5609  0.1730
  189MPD1    C3 2876   3.146   1.655   0.836  0.1594  0.2591 -0.0191
  189MPD1    C4 2877   3.266   1.704   0.786 -0.8136  0.3916  0.1550
  189MPD1    C5 2878   3.386   1.662   0.839 -0.1293  0.0504  0.7488
  189MPD1     H 2879   3.059   1.523   0.983 -0.1677 -1.8321 -1.8564
  189MPD1    H1 2880   3.266   1.776   0.705 -2.4758  0.3513  0.1289
  189MPD1    H2 2881   3.481   1.554   1.002 -0.4732  0.1646  0.9248
  189MPD1    H3 2882   3.479   1.713   0.814  0.3741 -2.0130 -1.5864
  189MPD1     N 2883   3.023   1.697   0.781  0.0957  0.1269  0.1868
  189MPD1    H5 2884   2.934   1.665   0.819  0.4781 -1.5601 -0.3572
  189MPD1    N1 2885   3.256   1.450   1.117 -0.4173 -0.0976 -0.1963
  189MPD1    H6 2886   3.333   1.467   1.183 -1.3670 -0.1674  0.9336
  189MPD1    H7 2887   3.169   1.468   1.167  0.3193  0.7953  0.8015
  190MPD1     C 2888   1.907   1.176  15.188  0.7404 -0.2377  0.7272
  190MPD1    C1 2889   2.044   1.167  15.215 -0.2333 -0.2214 -0.3908
  190MPD1    C2 2890   2.086   1.065  15.297  0.4878 -0.3949  0.0406
  190MPD1    C3 2891   2.004   0.961  15.323  0.4787 -0.3693  0.7229
  190MPD1    C4 2892   1.878   0.952  15.272 -0.2375 -0.0146  0.5257
  190MPD1    C5 2893   1.828   1.059  15.203  0.1197  0.2894  0.3960
  190MPD1     H 2894   2.185   1.063  15.342  0.3028  2.0559  0.5527
  190MPD1    H1 2895   1.814   0.864  15.274  0.7093 -0.7267 -0.6171
  190MPD1    H2 2896   1.860   1.268  15.153  1.1745 -0.8490 -1.4348
  190MPD1    H3 2897   1.729   1.037  15.165 -0.1968 -0.1861  1.4897
  190MPD1     N 2898   2.063   0.845  15.388  0.3632  0.3087  0.0681
  190MPD1    H5 2899   2.161   0.851  15.412  0.8227 -3.4251 -0.7741
  190MPD1    N1 2900   2.114   1.282  15.232 -0.0036 -0.5458  0.2779
  190MPD1    H6 2901   2.083   1.352  15.165 -0.3653  0.5062  1.5436
  190MPD1    H7 2902   2.215   1.269  15.225 -0.0278  0.7108 -2.5797
  191MPD1     C 2903   1.150   1.837  12.820 -0.5495 -0.3953 -0.4867
  191MPD1    C1 2904   1.068   1.941  12.845  0.0514  0.0621 -0.3699
  191MPD1    C2 2905   1.106   2.075  12.811 -0.8532 -0.3699  0.1058
  191MPD1    C3 2906   1.215   2.094  12.723 -0.7156  0.6267 -0.1637
  191MPD1    C4 2907   1.282   1.981  12.683 -0.2328  0.0475 -0.1161
  191MPD1    C5 2908   1.255   1.858  12.734  0.5237  0.5543  0.8038
  191MPD1     H 2909   1.048   2.161  12.843  0.0708 -0.2401  1.4215
  191MPD1    H1 2910   1.356   1.974  12.604  1.0876  4.6177  0.6915
  191MPD1    H2 2911   1.121   1.735  12.842 -1.0820 -0.9955 -3.9323
  191MPD1    H3 2912   1.306   1.769  12.699 -4.1327 -1.4248 -0.8649
  191MPD1     N 2913   1.246   2.226  12.678  0.0399  0.9036 -0.0741
  191MPD1    H5 2914   1.192   2.308  12.706  1.6170  1.2156  2.0430
  191MPD1    N1 2915   0.965   1.922  12.942  0.1336 -0.1546  0.2262
  191MPD1    H6 2916   0.931   1.826  12.931  1.0011 -0.4930  0.4699
  191MPD1    H7 2917   0.890   1.989  12.928  0.6973 -0.0739 -2.3661
  192MPD1     C 2918   0.940   3.136  12.477  0.4704 -0.2207 -0.4932
  192MPD1    C1 2919   0.964   3.052  12.576 -0.0753  0.3926 -0.3168
  192MPD1    C2 2920   1.045   2.946  12.562 -0.1988  0.2793  0.0011
  192MPD1    C3 2921   1.101   2.920  12.435 -0.2227  0.2933 -0.0031
  192MPD1    C4 2922   1.080   3.012  12.332 -0.0187  0.9554  0.1781
  192MPD1    C5 2923   0.993   3.114  12.357  0.3932  0.5152 -0.2752
  192MPD1     H 2924   1.060   2.873  12.641 -0.5510  0.5873  0.3530
  192MPD1    H1 2925   1.137   3.001  12.241  2.3925 -0.6145  1.8707
  192MPD1    H2 2926   0.873   3.221  12.476  1.3828  0.5284  1.2935
  192MPD1    H3 2927   0.973   3.183  12.276 -1.3636 -1.1436 -1.2539
  192MPD1     N 2928   1.169   2.799  12.416  0.3148  0.2292 -0.0772
  192MPD1    H5 2929   1.216   2.796  12.326 -1.2716 -1.6649 -0.8438
  192MPD1    N1 2930   0.913   3.092  12.705  0.3330  0.1271 -0.8507
  192MPD1    H6 2931   0.871   3.019  12.763 -2.4396  0.9363 -1.7973
  192MPD1    H7 2932   0.844   3.166  12.689 -1.4022 -0.6131  3.1406
  193MPD1     C 2933   1.186   2.800  16.015  0.1186 -1.1825 -0.1695
  193MPD1    C1 2934   1.137   2.930  16.043  0.2527 -0.5061 -1.1584
  193MPD1    C2 2935   1.174   2.984  16.166 -0.1316  0.1688  0.5634
  193MPD1    C3 2936   1.250   2.915  16.258  0.2480 -0.3654  0.1121
  193MPD1    C4 2937   1.299   2.796  16.222 -0.0622 -0.4463 -0.5390
  193MPD1    C5 2938   1.275   2.739  16.097 -0.1283  0.3584 -0.4079
  193MPD1     H 2939   1.146   3.086  16.189  1.0754  0.5960  0.1066
  193MPD1    H1 2940   1.367   2.750  16.292  0.8948  3.3021  0.9956
  193MPD1    H2 2941   1.172   2.753  15.919  1.2527  0.2343 -1.0376
  193MPD1    H3 2942   1.308   2.640  16.068  0.6723 -0.5291  3.4403
  193MPD1     N 2943   1.288   2.955  16.389 -0.1272  0.1197  0.1326
  193MPD1    H5 2944   1.342   2.884  16.436 -0.0287  0.3316  0.3423
  193MPD1    N1 2945   1.043   2.990  15.954 -0.9529 -0.3512 -0.0275
  193MPD1    H6 2946   1.052   2.961  15.857 -1.5221  0.1562 -0.2357
  193MPD1    H7 2947   1.029   3.091  15.961 -0.6718 -0.2208 -1.4262
  194MPD1     C 2948   3.067   4.589  16.069 -0.3173  0.4490  0.0498
  194MPD1    C1 2949   3.167   4.529  15.995  0.4607  0.5156  0.6048
  194MPD1    C2 2950   3.259   4.432  16.051  0.3713 -0.4583  0.3449
  194MPD1    C3 2951   3.249   4.411  16.188 -0.0878 -0.2049 -0.0279
  194MPD1    C4 2952   3.151   4.486  16.265  0.0110 -0.3915 -0.5761
  194MPD1    C5 2953   3.065   4.577  16.204 -0.0161  0.0255  1.2965
  194MPD1     H 2954   3.335   4.377  15.995 -0.0815 -0.6728 -0.0583
  194MPD1    H1 2955   3.154   4.480  16.373 -0.2851  0.0511 -0.5434
  194MPD1    H2 2956   2.994   4.654  16.023 -1.3046 -1.0622 -0.5513
  194MPD1    H3 2957   2.988   4.629  16.260  1.2003  2.6682  0.5537
  194MPD1     N 2958   3.335   4.327  16.266  0.3244  0.0941 -0.1562
  194MPD1    H5 2959   3.308   4.325  16.363 -1.2403 -0.0405 -0.5964
  194MPD1    N1 2960   3.158   4.542  15.858 -0.3836  0.5397 -0.1398
  194MPD1    H6 2961   3.243   4.565  15.808 -0.0262 -1.4087 -0.4148
  194MPD1    H7 2962   3.094   4.618  15.834 -0.1796  0.1013 -2.0007
  195MPD1     C 2963   2.004   1.223   0.162 -0.0501 -1.3733  0.7513
  195MPD1    C1 2964   1.995   1.134   0.058  0.1107  1.1634  1.1202
  195MPD1    C2 2965   1.916   1.025   0.072 -0.1781 -0.1439  0.2272
  195MPD1    C3 2966   1.842   0.997   0.184  0.0796  0.1884 -0.7732
  195MPD1    C4 2967   1.870   1.074   0.291  0.0901  0.0210  0.1562
  195MPD1    C5 2968   1.945   1.185   0.282  0.1462  0.1811  0.2642
  195MPD1     H 2969   1.903   0.962  17.677 -1.4599 -0.7194  0.8324
  195MPD1    H1 2970   1.825   1.055   0.388 -1.1094 -0.3451 -0.4770
  195MPD1    H2 2971   2.049   1.321   0.158 -0.2895 -1.2327  1.5476
  195MPD1    H3 2972   1.956   1.248   0.370 -0.4608 -0.0674  0.5139
  195MPD1     N 2973   1.750   0.889   0.196  0.2358 -0.6140 -0.2134
  195MPD1    H5 2974   1.725   0.865   0.292 -2.1705 -2.1943 -1.2468
  195MPD1    N1 2975   2.049   1.169  17.627  0.6876 -0.1068  0.2443
  195MPD1    H6 2976   2.062   1.089  17.565  0.4078 -0.9034  1.2251
  195MPD1    H7 2977   2.125   1.236  17.621  0.0138  0.7833  1.7345
  196MPD1     C 2978   0.237   1.887   0.099  0.0505  0.2160 -0.1069
  196MPD1    C1 2979   0.297   1.995   0.164  0.5032  0.5858  0.0541
  196MPD1    C2 2980   0.267   2.017   0.294  0.0703 -0.0738 -1.0696
  196MPD1    C3 2981   0.188   1.921   0.366  0.2072  0.0928  0.1435
  196MPD1    C4 2982   0.143   1.812   0.298  0.4005 -0.1599  0.9381
  196MPD1    C5 2983   0.151   1.797   0.160  0.6394  0.1058 -0.2847
  196MPD1     H 2984   0.324   2.097   0.340 -0.7149 -1.2509  1.9100
  196MPD1    H1 2985   0.086   1.735   0.349  1.4116 -0.6719  1.2934
  196MPD1    H2 2986   0.249   1.873  17.684 -0.6912  0.6677 -0.2493
  196MPD1    H3 2987   0.100   1.712   0.116  2.3307  0.3143 -2.6463
  196MPD1     N 2988   0.165   1.928   0.502 -0.4987  0.7201 -0.3757
  196MPD1    H5 2989   0.136   1.838   0.539 -2.1295  1.1324 -0.6749
  196MPD1    N1 2990   0.394   2.078   0.108  0.0286  0.0066  0.2414
  196MPD1    H6 2991   0.402   2.172   0.148  1.0277  0.1117 -0.1930
  196MPD1    H7 2992   0.402   2.089   0.008  0.7255  1.7946  0.4795
  197MPD1     C 2993   4.426   2.980  17.280 -0.8285  0.4996 -0.1021
  197MPD1    C1 2994   4.507   3.034  17.368 -0.3826 -0.0556  0.0725
  197MPD1    C2 2995   4.608   3.124  17.317  0.1846  0.4670  0.3267
  197MPD1    C3 2996   4.625   3.154  17.181 -0.0583  1.4370 -0.5994
  197MPD1    C4 2997   4.539   3.093  17.092 -0.1404 -0.1926  0.3657
  197MPD1    C5 2998   4.447   3.005  17.150  1.0106 -0.0775  0.1650
  197MPD1     H 2999   4.667   3.178  17.390 -0.8578  1.3280  0.5270
  197MPD1    H1 3000   4.528   3.126  16.990  0.0817  0.4449  0.5503
  197MPD1    H2 3001   4.340   2.917  17.304 -1.0041  0.8228  0.1184
  197MPD1    H3 3002   4.375   2.957  17.085  1.7346  0.1576 -0.8169
  197MPD1     N 3003   0.006   3.237  17.128  0.0573 -0.4129  0.8203
  197MPD1    H5 3004   0.026   3.247  17.028 -1.8581  0.5324  0.5369
  197MPD1    N1 3005   4.484   3.028  17.501 -0.3102 -0.0341  0.3642
  197MPD1    H6 3006   4.573   3.045  17.548  0.1651  4.0700 -2.0548
  197MPD1    H7 3007   4.455   2.936  17.534 -1.2633  0.8697  2.0525
  198MPD1     C 3008   2.140   1.230  16.253 -0.5686 -0.0941  0.0181
  198MPD1    C1 3009   2.195   1.320  16.179  0.2482  0.2345  0.5679
  198MPD1    C2 3010   2.199   1.447  16.230 -0.5331  0.3711  0.1129
  198MPD1    C3 3011   2.150   1.482  16.355 -0.4187 -0.8812 -0.2470
  198MPD1    C4 3012   2.081   1.382  16.427  0.1084  0.4224 -0.2035
  198MPD1    C5 3013   2.082   1.256  16.374  0.1766 -0.1065 -0.6042
  198MPD1     H 3014   2.236   1.530  16.172 -0.4875  0.3614  0.1278
  198MPD1    H1 3015   2.042   1.398  16.526  0.8991 -0.5634  0.2637
  198MPD1    H2 3016   2.142   1.126  16.226  0.3400 -0.0752  0.0066
  198MPD1    H3 3017   2.025   1.179  16.423  0.8167 -0.6293 -0.6730
  198MPD1     N 3018   2.167   1.618  16.376 -0.7448 -0.5681  0.4817
  198MPD1    H5 3019   2.211   1.677  16.306  1.8479  0.2431  2.8156
  198MPD1    N1 3020   2.262   1.292  16.058  0.4103  0.1924 -0.0799
  198MPD1    H6 3021   2.225   1.208  16.015 -2.1183  1.6513 -0.7561
  198MPD1    H7 3022   2.250   1.372  15.997 -0.3317 -0.2283 -0.4816
  199MPD1     C 3023   3.877   2.059   9.537  0.9692 -0.1090 -0.5240
  199MPD1    C1 3024   3.745   2.034   9.498  0.7711  0.0360  0.5302
  199MPD1    C2 3025   3.677   2.145   9.452  0.3788 -0.4231 -0.3902
  199MPD1    C3 3026   3.737   2.269   9.455 -1.0112  0.4874 -0.2669
  199MPD1    C4 3027   3.860   2.291   9.510  0.7931 -0.5274 -0.0119
  199MPD1    C5 3028   3.928   2.180   9.552  0.0856  0.0818 -0.4118
  199MPD1     H 3029   3.576   2.134   9.414  0.6744 -0.5857 -1.1408
  199MPD1    H1 3030   3.909   2.388   9.512  0.6577 -0.4749  0.6922
  199MPD1    H2 3031   3.937   1.971   9.558  2.0776  0.7203 -0.1932
  199MPD1    H3 3032   4.027   2.189   9.595 -0.3476 -0.6126  0.7305
  199MPD1     N 3033   3.679   2.387   9.400  0.4004 -0.3160 -0.2806
  199MPD1    H5 3034   3.738   2.469   9.411 -0.6490  0.7939 -2.8817
  199MPD1    N1 3035   3.710   1.904   9.460  0.4869 -0.4019  0.0513
  199MPD1    H6 3036   3.610   1.890   9.460  0.4205  0.0938  0.7540
  199MPD1    H7 3037   3.754   1.832   9.517 -1.1665 -2.1926 -0.9549
  200MPD1     C 3038   3.180   3.061  15.653 -0.3335 -0.5207  0.1720
  200MPD1    C1 3039   3.293   3.129  15.690 -0.3588  0.4769 -0.2900
  200MPD1    C2 3040   3.338   3.218  15.602 -0.4373  0.7486 -0.0801
  200MPD1    C3 3041   3.303   3.228  15.466 -0.0721 -0.0283  0.0157
  200MPD1    C4 3042   3.194   3.150  15.432  0.9641 -0.1633 -0.1190
  200MPD1    C5 3043   3.127   3.083  15.532  0.1620  0.0747  0.8501
  200MPD1     H 3044   3.414   3.286  15.639  1.6277 -1.8622  0.5025
  200MPD1    H1 3045   3.142   3.159  15.337 -0.6536  0.4285  0.8195
  200MPD1    H2 3046   3.118   3.003  15.721 -1.7483 -0.1178 -0.7806
  200MPD1    H3 3047   3.029   3.042  15.512  0.8374 -0.7023 -0.8785
  200MPD1     N 3048   3.374   3.312  15.381 -0.1904 -0.7631 -0.6650
  200MPD1    H5 3049   3.435   3.380  15.425 -0.1802 -1.9324  1.1114
  200MPD1    N1 3050   3.344   3.130  15.823  0.0193  0.3035 -0.0288
  200MPD1    H6 3051   3.332   3.045  15.879 -0.8310 -0.3708 -1.2493
  200MPD1    H7 3052   3.444   3.151  15.823 -0.1556  1.1363  0.0315
  201MPD1     C 3053   0.289   1.882  12.618  0.4615 -1.0494  0.0865
  201MPD1    C1 3054   0.312   1.758  12.560 -0.3919 -0.0003 -0.1091
  201MPD1    C2 3055   0.407   1.684  12.618 -0.6544  0.0736  0.4225
  201MPD1    C3 3056   0.476   1.723  12.732  0.2355 -0.3548 -0.8343
  201MPD1    C4 3057   0.450   1.852  12.790 -1.2763  0.3026  0.4002
  201MPD1    C5 3058   0.356   1.930  12.732 -0.2152 -0.4958 -0.0530
  201MPD1     H 3059   0.423   1.584  12.579 -0.3743  0.3599 -0.2097
  201MPD1    H1 3060   0.496   1.883  12.883 -1.9022  0.7953  0.5403
  201MPD1    H2 3061   0.223   1.948  12.563  2.2036  0.0821 -0.6627
  201MPD1    H3 3062   0.340   2.028  12.774 -0.7543 -0.5184 -0.2106
  201MPD1     N 3063   0.559   1.625  12.790 -0.3771 -0.4255  0.1202
  201MPD1    H5 3064   0.584   1.545  12.733  1.2895 -0.0321  0.3147
  201MPD1    N1 3065   0.259   1.729  12.433  0.1212 -0.3734 -0.0969
  201MPD1    H6 3066   0.165   1.768  12.433  1.0622  1.8354 -1.9955
  201MPD1    H7 3067   0.231   1.633  12.414  2.1969 -0.7752 -1.0616
  202MPD1     C 3068   3.290   0.296   9.503 -0.3618 -0.3012 -0.8180
  202MPD1    C1 3069   3.413   0.246   9.502  0.6271  0.0776 -0.1778
  202MPD1    C2 3070   3.502   0.313   9.572  0.2795 -0.5918 -0.6094
  202MPD1    C3 3071   3.488   0.445   9.613  0.2342 -0.2395  0.3598
  202MPD1    C4 3072   3.375   0.507   9.573 -0.0271 -0.0145  0.1744
  202MPD1    C5 3073   3.271   0.431   9.525 -0.0199 -1.0498 -0.3343
  202MPD1     H 3074   3.599   0.268   9.591 -0.3711 -0.8806  1.9835
  202MPD1    H1 3075   3.365   0.608   9.611 -1.5338 -1.7753  4.4824
  202MPD1    H2 3076   3.204   0.235   9.478 -2.4337  3.5147 -3.0492
  202MPD1    H3 3077   3.173   0.473   9.505  0.2597  0.6029  1.7752
  202MPD1     N 3078   3.583   0.512   9.692  0.1562  0.3106  0.4104
  202MPD1    H5 3079   3.564   0.609   9.715  2.9794  1.1688 -0.9171
  202MPD1    N1 3080   3.417   0.106   9.504  0.0936  0.0895 -0.1881
  202MPD1    H6 3081   3.507   0.064   9.480 -0.0021  0.3034 -0.9173
  202MPD1    H7 3082   3.351   0.069   9.436 -0.8061  0.4280  0.5206
  203MPD1     C 3083   3.455   1.971  12.573 -0.6997 -0.0045  0.6801
  203MPD1    C1 3084   3.549   2.051  12.625  0.4073  0.1396 -0.2604
  203MPD1    C2 3085   3.682   2.021  12.601 -0.2871  0.1164  0.0599
  203MPD1    C3 3086   3.719   1.906  12.531 -0.2186  0.0695  0.5164
  203MPD1    C4 3087   3.617   1.836  12.470 -0.0888  0.1666  0.0186
  203MPD1    C5 3088   3.486   1.865  12.490  0.1076  0.7467  0.5277
  203MPD1     H 3089   3.753   2.079  12.660 -1.4810  2.8276 -1.1539
  203MPD1    H1 3090   3.636   1.756  12.399 -0.8704  0.9798 -1.1055
  203MPD1    H2 3091   3.348   1.985  12.585 -0.7442 -0.5829  0.9277
  203MPD1    H3 3092   3.400   1.815  12.447 -0.6808 -0.2326  3.2602
  203MPD1     N 3093   3.858   1.866  12.518  0.6109 -0.1953 -0.7802
  203MPD1    H5 3094   3.923   1.925  12.568  0.1959 -0.7712  0.4256
  203MPD1    N1 3095   3.518   2.148  12.728 -0.4982  0.1145 -0.0072
  203MPD1    H6 3096   3.422   2.174  12.748 -1.2489 -2.7600 -0.0041
  203MPD1    H7 3097   3.580   2.230  12.728  0.0491 -0.2975 -0.0587
  204MPD1     C 3098   2.462   3.112  17.139  0.8817 -0.1366  0.0647
  204MPD1    C1 3099   2.527   3.060  17.252  0.3027  0.2232  0.0738
  204MPD1    C2 3100   2.653   3.008  17.240  0.6224 -0.0979  0.6412
  204MPD1    C3 3101   2.724   3.022  17.122  0.0079  0.4474 -0.3866
  204MPD1    C4 3102   2.672   3.086  17.014 -0.1067  0.0153 -0.0090
  204MPD1    C5 3103   2.542   3.131  17.027  0.0219  0.3005  0.0166
  204MPD1     H 3104   2.708   2.968  17.324  2.2686 -0.4079 -0.5860
  204MPD1    H1 3105   2.717   3.100  16.917 -0.0709  0.1533  0.0278
  204MPD1    H2 3106   2.365   3.159  17.141  0.7722 -0.4964  3.5509
  204MPD1    H3 3107   2.509   3.180  16.936  1.0182 -2.4976 -1.8540
  204MPD1     N 3108   2.860   2.988  17.127  0.3758  0.1398 -0.0141
  204MPD1    H5 3109   2.892   2.942  17.212  2.3996  0.1856 -0.7687
  204MPD1    N1 3110   2.470   3.070  17.379  0.2869 -0.4574  1.4328
  204MPD1    H6 3111   2.502   2.990  17.433 -0.5323 -1.7045  0.0646
  204MPD1    H7 3112   2.370   3.064  17.360  0.6349 -0.3646 -0.4152
  205MPD1     C 3113   4.126   1.860  17.130  0.2456  0.1636 -0.6254
  205MPD1    C1 3114   4.140   1.847  17.267  0.2389 -0.2055 -0.2255
  205MPD1    C2 3115   4.034   1.877  17.341  0.4407 -0.6311  0.0548
  205MPD1    C3 3116   3.914   1.924  17.291  0.7007  0.1013  0.0940
  205MPD1    C4 3117   3.904   1.948  17.155 -0.1337  0.7882 -0.5449
  205MPD1    C5 3118   4.010   1.913  17.079  0.7062  0.2718 -0.3284
  205MPD1     H 3119   4.047   1.873  17.449 -1.0310  1.7706  0.3101
  205MPD1    H1 3120   3.806   1.970  17.115  0.2957  3.0904 -0.3353
  205MPD1    H2 3121   4.209   1.834  17.066  0.4254 -0.9356  0.0501
  205MPD1    H3 3122   4.000   1.914  16.971  0.1709 -1.0383 -0.2804
  205MPD1     N 3123   3.808   1.968  17.369  0.5877  0.6758  1.0615
  205MPD1    H5 3124   3.720   2.005  17.333 -2.1802 -3.1646  3.8721
  205MPD1    N1 3125   4.262   1.791  17.314 -0.4565  0.4843  0.5118
  205MPD1    H6 3126   4.333   1.843  17.264  0.7473 -1.8561 -0.1689
  205MPD1    H7 3127   4.283   1.810  17.412  1.1711 -1.4432  0.5305
  206MPD1     C 3128   3.894   0.527  17.113  0.5105 -0.2430  0.4239
  206MPD1    C1 3129   3.953   0.445  17.021  1.1956 -0.2491 -0.0744
  206MPD1    C2 3130   3.898   0.426  16.892  0.7353 -0.4900 -0.4789
  206MPD1    C3 3131   3.796   0.512  16.853  0.1409  0.0030 -0.3265
  206MPD1    C4 3132   3.751   0.609  16.944  0.4776 -0.5394 -0.1906
  206MPD1    C5 3133   3.798   0.610  17.068 -0.4080 -0.1323  0.8363
  206MPD1     H 3134   3.933   0.340  16.836 -0.1741 -1.4695  0.4578
  206MPD1    H1 3135   3.671   0.674  16.911 -0.2614 -0.5399  1.6291
  206MPD1    H2 3136   3.938   0.537  17.211  0.9738 -0.9450  0.2862
  206MPD1    H3 3137   3.780   0.696  17.132  0.6829 -0.8151  2.0678
  206MPD1     N 3138   3.743   0.514  16.722 -0.0774  0.4903  0.0932
  206MPD1    H5 3139   3.672   0.585  16.708 -0.7454 -0.2549 -0.3186
  206MPD1    N1 3140   4.051   0.362  17.073 -0.4517 -0.3272  0.3048
  206MPD1    H6 3141   4.101   0.410  17.147  0.1987  0.9925 -1.0114
  206MPD1    H7 3142   4.115   0.332  17.000 -1.0388 -0.2286 -0.2493
  207MPD1     C 3143   0.843   2.286   9.732 -0.1954 -0.1987 -0.4098
  207MPD1    C1 3144   0.865   2.260   9.865 -0.2454 -0.3912  0.2016
  207MPD1    C2 3145   0.989   2.295   9.918 -0.2018  0.0704  0.2891
  207MPD1    C3 3146   1.084   2.371   9.848  0.1038  0.2008 -0.2200
  207MPD1    C4 3147   1.057   2.403   9.718 -0.3721  0.2373 -0.2257
  207MPD1    C5 3148   0.939   2.358   9.662  0.8533 -1.4863 -0.5829
  207MPD1     H 3149   0.998   2.279  10.025  0.9679  0.3720  0.2381
  207MPD1    H1 3150   1.124   2.474   9.671 -0.2376  1.1448  1.3203
  207MPD1    H2 3151   0.750   2.260   9.682 -0.3964 -0.5364  0.1397
  207MPD1    H3 3152   0.917   2.386   9.560 -0.7255 -0.0968  0.1385
  207MPD1     N 3153   1.206   2.415   9.899  0.1018  0.0050  0.1371
  207MPD1    H5 3154   1.268   2.470   9.839 -2.2201 -0.0515 -2.3505
  207MPD1    N1 3155   0.768   2.177   9.927 -0.4387  0.5501  0.0455
  207MPD1    H6 3156   0.675   2.204   9.895 -0.2979  0.0381 -0.7968
  207MPD1    H7 3157   0.773   2.186  10.028 -0.9570  0.2304  0.1005
  208MPD1     C 3158   4.407   1.577   0.034  0.7924 -0.0594  0.4211
  208MPD1    C1 3159   4.273   1.581   0.044 -0.1241 -0.5078 -0.4941
  208MPD1    C2 3160   4.223   1.572   0.173  0.8376  0.2345  0.0601
  208MPD1    C3 3161   4.302   1.572   0.288 -0.0421 -1.6856  0.1656
  208MPD1    C4 3162   4.441   1.604   0.276  0.1895  0.5545 -0.0416
  208MPD1    C5 3163   4.484   1.604   0.150 -0.6884 -0.1278 -0.5732
  208MPD1     H 3164   4.114   1.579   0.173  0.7189 -1.6834 -1.1740
  208MPD1    H1 3165   4.512   1.597   0.357  1.1857  1.7122 -0.8251
  208MPD1    H2 3166   4.457   1.576  17.631  0.9994  2.0856  0.5163
  208MPD1    H3 3167   4.589   1.630   0.140 -0.4978  0.3631  2.5633
  208MPD1     N 3168   4.240   1.546   0.412  0.2129  0.1446 -0.1520
  208MPD1    H5 3169   4.139   1.537   0.412  0.3182 -0.9824  0.2449
  208MPD1    N1 3170   4.192   1.616  17.623  0.0119  0.0213  0.0008
  208MPD1    H6 3171   4.238   1.581  17.539  1.2510  0.5591  0.4473
  208MPD1    H7 3172   4.098   1.580  17.636 -0.6335  1.2067 -1.4972
  209MPD1     C 3173   1.335   1.419  10.658  0.3934 -0.9674  0.1369
  209MPD1    C1 3174   1.292   1.546  10.628 -0.6005 -0.1890 -0.7956
  209MPD1    C2 3175   1.353   1.647  10.701 -0.0027  0.2746 -0.0151
  209MPD1    C3 3176   1.458   1.619  10.791 -0.2098  0.7817  0.0054
  209MPD1    C4 3177   1.496   1.492  10.823  0.1023 -0.4667  0.5436
  209MPD1    C5 3178   1.431   1.395  10.755  0.2932  0.1806  0.4080
  209MPD1     H 3179   1.324   1.752  10.695  0.9268  0.6779  2.4538
  209MPD1    H1 3180   1.571   1.466  10.897  0.5944 -0.1354  0.1565
  209MPD1    H2 3181   1.297   1.338  10.597  2.0299 -0.6506 -1.3032
  209MPD1    H3 3182   1.473   1.296  10.771  0.4592  0.0838 -0.5939
  209MPD1     N 3183   1.514   1.726  10.857  0.3114  0.3864 -0.2615
  209MPD1    H5 3184   1.496   1.820  10.824 -2.4573  0.3608  1.1467
  209MPD1    N1 3185   1.204   1.564  10.523  0.1853  0.1452 -0.1646
  209MPD1    H6 3186   1.143   1.485  10.508  2.4340 -1.5309 -0.4951
  209MPD1    H7 3187   1.157   1.653  10.535  1.1842  0.6619 -0.0043
  210MPD1     C 3188   1.580   2.296  11.757 -0.2356  0.6491  0.2094
  210MPD1    C1 3189   1.617   2.164  11.742  0.2300 -0.0311 -0.1896
  210MPD1    C2 3190   1.648   2.117  11.615 -1.1716 -0.2220  0.1325
  210MPD1    C3 3191   1.622   2.190  11.497  0.3485 -0.3120 -0.6048
  210MPD1    C4 3192   1.576   2.315  11.511  0.0067  0.4866  0.4545
  210MPD1    C5 3193   1.565   2.369  11.637  0.4145 -0.0906  0.6129
  210MPD1     H 3194   1.681   2.014  11.610  0.4895  0.3281 -0.5631
  210MPD1    H1 3195   1.555   2.370  11.420 -3.6773  0.4589  1.2692
  210MPD1    H2 3196   1.575   2.337  11.857  0.4580  1.0352  0.0843
  210MPD1    H3 3197   1.535   2.473  11.640  0.6265 -0.0383  0.9832
  210MPD1     N 3198   1.643   2.148  11.367 -0.0012  0.5375 -0.0172
  210MPD1    H5 3199   1.619   2.215  11.294 -1.5551  0.2408  0.2360
  210MPD1    N1 3200   1.647   2.086  11.855  0.3869  0.4516  0.0584
  210MPD1    H6 3201   1.594   2.119  11.936 -0.7293 -1.4119  0.0970
  210MPD1    H7 3202   1.623   1.987  11.851  0.7929  0.3796 -0.5172
  211MPD1     C 3203   0.080   1.965  16.181 -0.1830  0.9382 -0.4202
  211MPD1    C1 3204   0.007   1.904  16.276  0.6151 -0.6161  0.1981
  211MPD1    C2 3205   4.623   1.977  16.328  0.2171 -0.5360  0.7052
  211MPD1    C3 3206   4.592   2.097  16.275  0.4264 -0.6823 -0.3633
  211MPD1    C4 3207   4.661   2.157  16.181  0.0675  0.0422  0.3264
  211MPD1    C5 3208   0.048   2.091  16.136 -0.0027 -0.2820 -0.3073
  211MPD1     H 3209   4.563   1.946  16.413 -1.1654 -1.9867 -0.7601
  211MPD1    H1 3210   4.632   2.249  16.130  0.4843  0.5219  0.9579
  211MPD1    H2 3211   0.173   1.920  16.148 -0.6136  0.4389 -0.9371
  211MPD1    H3 3212   0.106   2.136  16.056  0.9527 -0.5253  0.2563
  211MPD1     N 3213   4.470   2.155  16.328  0.9417 -0.1170  0.5119
  211MPD1    H5 3214   4.429   2.121  16.415 -2.3509 -1.0240 -1.4091
  211MPD1    N1 3215   0.054   1.791  16.344 -0.5116 -0.2068 -0.5704
  211MPD1    H6 3216   4.702   1.729  16.375 -0.1638 -0.3367  0.0080
  211MPD1    H7 3217   0.122   1.742  16.287 -1.4648 -2.1928  0.0045
  212MPD1     C 3218   3.607   0.130  16.826 -0.7367  0.1566 -0.4238
  212MPD1    C1 3219   3.524   0.203  16.909 -0.5913 -0.2074  0.4789
  212MPD1    C2 3220   3.410   0.145  16.949  0.4835 -0.1255  0.1191
  212MPD1    C3 3221   3.380   0.010  16.924 -0.5075  1.0291 -0.0935
  212MPD1    C4 3222   3.473   4.658  16.855  0.7224  0.3710 -0.2794
  212MPD1    C5 3223   3.583   4.720  16.795  0.0587  0.0711 -0.0023
  212MPD1     H 3224   3.346   0.199  17.017  0.7406  0.3267  0.0065
  212MPD1    H1 3225   3.457   4.552  16.845  1.3256  0.1545  1.1011
  212MPD1    H2 3226   3.699   0.169  16.782  0.4263 -0.5469  1.3670
  212MPD1    H3 3227   3.655   4.665  16.737 -1.6474 -1.2742 -0.8453
  212MPD1     N 3228   3.258   4.670  16.962  0.1122 -0.0111 -0.1544
  212MPD1    H5 3229   3.244   4.570  16.948 -1.0259 -0.0966  1.5915
  212MPD1    N1 3230   3.540   0.343  16.930  0.2310 -0.3441 -0.6255
  212MPD1    H6 3231   3.636   0.376  16.925  0.3358  0.0301  3.2868
  212MPD1    H7 3232   3.514   0.374  17.024  0.7605 -1.4650 -0.1043
  213MPD1     C 3233   0.680   0.684  15.000  0.1199 -0.6594 -0.4896
  213MPD1    C1 3234   0.748   0.764  15.092  0.4233  0.2367  0.2154
  213MPD1    C2 3235   0.831   0.862  15.045 -0.2915 -0.2153 -0.0152
  213MPD1    C3 3236   0.875   0.871  14.914 -0.2196  0.1637 -0.0104
  213MPD1    C4 3237   0.813   0.780  14.830  0.5631 -0.6019  0.5986
  213MPD1    C5 3238   0.712   0.700  14.867 -1.2427  0.0653 -0.0044
  213MPD1     H 3239   0.858   0.945  15.109 -0.8494  0.1842 -0.2892
  213MPD1    H1 3240   0.840   0.785  14.725 -4.3068  1.1915 -0.5744
  213MPD1    H2 3241   0.589   0.636  15.033  0.2702 -0.0939  0.7395
  213MPD1    H3 3242   0.666   0.647  14.784  0.6403 -3.6322  1.2904
  213MPD1     N 3243   0.973   0.967  14.877 -0.3694 -0.1948 -0.3747
  213MPD1    H5 3244   1.028   1.003  14.954  0.4610  0.5668 -1.3155
  213MPD1    N1 3245   0.681   0.811  15.212  0.0767  0.4778 -0.2779
  213MPD1    H6 3246   0.742   0.861  15.276  0.3020 -2.3217  1.6856
  213MPD1    H7 3247   0.641   0.731  15.261  3.6703 -1.0901  0.1107
  214MPD1     C 3248   1.575   0.821  14.117  0.4910  0.2554  0.3141
  214MPD1    C1 3249   1.648   0.895  14.203  0.2041 -0.0311 -0.3762
  214MPD1    C2 3250   1.580   0.968  14.301 -0.4442  0.8864 -0.2034
  214MPD1    C3 3251   1.444   0.951  14.321 -0.2578  0.4550 -0.1570
  214MPD1    C4 3252   1.373   0.869  14.239 -0.0602  0.0787  0.2784
  214MPD1    C5 3253   1.443   0.818  14.132 -0.1616 -0.0741  0.0964
  214MPD1     H 3254   1.629   1.042  14.364  1.1065  0.3517 -0.7972
  214MPD1    H1 3255   1.269   0.845  14.259  0.5189 -1.4493  1.4627
  214MPD1    H2 3256   1.618   0.772  14.031  3.2503  0.2890  1.6880
  214MPD1    H3 3257   1.396   0.751  14.062 -2.5605  0.5563  1.1090
  214MPD1     N 3258   1.368   1.015  14.423 -0.6246  0.0504 -0.3869
  214MPD1    H5 3259   1.268   1.000  14.412 -0.4897 -0.4704 -0.9392
  214MPD1    N1 3260   1.781   0.927  14.187 -0.5725 -0.5073 -0.1005
  214MPD1    H6 3261   1.823   0.934  14.279  0.1056 -1.0601 -0.3602
  214MPD1    H7 3262   1.829   0.853  14.136 -0.2770 -0.9170  0.7880
  215MPD1     C 3263   1.386   1.819  10.274  0.5023  0.4438  0.1123
  215MPD1    C1 3264   1.317   1.936  10.250 -0.3616  0.0589  0.4011
  215MPD1    C2 3265   1.295   2.020  10.354  0.3502  0.7403  0.8670
  215MPD1    C3 3266   1.348   2.004  10.479  0.4299  0.0656 -0.5038
  215MPD1    C4 3267   1.430   1.893  10.496  0.5375 -0.3678  0.6851
  215MPD1    C5 3268   1.440   1.802  10.401 -0.3829 -0.6221  0.2203
  215MPD1     H 3269   1.226   2.100  10.330  0.4453  0.6601  0.3231
  215MPD1    H1 3270   1.491   1.880  10.584 -0.3072  1.0854  1.4918
  215MPD1    H2 3271   1.403   1.750  10.192  1.2333 -0.3439  0.9146
  215MPD1    H3 3272   1.500   1.712  10.412  0.7178  0.1769  0.7982
  215MPD1     N 3273   1.317   2.095  10.578 -0.0642 -0.6775 -0.5331
  215MPD1    H5 3274   1.273   2.184  10.559  1.5155  0.3991  0.8505
  215MPD1    N1 3275   1.245   1.948  10.126 -0.1446 -0.2680 -0.7311
  215MPD1    H6 3276   1.223   2.044  10.103 -1.5674 -0.0639  1.5394
  215MPD1    H7 3277   1.299   1.909  10.049  2.5422  0.2392  0.8797
  216MPD1     C 3278   2.911   3.899  17.206  0.2921 -0.0680 -0.2019
  216MPD1    C1 3279   2.879   3.855  17.331  0.1917  0.0804  0.2934
  216MPD1    C2 3280   2.970   3.775  17.393 -0.0640  0.4648  0.7669
  216MPD1    C3 3281   3.069   3.715  17.319  0.3259 -0.1921  0.1727
  216MPD1    C4 3282   3.094   3.754  17.190  0.3323 -0.3364  0.2797
  216MPD1    C5 3283   3.015   3.849  17.134 -0.6614  0.4300  0.2891
  216MPD1     H 3284   2.959   3.748  17.497  2.0105  0.0694  0.8886
  216MPD1    H1 3285   3.188   3.733  17.140  0.3268  1.5104 -0.4899
  216MPD1    H2 3286   2.840   3.969  17.165 -1.9990 -1.9574  0.5526
  216MPD1    H3 3287   3.040   3.891  17.037 -1.1630  1.5877  0.6607
  216MPD1     N 3288   3.154   3.626  17.392  0.3727 -0.3455 -0.2034
  216MPD1    H5 3289   3.137   3.624  17.492 -0.4763  2.2473 -0.2950
  216MPD1    N1 3290   2.781   3.916  17.406 -0.4294  0.0495  1.0526
  216MPD1    H6 3291   2.734   3.853  17.470 -3.3895  1.4715  0.2670
  216MPD1    H7 3292   2.708   3.955  17.347 -1.4236 -0.2281  2.0937
  217MPD1     C 3293   3.337   4.245   9.729  0.2213 -0.0355  0.3731
  217MPD1    C1 3294   3.210   4.288   9.688 -0.2641  0.2191  1.3389
  217MPD1    C2 3295   3.176   4.422   9.725  0.1644 -0.2182  0.4046
  217MPD1    C3 3296   3.274   4.512   9.760  0.5312 -0.2819  0.0921
  217MPD1    C4 3297   3.401   4.461   9.791 -0.3171 -0.4167  0.3063
  217MPD1    C5 3298   3.428   4.333   9.773  0.0139 -0.0642  0.0656
  217MPD1     H 3299   3.073   4.454   9.716  0.5068  0.6208 -0.5610
  217MPD1    H1 3300   3.485   4.518   9.830  0.8996 -0.9336 -1.6020
  217MPD1    H2 3301   3.369   4.143   9.713  1.2314  0.3765 -0.1926
  217MPD1    H3 3302   3.528   4.297   9.797 -0.4778 -1.9207 -0.7050
  217MPD1     N 3303   3.264   4.651   9.780 -0.2151  0.1063 -0.0095
  217MPD1    H5 3304   3.351   4.699   9.798 -1.0526  1.4751  0.4025
  217MPD1    N1 3305   3.107   4.197   9.646 -0.0192  0.0604 -0.0613
  217MPD1    H6 3306   3.040   4.240   9.582  0.0930  0.8135  0.3304
  217MPD1    H7 3307   3.149   4.115   9.604  0.1426  0.0950  0.0340
  218MPD1     C 3308   0.752   2.596  12.925 -0.4185 -0.1500 -0.3099
  218MPD1    C1 3309   0.808   2.598  12.803 -0.3588  0.1221  0.4874
  218MPD1    C2 3310   0.824   2.481  12.730  0.1728  0.1449 -0.1280
  218MPD1    C3 3311   0.795   2.357  12.784  0.5188  0.7332 -0.2303
  218MPD1    C4 3312   0.750   2.354  12.919  0.7647  0.4245 -0.4152
  218MPD1    C5 3313   0.742   2.476  12.986  0.0637 -0.3128 -0.0323
  218MPD1     H 3314   0.861   2.487  12.628 -1.5566 -1.0155 -0.8193
  218MPD1    H1 3315   0.735   2.264  12.978 -1.8671 -0.1398 -1.9411
  218MPD1    H2 3316   0.715   2.684  12.976 -0.8448  0.8011 -2.2336
  218MPD1    H3 3317   0.704   2.477  13.088 -0.0075 -0.6653 -0.0575
  218MPD1     N 3318   0.807   2.241  12.704 -0.4582 -0.5646  0.2006
  218MPD1    H5 3319   0.835   2.256  12.607 -0.5737  1.8157  0.5169
  218MPD1    N1 3320   0.818   2.722  12.733 -0.2354  0.2246 -0.3030
  218MPD1    H6 3321   0.903   2.719  12.678  0.8406  0.4969  1.3408
  218MPD1    H7 3322   0.824   2.804  12.793  0.9102 -0.1093  0.0331
  219MPD1     C 3323   1.399   2.293  12.131 -0.4021 -0.4074  0.1558
  219MPD1    C1 3324   1.425   2.169  12.176  0.1400 -0.2751  0.0047
  219MPD1    C2 3325   1.325   2.094  12.242 -0.1489 -0.6368 -0.0282
  219MPD1    C3 3326   1.198   2.153  12.269  0.8690  0.3937  0.1609
  219MPD1    C4 3327   1.184   2.286  12.241  0.1415 -0.3320 -0.2414
  219MPD1    C5 3328   1.286   2.355  12.176 -0.3225  0.5762  0.1851
  219MPD1     H 3329   1.344   1.988  12.257 -0.1757 -0.3556  1.9318
  219MPD1    H1 3330   1.083   2.320  12.259  0.1038 -0.1824 -0.7135
  219MPD1    H2 3331   1.470   2.348  12.070  1.3118 -1.4200  1.2174
  219MPD1    H3 3332   1.265   2.458  12.147  0.3117  0.8130  0.5519
  219MPD1     N 3333   1.090   2.095  12.335 -0.7410  0.1620  0.1924
  219MPD1    H5 3334   1.003   2.147  12.338 -1.6155 -1.4551  2.8290
  219MPD1    N1 3335   1.542   2.103  12.129 -0.0363 -0.0219  0.0112
  219MPD1    H6 3336   1.555   2.013  12.175  0.0972  0.6009  1.1858
  219MPD1    H7 3337   1.626   2.160  12.145 -2.4090  2.6141  3.0479
  220MPD1     C 3338   1.339   3.058   9.291  0.4784  0.2956 -0.5397
  220MPD1    C1 3339   1.361   3.113   9.417 -0.1035 -0.4306 -0.6902
  220MPD1    C2 3340   1.291   3.054   9.520 -0.3179 -0.6647  0.2625
  220MPD1    C3 3341   1.215   2.943   9.502  0.2863 -0.4087 -0.0689
  220MPD1    C4 3342   1.200   2.889   9.374 -0.4229  0.3844  0.0907
  220MPD1    C5 3343   1.277   2.941   9.276 -0.5179 -1.3382  0.6243
  220MPD1     H 3344   1.312   3.088   9.621  0.7357 -0.6378  0.0352
  220MPD1    H1 3345   1.137   2.804   9.352 -0.9742  0.5987  0.8292
  220MPD1    H2 3346   1.380   3.105   9.201 -0.8312 -1.0236 -1.8167
  220MPD1    H3 3347   1.282   2.895   9.178 -1.0880  0.1623 -0.1196
  220MPD1     N 3348   1.152   2.890   9.617  0.7352 -0.1443 -0.4886
  220MPD1    H5 3349   1.168   2.932   9.708 -0.1827  0.0133 -0.3973
  220MPD1    N1 3350   1.438   3.227   9.436  0.8240  0.2277 -0.6794
  220MPD1    H6 3351   1.506   3.262   9.370  0.2182 -0.8535 -1.8738
  220MPD1    H7 3352   1.459   3.245   9.534  2.0273 -0.1610 -0.8636
  221MPD1     C 3353   2.963   1.317  16.634 -0.0172  0.3314  0.3370
  221MPD1    C1 3354   3.031   1.403  16.715  0.8483  0.3073  0.3580
  221MPD1    C2 3355   3.170   1.387  16.732 -1.6293 -0.1648  0.0057
  221MPD1    C3 3356   3.235   1.296  16.655  0.3352 -0.7667  0.4382
  221MPD1    C4 3357   3.169   1.220  16.559 -0.3639 -0.0265  0.3768
  221MPD1    C5 3358   3.034   1.226  16.556  0.3043  0.1826 -0.2375
  221MPD1     H 3359   3.219   1.452  16.804 -3.3644  0.0089  1.0396
  221MPD1    H1 3360   3.217   1.152  16.489 -1.2544  0.6663 -0.9183
  221MPD1    H2 3361   2.858   1.333  16.613 -0.4511 -2.2949  0.4743
  221MPD1    H3 3362   2.989   1.159  16.484  0.3041 -0.4480  0.3402
  221MPD1     N 3363   3.377   1.290  16.656 -0.0526  0.0117 -0.4120
  221MPD1    H5 3364   3.421   1.228  16.588  1.8901  1.4615 -0.5063
  221MPD1    N1 3365   2.961   1.487  16.810 -0.2626  0.4388 -0.5004
  221MPD1    H6 3366   3.007   1.578  16.812  0.2898  0.1262  1.2665
  221MPD1    H7 3367   2.876   1.503  16.757 -1.1984 -2.8253  0.0202
  222MPD1     C 3368   3.272   4.312   1.108  0.3629 -0.3509  0.4505
  222MPD1    C1 3369   3.270   4.451   1.103  0.3498 -0.2857 -0.1653
  222MPD1    C2 3370   3.149   4.507   1.054 -0.2796  0.0889 -0.2042
  222MPD1    C3 3371   3.033   4.434   1.047 -0.2482 -0.2304  0.2085
  222MPD1    C4 3372   3.032   4.299   1.074 -0.0013 -0.4650 -1.1682
  222MPD1    C5 3373   3.152   4.241   1.090  0.0214 -0.0477 -1.0576
  222MPD1     H 3374   3.137   4.610   1.020  0.4840 -0.1133 -1.0784
  222MPD1    H1 3375   2.941   4.240   1.072  0.8944 -2.0238  4.5505
  222MPD1    H2 3376   3.364   4.255   1.114  0.3371 -0.6037 -1.4832
  222MPD1    H3 3377   3.157   4.132   1.087 -0.6609 -0.1300  1.3162
  222MPD1     N 3378   2.909   4.490   1.019  0.3391  0.1408  0.4430
  222MPD1    H5 3379   2.828   4.430   1.003 -0.7961  1.5623  0.8186
  222MPD1    N1 3380   3.386   4.527   1.118  0.4954  0.0151  0.0605
  222MPD1    H6 3381   3.373   4.621   1.155 -3.4749  0.6110 -2.8758
  222MPD1    H7 3382   3.454   4.473   1.171 -1.6692 -2.4943  0.2781
  223MPD1     C 3383   2.202   4.063   1.175 -0.1002 -0.1360  0.8711
  223MPD1    C1 3384   2.338   4.057   1.194 -0.1847 -0.0712 -0.9395
  223MPD1    C2 3385   2.417   4.166   1.147  0.3930 -0.1118  0.5837
  223MPD1    C3 3386   2.355   4.279   1.096  0.2505  0.3584  0.3715
  223MPD1    C4 3387   2.222   4.276   1.078 -0.1380  0.6042 -0.8117
  223MPD1    C5 3388   2.141   4.176   1.122  0.2263 -0.2121 -0.4880
  223MPD1     H 3389   2.524   4.171   1.163  0.7067 -0.1620 -1.4944
  223MPD1    H1 3390   2.183   4.370   1.040  0.7355  0.7095 -1.4438
  223MPD1    H2 3391   2.136   3.982   1.201  0.1178 -1.3016 -2.2206
  223MPD1    H3 3392   2.033   4.179   1.110  0.0616 -0.0357  0.9505
  223MPD1     N 3393   2.436   4.383   1.063 -0.3377  0.0270 -0.4306
  223MPD1    H5 3394   2.532   4.352   1.058 -0.4977 -0.5094 -0.2926
  223MPD1    N1 3395   2.401   3.937   1.224  0.2351 -0.5143 -0.1411
  223MPD1    H6 3396   2.493   3.944   1.267 -0.7499  0.1505  1.8759
  223MPD1    H7 3397   2.345   3.885   1.291  1.0615 -1.7133 -0.3799
  224MPD1     C 3398   3.051   0.901   9.380 -0.4832 -0.0428  0.6224
  224MPD1    C1 3399   3.041   0.844   9.507 -0.2264  0.4106 -0.2829
  224MPD1    C2 3400   3.037   0.927   9.619 -0.8165  0.6219 -0.2401
  224MPD1    C3 3401   3.046   1.063   9.611 -0.1576 -0.6922 -0.5641
  224MPD1    C4 3402   3.054   1.116   9.481 -0.7648  0.3519  0.1981
  224MPD1    C5 3403   3.050   1.035   9.369 -0.3345 -0.4088 -0.5785
  224MPD1     H 3404   3.051   0.877   9.714  4.3946 -1.0356 -1.9111
  224MPD1    H1 3405   3.045   1.221   9.457 -0.8507 -0.5848 -3.8346
  224MPD1    H2 3406   3.079   0.847   9.290 -1.0357 -3.2931  2.3912
  224MPD1    H3 3407   3.045   1.084   9.272 -2.8841 -0.5063 -0.5167
  224MPD1     N 3408   3.057   1.144   9.726 -0.1199  0.1011 -0.1330
  224MPD1    H5 3409   3.096   1.237   9.712 -0.4527  0.7071  2.9000
  224MPD1    N1 3410   3.081   0.710   9.527  0.0840 -0.0215  0.3213
  224MPD1    H6 3411   3.054   0.673   9.618 -1.5204  2.7915  1.0040
  224MPD1    H7 3412   3.043   0.656   9.450 -0.9274  1.2359 -0.0783
  225MPD1     C 3413   0.489   3.130  10.992  0.2688 -0.3739 -0.2522
  225MPD1    C1 3414   0.510   3.258  11.041 -0.2165 -0.6956 -0.4172
  225MPD1    C2 3415   0.489   3.278  11.177 -0.8352 -0.2064  0.3555
  225MPD1    C3 3416   0.434   3.181  11.259  0.1124  0.9375  0.7116
  225MPD1    C4 3417   0.403   3.054  11.210  0.8185 -0.0315  0.3140
  225MPD1    C5 3418   0.444   3.035  11.079 -0.0786  0.0036 -0.2250
  225MPD1     H 3419   0.505   3.382  11.203 -0.7631 -0.2412  0.4475
  225MPD1    H1 3420   0.358   2.971  11.262 -4.8120  2.3980 -0.6861
  225MPD1    H2 3421   0.476   3.109  10.886 -2.7221  2.6521 -0.4663
  225MPD1    H3 3422   0.434   2.932  11.046  0.6330 -0.2993  0.4949
  225MPD1     N 3423   0.411   3.194  11.400 -0.0472  0.3075 -0.2767
  225MPD1    H5 3424   0.360   3.120  11.447  1.3846 -1.4904 -1.5130
  225MPD1    N1 3425   0.533   3.368  10.952  0.1203 -0.6498  0.0689
  225MPD1    H6 3426   0.551   3.330  10.859 -0.3725 -3.6367  1.1832
  225MPD1    H7 3427   0.592   3.443  10.987 -2.7868  2.2915 -1.3823
  226MPD1     C 3428   2.062   1.563  10.361 -0.3025 -0.8754 -0.7568
  226MPD1    C1 3429   2.194   1.618  10.361  0.2038 -0.1165 -0.5759
  226MPD1    C2 3430   2.267   1.619  10.243 -0.0466 -0.0994  0.2033
  226MPD1    C3 3431   2.202   1.590  10.124  0.3584  0.1294 -0.6864
  226MPD1    C4 3432   2.064   1.559  10.126 -1.1098 -1.0048 -0.1182
  226MPD1    C5 3433   2.002   1.530  10.241  0.8560  1.3959  0.0291
  226MPD1     H 3434   2.374   1.639  10.244 -0.0488 -0.0899  0.3724
  226MPD1    H1 3435   2.002   1.555  10.037 -0.6057 -1.9323 -0.4316
  226MPD1    H2 3436   2.009   1.535  10.451  1.7648  0.2236  0.8023
  226MPD1    H3 3437   1.901   1.493  10.243  1.1560  0.5616 -0.2061
  226MPD1     N 3438   2.267   1.611   9.998  0.7616  0.6911 -0.1574
  226MPD1    H5 3439   2.207   1.588   9.920 -0.2132 -2.5483  1.5254
  226MPD1    N1 3440   2.264   1.639  10.480 -0.2240 -0.0662 -0.7234
  226MPD1    H6 3441   2.327   1.719  10.482 -0.3293 -0.0906  3.1494
  226MPD1    H7 3442   2.197   1.666  10.551  0.7237 -0.3109  0.2676
  227MPD1     C 3443   2.257   1.069   9.192  0.3391  0.3517 -0.2647
  227MPD1    C1 3444   2.287   1.193   9.147 -0.3607 -0.4595  0.0610
  227MPD1    C2 3445   2.346   1.286   9.225 -0.7462  0.2673 -0.8441
  227MPD1    C3 3446   2.369   1.264   9.357  0.4029 -0.1742 -0.0970
  227MPD1    C4 3447   2.336   1.137   9.405 -0.2825 -0.0194 -0.4075
  227MPD1    C5 3448   2.285   1.043   9.327 -0.5102 -0.7091  0.0382
  227MPD1     H 3449   2.369   1.381   9.178 -3.8823  1.1772 -0.5486
  227MPD1    H1 3450   2.354   1.106   9.507  0.0445 -1.2198 -0.8317
  227MPD1    H2 3451   2.200   0.996   9.137  0.9865 -0.1642 -0.2382
  227MPD1    H3 3452   2.267   0.946   9.372  0.5073  0.2865  2.5716
  227MPD1     N 3453   2.417   1.366   9.442 -0.3165  0.1167  0.2131
  227MPD1    H5 3454   2.440   1.455   9.397 -1.3547  0.8226  1.0843
  227MPD1    N1 3455   2.242   1.240   9.021  0.2628  0.0518 -0.1233
  227MPD1    H6 3456   2.230   1.163   8.956  1.7677  2.6480 -3.4348
  227MPD1    H7 3457   2.319   1.296   8.985  1.6448 -2.0282 -0.4680
  228MPD1     C 3458   3.104   0.408  12.213  0.0737 -0.0975  0.1728
  228MPD1    C1 3459   3.022   0.492  12.146 -0.4566  0.2857 -0.1398
  228MPD1    C2 3460   2.895   0.523  12.196  0.3913  0.0746  0.3250
  228MPD1    C3 3461   2.845   0.473  12.313  0.5118  0.4441  0.1333
  228MPD1    C4 3462   2.933   0.381  12.373 -0.0248 -0.2118  0.0646
  228MPD1    C5 3463   3.060   0.351  12.327  1.0900  0.2955 -0.3179
  228MPD1     H 3464   2.837   0.596  12.141 -1.7266 -1.5993  0.3250
  228MPD1    H1 3465   2.908   0.334  12.467 -0.7526  1.3809  0.6794
  228MPD1    H2 3466   3.196   0.364  12.175 -0.3099 -1.9508  1.3788
  228MPD1    H3 3467   3.119   0.275  12.376  0.9181  1.3926  1.5677
  228MPD1     N 3468   2.717   0.489  12.362 -0.0974  0.1244 -0.8701
  228MPD1    H5 3469   2.651   0.527  12.295 -0.1054 -1.8615 -2.0203
  228MPD1    N1 3470   3.064   0.537  12.017 -0.1366 -0.2648  0.4414
  228MPD1    H6 3471   3.164   0.555  12.011  0.0310 -1.1373  0.6370
  228MPD1    H7 3472   3.011   0.622  11.996  1.5196  0.0695 -2.3490
  229MPD1     C 3473   1.763   4.299  13.853 -0.3857 -0.4936  0.2057
  229MPD1    C1 3474   1.790   4.408  13.932  0.2046 -0.1728 -0.6310
  229MPD1    C2 3475   1.886   4.386  14.033 -0.2112  0.2328  0.0651
  229MPD1    C3 3476   1.928   4.257  14.062 -0.3958 -0.1682  0.0642
  229MPD1    C4 3477   1.888   4.150  13.988  0.1753 -0.2512  0.0136
  229MPD1    C5 3478   1.805   4.177  13.886  0.4662  0.4765 -0.0553
  229MPD1     H 3479   1.931   4.470  14.084 -2.2963  0.0825  2.1900
  229MPD1    H1 3480   1.917   4.047  14.005  1.6231 -0.0205 -1.0436
  229MPD1    H2 3481   1.706   4.318  13.763 -1.9165 -1.5057  0.9716
  229MPD1    H3 3482   1.786   4.094  13.820  1.1982 -0.1459  0.5108
  229MPD1     N 3483   2.018   4.224  14.166 -0.3216 -0.4975 -0.2150
  229MPD1    H5 3484   2.026   4.126  14.192 -2.6103 -0.3555  0.9575
  229MPD1    N1 3485   1.770   4.538  13.880  0.2299  0.0878  0.4106
  229MPD1    H6 3486   1.672   4.551  13.855 -0.0973  0.2384  1.7554
  229MPD1    H7 3487   1.777   4.608  13.954 -1.8941 -0.0828  0.7747
  230MPD1     C 3488   2.482   4.709  14.904 -0.2304  0.3393 -0.1486
  230MPD1    C1 3489   2.346   4.672  14.897  0.8065  0.6058  0.5310
  230MPD1    C2 3490   2.311   4.575  14.812  0.2972  0.1729 -0.0019
  230MPD1    C3 3491   2.405   4.509  14.740 -0.1681 -0.8841 -0.0025
  230MPD1    C4 3492   2.539   4.536  14.754  0.2494 -0.2890  0.2885
  230MPD1    C5 3493   2.577   4.639  14.836 -0.4271  0.4596 -0.0411
  230MPD1     H 3494   2.207   4.548  14.798  0.5740 -0.9453  0.0997
  230MPD1    H1 3495   2.617   4.481  14.703  0.1132  2.0073 -2.3858
  230MPD1    H2 3496   2.517   0.064  14.972 -1.6084 -0.4359  1.4510
  230MPD1    H3 3497   2.681   4.664  14.849 -0.1618 -0.4099 -0.5631
  230MPD1     N 3498   2.361   4.410  14.644 -0.5832 -0.2291  0.3872
  230MPD1    H5 3499   2.264   4.410  14.614 -0.1150 -1.0648 -1.1517
  230MPD1    N1 3500   2.256   0.044  14.952 -0.1800  0.5861 -0.3360
  230MPD1    H6 3501   2.166   0.008  14.983  0.2545 -0.5933 -0.4258
  230MPD1    H7 3502   2.298   0.098  15.027  1.4983 -2.2704  0.7774
  231MPD1     C 3503   0.346   0.474  15.253 -0.0340 -0.0267  0.0376
  231MPD1    C1 3504   0.361   0.589  15.330  0.5804 -0.7213  0.3811
  231MPD1    C2 3505   0.356   0.709  15.264 -0.4505  0.1988 -0.2455
  231MPD1    C3 3506   0.353   0.711  15.125 -0.0132  0.1526  0.0616
  231MPD1    C4 3507   0.339   0.594  15.052 -0.3008  0.2709  0.0424
  231MPD1    C5 3508   0.331   0.478  15.119  0.0492  0.0474  0.4511
  231MPD1     H 3509   0.371   0.800  15.321  1.3789  0.7022 -1.5114
  231MPD1    H1 3510   0.327   0.594  14.944  0.6945  0.5563 -0.0610
  231MPD1    H2 3511   0.337   0.374  15.294  0.4536  0.5822  1.6337
  231MPD1    H3 3512   0.318   0.386  15.063  0.6677 -0.4696  1.1495
  231MPD1     N 3513   0.370   0.838  15.070  0.8200  0.2356  0.3588
  231MPD1    H5 3514   0.360   0.920  15.130 -1.8164  0.4069 -0.3275
  231MPD1    N1 3515   0.337   0.591  15.466 -0.0250  0.3354 -0.3640
  231MPD1    H6 3516   0.391   0.654  15.525  0.3039 -0.2751 -0.0024
  231MPD1    H7 3517   0.368   0.503  15.508  2.2628  0.5773 -1.5341
  232MPD1     C 3518   2.351   3.672  17.201 -0.2454 -0.4563 -0.1983
  232MPD1    C1 3519   2.327   3.753  17.312  0.0075 -0.4483 -1.0668
  232MPD1    C2 3520   2.254   3.699  17.416 -0.8187  0.7759 -0.2703
  232MPD1    C3 3521   2.197   3.576  17.408  0.1577 -0.0952  0.3748
  232MPD1    C4 3522   2.241   3.493  17.307  0.5869 -0.3288  0.5511
  232MPD1    C5 3523   2.315   3.545  17.202  1.0942  0.7584 -0.5131
  232MPD1     H 3524   2.231   3.746  17.510  0.4477  0.2813  0.2907
  232MPD1    H1 3525   2.221   3.387  17.312 -1.5086 -0.0430 -1.7022
  232MPD1    H2 3526   2.401   3.719  17.117 -0.7945 -1.0326 -0.8486
  232MPD1    H3 3527   2.341   3.492  17.111 -3.5855  2.1176 -2.6378
  232MPD1     N 3528   2.102   3.533  17.500  0.2490 -0.2254 -0.5053
  232MPD1    H5 3529   2.077   3.602  17.571 -2.1630 -1.9436  0.3129
  232MPD1    N1 3530   2.348   3.890  17.294  0.1574 -0.0634  0.2735
  232MPD1    H6 3531   2.421   3.906  17.226  0.7716 -0.3646  0.8591
  232MPD1    H7 3532   2.347   3.948  17.378  2.3839  0.3000  0.0451
  233MPD1     C 3533   2.855   2.671   0.961 -0.4491 -0.3116  0.6699
  233MPD1    C1 3534   2.779   2.562   0.986 -0.3396  0.5211 -0.2604
  233MPD1    C2 3535   2.826   2.476   1.086  0.1463  0.2437  0.0454
  233MPD1    C3 3536   2.925   2.524   1.176 -0.0687 -0.1247  0.3080
  233MPD1    C4 3537   2.997   2.637   1.146  0.3666  0.1164 -0.5121
  233MPD1    C5 3538   2.965   2.712   1.039 -0.4989 -0.2259 -0.6362
  233MPD1     H 3539   2.777   2.380   1.102  0.2599  0.0889 -0.5294
  233MPD1    H1 3540   3.087   2.657   1.204 -0.6244 -0.4158  1.1950
  233MPD1    H2 3541   2.826   2.730   0.875  0.9440 -2.1331 -1.0603
  233MPD1    H3 3542   3.017   2.803   1.012  0.7418 -0.6747  0.1884
  233MPD1     N 3543   2.980   2.445   1.280  0.6846 -0.5769  0.0140
  233MPD1    H5 3544   3.050   2.491   1.338 -0.0884  1.2896 -0.5340
  233MPD1    N1 3545   2.689   2.519   0.883 -0.0726  0.4241  0.3119
  233MPD1    H6 3546   2.648   2.597   0.831 -2.1898  0.1725  1.5912
  233MPD1    H7 3547   2.610   2.465   0.917 -0.7528 -0.1066 -2.1179
  234MPD1     C 3548   4.262   0.281  11.024 -0.4266 -0.0590  1.0051
  234MPD1    C1 3549   4.240   0.248  10.892 -0.1958  0.5915  0.6053
  234MPD1    C2 3550   4.147   0.324  10.816  0.1930 -1.0150  0.5464
  234MPD1    C3 3551   4.088   0.434  10.869 -0.0831 -0.4389 -0.1612
  234MPD1    C4 3552   4.117   0.469  10.996  0.2487  0.7862 -0.2312
  234MPD1    C5 3553   4.198   0.389  11.076  0.0221  0.5892 -0.0436
  234MPD1     H 3554   4.128   0.301  10.712 -0.8352 -1.5038  0.8429
  234MPD1    H1 3555   4.067   0.547  11.053 -1.4659 -1.3694  1.2249
  234MPD1    H2 3556   4.319   0.223  11.095 -1.5897 -2.3886  0.0379
  234MPD1    H3 3557   4.214   0.411  11.181 -0.2279  1.6334 -0.2208
  234MPD1     N 3558   3.986   0.505  10.798 -0.0646  0.3091  0.5930
  234MPD1    H5 3559   3.958   0.464  10.710  0.6955  1.8468 -0.3479
  234MPD1    N1 3560   4.303   0.128  10.843  0.0486  0.3515  0.4971
  234MPD1    H6 3561   4.397   0.121  10.882 -0.3878 -1.5457  1.1753
  234MPD1    H7 3562   4.327   0.140  10.745 -0.6949 -0.7884  0.1856
  235MPD1     C 3563   0.038   3.772   8.405  0.6972 -0.3636 -0.2617
  235MPD1    C1 3564   0.177   3.768   8.414  0.3492 -0.1828  0.4907
  235MPD1    C2 3565   0.241   3.867   8.487 -0.0465 -0.2432  0.1078
  235MPD1    C3 3566   0.162   3.964   8.548  0.2038  0.5609 -0.1246
  235MPD1    C4 3567   0.021   3.964   8.546 -0.1554 -0.4218  0.9562
  235MPD1    C5 3568   4.691   3.866   8.472  0.3542  0.1650  0.1707
  235MPD1     H 3569   0.348   3.860   8.501 -0.2706  0.1074  2.0618
  235MPD1    H1 3570   4.677   4.040   8.584 -0.5882 -0.8265  1.0003
  235MPD1    H2 3571   4.703   3.698   8.350  0.8371 -0.7325  0.0802
  235MPD1    H3 3572   4.583   3.869   8.456  0.2478  2.5639  1.2656
  235MPD1     N 3573   0.236   4.065   8.613 -0.2234  0.3069 -0.1339
  235MPD1    H5 3574   0.337   4.058   8.625 -0.0677  0.1376 -1.5977
  235MPD1    N1 3575   0.250   3.665   8.359 -0.3186 -0.0996  0.1682
  235MPD1    H6 3576   0.198   3.628   8.280 -1.9970  1.5236  0.4934
  235MPD1    H7 3577   0.344   3.696   8.335  0.3167 -2.1921 -0.0156
  236MPD1     C 3578   4.407   0.192  10.102 -0.8214 -0.7392  0.6316
  236MPD1    C1 3579   4.419   0.127   9.981  0.7870 -0.0663 -1.0414
  236MPD1    C2 3580   4.543   0.057   9.952  0.0707  0.4007  0.3297
  236MPD1    C3 3581   4.649   0.046  10.052 -1.3320  0.2773 -0.0659
  236MPD1    C4 3582   4.627   0.113  10.169  0.5493  0.2401 -0.2837
  236MPD1    C5 3583   4.508   0.177  10.196  0.3880  0.1635  0.3047
  236MPD1     H 3584   4.557   0.004   9.858 -1.6879  1.5933 -0.6000
  236MPD1    H1 3585   4.705   0.115  10.244 -1.3959 -0.5699  1.7774
  236MPD1    H2 3586   4.312   0.242  10.116 -1.0139 -0.9671  0.1161
  236MPD1    H3 3587   4.493   0.209  10.298  0.7726  1.1131  0.0643
  236MPD1     N 3588   0.048   4.712  10.025  0.1397  0.4001 -0.3198
  236MPD1    H5 3589   0.131   0.004  10.081 -2.3792  0.3888  3.4044
  236MPD1    N1 3590   4.340   0.158   9.873 -0.3481  0.9952 -0.3338
  236MPD1    H6 3591   4.335   0.079   9.808 -2.8416  2.9884 -2.5758
  236MPD1    H7 3592   4.243   0.175   9.900 -0.4479 -0.4142  0.1710
  237MPD1     C 3593   1.253   1.846  15.633  0.2649 -0.5140 -0.4453
  237MPD1    C1 3594   1.193   1.922  15.727  0.1533 -0.5603  0.3264
  237MPD1    C2 3595   1.081   1.988  15.686 -0.3504 -0.5809 -1.0726
  237MPD1    C3 3596   1.033   1.985  15.557  0.1889  0.2808  0.4977
  237MPD1    C4 3597   1.095   1.906  15.467 -0.1382  0.1197  0.5260
  237MPD1    C5 3598   1.207   1.836  15.507 -0.1709 -0.1831 -0.0491
  237MPD1     H 3599   1.046   2.070  15.748 -0.0675  0.7397 -2.6513
  237MPD1    H1 3600   1.065   1.903  15.362 -2.7314  0.9571  1.2432
  237MPD1    H2 3601   1.356   1.816  15.646 -0.0692 -0.4087  2.4753
  237MPD1    H3 3602   1.261   1.783  15.429 -0.4802  1.5135 -1.4222
  237MPD1     N 3603   0.921   2.057  15.509 -0.0152  0.0416  0.1324
  237MPD1    H5 3604   0.904   2.058  15.409 -1.4718 -1.0187  0.3868
  237MPD1    N1 3605   1.265   1.954  15.848 -0.6712  0.0109 -0.1850
  237MPD1    H6 3606   1.338   1.887  15.872 -0.1460  0.5942 -0.1332
  237MPD1    H7 3607   1.215   1.975  15.934 -1.0200  1.3704 -0.7129
  238MPD1     C 3608   3.019   1.375  15.121 -0.7662  0.7669 -0.2530
  238MPD1    C1 3609   2.987   1.243  15.135  0.0839  0.2953 -0.2735
  238MPD1    C2 3610   2.871   1.206  15.076 -0.3002  0.2630 -0.8202
  238MPD1    C3 3611   2.791   1.290  15.009  0.2258  0.1607  0.2195
  238MPD1    C4 3612   2.829   1.416  14.984 -0.3115  0.3130  0.2416
  238MPD1    C5 3613   2.942   1.462  15.043 -0.1601 -0.1900  0.1402
  238MPD1     H 3614   2.830   1.109  15.100  3.9570 -1.6060 -1.2530
  238MPD1    H1 3615   2.771   1.485  14.924 -0.4249 -0.2291 -0.2649
  238MPD1    H2 3616   3.110   1.415  15.165 -0.4753 -0.9829  0.7744
  238MPD1    H3 3617   2.972   1.566  15.036  0.0250 -0.1563  1.3459
  238MPD1     N 3618   2.671   1.244  14.948  0.4357  0.7946 -0.4561
  238MPD1    H5 3619   2.637   1.305  14.875  2.6096  0.0290 -2.1145
  238MPD1    N1 3620   3.059   1.165  15.231 -0.6297 -0.7839 -0.2807
  238MPD1    H6 3621   3.070   1.066  15.210 -2.1843 -1.3361  1.5691
  238MPD1    H7 3622   3.155   1.200  15.240 -0.7675 -0.6991  0.8581
  239MPD1     C 3623   2.590   2.210  15.151  0.0391  0.2565  0.1581
  239MPD1    C1 3624   2.691   2.199  15.058 -0.3277 -0.0992  0.3886
  239MPD1    C2 3625   2.647   2.191  14.922 -0.2048  0.1090 -0.1327
  239MPD1    C3 3626   2.512   2.172  14.887 -0.4046  0.1920  0.1400
  239MPD1    C4 3627   2.420   2.174  14.985 -0.5661  0.4558  0.2140
  239MPD1    C5 3628   2.461   2.196  15.113 -0.1102  0.3963  0.3863
  239MPD1     H 3629   2.726   2.191  14.848  2.0211  0.8379  2.2554
  239MPD1    H1 3630   2.317   2.148  14.964 -0.4794  0.1250  0.2068
  239MPD1    H2 3631   2.611   2.212  15.257  0.7456 -0.0742  0.0222
  239MPD1    H3 3632   2.382   2.197  15.187 -0.3786  0.3221  0.1003
  239MPD1     N 3633   2.470   2.159  14.757 -0.4914 -0.2069 -0.3354
  239MPD1    H5 3634   2.372   2.148  14.735 -0.0558 -0.8849 -1.9700
  239MPD1    N1 3635   2.819   2.207  15.105  0.6541  0.2228 -0.4423
  239MPD1    H6 3636   2.830   2.178  15.202 -0.9201 -0.4511 -0.4580
  239MPD1    H7 3637   2.878   2.148  15.047  0.1946  0.5981 -1.2889
  240MPD1     C 3638   2.533   1.644  13.840 -0.2594  0.7616 -0.2118
  240MPD1    C1 3639   2.416   1.714  13.819  0.2684 -0.0586  0.2826
  240MPD1    C2 3640   2.311   1.681  13.901 -0.0706  0.4078 -0.6868
  240MPD1    C3 3641   2.324   1.592  14.008  0.0850 -1.0269  0.0691
  240MPD1    C4 3642   2.439   1.527  14.028  0.6614 -0.1863  0.2118
  240MPD1    C5 3643   2.536   1.547  13.937 -0.0928  0.1978  0.5896
  240MPD1     H 3644   2.218   1.732  13.879 -0.6010  0.1859  1.1018
  240MPD1    H1 3645   2.459   1.446  14.097 -2.7511 -2.5561 -1.5809
  240MPD1    H2 3646   2.621   1.655  13.779  0.1711 -1.7331 -0.0344
  240MPD1    H3 3647   2.618   1.479  13.959 -0.9270 -0.6004  1.2693
  240MPD1     N 3648   2.205   1.565  14.084  0.0685  0.0663  0.3940
  240MPD1    H5 3649   2.116   1.599  14.051  0.6678  0.0637 -1.2302
  240MPD1    N1 3650   2.402   1.789  13.700 -0.2351  0.3084  0.1899
  240MPD1    H6 3651   2.323   1.853  13.711 -0.8553 -0.4446  0.1624
  240MPD1    H7 3652   2.483   1.838  13.663  0.9776 -1.0258  1.0699
  241MPD1     C 3653   2.223   1.525  15.074 -0.0382 -0.4624 -0.7495
  241MPD1    C1 3654   2.095   1.552  15.047 -0.0828  0.1356  0.7268
  241MPD1    C2 3655   2.054   1.550  14.920 -0.5765 -0.0594  0.6988
  241MPD1    C3 3656   2.144   1.524  14.816  0.8956  0.1688  0.0411
  241MPD1    C4 3657   2.282   1.523  14.844 -0.2086  0.1243  0.8486
  241MPD1    C5 3658   2.322   1.514  14.977  0.7868 -0.3226 -0.4129
  241MPD1     H 3659   1.952   1.574  14.891 -0.7517 -0.4231  1.0058
  241MPD1    H1 3660   2.356   1.496  14.770 -1.2864  0.8436 -0.4911
  241MPD1    H2 3661   2.256   1.524  15.177  0.2634 -0.6353 -0.8489
  241MPD1    H3 3662   2.424   1.485  15.000  0.6987  0.1359  0.5503
  241MPD1     N 3663   2.107   1.530  14.681  0.4030  0.2181 -0.1741
  241MPD1    H5 3664   2.180   1.511  14.613 -1.8982 -4.3736 -1.3541
  241MPD1    N1 3665   2.005   1.606  15.139 -0.5082  0.0783  0.1880
  241MPD1    H6 3666   2.016   1.567  15.232 -0.1852  2.0790  1.0057
  241MPD1    H7 3667   1.908   1.622  15.112 -0.4706 -0.6115 -0.3457
  242MPD1     C 3668   1.429   0.262  15.841  0.4950  0.1454  0.1091
  242MPD1    C1 3669   1.380   0.147  15.774 -0.2570  0.1220  0.7026
  242MPD1    C2 3670   1.431   0.116  15.650 -0.6018 -0.1741  0.9373
  242MPD1    C3 3671   1.522   0.195  15.585 -0.1253 -0.2488 -0.0414
  242MPD1    C4 3672   1.561   0.316  15.647 -0.0467 -0.3027 -0.3972
  242MPD1    C5 3673   1.514   0.343  15.774 -0.1243  0.4275 -0.7682
  242MPD1     H 3674   1.393   0.035  15.588 -0.5831  1.6448 -1.4455
  242MPD1    H1 3675   1.635   0.379  15.600  1.0879 -0.1855  1.5345
  242MPD1    H2 3676   1.389   0.296  15.936  1.4903  0.0400  0.5696
  242MPD1    H3 3677   1.567   0.418  15.832  0.0292 -0.7346  0.6097
  242MPD1     N 3678   1.570   0.172  15.457 -0.3417  0.6283  0.5126
  242MPD1    H5 3679   1.622   0.252  15.422  0.3834  0.0905  0.3482
  242MPD1    N1 3680   1.263   0.086  15.823  0.4878 -0.0920  0.2508
  242MPD1    H6 3681   1.251   0.094  15.924  1.3978  1.9537  0.1976
  242MPD1    H7 3682   1.267   4.711  15.795 -1.9153 -0.2056  0.2703
  243MPD1     C 3683   4.279   3.364   0.433 -0.2082  0.4022  0.2491
  243MPD1    C1 3684   4.172   3.432   0.383  1.0294  0.0107  0.5423
  243MPD1    C2 3685   4.051   3.356   0.371  0.4454 -0.6398 -0.4068
  243MPD1    C3 3686   4.036   3.228   0.419  0.5274 -0.7476 -0.5950
  243MPD1    C4 3687   4.149   3.168   0.475 -0.2078  0.0183  0.5668
  243MPD1    C5 3688   4.265   3.240   0.490  0.2324  0.3335  0.0636
  243MPD1     H 3689   3.963   3.403   0.327  0.7717 -0.3420 -0.7427
  243MPD1    H1 3690   4.146   3.069   0.520  1.6226 -1.2991 -2.2347
  243MPD1    H2 3691   4.377   3.410   0.429 -0.1397  0.0708 -1.7068
  243MPD1    H3 3692   4.357   3.202   0.533 -0.1526 -0.1617  0.4427
  243MPD1     N 3693   3.921   3.154   0.383  0.5177 -0.6618 -0.3931
  243MPD1    H5 3694   3.851   3.212   0.339 -0.0817 -0.6471  0.5789
  243MPD1    N1 3695   4.185   3.552   0.317  0.4695  0.3031  0.2485
  243MPD1    H6 3696   4.251   3.616   0.360  0.0696  2.0194 -1.6688
  243MPD1    H7 3697   4.102   3.595   0.277  1.7898  2.2449 -0.4115
  244MPD1     C 3698   3.466   2.343   0.724  0.6581  0.0164  0.5629
  244MPD1    C1 3699   3.604   2.374   0.733 -0.5594 -0.3275  0.0286
  244MPD1    C2 3700   3.641   2.467   0.642  0.3306  0.0510 -0.5811
  244MPD1    C3 3701   3.555   2.522   0.545 -0.4766  0.5640 -0.5473
  244MPD1    C4 3702   3.426   2.475   0.540 -0.0223  0.3696 -0.1968
  244MPD1    C5 3703   3.385   2.383   0.627  0.2296 -0.3866 -0.1982
  244MPD1     H 3704   3.744   2.498   0.655 -0.1457  1.5540 -0.4661
  244MPD1    H1 3705   3.347   2.495   0.468  0.2270  0.2370 -0.5053
  244MPD1    H2 3706   3.426   2.280   0.802 -1.6389  0.3892 -0.3327
  244MPD1    H3 3707   3.288   2.334   0.616 -0.3283  0.3756  1.3154
  244MPD1     N 3708   3.597   2.635   0.471  0.1152  0.2957  0.2523
  244MPD1    H5 3709   3.697   2.649   0.474  0.0668  0.3454  1.6681
  244MPD1    N1 3710   3.686   2.355   0.846  0.0286  0.4992  0.2221
  244MPD1    H6 3711   3.783   2.349   0.819 -0.9388  2.8861 -3.7648
  244MPD1    H7 3712   3.658   2.280   0.909  0.5205  0.3313  0.2343
  245MPD1     C 3713   4.707   3.973  13.061  0.2780 -0.2229 -0.0769
  245MPD1    C1 3714   4.641   4.015  13.175 -0.0006 -0.1433  0.4333
  245MPD1    C2 3715   4.647   4.152  13.203 -0.2357  0.1177 -0.1384
  245MPD1    C3 3716   0.004   4.239  13.122 -0.0343 -0.1399  0.4867
  245MPD1    C4 3717   0.075   4.192  13.014  0.5484  0.0951 -0.3876
  245MPD1    C5 3718   0.058   4.060  12.980 -0.4293  0.6347 -0.6532
  245MPD1     H 3719   4.598   4.196  13.289 -0.4916  0.4979 -0.4757
  245MPD1    H1 3720   0.153   4.253  12.969  0.3286  0.2613 -0.5405
  245MPD1    H2 3721   4.703   3.872  13.022  2.9647 -0.4294  0.1760
  245MPD1    H3 3722   0.097   4.017  12.888 -2.5820 -0.9645 -0.8243
  245MPD1     N 3723   0.026   4.369  13.172 -0.3657 -0.6686 -0.0514
  245MPD1    H5 3724   0.012   4.387  13.271  1.7451 -1.7629  0.4608
  245MPD1    N1 3725   4.546   3.925  13.228 -0.5471 -0.1143 -0.5773
  245MPD1    H6 3726   4.531   3.960  13.323 -0.7158 -0.4354 -0.4824
  245MPD1    H7 3727   4.583   3.832  13.246  1.4912  0.7464 -0.4143
  246MPD1     C 3728   2.026   1.433   9.467  0.2615  0.0006 -0.2394
  246MPD1    C1 3729   1.964   1.550   9.502  0.2404 -0.7479 -0.1218
  246MPD1    C2 3730   1.837   1.540   9.546 -0.5701 -0.2270  0.3267
  246MPD1    C3 3731   1.763   1.421   9.537 -0.2527 -0.0204 -0.1705
  246MPD1    C4 3732   1.825   1.310   9.479  0.2802 -0.3050  0.0115
  246MPD1    C5 3733   1.958   1.317   9.458 -0.2520 -0.2296  0.1507
  246MPD1     H 3734   1.781   1.627   9.580  2.0411  1.4440  0.3438
  246MPD1    H1 3735   1.772   1.216   9.474  0.1835 -0.2604  0.2170
  246MPD1    H2 3736   2.132   1.431   9.445 -0.1053  1.8323 -2.2303
  246MPD1    H3 3737   2.000   1.226   9.415  0.3827 -0.1468  0.5987
  246MPD1     N 3738   1.630   1.415   9.592  0.1743  0.5617 -0.5938
  246MPD1    H5 3739   1.598   1.501   9.634 -1.7066  0.1412 -1.1976
  246MPD1    N1 3740   2.050   1.661   9.509 -0.2581  0.1083 -0.0673
  246MPD1    H6 3741   2.001   1.750   9.504 -0.6810  0.0504  3.4459
  246MPD1    H7 3742   2.131   1.661   9.448 -0.9042 -0.1464 -0.9352
  247MPD1     C 3743   4.430   3.813  16.416 -0.2545  0.6104 -0.4585
  247MPD1    C1 3744   4.531   3.774  16.495  0.9948  0.0290 -0.0980
  247MPD1    C2 3745   4.630   3.700  16.440 -0.0025  0.5978 -0.2796
  247MPD1    C3 3746   4.640   3.674  16.307 -0.1846 -0.1895 -0.1969
  247MPD1    C4 3747   4.549   3.737  16.228 -0.3538  0.1518 -0.3929
  247MPD1    C5 3748   4.446   3.810  16.280  0.4301 -0.7776 -0.7857
  247MPD1     H 3749   4.716   3.664  16.496  0.9010 -0.6621 -2.4734
  247MPD1    H1 3750   4.557   3.721  16.122  1.0040  2.2640 -0.6002
  247MPD1    H2 3751   4.335   3.847  16.455 -0.5875 -1.1998  0.3168
  247MPD1    H3 3752   4.374   3.865  16.220 -0.5485 -1.5709 -0.3466
  247MPD1     N 3753   0.018   3.594  16.251 -0.4816 -0.1360  0.5604
  247MPD1    H5 3754   0.020   3.598  16.149 -2.0034  1.6707  0.6010
  247MPD1    N1 3755   4.523   3.778  16.632 -0.2158  0.4622 -0.2462
  247MPD1    H6 3756   4.616   3.786  16.675 -0.7050  1.5231  0.6056
  247MPD1    H7 3757   4.462   3.855  16.658 -1.1187 -0.1319 -0.6059
  248MPD1     C 3758   0.870   3.918  17.522 -0.5697  0.5128  0.0016
  248MPD1    C1 3759   0.787   3.986  17.613  1.0421 -0.6019 -0.2343
  248MPD1    C2 3760   0.690   3.912  17.683  0.4853 -0.0265 -0.3492
  248MPD1    C3 3761   0.659   3.783  17.655  0.3698 -1.2013  0.2314
  248MPD1    C4 3762   0.742   3.714  17.570 -0.0835 -0.3103  0.1122
  248MPD1    C5 3763   0.846   3.781  17.507  0.0182 -0.2782  0.4559
  248MPD1     H 3764   0.638   3.954   0.076 -0.9222  0.4517 -1.4441
  248MPD1    H1 3765   0.720   3.612  17.542  1.8686 -0.7147  0.0385
  248MPD1    H2 3766   0.949   3.970  17.470 -0.5045 -0.6184 -1.0516
  248MPD1    H3 3767   0.908   3.720  17.442 -2.6053 -2.1452 -0.3121
  248MPD1     N 3768   0.545   3.721   0.015  0.5645 -0.0426 -0.4905
  248MPD1    H5 3769   0.479   3.783   0.062 -1.3820 -1.1781 -1.7347
  248MPD1    N1 3770   0.821   4.117  17.651  0.0734 -0.1768 -0.1389
  248MPD1    H6 3771   0.851   4.165  17.567  1.1388  0.5681  0.6709
  248MPD1    H7 3772   0.745   4.175  17.686  0.7794  0.0431  1.0634
  249MPD1     C 3773   2.306   3.060   9.778  1.0149 -0.0243 -0.3911
  249MPD1    C1 3774   2.421   3.072   9.701 -0.8578  0.2235  0.5603
  249MPD1    C2 3775   2.539   3.056   9.765  0.0646 -0.2640  0.6312
  249MPD1    C3 3776   2.546   2.992   9.887  0.4493 -0.2964  0.2900
  249MPD1    C4 3777   2.423   2.975   9.958  0.1383  0.6089  0.0727
  249MPD1    C5 3778   2.307   3.011   9.901  0.9122 -0.0622  0.4346
  249MPD1     H 3779   2.637   3.086   9.729 -0.2972  0.1467 -0.0125
  249MPD1    H1 3780   2.417   2.952  10.064  0.9481 -0.6403 -0.1452
  249MPD1    H2 3781   2.208   3.090   9.741  1.3528  1.3294 -0.1822
  249MPD1    H3 3782   2.213   2.994   9.953  0.0316 -0.0664 -1.1698
  249MPD1     N 3783   2.671   2.974   9.954 -0.5483 -0.6051  0.6473
  249MPD1    H5 3784   2.745   3.007   9.893 -0.0129  0.1172  1.6836
  249MPD1    N1 3785   2.423   3.143   9.575 -0.0498 -0.0562 -0.2272
  249MPD1    H6 3786   2.512   3.132   9.527 -0.2867 -0.7687 -0.4993
  249MPD1    H7 3787   2.345   3.125   9.513  0.8714  0.7093 -1.6038
  250MPD2     C 3788   3.143   2.530  13.504 -0.0986 -0.4845  0.2968
  250MPD2    C1 3789   3.162   2.567  13.374  0.2459  0.3689 -0.0293
  250MPD2    C2 3790   3.091   2.495  13.275 -0.4893 -0.6520 -0.1564
  250MPD2    C3 3791   3.001   2.396  13.304  0.7914 -0.4800  0.1223
  250MPD2    C4 3792   3.006   2.349  13.431  0.0788  0.3633  0.8123
  250MPD2    C5 3793   3.066   2.421  13.531  0.1793  0.9262 -0.3555
  250MPD2     H 3794   3.110   2.518  13.171  1.5635 -0.4398  0.2647
  250MPD2    H1 3795   2.941   2.266  13.457  0.0066  0.1573 -0.0215
  250MPD2    H2 3796   3.200   2.582  13.580  0.9813  0.1645 -0.9528
  250MPD2    H3 3797   3.068   2.375  13.629 -0.0742  1.8773  0.0929
  250MPD2     N 3798   2.933   2.324  13.205 -0.7785  0.0624  0.2523
  250MPD2    H5 3799   2.914   2.230  13.238  1.4786 -0.2970  0.5502
  250MPD2    N1 3800   3.239   2.689  13.350 -0.5489 -0.0275 -0.5853
  250MPD2    H7 3801   3.265   2.747  13.430  0.0988 -1.9837  0.6388
  251TMC3    C1 3802   3.351   2.856  13.222  0.0684 -0.0768 -0.1876
  251TMC3    C2 3803   3.346   2.957  13.317 -0.0296 -0.8235 -0.2894
  251TMC3    C3 3804   3.411   3.074  13.286 -0.1888  0.5629  0.2873
  251TMC3    C4 3805   3.414   2.872  13.107  0.1462 -0.1906 -0.0631
  251TMC3    C5 3806   3.467   2.992  13.078 -0.3910 -0.0989  0.0893
  251TMC3    C6 3807   3.465   3.093  13.169  0.1825 -0.6209  0.2225
  251TMC3     C 3808   3.271   2.735  13.227 -0.0229 -0.0620 -0.4099
  251TMC3     O 3809   3.222   2.707  13.118 -0.5271  0.3599  0.2594
  251TMC3     H 3810   3.271   2.967  13.395 -0.8758  1.5646 -1.3786
  251TMC3    H1 3811   3.427   2.785  13.044 -1.3090 -0.8975  0.6081
  251TMC3    H2 3812   3.510   3.189  13.148 -1.6824 -0.2513 -2.1302
  251TMC3    C7 3813   3.550   3.000  12.962 -0.3971  0.0997 -0.1518
  251TMC3    C8 3814   3.402   3.186  13.372  0.5012 -0.8320  1.1433
  251TMC3    O1 3815   3.540   2.901  12.889  0.5317  0.5073  0.1668
  251TMC3    O2 3816   3.400   3.294  13.309 -0.0951 -0.1283 -0.3090
  252TMC3    C1 3817   4.499   3.266   9.112  0.0486 -0.4349  0.1368
  252TMC3    C2 3818   4.394   3.359   9.095  0.2448 -0.3624  0.4844
  252TMC3    C3 3819   4.281   3.309   9.030  0.1177 -0.4176  0.0704
  252TMC3    C4 3820   4.488   3.131   9.091 -0.4051  0.2122 -0.8014
  252TMC3    C5 3821   4.361   3.091   9.051 -0.5136  0.2819  0.4410
  252TMC3    C6 3822   4.258   3.173   9.010 -0.8690 -0.2060 -0.2316
  252TMC3     C 3823   4.634   3.319   9.111 -0.0028  0.7730 -0.4777
  252TMC3     O 3824   0.004   3.254   9.064  0.8891  0.4222 -0.0361
  252TMC3     H 3825   4.412   3.466   9.101 -2.9128  0.0127  3.4648
  252TMC3    H1 3826   4.570   3.063   9.111 -1.5278 -0.3932  1.7911
  252TMC3    H2 3827   4.163   3.135   8.973  0.8938 -0.9247 -3.9836
  252TMC3    C7 3828   4.339   2.943   9.042 -0.1291  0.2971  0.1480
  252TMC3    C8 3829   4.162   3.391   9.043  0.1017 -0.4992  0.1388
  252TMC3    O1 3830   4.435   2.876   9.075 -0.1276 -0.2535 -0.4305
  252TMC3    O2 3831   4.068   3.374   8.965  0.7392  0.4858 -0.3079
  253MPD2     C 3832   0.128   2.271  15.029 -0.3893 -0.0791  0.3558
  253MPD2    C1 3833   0.012   2.325  15.071 -0.3437 -0.1184  0.1045
  253MPD2    C2 3834   0.008   2.426  15.163  0.1482 -0.3312  0.8196
  253MPD2    C3 3835   0.126   2.460  15.226  0.4329 -0.2730 -0.7483
  253MPD2    C4 3836   0.244   2.400  15.188 -0.1511  0.3513 -0.7008
  253MPD2    C5 3837   0.246   2.297  15.096 -0.1017  0.0898  0.2058
  253MPD2     H 3838   4.639   2.469  15.200  0.3445  2.5233 -1.9838
  253MPD2    H1 3839   0.331   2.425  15.248 -1.4254  0.9812  0.8675
  253MPD2    H2 3840   0.131   2.192  14.954  0.9635 -0.3513  0.7012
  253MPD2    H3 3841   0.343   2.248  15.086  0.2296  1.2984 -2.3846
  253MPD2     N 3842   0.124   2.546  15.340 -0.2452 -0.5662 -0.1023
  253MPD2    H5 3843   0.210   2.557  15.392 -0.6813 -1.1474  0.7466
  253MPD2    N1 3844   4.623   2.288  14.995  0.2319  0.0631  0.2188
  253MPD2    H7 3845   4.650   2.234  14.913 -0.0882  0.4031 -0.1071
  254TMC3    C1 3846   0.038   2.691  15.515 -0.4652  0.2077  0.2255
  254TMC3    C2 3847   4.646   2.750  15.566 -0.1123 -0.5107  0.1741
  254TMC3    C3 3848   4.620   2.754  15.705  0.3845  0.2402 -0.4487
  254TMC3    C4 3849   0.115   2.613  15.601  0.4382 -0.0219  0.0442
  254TMC3    C5 3850   0.073   2.612  15.734  0.7541  0.2460 -0.0780
  254TMC3    C6 3851   4.691   2.670  15.785 -0.8439  0.3056 -0.2199
  254TMC3     C 3852   0.025   2.638  15.378  0.0673 -0.4564  0.6932
  254TMC3     O 3853   4.643   2.669  15.318  0.0733  0.0196  0.0807
  254TMC3     H 3854   4.572   2.808  15.512 -1.6900 -1.5878  1.1753
  254TMC3    H1 3855   0.200   2.555  15.566  0.4924 -0.2122  0.4921
  254TMC3    H2 3856   4.679   2.674  15.893 -0.7434 -0.4978 -0.1847
  254TMC3    C7 3857   0.139   2.521  15.832 -0.3335  0.3288 -0.6180
  254TMC3    C8 3858   4.525   2.840  15.769  0.0639  0.7997 -0.5717
  254TMC3    O1 3859   0.076   2.496  15.934  0.4494 -0.1083  0.1108
  254TMC3    O2 3860   4.482   2.794  15.873  0.1009  0.1240  0.0483
  255MPD2     C 3861   2.346   1.005  10.898  0.2151  0.2334 -0.1973
  255MPD2    C1 3862   2.357   0.923  10.784 -0.0543  0.0636 -0.7769
  255MPD2    C2 3863   2.360   0.789  10.805  0.5019  0.4803 -0.2329
  255MPD2    C3 3864   2.355   0.737  10.931  0.3178  0.1500 -0.0409
  255MPD2    C4 3865   2.373   0.818  11.038 -0.8641 -0.0805 -0.1534
  255MPD2    C5 3866   2.353   0.957  11.028  0.8351  0.4039 -0.3042
  255MPD2     H 3867   2.377   0.713  10.730  0.6927  0.2182  0.0744
  255MPD2    H1 3868   2.380   0.774  11.137 -0.4766  2.3833  0.9188
  255MPD2    H2 3869   2.337   1.113  10.887  1.7656  0.3149 -0.6967
  255MPD2    H3 3870   2.346   1.022  11.114  1.8266  1.8459 -1.3238
  255MPD2     N 3871   2.358   0.593  10.934 -0.3968  0.0038  0.4458
  255MPD2    H5 3872   2.344   0.549  10.843  1.4138  1.0094 -0.3233
  255MPD2    N1 3873   2.366   0.977  10.654 -0.3591 -0.0685  0.0892
  255MPD2    H7 3874   2.375   0.912  10.576  0.4666  0.9396 -0.6636
  256TMC3    C1 3875   2.376   1.120  10.477  0.2799  0.1872 -0.2559
  256TMC3    C2 3876   2.444   1.229  10.437 -0.5969  0.1494  0.1183
  256TMC3    C3 3877   2.407   1.283  10.317 -0.6161 -0.0003 -0.0475
  256TMC3    C4 3878   2.275   1.065  10.401 -0.6955  0.5998 -0.9157
  256TMC3    C5 3879   2.243   1.130  10.283 -0.5128 -0.7767 -0.2756
  256TMC3    C6 3880   2.315   1.234  10.235  0.0971  0.0592  0.0987
  256TMC3     C 3881   2.370   1.109  10.618  0.3685  0.1326  0.1928
  256TMC3     O 3882   2.386   1.211  10.679  0.0538 -0.5722  0.7551
  256TMC3     H 3883   2.522   1.266  10.503 -1.8645  0.0572  1.6582
  256TMC3    H1 3884   2.220   0.978  10.436  1.0544 -0.0139  0.3214
  256TMC3    H2 3885   2.295   1.271  10.135  0.2011 -2.5510 -0.8985
  256TMC3    C7 3886   2.146   1.075  10.192  0.2005 -0.9306 -0.1860
  256TMC3    C8 3887   2.522   1.332  10.255  0.7925 -1.4028 -1.1956
  256TMC3    O1 3888   2.150   0.954  10.198 -0.6681  0.1640  0.2157
  256TMC3    O2 3889   2.598   1.396  10.331 -0.6627  0.8559 -0.7854
  257MPD2     C 3890   2.398   2.698  13.582 -0.2430  0.4300  0.2550
  257MPD2    C1 3891   2.326   2.616  13.500  0.2171 -0.0716  0.6649
  257MPD2    C2 3892   2.265   2.499  13.535  0.1750 -0.2651  0.5320
  257MPD2    C3 3893   2.283   2.458  13.669  0.8002  0.1778 -0.3579
  257MPD2    C4 3894   2.367   2.529  13.748 -0.1880  0.3044  1.1424
  257MPD2    C5 3895   2.420   2.649  13.708  0.1887  0.3191 -0.3603
  257MPD2     H 3896   2.218   2.427  13.468  1.0296 -0.0632 -0.2867
  257MPD2    H1 3897   2.377   2.512  13.855 -0.9135 -2.0429  0.8178
  257MPD2    H2 3898   2.432   2.794  13.544  0.5254  0.0259 -0.0856
  257MPD2    H3 3899   2.463   2.713  13.785 -0.3232 -0.4226  0.5297
  257MPD2     N 3900   2.203   2.354  13.725  0.3828 -0.0091 -0.3986
  257MPD2    H5 3901   2.131   2.309  13.669 -1.4030 -1.2310  2.8926
  257MPD2    N1 3902   2.310   2.670  13.370 -0.5995  0.0119  0.2807
  257MPD2    H7 3903   2.359   2.756  13.345 -1.2222  0.1444 -0.5063
  258TMC3    C1 3904   2.116   2.182  13.861 -0.0900 -0.1979 -0.0277
  258TMC3    C2 3905   1.985   2.201  13.820 -0.3614 -0.3604  0.3745
  258TMC3    C3 3906   1.903   2.096  13.852  0.1029 -0.0666  0.2744
  258TMC3    C4 3907   2.161   2.077  13.932  0.4573 -0.0359 -0.0334
  258TMC3    C5 3908   2.074   1.978  13.957 -0.5904 -0.6016  0.6563
  258TMC3    C6 3909   1.952   1.982  13.907  0.1163  0.1570 -0.1916
  258TMC3     C 3910   2.209   2.293  13.854  0.8679 -1.1648  0.6528
  258TMC3     O 3911   2.284   2.319  13.946  0.3759  0.4210  0.2828
  258TMC3     H 3912   1.944   2.297  13.793 -0.1119 -0.5621 -0.7161
  258TMC3    H1 3913   2.255   2.075  13.985  0.9021  0.8357 -0.7922
  258TMC3    H2 3914   1.880   1.905  13.933  1.1883 -0.9377 -0.4630
  258TMC3    C7 3915   2.082   1.909  14.091 -0.2359  0.0121  0.2483
  258TMC3    C8 3916   1.776   2.078  13.792  0.0567 -0.7623 -0.2022
  258TMC3    O1 3917   1.976   1.891  14.148 -1.1016  0.3472 -0.5655
  258TMC3    O2 3918   1.700   2.002  13.854 -0.1916 -0.1966  0.4737
  259MPD2     C 3919   1.002   4.114   1.335  0.2682  0.0394 -0.0367
  259MPD2    C1 3920   1.064   3.995   1.345 -0.3793  0.0083 -0.0343
  259MPD2    C2 3921   1.151   3.965   1.244 -0.3709  0.4604 -0.7136
  259MPD2    C3 3922   1.172   4.042   1.128 -0.0307  0.3073  0.4458
  259MPD2    C4 3923   1.097   4.153   1.122  0.7139  0.1870 -0.1069
  259MPD2    C5 3924   1.015   4.190   1.225  0.4826  0.1781  0.6643
  259MPD2     H 3925   1.216   3.879   1.244 -1.6568 -0.5069  1.7009
  259MPD2    H1 3926   1.083   4.217   1.036 -0.0624 -1.2209 -1.0175
  259MPD2    H2 3927   0.927   4.151   1.404 -1.1229 -0.8439 -1.0948
  259MPD2    H3 3928   0.951   4.276   1.211  0.7144  0.1561 -0.5638
  259MPD2     N 3929   1.261   4.000   1.033 -0.1577 -0.6443 -0.6950
  259MPD2    H5 3930   1.294   3.905   1.041 -0.7494 -0.7214  0.8134
  259MPD2    N1 3931   1.037   3.918   1.461 -0.3998  0.5349  0.1685
  259MPD2    H7 3932   0.949   3.936   1.508 -1.0518 -0.5098 -0.6706
  260TMC3    C1 3933   1.426   4.017   0.869 -0.4679  0.3698  0.4435
  260TMC3    C2 3934   1.514   4.094   0.801 -0.4246  0.2762  0.5475
  260TMC3    C3 3935   1.616   4.035   0.733 -0.0231  0.2557 -0.4628
  260TMC3    C4 3936   1.443   3.883   0.887 -0.4568 -1.0057  0.1148
  260TMC3    C5 3937   1.559   3.828   0.833  0.5170  0.1405 -0.3813
  260TMC3    C6 3938   1.638   3.902   0.750 -0.4042  0.8482  0.0438
  260TMC3     C 3939   1.324   4.088   0.945 -0.4183 -0.8028 -0.0800
  260TMC3     O 3940   1.313   4.208   0.933  0.3018 -0.4004  0.0153
  260TMC3     H 3941   1.502   4.201   0.785  0.1180  0.5176  1.8317
  260TMC3    H1 3942   1.378   3.809   0.932 -2.7727  0.5331 -0.7146
  260TMC3    H2 3943   1.737   3.867   0.724 -0.4361  0.6543  0.1817
  260TMC3    C7 3944   1.572   3.687   0.808  1.2027  0.2068 -0.1795
  260TMC3    C8 3945   1.660   4.088   0.608  0.8072 -0.5349  0.4140
  260TMC3    O1 3946   1.636   3.649   0.711 -0.3268  0.6394 -0.3100
  260TMC3    O2 3947   1.640   4.208   0.582  0.2375  0.4593 -0.4836
  261MPD2     C 3948   2.774   2.419  12.353  1.0275  0.0037  0.4172
  261MPD2    C1 3949   2.804   2.482  12.474  0.5081 -0.3778 -0.6412
  261MPD2    C2 3950   2.803   2.624  12.479 -0.3686 -0.7195  0.5070
  261MPD2    C3 3951   2.753   2.697  12.366  0.8437  0.2216  0.2532
  261MPD2    C4 3952   2.730   2.627  12.243 -0.7627 -0.2723 -0.3859
  261MPD2    C5 3953   2.745   2.490  12.240  0.0293 -0.1939  0.1822
  261MPD2     H 3954   2.842   2.679  12.564  0.3781 -1.8414  0.8796
  261MPD2    H1 3955   2.704   2.670  12.147 -0.1587  1.5778  0.2897
  261MPD2    H2 3956   2.783   2.311  12.344 -0.8606 -0.3477  2.6688
  261MPD2    H3 3957   2.729   2.439  12.146  0.4042  3.3477 -1.8312
  261MPD2     N 3958   2.745   2.835  12.382 -0.4051 -0.6134 -0.3502
  261MPD2    H5 3959   2.762   2.876  12.473 -1.4380  1.0467 -0.9125
  261MPD2    N1 3960   2.824   2.410  12.597  0.3915 -0.4081 -0.1699
  261MPD2    H7 3961   2.868   2.463  12.671 -1.3175 -1.0912  1.3233
  262TMC3    C1 3962   2.738   3.068  12.313 -0.8288 -0.4308 -0.0320
  262TMC3    C2 3963   2.692   3.158  12.222  0.5320 -0.0662 -0.3103
  262TMC3    C3 3964   2.740   3.283  12.220  0.4501 -0.9667 -0.4551
  262TMC3    C4 3965   2.847   3.100  12.396 -0.2727 -0.1720 -0.0365
  262TMC3    C5 3966   2.897   3.226  12.374 -0.2656  1.0033  0.0916
  262TMC3    C6 3967   2.839   3.322  12.295  0.4263  0.0902  0.5343
  262TMC3     C 3968   2.716   2.926  12.279  0.3147  0.3139  0.1113
  262TMC3     O 3969   2.672   2.914  12.165  0.6627 -0.2038 -0.6285
  262TMC3     H 3970   2.601   3.131  12.170 -0.8759  1.0595  1.5666
  262TMC3    H1 3971   2.906   3.020  12.440  0.3863 -0.0784 -0.7528
  262TMC3    H2 3972   2.866   3.426  12.311  2.0603 -0.6474  2.6837
  262TMC3    C7 3973   3.027   3.253  12.420  0.1540  0.3866  0.1559
  262TMC3    C8 3974   2.662   3.391  12.154  0.1531 -0.5155 -0.6787
  262TMC3    O1 3975   3.072   3.196  12.521 -0.1012  0.4210  0.1966
  262TMC3    O2 3976   2.712   3.504  12.142 -0.4287 -0.9343  0.1272
  263MPD2     C 3977   4.051   1.733  11.333  0.8866  0.4702 -0.7858
  263MPD2    C1 3978   4.128   1.656  11.252 -0.3000 -0.4389 -0.2382
  263MPD2    C2 3979   4.108   1.673  11.118  0.6714  0.5782  0.2967
  263MPD2    C3 3980   4.017   1.763  11.067 -0.3669  0.1496 -0.0121
  263MPD2    C4 3981   3.931   1.836  11.147  0.2102  0.0658 -0.3643
  263MPD2    C5 3982   3.947   1.812  11.282  0.1111 -0.4204  0.0103
  263MPD2     H 3983   4.169   1.613  11.050 -2.0757 -1.5114 -0.3454
  263MPD2    H1 3984   3.853   1.904  11.115 -0.6378 -0.0376  1.4552
  263MPD2    H2 3985   4.062   1.728  11.441  0.3352 -0.9596 -0.7908
  263MPD2    H3 3986   3.898   1.867  11.361 -1.6821  1.1509 -2.2038
  263MPD2     N 3987   4.028   1.797  10.935  0.0597  0.5334 -0.6568
  263MPD2    H5 3988   4.093   1.746  10.876 -0.8291 -0.4165 -0.8157
  263MPD2    N1 3989   4.220   1.573  11.312  0.5615 -0.2044 -0.2864
  263MPD2    H7 3990   4.225   1.563  11.413 -0.8269 -1.8991 -0.3799
  264TMC3    C1 3991   3.966   1.907  10.733 -0.1577  0.1032 -0.3017
  264TMC3    C2 3992   3.867   1.975  10.672  0.4353  0.4718  0.2406
  264TMC3    C3 3993   3.881   2.015  10.544  0.2880  0.6894 -0.0082
  264TMC3    C4 3994   4.073   1.866  10.666  0.0498 -0.0869  0.1671
  264TMC3    C5 3995   4.079   1.894  10.533  0.0736  0.6489  0.4531
  264TMC3    C6 3996   3.981   1.965  10.470 -0.2763 -0.8307 -1.0604
  264TMC3     C 3997   3.961   1.897  10.871  0.2440  0.5855 -0.2967
  264TMC3     O 3998   3.874   1.967  10.916 -0.1247  0.0854 -0.0882
  264TMC3     H 3999   3.773   2.001  10.720  2.0008  1.5811  2.6568
  264TMC3    H1 4000   4.165   1.822  10.704  0.5725  1.6201  0.9217
  264TMC3    H2 4001   4.006   1.995  10.369 -0.4815 -0.3551 -0.9704
  264TMC3    C7 4002   4.204   1.864  10.464  0.1642 -0.4605 -0.1466
  264TMC3    C8 4003   3.843   2.152  10.508  0.1347 -0.7590 -0.6225
  264TMC3    O1 4004   4.310   1.858  10.525  0.2960 -0.5635  0.4047
  264TMC3    O2 4005   3.884   2.184  10.396 -0.3177  0.5016 -0.2016
  265MPD2     C 4006   1.790   2.394  15.891  0.6490 -0.4668  0.3141
  265MPD2    C1 4007   1.719   2.479  15.805  0.3269  0.5487 -0.4191
  265MPD2    C2 4008   1.699   2.439  15.678  0.1088 -0.5163 -0.3431
  265MPD2    C3 4009   1.741   2.316  15.635 -0.6910 -0.2460  0.2206
  265MPD2    C4 4010   1.800   2.223  15.723 -0.6495  0.0611 -0.1522
  265MPD2    C5 4011   1.831   2.272  15.847 -0.9094  0.4364 -0.5538
  265MPD2     H 4012   1.662   2.519  15.615  2.4043  0.4736 -0.4333
  265MPD2    H1 4013   1.816   2.120  15.693 -2.5275  0.6639 -3.2444
  265MPD2    H2 4014   1.805   2.417  15.996  0.5481  0.7449  0.0624
  265MPD2    H3 4015   1.878   2.204  15.917  1.0793  1.0364 -1.2996
  265MPD2     N 4016   1.729   2.261  15.504 -0.4911 -0.3210 -0.1207
  265MPD2    H5 4017   1.734   2.160  15.496 -3.9283 -0.7100  2.4894
  265MPD2    N1 4018   1.670   2.602  15.833 -0.1267  0.2971 -0.0547
  265MPD2    H7 4019   1.641   2.660  15.756 -0.1132  0.8891  0.3918
  266TMC3    C1 4020   1.604   2.790  15.961  0.1765  0.3088 -0.3964
  266TMC3    C2 4021   1.609   2.849  16.079 -0.4035 -0.1196  0.3380
  266TMC3    C3 4022   1.550   2.971  16.097 -0.5481  0.4867  0.1967
  266TMC3    C4 4023   1.523   2.831  15.869  0.0484  0.4148  0.2339
  266TMC3    C5 4024   1.452   2.946  15.886 -0.5700  0.4531  0.6766
  266TMC3    C6 4025   1.466   3.030  15.998 -0.3542 -0.1069  0.4515
  266TMC3     C 4026   1.660   2.655  15.965 -0.8790  0.2073 -0.0498
  266TMC3     O 4027   1.683   2.604  16.075 -0.0013 -0.0716  0.2381
  266TMC3     H 4028   1.661   2.818  16.169  1.5369  0.2834 -0.6435
  266TMC3    H1 4029   1.511   2.766  15.783  1.5937 -1.3537  1.3474
  266TMC3    H2 4030   1.402   3.112  16.025  2.0862  1.9372  0.0473
  266TMC3    C7 4031   1.397   3.007  15.765  0.2410 -0.0927 -0.0572
  266TMC3    C8 4032   1.587   3.043  16.221 -0.3325 -0.5607 -0.1662
  266TMC3    O1 4033   1.400   2.943  15.663  0.4100 -0.3367 -0.0739
  266TMC3    O2 4034   1.648   2.984  16.308  0.2547 -0.2932  0.3816
  267MPD2     C 4035   4.150   3.472  17.686  0.1406 -0.0015 -0.1718
  267MPD2    C1 4036   4.090   3.547  17.590  0.1812  0.5236 -0.1901
  267MPD2    C2 4037   3.971   3.499  17.535 -0.2552  0.0236 -0.1940
  267MPD2    C3 4038   3.925   3.378  17.577  0.1133  0.2028  0.2060
  267MPD2    C4 4039   3.996   3.300  17.667 -0.4699 -0.3792  0.8495
  267MPD2    C5 4040   4.105   3.345   0.031  0.1456 -0.1924 -0.2115
  267MPD2     H 4041   3.916   3.558  17.462 -0.2554 -0.0506 -0.2548
  267MPD2    H1 4042   3.961   3.200  17.692  1.4333 -1.2638  0.0210
  267MPD2    H2 4043   4.219   3.520   0.062  0.0784  3.1768 -2.3516
  267MPD2    H3 4044   4.152   3.284   0.107  0.7877  1.2217  0.5096
  267MPD2     N 4045   3.796   3.338  17.542  0.6037 -0.1044 -0.8895
  267MPD2    H5 4046   3.764   3.252  17.586 -0.7242  0.7986 -0.0802
  267MPD2    N1 4047   4.126   3.679  17.560  0.2093 -0.2546  0.0756
  267MPD2    H7 4048   4.177   3.734  17.628 -0.3465  1.2828 -0.7731
  268TMC3    C1 4049   4.089   3.890  17.468  0.8431  0.1951 -0.5818
  268TMC3    C2 4050   4.035   3.968  17.370  0.0199 -0.3076  0.4581
  268TMC3    C3 4051   3.960   4.079  17.410  0.5161  0.1841 -0.0810
  268TMC3    C4 4052   4.075   3.930  17.600 -0.6130 -0.0023 -0.1057
  268TMC3    C5 4053   4.002   4.038  17.634  0.7252 -0.0456  0.4025
  268TMC3    C6 4054   3.936   4.112  17.542 -0.2176 -0.2952  0.5484
  268TMC3     C 4055   4.090   3.748  17.446  0.5259  0.1346  0.5211
  268TMC3     O 4056   4.040   3.710  17.344  0.6540  0.0629  0.6479
  268TMC3     H 4057   4.045   3.942  17.265 -3.1447  2.1375 -0.4629
  268TMC3    H1 4058   4.132   3.887  17.681 -0.8962  0.9302  0.5915
  268TMC3    H2 4059   3.882   4.203  17.567 -1.1740 -0.5744 -0.5137
  268TMC3    C7 4060   4.006   4.072   0.087 -0.2271  0.5204  0.0892
  268TMC3    C8 4061   3.934   4.183  17.314 -0.2849  0.5788  0.4842
  268TMC3    O1 4062   4.049   3.983   0.158 -0.0297  0.4536 -0.5684
  268TMC3    O2 4063   3.924   4.297  17.362  0.3972 -0.3033 -0.1928
  269MPD2     C 4064   4.037   2.886  15.661  0.0002 -0.4187  0.2943
  269MPD2    C1 4065   3.958   2.936  15.760 -0.0429 -0.3184 -0.2112
  269MPD2    C2 4066   3.940   3.073  15.777 -0.6683  0.3943  0.1501
  269MPD2    C3 4067   3.990   3.160  15.680 -0.5952  1.1910 -0.0258
  269MPD2    C4 4068   4.067   3.111  15.574 -0.0014 -0.7437 -0.2801
  269MPD2    C5 4069   4.093   2.975  15.577 -0.1888  0.6233  0.1995
  269MPD2     H 4070   3.885   3.114  15.861 -0.7744 -0.7622  0.6472
  269MPD2    H1 4071   4.120   3.167  15.498 -2.8528 -0.7110 -2.2290
  269MPD2    H2 4072   4.047   2.779  15.646  0.2859 -0.4332  0.5991
  269MPD2    H3 4073   4.159   2.937  15.501 -1.3429 -2.6001  0.8094
  269MPD2     N 4074   3.953   3.299  15.689  0.1134 -0.9155  0.2398
  269MPD2    H5 4075   3.878   3.325  15.752  0.2965  0.3456 -0.0525
  269MPD2    N1 4076   3.880   2.838  15.833 -0.0128 -0.0378 -0.1067
  269MPD2    H7 4077   3.914   2.742  15.829  2.9770  1.0150  0.1022
  270TMC3    C1 4078   3.709   2.739  15.951  0.1190 -0.9321  0.4745
  270TMC3    C2 4079   3.590   2.709  15.899  0.3923 -0.5296 -0.2373
  270TMC3    C3 4080   3.545   2.584  15.933  0.2439  0.2915  0.2733
  270TMC3    C4 4081   3.787   2.664  16.037  0.3148  0.0642  0.1210
  270TMC3    C5 4082   3.734   2.544  16.071 -0.4315 -0.0957 -0.0076
  270TMC3    C6 4083   3.612   2.502  16.020 -0.2943  0.1458 -0.2427
  270TMC3     C 4084   3.763   2.864  15.902 -0.8607  0.2546 -0.1113
  270TMC3     O 4085   3.699   2.969  15.907 -0.6054  0.1049 -0.5578
  270TMC3     H 4086   3.541   2.773  15.827 -1.4968 -1.4739  0.2278
  270TMC3    H1 4087   3.888   2.693  16.063  0.2007  1.6747 -1.2300
  270TMC3    H2 4088   3.577   2.402  16.043  0.6596  0.5360  2.9928
  270TMC3    C7 4089   3.823   2.432  16.099 -0.6257  0.7806  0.0761
  270TMC3    C8 4090   3.456   2.517  15.847 -0.2833 -0.6235 -0.4185
  270TMC3    O1 4091   3.934   2.433  16.042  0.2998 -0.0954  0.3364
  270TMC3    O2 4092   3.466   2.395  15.832  0.9294  0.2445  0.0915
  271MPD2     C 4093   2.753   2.416  14.216  0.2996 -1.2311  0.0190
  271MPD2    C1 4094   2.676   2.426  14.332 -0.1207 -0.1015 -0.7081
  271MPD2    C2 4095   2.542   2.455  14.326 -0.0458 -0.4198 -0.3077
  271MPD2    C3 4096   2.483   2.504  14.211 -0.1028  0.0939 -0.1654
  271MPD2    C4 4097   2.556   2.507  14.092  0.3650 -0.7076  0.0841
  271MPD2    C5 4098   2.683   2.452  14.101 -0.0506 -0.1044 -0.0227
  271MPD2     H 4099   2.481   2.441  14.415 -1.4743 -0.5090 -1.3062
  271MPD2    H1 4100   2.517   2.528  13.993  0.9459  1.3408  0.2918
  271MPD2    H2 4101   2.851   2.380  14.187  1.1219 -0.1481  1.4548
  271MPD2    H3 4102   2.740   2.449  14.009  1.0674  0.3142  0.6576
  271MPD2     N 4103   2.338   2.525  14.203  0.0597 -0.3249  0.2290
  271MPD2    H5 4104   2.305   2.541  14.109 -1.1662 -0.6543  0.5958
  271MPD2    N1 4105   2.725   2.379  14.460 -0.0734  0.0109 -0.1503
  271MPD2    H7 4106   2.669   2.407  14.540 -2.5874  0.2208 -1.9794
  272TMC3    C1 4107   2.894   2.302  14.614 -0.9407 -0.8134 -0.2586
  272TMC3    C2 4108   3.006   2.226  14.632  0.5910 -0.2406 -0.0857
  272TMC3    C3 4109   3.088   2.260  14.734  0.6807 -0.1055 -0.6340
  272TMC3    C4 4110   2.859   2.401  14.706 -0.3318 -0.1085 -0.3884
  272TMC3    C5 4111   2.951   2.435  14.799 -0.1802  1.1541 -0.2181
  272TMC3    C6 4112   3.074   2.373  14.808 -0.0299 -0.1586 -0.0678
  272TMC3     C 4113   2.847   2.312  14.474 -0.0508 -0.4689  0.1777
  272TMC3     O 4114   2.911   2.257  14.387 -0.3553 -0.3609 -0.1916
  272TMC3     H 4115   3.047   2.161  14.555 -1.0300 -0.0876 -1.0760
  272TMC3    H1 4116   2.777   2.468  14.685 -1.1906 -0.9483  0.2639
  272TMC3    H2 4117   3.144   2.395  14.888 -1.8108  0.0568  1.4303
  272TMC3    C7 4118   2.945   2.579  14.832 -0.0073 -0.1760 -0.0022
  272TMC3    C8 4119   3.224   2.216  14.712 -0.8110  0.0374 -0.4263
  272TMC3    O1 4120   2.868   2.649  14.769  0.6902  0.4383 -0.5991
  272TMC3    O2 4121   3.272   2.198  14.601  0.8448 -0.2398  0.3719
  273MPD2     C 4122   4.584   1.127  11.763  0.2938  0.8372  0.1988
  273MPD2    C1 4123   4.703   1.073  11.800  0.3113 -0.5350  0.7320
  273MPD2    C2 4124   0.063   1.020  11.700  0.0276 -0.3504 -0.0927
  273MPD2    C3 4125   0.028   1.025  11.571 -0.1173 -0.3275 -0.0865
  273MPD2    C4 4126   4.625   1.068  11.532 -0.3257  0.3255  0.7440
  273MPD2    C5 4127   4.547   1.111  11.635 -0.2286  0.1034 -0.3467
  273MPD2     H 4128   0.164   0.989  11.724  0.4459  0.5653 -0.6428
  273MPD2    H1 4129   4.584   1.071  11.431  1.7976 -0.5227 -0.1370
  273MPD2    H2 4130   4.521   1.177  11.835  0.6859  0.0332  1.0951
  273MPD2    H3 4131   4.452   1.157  11.613  0.3494  0.6142 -1.7581
  273MPD2     N 4132   0.113   0.980  11.467 -0.0651 -0.0701 -0.2085
  273MPD2    H5 4133   0.071   0.997  11.376  0.1654  0.3386 -0.2382
  273MPD2    N1 4134   0.013   1.078  11.940 -0.1722 -0.0994 -0.2903
  273MPD2    H7 4135   4.672   1.121  12.006  0.3248  0.7867 -0.3936
  274TMC3    C1 4136   0.297   0.875  11.352 -0.0787  0.2824  0.2027
  274TMC3    C2 4137   0.198   0.815  11.273 -0.5602 -0.4050  0.7770
  274TMC3    C3 4138   0.177   0.857  11.141  0.0094  0.1108 -0.2307
  274TMC3    C4 4139   0.385   0.958  11.292  0.3165 -0.4356 -0.5288
  274TMC3    C5 4140   0.368   0.998  11.160  0.5293  0.3913  0.0003
  274TMC3    C6 4141   0.267   0.949  11.087 -0.1687 -0.1080 -0.1571
  274TMC3     C 4142   0.245   0.940  11.474 -0.2369 -0.9216 -0.4092
  274TMC3     O 4143   0.324   0.939  11.566  1.2192  0.2184  0.5660
  274TMC3     H 4144   0.127   0.742  11.312 -0.5148 -0.8808 -0.0269
  274TMC3    H1 4145   0.475   0.991  11.343 -0.2004 -0.9227  0.6880
  274TMC3    H2 4146   0.246   0.997  10.992 -1.3396  0.5131  0.4219
  274TMC3    C7 4147   0.457   1.085  11.095 -0.7708 -0.4475  0.4475
  274TMC3    C8 4148   0.046   0.865  11.085  0.1774 -0.5433 -0.3313
  274TMC3    O1 4149   0.473   1.071  10.977 -0.2614  0.3959 -0.2530
  274TMC3    O2 4150   0.035   0.899  10.968 -0.3113 -0.0135 -0.2903
  275MPD2     C 4151   4.592   3.581  14.497  0.2775 -1.2038 -0.5435
  275MPD2    C1 4152   4.601   3.455  14.535  0.0558  0.2249  0.1845
  275MPD2    C2 4153   4.489   3.373  14.557 -0.1062 -1.1370 -0.3779
  275MPD2    C3 4154   4.364   3.425  14.528 -0.1733  0.0620  0.2986
  275MPD2    C4 4155   4.354   3.556  14.489 -0.1376  0.3527  0.3968
  275MPD2    C5 4156   4.468   3.632  14.480 -0.2226  0.3006 -0.0657
  275MPD2     H 4157   4.494   3.273  14.598 -0.4546 -0.5240  1.1915
  275MPD2    H1 4158   4.258   3.594  14.456 -0.5371  1.4794  2.8416
  275MPD2    H2 4159   4.678   3.643  14.476 -2.0444  2.3720  0.5014
  275MPD2    H3 4160   4.453   3.735  14.449 -0.4792 -0.0585 -1.1653
  275MPD2     N 4161   4.243   3.353  14.535  0.3750 -0.3877  0.9386
  275MPD2    H5 4162   4.156   3.401  14.516  0.0028 -0.8351  1.5158
  275MPD2    N1 4163   0.002   3.398  14.568  0.4650  0.0961 -0.3794
  275MPD2    H7 4164   0.010   3.298  14.584  0.4671  0.6598  3.1148
  276TMC3    C1 4165   0.244   3.391  14.612  0.4738  0.3033 -0.2247
  276TMC3    C2 4166   0.222   3.269  14.663 -0.8240 -0.8761 -0.1029
  276TMC3    C3 4167   0.298   3.232  14.773 -0.5324  1.2550  0.7946
  276TMC3    C4 4168   0.350   3.475  14.648  0.1638 -0.0367 -0.2800
  276TMC3    C5 4169   0.428   3.433  14.752 -0.4757  0.3217 -0.3607
  276TMC3    C6 4170   0.406   3.314  14.815  0.3161 -0.1573  0.6866
  276TMC3     C 4171   0.127   3.467  14.574 -0.8685  0.1070 -0.5612
  276TMC3     O 4172   0.165   3.574  14.528 -0.2940  0.6204 -0.2709
  276TMC3     H 4173   0.153   3.209  14.605 -1.2202  0.5207 -1.0932
  276TMC3    H1 4174   0.372   3.572  14.604 -1.0646 -0.2677 -1.4175
  276TMC3    H2 4175   0.463   3.286  14.903  1.8818  0.9075 -0.0104
  276TMC3    C7 4176   0.506   3.527  14.824  0.0146 -0.3754 -0.6361
  276TMC3    C8 4177   0.302   3.096  14.819  0.9278  0.2264 -0.1925
  276TMC3    O1 4178   0.508   3.510  14.945 -0.0903 -0.4144  0.0789
  276TMC3    O2 4179   0.410   3.061  14.861  0.5721  0.5155 -0.0188
  277MPD2     C 4180   1.204   2.428  13.557 -0.0164  0.1116  0.2369
  277MPD2    C1 4181   1.083   2.452  13.504  1.0050  0.3754 -0.0203
  277MPD2    C2 4182   0.973   2.399  13.576 -0.8090 -0.1698 -0.3032
  277MPD2    C3 4183   0.993   2.322  13.686 -0.3309 -0.1211  0.5355
  277MPD2    C4 4184   1.116   2.293  13.728  0.7109  0.1336 -0.2616
  277MPD2    C5 4185   1.222   2.356  13.674  0.4422 -0.4936  0.1386
  277MPD2     H 4186   0.872   2.415  13.541 -0.8115 -0.3336 -0.3725
  277MPD2    H1 4187   1.145   2.219  13.802  1.5542 -1.8954 -2.6653
  277MPD2    H2 4188   1.299   2.468  13.523  0.8616 -3.4275 -1.4857
  277MPD2    H3 4189   1.323   2.348  13.712  0.5146 -2.5689 -0.5116
  277MPD2     N 4190   0.887   2.255  13.744  0.0307 -0.0716  0.5170
  277MPD2    H5 4191   0.800   2.246  13.692  0.0909 -3.6179  0.9711
  277MPD2    N1 4192   1.073   2.545  13.400 -0.2420 -0.4774  0.3897
  277MPD2    H7 4193   1.152   2.602  13.372 -0.5067 -0.1247  0.3542
  278TMC3    C1 4194   0.778   2.148  13.932 -0.0638 -0.0492 -1.1665
  278TMC3    C2 4195   0.728   2.063  13.840  0.0284 -0.4394 -0.2306
  278TMC3    C3 4196   0.596   2.033  13.851  0.2572 -0.5920  0.8783
  278TMC3    C4 4197   0.708   2.220  14.023 -0.2201 -0.5392  0.7144
  278TMC3    C5 4198   0.572   2.199  14.028  0.0087  0.0399 -0.1833
  278TMC3    C6 4199   0.513   2.108  13.938 -0.0035 -0.0616 -0.0828
  278TMC3     C 4200   0.891   2.219  13.878  0.5163  0.3602  0.4645
  278TMC3     O 4201   0.969   2.253  13.961  0.1931  0.0548 -0.1402
  278TMC3     H 4202   0.795   2.004  13.778  0.5071  0.1322 -0.2600
  278TMC3    H1 4203   0.762   2.290  14.086  1.6843 -0.7000 -0.7511
  278TMC3    H2 4204   0.409   2.084  13.958  0.5983 -0.0402  3.0630
  278TMC3    C7 4205   0.519   2.200  14.161  0.5099 -0.3590 -0.1061
  278TMC3    C8 4206   0.544   1.912  13.799  0.1616  0.6381 -0.6572
  278TMC3    O1 4207   0.589   2.181  14.259 -0.4989  0.2622 -1.2308
  278TMC3    O2 4208   0.430   1.896  13.833 -0.8217 -0.3160  0.0549
  279MPD2     C 4209   0.600   2.355   0.222  0.7733 -0.0043 -0.2573
  279MPD2    C1 4210   0.560   2.488   0.220 -0.0522  0.2702 -0.0684
  279MPD2    C2 4211   0.621   2.562   0.124 -0.4113 -0.3613  0.3639
  279MPD2    C3 4212   0.694   2.507   0.018 -0.1123  0.1991 -0.2355
  279MPD2    C4 4213   0.714   2.370   0.013  0.0515  0.6878  0.3567
  279MPD2    C5 4214   0.680   2.300   0.125 -0.2844  0.1647  0.0034
  279MPD2     H 4215   0.595   2.667   0.113  2.2145  0.1973 -0.5941
  279MPD2    H1 4216   0.765   2.315  17.627 -1.5993  0.2176 -0.3719
  279MPD2    H2 4217   0.573   2.284   0.300 -2.5672  1.8424  0.2998
  279MPD2    H3 4218   0.719   2.199   0.136  1.4346  0.5710 -2.2453
  279MPD2     N 4219   0.739   2.590  17.604 -0.7489  0.5243 -0.3991
  279MPD2    H5 4220   0.758   2.549  17.513 -2.3266  0.4271 -0.6958
  279MPD2    N1 4221   0.462   2.542   0.311  0.4875 -0.2844 -0.0958
  279MPD2    H7 4222   0.420   2.482   0.382  2.3632  1.2518  2.3291
  280TMC3    C1 4223   0.293   2.692   0.390  0.3803  0.5262 -0.0904
  280TMC3    C2 4224   0.211   2.579   0.392  0.3521  0.5469  0.3208
  280TMC3    C3 4225   0.080   2.608   0.375 -0.6684 -0.2706 -0.0208
  280TMC3    C4 4226   0.246   2.820   0.408 -0.2525 -0.1245 -0.4375
  280TMC3    C5 4227   0.109   2.833   0.410 -0.3246 -1.5454  0.5157
  280TMC3    C6 4228   0.027   2.731   0.400  0.0666  0.0332 -0.0228
  280TMC3     C 4229   0.421   2.672   0.316  0.0542  0.8435 -1.3219
  280TMC3     O 4230   0.480   2.772   0.281  0.0908 -0.3594  0.1400
  280TMC3     H 4231   0.239   2.476   0.371  0.7265 -0.1818  4.5422
  280TMC3    H1 4232   0.321   2.898   0.412 -0.1256 -0.3487  1.5186
  280TMC3    H2 4233   4.643   2.751   0.391  0.0833 -0.1122 -0.5296
  280TMC3    C7 4234   0.053   2.967   0.432  0.1500 -0.1299  0.4735
  280TMC3    C8 4235   4.699   2.512   0.337  0.4182 -0.5314  0.5387
  280TMC3    O1 4236   0.140   3.050   0.463 -0.4096  0.2466 -0.1851
  280TMC3    O2 4237   4.584   2.530   0.376  0.4368  0.0636  0.2835
  281TMC3    C1 4238   3.911   2.723  12.919 -0.0541  0.1778  0.4415
  281TMC3    C2 4239   3.937   2.805  12.806  0.6971  0.0373 -0.0124
  281TMC3    C3 4240   3.863   2.778  12.692  0.8027 -0.3168  0.0763
  281TMC3    C4 4241   3.840   2.604  12.911  0.4013 -0.1300 -0.2385
  281TMC3    C5 4242   3.770   2.590  12.790  0.1202  0.4556  0.3092
  281TMC3    C6 4243   3.790   2.668  12.678  0.1652  0.0280  0.0185
  281TMC3     C 4244   3.916   2.787  13.050  0.8703  0.2886  0.6266
  281TMC3     O 4245   3.910   2.717  13.147  0.5242  0.2277  0.3959
  281TMC3     H 4246   3.992   2.898  12.807 -0.9864  1.0780 -2.8496
  281TMC3    H1 4247   3.821   2.556  13.006  0.9144 -0.9908 -0.5668
  281TMC3    H2 4248   3.735   2.651  12.586  0.3054 -0.1612 -0.0318
  281TMC3    C7 4249   3.635   2.540  12.790  0.9846  0.2704  0.2727
  281TMC3    C8 4250   3.887   2.844  12.564  0.1316  0.2828  0.0536
  281TMC3    O1 4251   3.593   2.503  12.679 -1.1613 -0.4021  0.1853
  281TMC3    O2 4252   3.910   2.767  12.470 -0.3054 -0.4239 -0.2982
  282MPD2     C 4253   1.295   4.091  14.780  0.2650 -0.6779 -0.0188
  282MPD2    C1 4254   1.172   4.150  14.803 -0.2090  0.3166 -0.2925
  282MPD2    C2 4255   1.078   4.169  14.698 -0.1535 -0.4641 -0.1318
  282MPD2    C3 4256   1.116   4.117  14.573 -0.5189  0.1241 -0.4108
  282MPD2    C4 4257   1.225   4.035  14.555 -0.2199 -0.3192  0.6993
  282MPD2    C5 4258   1.313   4.029  14.660 -0.5118 -0.0056  0.6886
  282MPD2     H 4259   0.987   4.221  14.725  0.4061  1.2634 -1.6077
  282MPD2    H1 4260   1.249   3.992  14.458 -1.3077 -0.3940  0.4623
  282MPD2    H2 4261   1.378   4.090  14.850  1.2726 -0.5223 -1.2024
  282MPD2    H3 4262   1.409   3.978  14.650 -0.3480  0.8333 -1.9533
  282MPD2     N 4263   1.024   4.146  14.466  0.2681  0.7791  0.5811
  282MPD2    H5 4264   0.942   4.200  14.493  0.1022  1.7949 -1.9511
  282MPD2    N1 4265   1.130   4.209  14.922 -0.3574  0.1003  0.4434
  282MPD2    H7 4266   1.039   4.254  14.921 -0.2835  0.2342 -0.3185
  283TMC3    C1 4267   1.140   4.277  15.130  0.1242 -0.4076 -0.2505
  283TMC3    C2 4268   1.067   4.386  15.104  0.6232  0.1046 -0.4681
  283TMC3    C3 4269   1.030   4.464  15.212  0.3234  0.4785 -0.4675
  283TMC3    C4 4270   1.169   4.234  15.259  0.2867 -1.2604  0.0776
  283TMC3    C5 4271   1.112   4.301  15.366  0.9317 -0.2355  0.1191
  283TMC3    C6 4272   1.040   4.417  15.336 -0.6061 -0.0632  0.6001
  283TMC3     C 4273   1.205   4.210  15.027  0.5286  0.1813  0.3597
  283TMC3     O 4274   1.313   4.165  15.051 -0.2746 -0.1583  0.5077
  283TMC3     H 4275   1.068   4.430  15.005 -1.3870  1.1255 -0.0201
  283TMC3    H1 4276   1.218   4.137  15.263  0.9413 -0.9257  0.0317
  283TMC3    H2 4277   1.003   4.468  15.424 -0.2307  0.6336  0.3607
  283TMC3    C7 4278   1.070   4.219  15.486  0.9593 -0.3124  0.4916
  283TMC3    C8 4279   1.036   4.603  15.180  0.0728  0.4294 -0.2201
  283TMC3    O1 4280   0.993   4.273  15.563  0.2418 -0.6358 -0.0737
  283TMC3    O2 4281   1.009   4.648  15.066  0.1551 -0.2709 -0.0506
  284MPD2     C 4282   3.954   2.960  11.546  0.1173 -0.5683  0.1450
  284MPD2    C1 4283   4.021   2.921  11.430  0.4983  0.0720  0.1872
  284MPD2    C2 4284   4.040   2.786  11.404 -0.3414  0.6275  0.3154
  284MPD2    C3 4285   3.981   2.690  11.487 -0.4288  0.7221 -0.3871
  284MPD2    C4 4286   3.909   2.731  11.596  0.1975 -0.1931 -0.4022
  284MPD2    C5 4287   3.891   2.865  11.623 -0.2118  0.2168 -0.1158
  284MPD2     H 4288   4.104   2.762  11.320 -0.1228 -0.7399  0.8643
  284MPD2    H1 4289   3.854   2.656  11.651  0.8913 -0.8901 -0.6644
  284MPD2    H2 4290   3.935   3.065  11.566 -2.9036 -0.6301 -2.2538
  284MPD2    H3 4291   3.828   2.892  11.707  0.6656  1.9589 -0.0046
  284MPD2     N 4292   4.021   2.550  11.482 -0.0600 -0.1610  0.4140
  284MPD2    H5 4293   4.008   2.495  11.566  1.7250  1.3312  1.6566
  284MPD2    N1 4294   4.079   3.012  11.343 -0.1496  0.1083  0.2726
  284MPD2    H7 4295   4.120   2.972  11.260 -1.6629 -1.6224  0.3645
  285TMC3    C1 4296   4.199   3.193  11.293 -0.1461  0.8008  0.0233
  285TMC3    C2 4297   4.183   3.169  11.157 -0.0026 -0.0620 -0.6277
  285TMC3    C3 4298   4.238   3.258  11.067  0.7991  0.2056 -0.1935
  285TMC3    C4 4299   4.269   3.303  11.333 -1.2749 -0.5588  0.1651
  285TMC3    C5 4300   4.326   3.389  11.238  0.1929  0.5940 -0.2730
  285TMC3    C6 4301   4.310   3.370  11.105  0.1442  0.3638 -0.4438
  285TMC3     C 4302   4.117   3.132  11.385 -0.2868 -0.5781  0.0630
  285TMC3     O 4303   4.107   3.184  11.492  0.1427 -0.7259 -0.1497
  285TMC3     H 4304   4.118   3.090  11.121  0.6548 -0.7510 -0.3114
  285TMC3    H1 4305   4.267   3.335  11.437  3.7924  1.9423 -0.4987
  285TMC3    H2 4306   4.347   3.448  11.039 -0.8007  0.0341 -1.3626
  285TMC3    C7 4307   4.342   3.523  11.279 -0.2755  0.1951 -0.1747
  285TMC3    C8 4308   4.260   3.200  10.935  0.2810 -0.8304 -0.3762
  285TMC3    O1 4309   4.301   3.610  11.200  0.0718  0.3673 -0.1518
  285TMC3    O2 4310   4.190   3.103  10.904 -0.3218 -0.2353  0.6981
  286MPD2     C 4311   4.275   2.659   1.826 -0.6491  0.6389  0.5887
  286MPD2    C1 4312   4.252   2.621   1.694  0.4211  0.0106  0.5873
  286MPD2    C2 4313   4.355   2.551   1.627 -0.1279  0.4298  0.7284
  286MPD2    C3 4314   4.474   2.516   1.690 -0.5874 -0.2806  0.6855
  286MPD2    C4 4315   4.494   2.558   1.815 -0.7320 -0.4753  0.8351
  286MPD2    C5 4316   4.398   2.630   1.878  0.8524  0.6391 -0.5506
  286MPD2     H 4317   4.334   2.536   1.522  0.9022  0.0704  0.5671
  286MPD2    H1 4318   4.587   2.534   1.864  1.0774 -2.3289 -3.5039
  286MPD2    H2 4319   4.214   2.717   1.894 -3.8075  0.2173 -1.8691
  286MPD2    H3 4320   4.410   2.650   1.984 -1.0501  0.3012 -0.2634
  286MPD2     N 4321   4.567   2.429   1.630  0.5090 -0.4435 -0.2928
  286MPD2    H5 4322   4.656   2.411   1.675  1.8939  0.9401 -2.5043
  286MPD2    N1 4323   4.130   2.646   1.628  0.2519  0.3971 -0.4319
  286MPD2    H7 4324   4.129   2.637   1.526 -2.8485 -1.5092 -0.2457
  287TMC3    C1 4325   4.671   2.278   1.477  0.8257  0.0188 -0.0528
  287TMC3    C2 4326   4.641   2.190   1.374 -0.1662 -0.6540 -0.0053
  287TMC3    C3 4327   0.020   2.102   1.342 -0.1890 -0.0679  0.5727
  287TMC3    C4 4328   0.067   2.270   1.549  0.1172 -0.0969  0.6085
  287TMC3    C5 4329   0.164   2.182   1.513  0.3687 -0.4608 -0.2825
  287TMC3    C6 4330   0.145   2.105   1.401  0.3241  0.6140  0.0908
  287TMC3     C 4331   4.553   2.355   1.517  0.0602  0.4431  0.1307
  287TMC3     O 4332   4.450   2.353   1.453  0.0764  0.1239 -0.1055
  287TMC3     H 4333   4.550   2.206   1.316  0.1126  0.0078 -0.2669
  287TMC3    H1 4334   0.083   2.327   1.640 -0.0982 -1.7733  1.6904
  287TMC3    H2 4335   0.216   2.023   1.393 -0.7738 -0.2053 -1.2488
  287TMC3    C7 4336   0.295   2.196   1.573  0.2816 -0.2665  0.6925
  287TMC3    C8 4337   0.006   2.012   1.230 -0.3857  0.2000 -0.4090
  287TMC3    O1 4338   0.322   2.300   1.631 -0.4403  0.7510  0.1186
  287TMC3    O2 4339   0.102   1.930   1.213  0.2235 -0.0976 -0.2324
  288TMC3    C1 4340   1.149   1.853  14.436  0.2121 -0.8990  0.0457
  288TMC3    C2 4341   1.155   1.771  14.538 -0.5224 -0.5006 -0.4980
  288TMC3    C3 4342   1.176   1.822  14.666  0.2807  0.0156 -0.2806
  288TMC3    C4 4343   1.183   1.983  14.451 -0.0319 -0.6923 -0.2896
  288TMC3    C5 4344   1.213   2.029  14.574 -0.1386 -0.6741  0.1771
  288TMC3    C6 4345   1.218   1.946  14.682  0.6747  0.1607  1.1400
  288TMC3     C 4346   1.132   1.795  14.303  0.0050 -0.6267 -0.3124
  288TMC3     O 4347   1.066   1.690  14.301  0.5729 -0.1228  0.4118
  288TMC3     H 4348   1.153   1.666  14.512 -0.3809 -1.2140  2.3380
  288TMC3    H1 4349   1.159   2.047  14.366  0.4285  1.0828  0.9311
  288TMC3    H2 4350   1.238   1.993  14.777  0.9102 -1.0378  1.6828
  288TMC3    C7 4351   1.254   2.170  14.596 -0.0892 -0.5684  0.1713
  288TMC3    C8 4352   1.162   1.743  14.783  0.1298  0.8266  0.3138
  288TMC3    O1 4353   1.278   2.208  14.707  0.4837 -0.0411 -0.6147
  288TMC3    O2 4354   1.191   1.795  14.892 -0.4583 -0.3132 -0.0688
  289MPD2     C 4355   1.630   1.705  13.880  0.0347  0.5090 -0.1556
  289MPD2    C1 4356   1.621   1.675  14.014 -0.4664  0.7012 -0.3996
  289MPD2    C2 4357   1.494   1.623  14.053 -1.0351 -0.3409 -0.3000
  289MPD2    C3 4358   1.392   1.595  13.964 -0.5716  0.6309 -0.1265
  289MPD2    C4 4359   1.413   1.633  13.831  0.0062 -0.2327  0.6784
  289MPD2    C5 4360   1.524   1.694  13.792 -0.2084 -0.2613  0.6301
  289MPD2     H 4361   1.484   1.577  14.151  1.5604 -1.4463 -0.5676
  289MPD2    H1 4362   1.339   1.612  13.754 -0.6957  0.7624  1.0762
  289MPD2    H2 4363   1.723   1.737  13.834  1.0475  0.2516  1.6964
  289MPD2    H3 4364   1.520   1.721  13.687  1.7761 -0.1145  0.5893
  289MPD2     N 4365   1.274   1.522  13.992  0.2716 -0.4629  1.0398
  289MPD2    H5 4366   1.203   1.512  13.920  1.7299  2.6165 -0.8105
  289MPD2    N1 4367   1.738   1.680  14.097 -0.9534  0.0177  0.8246
  289MPD2    H7 4368   1.830   1.693  14.056  0.1441 -0.6446  3.0611
  290TMC3    C1 4369   1.134   1.361  14.089  0.4032  0.0987  0.3789
  290TMC3    C2 4370   1.015   1.416  14.061 -0.3218  0.2573  0.1940
  290TMC3    C3 4371   0.902   1.336  14.064 -0.4042 -1.3335 -0.5575
  290TMC3    C4 4372   1.138   1.237  14.142 -0.2185  0.3361  0.5240
  290TMC3    C5 4373   1.029   1.157  14.141  0.4126  0.0963  0.6814
  290TMC3    C6 4374   0.907   1.202  14.104 -0.2554 -0.2475 -0.5865
  290TMC3     C 4375   1.256   1.437  14.101 -0.2197  0.3864  0.1301
  290TMC3     O 4376   1.337   1.406  14.187  1.2178 -0.6404  0.7313
  290TMC3     H 4377   1.011   1.512  14.010 -1.7183 -0.6925 -1.4946
  290TMC3    H1 4378   1.229   1.194  14.181 -0.9488 -0.4910  1.3227
  290TMC3    H2 4379   0.817   1.143  14.117  0.1697 -0.9438 -0.8219
  290TMC3    C7 4380   1.040   1.033  14.225 -0.2234 -0.2898  0.7171
  290TMC3    C8 4381   0.780   1.397  14.082 -0.2063  0.1626  0.7375
  290TMC3    O1 4382   1.117   1.048  14.321  0.3646  0.8848  0.3489
  290TMC3    O2 4383   0.673   1.341  14.067  0.3351 -0.5905 -0.6972
  291MPD2     C 4384   0.998   1.147   0.424 -1.2708 -0.1133  0.5666
  291MPD2    C1 4385   0.951   1.021   0.399 -0.5444  0.1428 -0.5828
  291MPD2    C2 4386   1.036   0.926   0.346 -0.4190  0.7802  0.1576
  291MPD2    C3 4387   1.166   0.968   0.322 -0.5167 -0.1775  0.2317
  291MPD2    C4 4388   1.212   1.095   0.350  0.4999  0.0328  0.0339
  291MPD2    C5 4389   1.126   1.184   0.403 -0.0032 -0.1765  0.9411
  291MPD2     H 4390   0.988   0.836   0.311  0.9351 -1.0934  3.2151
  291MPD2    H1 4391   1.304   1.136   0.309  0.2284  0.7158  0.1071
  291MPD2    H2 4392   0.935   1.225   0.466  1.3270  1.3594  1.7354
  291MPD2    H3 4393   1.162   1.284   0.425  0.9150 -0.3525  0.2807
  291MPD2     N 4394   1.271   0.885   0.284  0.2847  0.2784  0.0167
  291MPD2    H5 4395   1.366   0.919   0.275  0.2657 -0.4251 -2.9880
  291MPD2    N1 4396   0.814   0.987   0.418 -0.1363 -0.3097 -0.0698
  291MPD2    H7 4397   0.794   0.888   0.411 -1.8020 -0.0185  0.7137
  292TMC3    C1 4398   0.584   1.024   0.448  0.3679 -0.1358  0.3390
  292TMC3    C2 4399   0.481   1.097   0.500  0.0633  0.0643 -0.4406
  292TMC3    C3 4400   0.360   1.040   0.513  0.1981  0.4961 -0.5842
  292TMC3    C4 4401   0.583   0.888   0.416  0.4605  1.0075  0.1818
  292TMC3    C5 4402   0.469   0.831   0.443 -0.0495  0.0364  0.0478
  292TMC3    C6 4403   0.354   0.902   0.479  0.2804  0.3958 -0.5308
  292TMC3     C 4404   0.714   1.084   0.439 -0.2116  0.3022  0.4245
  292TMC3     O 4405   0.712   1.203   0.460  0.1085 -0.2690  0.1268
  292TMC3     H 4406   0.504   1.197   0.534 -2.1908  1.0853 -1.9233
  292TMC3    H1 4407   0.657   0.835   0.357 -1.3517 -1.0184 -0.2430
  292TMC3    H2 4408   0.272   0.842   0.517  2.1279 -1.5662  0.4072
  292TMC3    C7 4409   0.450   0.704   0.381 -0.0341 -0.1169 -0.6722
  292TMC3    C8 4410   0.264   1.093   0.608 -0.2401  0.3598  0.9211
  292TMC3    O1 4411   0.551   0.638   0.365  0.1924 -0.0347 -0.1645
  292TMC3    O2 4412   0.308   1.184   0.675  0.3808  0.3955  0.0669
  293MPD2     C 4413   2.397   2.466  12.638  0.0579 -0.2462  0.1017
  293MPD2    C1 4414   2.315   2.410  12.738 -0.2593 -0.6766  0.3869
  293MPD2    C2 4415   2.357   2.420  12.865  0.5423 -0.2270 -0.3549
  293MPD2    C3 4416   2.475   2.474  12.900  0.8533 -0.1244  0.0588
  293MPD2    C4 4417   2.553   2.534  12.801 -0.1450 -0.7366  0.2768
  293MPD2    C5 4418   2.507   2.538  12.673  0.7368  0.5719  0.0350
  293MPD2     H 4419   2.302   2.369  12.944  1.8237  0.5766  1.0608
  293MPD2    H1 4420   2.649   2.575  12.828 -0.2806 -2.1929  2.9185
  293MPD2    H2 4421   2.371   2.462  12.533 -0.8176 -1.3105  0.3622
  293MPD2    H3 4422   2.563   2.591  12.597  1.1970  0.9430  0.6283
  293MPD2     N 4423   2.513   2.477  13.041 -0.0813 -0.3484 -0.1062
  293MPD2    H5 4424   2.448   2.428  13.101 -0.0744  1.6898  1.5765
  293MPD2    N1 4425   2.198   2.349  12.692 -0.1551 -0.9899  0.8348
  293MPD2    H7 4426   2.193   2.336  12.591  0.2526  0.0925  0.6780
  294TMC3    C1 4427   1.991   2.247  12.675 -0.8945  0.2867  0.5443
  294TMC3    C2 4428   1.890   2.177  12.733  0.4242  1.1222  0.4596
  294TMC3    C3 4429   1.787   2.128  12.661  0.0463 -0.3126 -0.3829
  294TMC3    C4 4430   1.984   2.275  12.541 -0.0973 -0.0728  0.0401
  294TMC3    C5 4431   1.875   2.233  12.468  0.1297 -0.8141  0.3523
  294TMC3    C6 4432   1.777   2.156  12.526 -0.1280  0.3355  0.2704
  294TMC3     C 4433   2.090   2.308  12.763  1.1056 -0.1376  0.9717
  294TMC3     O 4434   2.062   2.317  12.884  0.3182  0.4919  0.5713
  294TMC3     H 4435   1.892   2.146  12.837 -1.3184  1.8011  0.6907
  294TMC3    H1 4436   2.037   2.358  12.495  0.9232 -0.4190  0.6010
  294TMC3    H2 4437   1.700   2.117  12.460 -1.5892  0.3812  1.9483
  294TMC3    C7 4438   1.852   2.271  12.324  0.0796  0.4893  0.0725
  294TMC3    C8 4439   1.721   2.013  12.709 -0.0107  0.3007  0.2943
  294TMC3    O1 4440   1.738   2.256  12.286  0.4580  0.0407  0.5340
  294TMC3    O2 4441   1.680   2.006  12.825 -0.3057 -0.0087  0.4290
  295MPD2     C 4442   2.836   0.998   1.449  0.3249 -0.1246 -0.2673
  295MPD2    C1 4443   2.756   0.899   1.387  0.1631 -0.2279  0.5639
  295MPD2    C2 4444   2.747   0.772   1.448  0.3211 -0.1226 -0.3557
  295MPD2    C3 4445   2.825   0.746   1.562 -0.3302 -0.3569 -0.3865
  295MPD2    C4 4446   2.895   0.848   1.617  0.2201 -0.4930 -0.1853
  295MPD2    C5 4447   2.910   0.973   1.563 -0.1104 -1.0314  0.3340
  295MPD2     H 4448   2.684   0.693   1.409  1.7242 -1.7568  0.7059
  295MPD2    H1 4449   2.940   0.832   1.714 -1.1967  1.4840  0.8007
  295MPD2    H2 4450   2.837   1.101   1.416  2.4005  0.6230  2.0655
  295MPD2    H3 4451   2.961   1.043   1.629  0.7140 -0.9283 -0.4135
  295MPD2     N 4452   2.839   0.623   1.633 -0.1710  0.2362  0.1066
  295MPD2    H5 4453   2.923   0.614   1.689 -1.6219 -0.1303  2.2003
  295MPD2    N1 4454   2.678   0.927   1.277  0.3065  0.4747  0.4137
  295MPD2    H7 4455   2.606   0.860   1.249  2.3527 -2.4675  2.2832
  296TMC3    C1 4456   2.811   0.398   1.693 -0.1837  0.2965  0.5364
  296TMC3    C2 4457   2.864   0.418   1.820  0.3432  0.4224 -0.4563
  296TMC3    C3 4458   2.916   0.308   1.886  0.8512  1.0647 -0.2808
  296TMC3    C4 4459   2.802   0.274   1.642 -0.5936 -0.0602  0.0459
  296TMC3    C5 4460   2.842   0.166   1.722  0.0661  0.0227  0.1210
  296TMC3    C6 4461   2.909   0.182   1.840  0.0204  0.0957  0.6429
  296TMC3     C 4462   2.761   0.509   1.612 -0.7278 -0.4390 -0.5224
  296TMC3     O 4463   2.662   0.500   1.542  0.1789  0.0623  0.5038
  296TMC3     H 4464   2.847   0.519   1.857 -2.7360  0.2932 -1.5543
  296TMC3    H1 4465   2.758   0.263   1.543 -0.2950 -0.8547 -0.0032
  296TMC3    H2 4466   2.935   0.091   1.894  1.1063  0.2483  0.3660
  296TMC3    C7 4467   2.900   0.052   1.641 -0.4234 -0.2154  0.2632
  296TMC3    C8 4468   2.933   0.319   2.028 -0.4818 -0.6061 -0.5101
  296TMC3    O1 4469   2.931   0.092   1.531 -0.0705  0.1439  0.6422
  296TMC3    O2 4470   2.912   0.214   2.086 -0.3301  0.5680 -0.0723
  297MPD2     C 4471   0.665   2.818  16.566  0.2657  0.8328  0.0047
  297MPD2    C1 4472   0.685   2.861  16.439 -1.4967  0.5377 -0.5184
  297MPD2    C2 4473   0.749   2.979  16.410 -0.6951  0.0191 -0.0032
  297MPD2    C3 4474   0.793   3.058  16.515 -0.2479  0.0013 -0.0703
  297MPD2    C4 4475   0.774   3.015  16.646  0.4105 -0.8962  0.9077
  297MPD2    C5 4476   0.718   2.893  16.668 -0.3986  0.3300 -0.6968
  297MPD2     H 4477   0.765   3.002  16.305  1.5704 -0.5406  0.2240
  297MPD2    H1 4478   0.794   3.073  16.736 -0.4066  0.4147  0.2329
  297MPD2    H2 4479   0.622   2.720  16.579 -0.3143  0.8504 -1.6979
  297MPD2    H3 4480   0.707   2.859  16.770  0.3271  0.7083 -0.4918
  297MPD2     N 4481   0.856   3.183  16.479  0.6622  0.3960 -0.5563
  297MPD2    H5 4482   0.850   3.212  16.382  0.2641  1.4409 -0.2217
  297MPD2    N1 4483   0.647   2.785  16.323 -0.4504 -0.4237 -0.1616
  297MPD2    H7 4484   0.685   2.814  16.233 -0.9716 -2.6006 -1.0875
  298TMC3    C1 4485   0.508   2.656  16.183 -0.7468  0.1076 -0.0980
  298TMC3    C2 4486   0.608   2.644  16.091 -0.1499 -0.5699  0.2793
  298TMC3    C3 4487   0.583   2.687  15.968  0.0514  0.5879  0.1040
  298TMC3    C4 4488   0.379   2.692  16.158 -0.4563 -0.5816  0.2073
  298TMC3    C5 4489   0.366   2.745  16.035 -0.2330 -0.3071 -0.6891
  298TMC3    C6 4490   0.461   2.737  15.936  0.4600 -0.0172 -0.7747
  298TMC3     C 4491   0.537   2.699  16.313  0.1191 -0.0967 -0.4378
  298TMC3     O 4492   0.450   2.676  16.399  0.8883  1.0055  0.1125
  298TMC3     H 4493   0.706   2.626  16.133 -0.0094 -0.2306  0.0927
  298TMC3    H1 4494   0.295   2.672  16.224  0.4248  0.9879  1.7964
  298TMC3    H2 4495   0.433   2.768  15.836  0.9623 -0.6134 -1.0914
  298TMC3    C7 4496   0.233   2.814  16.019 -0.2041  0.7114 -0.1380
  298TMC3    C8 4497   0.688   2.684  15.859 -0.4227  0.4265  0.0567
  298TMC3    O1 4498   0.156   2.802  16.110 -0.1695 -0.4731  0.0461
  298TMC3    O2 4499   0.664   2.746  15.757 -1.2068 -0.3343 -0.4223
  299MPD2     C 4500   0.892   2.618  10.569  0.0509  0.3241  0.2752
  299MPD2    C1 4501   0.887   2.750  10.521  0.1936  0.7096  0.2099
  299MPD2    C2 4502   0.806   2.775  10.408  0.1660 -0.2359  0.1384
  299MPD2    C3 4503   0.720   2.672  10.364 -0.0698 -0.1141 -0.7330
  299MPD2    C4 4504   0.722   2.545  10.416 -0.7078  0.3663  0.1942
  299MPD2    C5 4505   0.822   2.517  10.510 -0.4301 -0.7171  0.8261
  299MPD2     H 4506   0.806   2.872  10.359 -2.4367 -0.0269  0.5617
  299MPD2    H1 4507   0.655   2.464  10.392  3.8743 -2.3308 -3.3606
  299MPD2    H2 4508   0.964   2.590  10.646 -0.7000 -1.3103  0.3892
  299MPD2    H3 4509   0.824   2.415  10.546  0.6844 -1.0251 -0.1142
  299MPD2     N 4510   0.633   2.694  10.258 -0.4556 -0.2627  0.5216
  299MPD2    H5 4511   0.573   2.618  10.229  1.0168 -1.0720 -0.3904
  299MPD2    N1 4512   0.965   2.850  10.586  0.8495  0.4990 -0.0513
  299MPD2    H7 4513   1.021   2.815  10.663  0.1017  1.8761  1.1133
  300TMC3    C1 4514   0.477   2.801  10.120 -0.5514 -0.0335  0.7813
  300TMC3    C2 4515   0.439   2.891  10.023  0.0402 -0.3454 -0.0918
  300TMC3    C3 4516   0.353   2.849   9.927  0.2601 -0.3060  0.3736
  300TMC3    C4 4517   0.405   2.681  10.127  0.2078  0.2698  0.7266
  300TMC3    C5 4518   0.297   2.669  10.048 -0.0083 -0.6415 -0.7536
  300TMC3    C6 4519   0.271   2.743   9.942  0.3527 -0.4071  0.0021
  300TMC3     C 4520   0.607   2.810  10.184  0.0990 -0.8056  1.0374
  300TMC3     O 4521   0.667   2.916  10.176  0.1494 -0.2495 -0.1452
  300TMC3     H 4522   0.486   2.988  10.018 -0.9945  0.2261  1.1401
  300TMC3    H1 4523   0.409   2.621  10.217  1.4430 -1.7635 -0.6831
  300TMC3    H2 4524   0.187   2.712   9.880 -0.4598 -0.4924  1.1447
  300TMC3    C7 4525   0.198   2.575  10.099  0.6874 -0.6206 -0.1110
  300TMC3    C8 4526   0.327   2.945   9.819 -0.3301  0.4359  0.2949
  300TMC3    O1 4527   0.236   2.478  10.164  0.4832 -0.3551  0.1746
  300TMC3    O2 4528   0.362   3.062   9.834 -0.0113  0.5301 -0.1551
  301MPD2     C 4529   2.848   4.058   1.300  0.0023 -0.2986  0.0950
  301MPD2    C1 4530   2.763   4.044   1.410  0.0215  0.1427  0.3595
  301MPD2    C2 4531   2.759   3.921   1.470 -0.7039 -0.4552 -0.8567
  301MPD2    C3 4532   2.832   3.815   1.442  0.3201  0.0628 -0.3044
  301MPD2    C4 4533   2.922   3.832   1.336 -0.2060  0.1334  0.0908
  301MPD2    C5 4534   2.929   3.951   1.268 -0.9782 -0.0739  0.3265
  301MPD2     H 4535   2.690   3.914   1.553 -1.2965 -1.9732 -1.4797
  301MPD2    H1 4536   2.992   3.759   1.298 -0.1852  0.0371  0.3101
  301MPD2    H2 4537   2.859   4.148   1.240 -2.5600 -0.8062 -1.1191
  301MPD2    H3 4538   2.997   3.972   1.186 -0.4316  1.3939  1.1544
  301MPD2     N 4539   2.822   3.686   1.501  0.5693 -0.4604  0.1950
  301MPD2    H5 4540   2.897   3.621   1.481  1.1592  0.4685 -0.5883
  301MPD2    N1 4541   2.688   4.150   1.456 -0.1473  0.2547  0.4477
  301MPD2    H7 4542   2.661   4.148   1.554 -1.4373 -0.6485  0.0852
  302TMC3    C1 4543   2.728   3.517   1.638  0.0835  0.1530  0.7700
  302TMC3    C2 4544   2.846   3.449   1.635 -0.3866  0.2988 -0.2563
  302TMC3    C3 4545   2.847   3.323   1.686  0.2134  0.3278 -0.2409
  302TMC3    C4 4546   2.614   3.474   1.700  0.5956  0.1633 -0.1545
  302TMC3    C5 4547   2.615   3.343   1.738 -0.0888 -0.0612 -0.4025
  302TMC3    C6 4548   2.730   3.266   1.745 -0.2206 -0.1654 -0.0233
  302TMC3     C 4549   2.722   3.653   1.587 -0.3757 -0.0830 -0.5720
  302TMC3     O 4550   2.632   3.722   1.630 -0.2746 -0.0775  0.1182
  302TMC3     H 4551   2.943   3.492   1.615 -0.7120  2.0824  1.9817
  302TMC3    H1 4552   2.522   3.530   1.714 -0.2087 -0.9314 -1.1339
  302TMC3    H2 4553   2.718   3.167   1.786 -0.7612 -0.2571 -0.4060
  302TMC3    C7 4554   2.496   3.288   1.797 -0.9479 -0.4277 -0.3190
  302TMC3    C8 4555   2.968   3.239   1.680 -0.0283  0.4389 -0.1235
  302TMC3    O1 4556   2.508   3.217   1.897 -0.4139  0.4065  0.1640
  302TMC3    O2 4557   3.042   3.271   1.587 -0.2121  0.2056 -0.3499
  303MPD2     C 4558   3.125   2.484  10.201  0.5264  0.0004  0.2236
  303MPD2    C1 4559   2.997   2.520  10.241 -0.5122 -0.1756 -0.5526
  303MPD2    C2 4560   2.903   2.558  10.144 -0.3823 -0.0259  0.0577
  303MPD2    C3 4561   2.941   2.547  10.013  0.5985  0.5407  0.9922
  303MPD2    C4 4562   3.076   2.518   9.979 -0.2244 -0.3221 -0.4313
  303MPD2    C5 4563   3.168   2.495  10.072  0.0858  0.3947 -0.8451
  303MPD2     H 4564   2.803   2.588  10.173 -0.8840 -0.1215 -1.5643
  303MPD2    H1 4565   3.108   2.506   9.876 -2.7467  4.0760 -1.7132
  303MPD2    H2 4566   3.198   2.436  10.264 -0.2252 -0.1016  1.0220
  303MPD2    H3 4567   3.262   2.456  10.034  1.5938  2.0512  1.1513
  303MPD2     N 4568   2.850   2.573   9.906  0.6135  0.1338  0.2036
  303MPD2    H5 4569   2.876   2.563   9.809  1.7267  2.8409  0.2434
  303MPD2    N1 4570   2.969   2.498  10.377  0.0267  0.1189  0.8899
  303MPD2    H7 4571   3.043   2.455  10.431  2.3408  2.7015 -0.2767
  304TMC3    C1 4572   2.862   2.461  10.587  0.0683  0.3361  0.0908
  304TMC3    C2 4573   2.762   2.501  10.673  0.0736  0.4224  0.3901
  304TMC3    C3 4574   2.710   2.416  10.764  0.1640  0.6070 -0.0315
  304TMC3    C4 4575   2.913   2.342  10.600 -0.0957 -0.1400 -0.2983
  304TMC3    C5 4576   2.847   2.248  10.676  0.2763  0.0065 -0.2933
  304TMC3    C6 4577   2.752   2.282  10.773 -0.0444 -0.1415 -0.1310
  304TMC3     C 4578   2.856   2.526  10.454 -0.2356 -0.4614  0.2771
  304TMC3     O 4579   2.753   2.587  10.420  0.0095 -0.0679 -0.7963
  304TMC3     H 4580   2.727   2.603  10.658 -2.7327 -0.2847  2.2238
  304TMC3    H1 4581   2.986   2.304  10.529  0.9464  2.2155 -0.4879
  304TMC3    H2 4582   2.715   2.215  10.850 -0.9236 -0.1942 -0.5899
  304TMC3    C7 4583   2.795   2.137  10.599 -0.0768 -0.3167 -0.1198
  304TMC3    C8 4584   2.563   2.426  10.786 -0.4666 -0.2710 -0.4299
  304TMC3    O1 4585   2.868   2.080  10.524  0.4420 -0.0106 -0.4233
  304TMC3    O2 4586   2.504   2.322  10.800  0.2594 -0.5358 -0.6195
  305MPD2     C 4587   0.901   4.338  13.775 -0.1944 -0.0275 -0.7833
  305MPD2    C1 4588   0.999   4.242  13.799 -0.5873  0.3088  0.2840
  305MPD2    C2 4589   0.992   4.127  13.722 -0.0093  0.5755  0.3094
  305MPD2    C3 4590   0.902   4.116  13.618 -0.2518 -0.4221  0.0038
  305MPD2    C4 4591   0.805   4.211  13.594 -0.4539 -0.2769 -0.0649
  305MPD2    C5 4592   0.814   4.324  13.673  0.0132  0.9385 -0.2311
  305MPD2     H 4593   1.072   4.053  13.723 -1.0897 -0.6049 -0.0085
  305MPD2    H1 4594   0.732   4.204  13.514 -1.2152  0.3088  0.5716
  305MPD2    H2 4595   0.893   4.437  13.819  0.3276 -0.4148  0.1788
  305MPD2    H3 4596   0.757   4.410  13.640 -1.4623  0.3760  0.8517
  305MPD2     N 4597   0.921   4.023  13.522  0.1801 -0.1044  0.1304
  305MPD2    H5 4598   1.012   3.978  13.531  1.2350  2.2287  0.8952
  305MPD2    N1 4599   1.094   4.270  13.900  0.0523 -0.5905 -0.2116
  305MPD2    H7 4600   1.092   4.354  13.958  1.6493 -0.1116 -0.8477
  306TMC3    C1 4601   1.288   4.250  14.034  0.4148 -1.2812 -0.3036
  306TMC3    C2 4602   1.408   4.184  14.054  0.4679 -0.1596 -0.5554
  306TMC3    C3 4603   1.484   4.206  14.162 -0.4215 -0.1689 -0.6253
  306TMC3    C4 4604   1.237   4.331  14.131  0.2972  0.0472 -0.5367
  306TMC3    C5 4605   1.322   4.353  14.240 -0.4921  0.6511 -0.5641
  306TMC3    C6 4606   1.443   4.287  14.262  0.1124  0.0363 -1.5021
  306TMC3     C 4607   1.202   4.193  13.923 -0.0743 -1.0150  0.1066
  306TMC3     O 4608   1.232   4.084  13.875  0.1394  0.1866 -0.3200
  306TMC3     H 4609   1.432   4.112  13.976  0.4161  0.2219 -0.9212
  306TMC3    H1 4610   1.144   4.386  14.125 -0.1995 -0.7405 -0.1419
  306TMC3    H2 4611   1.483   4.285  14.362  2.2651 -0.6330 -2.3666
  306TMC3    C7 4612   1.263   4.419  14.353  0.3601 -0.3227  0.2151
  306TMC3    C8 4613   1.582   4.113  14.191  0.0779 -0.1432  0.1056
  306TMC3    O1 4614   1.141   4.443  14.345 -0.6677 -0.5026  0.4360
  306TMC3    O2 4615   1.569   4.004  14.142 -0.1521  0.8727  0.0178
  307MPD2     C 4616   3.822   1.965   0.760 -0.7975 -0.6912  0.0320
  307MPD2    C1 4617   3.710   2.006   0.685  0.0778 -0.4584  0.2733
  307MPD2    C2 4618   3.592   1.993   0.744  0.4768 -0.2271 -0.1007
  307MPD2    C3 4619   3.578   1.962   0.881  0.5585  0.1184  0.3223
  307MPD2    C4 4620   3.690   1.934   0.961  0.2438  0.3302 -0.3721
  307MPD2    C5 4621   3.808   1.930   0.892 -1.0613 -0.1394  0.1609
  307MPD2     H 4622   3.502   2.006   0.684  1.4529  1.2738 -1.2191
  307MPD2    H1 4623   3.681   1.900   1.063  1.3387 -0.4598 -0.5382
  307MPD2    H2 4624   3.923   1.960   0.720 -1.5249  0.8698 -1.9990
  307MPD2    H3 4625   3.889   1.902   0.959 -0.7287  0.7728  0.1433
  307MPD2     N 4626   3.442   1.974   0.931  0.4120 -0.6305 -0.5603
  307MPD2    H5 4627   3.373   2.001   0.862  0.2684 -0.1619 -0.2324
  307MPD2    N1 4628   3.711   2.048   0.550 -0.3607  0.9290  0.3876
  307MPD2    H7 4629   3.620   2.081   0.518 -1.5378 -2.1884  0.5577
  308TMC3    C1 4630   3.059   2.055   0.992  0.2875  0.2656 -0.3578
  308TMC3    C2 4631   3.075   2.187   1.016 -0.3651 -0.8873  0.3054
  308TMC3    C3 4632   3.190   2.234   1.072  0.3373  0.3309  0.4869
  308TMC3    C4 4633   3.152   1.960   1.030 -0.2764 -0.0781 -0.3074
  308TMC3    C5 4634   3.262   2.013   1.084 -0.2906 -0.0603 -0.6073
  308TMC3    C6 4635   3.284   2.139   1.112 -0.1987  0.0525 -0.0145
  308TMC3     C 4636   2.927   2.003   0.956  0.7657  0.0494 -0.0716
  308TMC3     O 4637   2.897   1.898   1.014 -0.3352 -0.0546  0.1330
  308TMC3     H 4638   2.998   2.260   0.993  1.1592  0.3208 -0.9387
  308TMC3    H1 4639   3.135   1.855   1.005 -0.5712  0.0514 -0.6575
  308TMC3    H2 4640   3.373   2.163   1.169 -1.4540 -0.9369  2.3468
  308TMC3    C7 4641   3.394   1.947   1.059 -0.7158  0.3494  0.0456
  308TMC3    C8 4642   3.231   2.369   1.046 -0.7844 -0.1477 -0.1571
  308TMC3    O1 4643   3.464   1.919   1.153  0.5641  0.0881 -0.1333
  308TMC3    O2 4644   3.310   2.412   1.127 -0.2330 -0.2694 -0.4419
  309MPD2     C 4645   2.960   2.568  17.095  0.8287  0.4416  0.6829
  309MPD2    C1 4646   2.913   2.623  16.977 -0.6086 -0.2017  0.5067
  309MPD2    C2 4647   2.780   2.645  16.958 -0.9546 -0.8766  0.2995
  309MPD2    C3 4648   2.691   2.628  17.066  0.6786 -0.7216 -0.9356
  309MPD2    C4 4649   2.733   2.570  17.180 -0.3344  0.2043 -0.1128
  309MPD2    C5 4650   2.869   2.543  17.192 -0.4759 -0.2357  0.4034
  309MPD2     H 4651   2.749   2.695  16.868  2.3226 -1.9879 -1.4517
  309MPD2    H1 4652   2.666   2.538  17.260 -0.4237 -2.1848 -1.1291
  309MPD2    H2 4653   3.062   2.536  17.114  1.0860  0.5096 -0.5511
  309MPD2    H3 4654   2.896   2.494  17.285  1.8652 -3.0863 -1.8045
  309MPD2     N 4655   2.557   2.677  17.067  0.1960  0.3780  0.6934
  309MPD2    H5 4656   2.503   2.672  17.153 -0.7848  0.5082  0.0749
  309MPD2    N1 4657   3.000   2.672  16.875  0.2796 -0.7489 -0.8089
  309MPD2    H7 4658   2.953   2.707  16.792 -0.5140 -3.0657 -1.3308
  310TMC3    C1 4659   3.189   2.762  16.772 -0.3370 -0.1099 -0.5905
  310TMC3    C2 4660   3.094   2.837  16.713  0.3532 -0.5040  0.0934
  310TMC3    C3 4661   3.149   2.911  16.617  0.7958 -0.3236 -0.0992
  310TMC3    C4 4662   3.320   2.757  16.751 -0.4297 -0.2624  0.0464
  310TMC3    C5 4663   3.368   2.842  16.659  0.2030  0.3377 -0.3751
  310TMC3    C6 4664   3.278   2.910  16.580  0.0421  0.1698 -0.1157
  310TMC3     C 4665   3.140   2.664  16.875  0.1387 -0.2748  1.0454
  310TMC3     O 4666   3.223   2.605  16.940  0.4424 -0.1211 -0.0098
  310TMC3     H 4667   2.986   2.839  16.723  0.2773  0.2255 -0.8227
  310TMC3    H1 4668   3.380   2.690  16.811 -0.1370  2.2040  2.5410
  310TMC3    H2 4669   3.308   2.981  16.504 -0.3757  1.4054  0.8698
  310TMC3    C7 4670   3.496   2.800  16.611 -0.5620 -0.5286  0.4121
  310TMC3    C8 4671   3.057   2.987  16.527  0.0800  0.6059  0.3532
  310TMC3    O1 4672   3.544   2.700  16.661  0.1909 -0.3061 -0.3775
  310TMC3    O2 4673   3.098   3.014  16.414 -0.4070 -0.0515  0.0309
  311MPD2     C 4674   0.072   3.851  12.561 -1.0638  0.7712 -0.3302
  311MPD2    C1 4675   0.077   3.982  12.603 -0.2792 -0.2768 -0.0223
  311MPD2    C2 4676   4.692   4.023  12.674  0.2845  0.1323  0.4025
  311MPD2    C3 4677   4.586   3.943  12.704 -0.5540 -1.0087 -0.2194
  311MPD2    C4 4678   4.589   3.808  12.662  0.5586 -0.1199  0.1363
  311MPD2    C5 4679   4.693   3.762  12.582 -0.2284  0.0104 -0.5564
  311MPD2     H 4680   4.701   4.129  12.698 -2.4313  0.1666  1.1607
  311MPD2    H1 4681   4.513   3.734  12.682 -1.3040  1.8771  0.5449
  311MPD2    H2 4682   0.150   3.803  12.502 -1.8725  0.3042 -1.0091
  311MPD2    H3 4683   4.689   3.663  12.537 -0.5527 -0.5320  0.6751
  311MPD2     N 4684   4.478   4.005  12.771  1.0846 -0.1958  0.3145
  311MPD2    H5 4685   4.491   4.101  12.801  2.9390 -0.1977 -0.4684
  311MPD2    N1 4686   0.193   4.058  12.587  0.0624 -0.7479  0.1688
  311MPD2    H7 4687   0.190   4.140  12.647  0.2166  0.8022 -1.9420
  312TMC3    C1 4688   4.257   4.056  12.842  0.1614 -0.2125 -0.2111
  312TMC3    C2 4689   4.135   4.071  12.777  0.2115 -0.2001 -0.1022
  312TMC3    C3 4690   4.092   4.202  12.762  0.6133  0.2197 -0.4162
  312TMC3    C4 4691   4.318   4.158  12.907  0.5652 -0.5401 -0.3480
  312TMC3    C5 4692   4.271   4.278  12.891 -0.0436 -0.3225 -0.2145
  312TMC3    C6 4693   4.169   4.308  12.806  0.7882 -0.4106  0.6953
  312TMC3     C 4694   4.353   3.956  12.792 -0.5072  0.0456  0.1227
  312TMC3     O 4695   4.310   3.850  12.744 -0.8426 -0.1348  0.5986
  312TMC3     H 4696   4.098   3.996  12.708 -0.1299  1.2955 -1.5469
  312TMC3    H1 4697   4.403   4.140  12.973 -0.5317  1.1232  1.5366
  312TMC3    H2 4698   4.139   4.410  12.785 -0.8010 -1.0499 -0.1253
  312TMC3    C7 4699   4.330   4.385  12.960  0.0327 -0.5878  0.4330
  312TMC3    C8 4700   3.965   4.227  12.692  0.0289 -0.1556  1.2040
  312TMC3    O1 4701   4.337   4.492  12.900  0.8379  0.1937  0.1840
  312TMC3    O2 4702   3.957   4.347  12.664  0.0376 -0.7284 -0.6882
  313MPD2     C 4703   4.385   3.625  10.645  0.4710 -0.5264  0.2015
  313MPD2    C1 4704   4.253   3.659  10.648 -0.2156  0.0952  0.2095
  313MPD2    C2 4705   4.166   3.598  10.559  0.0309  0.7691  0.3707
  313MPD2    C3 4706   4.219   3.521  10.460 -0.4698 -0.0325 -0.6546
  313MPD2    C4 4707   4.353   3.496  10.445 -0.0388  1.6537  0.2207
  313MPD2    C5 4708   4.437   3.553  10.535 -1.1459  0.6508 -1.0762
  313MPD2     H 4709   4.060   3.622  10.560  0.0543  0.9081 -0.3507
  313MPD2    H1 4710   4.393   3.431  10.367 -0.9083 -0.5860  1.6392
  313MPD2    H2 4711   4.455   3.667  10.716 -0.5058 -0.7560  1.2774
  313MPD2    H3 4712   4.542   3.544  10.513 -1.2838 -2.1979 -0.5284
  313MPD2     N 4713   4.128   3.473  10.364  0.0055  0.6360  0.8405
  313MPD2    H5 4714   4.033   3.504  10.383 -0.0003  0.6217  0.8351
  313MPD2    N1 4715   4.198   3.750  10.741  0.9084 -0.3319  0.3570
  313MPD2    H7 4716   4.098   3.764  10.734  0.6063 -3.2575 -1.1544
  314TMC3    C1 4717   4.183   3.950  10.855  0.3721  0.8239  0.0915
  314TMC3    C2 4718   4.211   4.010  10.978 -0.1396  0.2094 -0.7397
  314TMC3    C3 4719   4.167   4.136  10.999 -0.2343  0.3038  0.1229
  314TMC3    C4 4720   4.127   4.022  10.753  0.2370 -0.1214  0.1955
  314TMC3    C5 4721   4.069   4.144  10.791 -0.2803  0.8303 -0.5936
  314TMC3    C6 4722   4.083   4.202  10.914 -0.4570 -0.3482 -0.5845
  314TMC3     C 4723   4.261   3.830  10.834 -0.4656  0.2629  0.1772
  314TMC3     O 4724   4.378   3.826  10.866  0.5449 -0.3044  0.1859
  314TMC3     H 4725   4.256   3.944  11.052 -1.2488  0.2233 -0.0665
  314TMC3    H1 4726   4.115   3.980  10.654  1.3962  0.1066 -0.0358
  314TMC3    H2 4727   4.056   4.305  10.932 -1.7948 -1.0743  1.5474
  314TMC3    C7 4728   4.019   4.223  10.688 -0.8979 -0.2096  0.6748
  314TMC3    C8 4729   4.219   4.214  11.104 -0.7034  0.2886 -0.2644
  314TMC3    O1 4730   3.935   4.304  10.722 -0.4836  0.8775  0.1172
  314TMC3    O2 4731   4.169   4.326  11.126  0.2945 -0.0223  0.6124
  315MPD2     C 4732   3.885   2.842  17.510  0.1773  0.0075 -0.3537
  315MPD2    C1 4733   3.980   2.875  17.597 -0.5845  0.0929  0.2815
  315MPD2    C2 4734   4.068   2.973  17.572 -0.0567 -0.3980  0.1121
  315MPD2    C3 4735   4.060   3.047  17.455 -0.2535 -0.5824  0.5291
  315MPD2    C4 4736   3.974   3.011  17.364  0.8903  0.3022 -0.5151
  315MPD2    C5 4737   3.892   2.904  17.392  0.2354 -0.3388 -0.5622
  315MPD2     H 4738   4.143   2.994  17.646 -1.9182 -1.0378  2.1887
  315MPD2    H1 4739   3.971   3.054  17.264 -0.5545 -1.0172 -1.0438
  315MPD2    H2 4740   3.811   2.764  17.522 -0.6653  0.7999 -0.3082
  315MPD2    H3 4741   3.822   2.874  17.315  1.1220  0.8179 -1.8378
  315MPD2     N 4742   4.158   3.145  17.431  0.0406  0.1422 -0.3224
  315MPD2    H5 4743   4.217   3.159  17.513 -1.0919 -0.3667  0.5765
  315MPD2    N1 4744   4.001   2.801   0.024  0.0010  0.5109 -0.1553
  315MPD2    H7 4745   4.086   2.820   0.077  1.4413 -0.2453 -2.2073
  316TMC3    C1 4746   4.298   3.300  17.354  0.3614  0.4151  0.3225
  316TMC3    C2 4747   4.355   3.301  17.474 -0.0582 -0.1774 -0.5723
  316TMC3    C3 4748   4.427   3.409  17.516 -0.2981  0.0316 -0.4027
  316TMC3    C4 4749   4.311   3.408  17.271 -1.0714 -0.2072  0.0836
  316TMC3    C5 4750   4.400   3.505  17.313 -0.6835  0.5441  0.2907
  316TMC3    C6 4751   4.463   3.509  17.433  0.0490 -0.1013  0.8251
  316TMC3     C 4752   4.186   3.222  17.321 -0.0051 -0.3262 -0.3266
  316TMC3     O 4753   4.154   3.206  17.200 -0.7944  0.2124 -0.7311
  316TMC3     H 4754   4.336   3.226  17.549 -0.0144 -1.7943 -2.1815
  316TMC3    H1 4755   4.243   3.426  17.189 -0.0111 -0.4440 -0.8417
  316TMC3    H2 4756   4.540   3.582  17.456  0.1496  0.7101 -2.0585
  316TMC3    C7 4757   4.471   3.575  17.203 -0.2802  0.8793  0.3512
  316TMC3    C8 4758   4.493   3.417  17.644  0.2095  1.3402 -0.2924
  316TMC3    O1 4759   4.548   3.668  17.233 -0.0843 -0.2435  0.5713
  316TMC3    O2 4760   4.505   3.529  17.686  0.1775  0.0791  0.1053
  317MPD2     C 4761   1.276   0.709  12.329 -0.3105  0.5284  0.8215
  317MPD2    C1 4762   1.403   0.679  12.300  0.3520  0.1996  0.0375
  317MPD2    C2 4763   1.476   0.588  12.379  0.1756  0.7046  0.8330
  317MPD2    C3 4764   1.422   0.540  12.495  0.7898 -0.2501 -0.5281
  317MPD2    C4 4765   1.289   0.568  12.522 -0.6491 -0.7401  0.2545
  317MPD2    C5 4766   1.214   0.647  12.436 -0.1779  0.5738 -0.1705
  317MPD2     H 4767   1.575   0.564  12.343 -0.2184 -0.0048  0.2198
  317MPD2    H1 4768   1.232   0.520  12.602  3.6224 -1.9776  2.5869
  317MPD2    H2 4769   1.209   0.772  12.271 -0.4259  0.0193  0.3961
  317MPD2    H3 4770   1.106   0.650  12.441 -0.3368 -2.1705 -2.1096
  317MPD2     N 4771   1.499   0.453  12.575 -0.7804  0.0306 -0.5883
  317MPD2    H5 4772   1.586   0.426  12.531 -0.1861 -0.5910  0.9571
  317MPD2    N1 4773   1.466   0.738  12.188  0.2452  0.4888  0.0004
  317MPD2    H7 4774   1.559   0.702  12.168 -0.3303 -0.4367 -0.9909
  318TMC3    C1 4775   1.579   0.334  12.766  0.0536 -0.3312 -0.1451
  318TMC3    C2 4776   1.553   0.318  12.899 -0.0823  0.1799 -0.5313
  318TMC3    C3 4777   1.642   0.350  12.997 -0.2292  0.0849 -0.0984
  318TMC3    C4 4778   1.708   0.365  12.729 -0.0097  0.2972  0.1761
  318TMC3    C5 4779   1.798   0.410  12.823 -0.1339  0.6441  0.2320
  318TMC3    C6 4780   1.771   0.385  12.955  0.3362 -0.0345  0.1179
  318TMC3     C 4781   1.461   0.389  12.691  0.1406 -1.0560 -0.8438
  318TMC3     O 4782   1.362   0.405  12.756  0.5529  0.3724  0.1889
  318TMC3     H 4783   1.463   0.262  12.921 -0.4048  0.9001 -0.0055
  318TMC3    H1 4784   1.746   0.370  12.628  0.4876 -0.6428  0.3164
  318TMC3    H2 4785   1.830   0.420  13.039 -1.7501  2.6204  0.4820
  318TMC3    C7 4786   1.919   0.474  12.777 -0.5418 -0.0411  0.1800
  318TMC3    C8 4787   1.602   0.349  13.137  0.2901 -0.9184 -0.4204
  318TMC3    O1 4788   1.938   0.469  12.657 -0.1628 -0.5519  0.1248
  318TMC3    O2 4789   1.690   0.331  13.220  0.0018  0.7157 -0.0833
  319MPD2     C 4790   2.391   2.391  16.876  0.5245 -0.6284  0.7961
  319MPD2    C1 4791   2.252   2.380  16.890  0.5148 -0.0177  0.0429
  319MPD2    C2 4792   2.178   2.390  16.772  0.1952  0.2865 -0.2083
  319MPD2    C3 4793   2.237   2.397  16.649 -0.3860  0.7382  0.3461
  319MPD2    C4 4794   2.374   2.389  16.639 -0.1132  0.6893 -0.1717
  319MPD2    C5 4795   2.453   2.394  16.750  0.6841 -0.6268  0.3555
  319MPD2     H 4796   2.069   2.392  16.776  0.2136  1.0568 -0.2107
  319MPD2    H1 4797   2.416   2.400  16.539  0.9885 -1.1298  0.0979
  319MPD2    H2 4798   2.455   2.398  16.963 -0.3475 -2.3674  1.5628
  319MPD2    H3 4799   2.560   2.409  16.737  0.4064  0.0346 -1.1396
  319MPD2     N 4800   2.171   2.396  16.522  0.0170  0.0401  0.3338
  319MPD2    H5 4801   2.225   2.387  16.436  1.1534  0.8109  0.9739
  319MPD2    N1 4802   2.181   2.361  17.013 -0.4289  0.2390  0.1518
  319MPD2    H7 4803   2.080   2.346  17.015 -0.3409 -0.2185  0.9795
  320TMC3    C1 4804   2.021   2.344  16.361 -1.0824  0.8099  0.5207
  320TMC3    C2 4805   2.102   2.407  16.270  0.3155  0.4343  0.8826
  320TMC3    C3 4806   2.135   2.336  16.155  0.0897  0.5161  0.3262
  320TMC3    C4 4807   1.976   2.216  16.337  0.0679  0.4831  1.2230
  320TMC3    C5 4808   2.018   2.150  16.223 -0.4385 -0.3326  0.1541
  320TMC3    C6 4809   2.097   2.205  16.128 -0.3902 -0.2022 -0.4932
  320TMC3     C 4810   2.034   2.381  16.500 -0.4909  0.5503  1.0731
  320TMC3     O 4811   1.956   2.350  16.584  0.5143  0.1056  0.7158
  320TMC3     H 4812   2.115   2.515  16.276 -1.4992  0.6126  1.7275
  320TMC3    H1 4813   1.910   2.168  16.408  1.7952 -1.2324  1.6355
  320TMC3    H2 4814   2.104   2.161  16.029  1.4494  2.0498 -1.3828
  320TMC3    C7 4815   1.960   2.019  16.187  1.2729  0.3799 -0.5699
  320TMC3    C8 4816   2.130   2.409  16.027  0.2037 -0.9926 -0.1417
  320TMC3    O1 4817   2.030   1.942  16.124 -0.4112 -0.1645 -0.4467
  320TMC3    O2 4818   2.172   2.358  15.925  0.1042 -0.2723  0.5642
  321TMC3    C1 4819   2.161   2.316  17.245 -0.0254  0.3764  0.0130
  321TMC3    C2 4820   2.110   2.187  17.253  0.8909  0.3403  0.4252
  321TMC3    C3 4821   2.086   2.126  17.378 -0.2635 -0.4805  0.0518
  321TMC3    C4 4822   2.191   2.381  17.359  0.0316  0.2249 -0.4856
  321TMC3    C5 4823   2.178   2.310  17.481 -0.2591  0.1211  0.5487
  321TMC3    C6 4824   2.110   2.194  17.489 -0.0569 -0.5279 -1.0317
  321TMC3     C 4825   2.245   2.363  17.135 -0.2924  0.2687  0.6160
  321TMC3     O 4826   2.356   2.410  17.166 -0.2059  0.0940 -0.3736
  321TMC3     H 4827   2.084   2.127  17.167  1.6566  0.4633  0.1089
  321TMC3    H1 4828   2.250   2.472  17.356  0.0943  0.0307 -4.9556
  321TMC3    H2 4829   2.099   2.145  17.585  1.0014  0.0839 -0.5921
  321TMC3    C7 4830   2.300   2.286  17.557 -0.8512 -0.9851 -0.4467
  321TMC3    C8 4831   2.137   1.995  17.385 -0.3579  0.1298 -0.6825
  321TMC3    O1 4832   2.296   2.235  17.666  0.1552 -0.3087 -0.0513
  321TMC3    O2 4833   2.241   1.969  17.324 -0.3476 -0.4491 -0.6466
  322MPD2     C 4834   1.075   3.599  13.425 -0.0525 -1.0871  0.7314
  322MPD2    C1 4835   1.063   3.570  13.562 -0.0119 -0.3147 -0.4851
  322MPD2    C2 4836   1.028   3.436  13.599 -0.3471  0.3947  0.3299
  322MPD2    C3 4837   1.014   3.334  13.503 -0.0906 -0.0794  0.1548
  322MPD2    C4 4838   1.015   3.374  13.369 -0.1406  0.0288 -0.3235
  322MPD2    C5 4839   1.042   3.505  13.330 -0.2170 -0.0976  0.6952
  322MPD2     H 4840   1.018   3.408  13.704  1.1415 -0.9612  0.1113
  322MPD2    H1 4841   1.022   3.298  13.292 -0.1398  2.1781 -2.4291
  322MPD2    H2 4842   1.111   3.691  13.380  0.3148 -1.3414  0.4972
  322MPD2    H3 4843   1.060   3.514  13.223  2.5912  1.8135  1.3462
  322MPD2     N 4844   1.013   3.198  13.547  0.4045  0.5482  0.2578
  322MPD2    H5 4845   1.002   3.195  13.648 -0.1394 -1.1357  0.1419
  322MPD2    N1 4846   1.105   3.675  13.643  0.0577 -0.5087 -0.2712
  322MPD2    H7 4847   1.141   3.759  13.597 -1.7006 -0.0999 -0.9060
  323TMC3    C1 4848   1.225   3.749  13.831  0.5678 -0.5758  0.1268
  323TMC3    C2 4849   1.344   3.747  13.767 -0.2259  0.1531 -0.0130
  323TMC3    C3 4850   1.456   3.755  13.835 -0.5332 -0.4668  0.9018
  323TMC3    C4 4851   1.215   3.754  13.967  0.0082 -0.3483 -0.1657
  323TMC3    C5 4852   1.337   3.771  14.035 -0.4155  0.0775 -0.2808
  323TMC3    C6 4853   1.457   3.775  13.967  0.4394 -0.4820 -0.5686
  323TMC3     C 4854   1.116   3.676  13.779  0.6233  0.0418  0.7527
  323TMC3     O 4855   1.085   3.583  13.854 -0.4678 -0.2051  0.3898
  323TMC3     H 4856   1.351   3.728  13.661 -0.6400 -3.3166  0.5662
  323TMC3    H1 4857   1.127   3.755  14.030 -0.9990 -2.1867 -1.5493
  323TMC3    H2 4858   1.552   3.773  14.020 -1.3668  1.5666  2.7148
  323TMC3    C7 4859   1.337   3.714  14.172 -0.2473 -0.4147 -0.0433
  323TMC3    C8 4860   1.579   3.757  13.762  0.0332  0.5657 -0.1149
  323TMC3    O1 4861   1.246   3.639  14.201 -0.1411  0.2487  0.5547
  323TMC3    O2 4862   1.679   3.700  13.807 -0.1390  0.1679  0.1128
  324MPD2     C 4863   3.177   0.233  14.336 -0.4953  0.3292  0.7309
  324MPD2    C1 4864   3.215   0.327  14.427  0.0300  0.7648  0.1320
  324MPD2    C2 4865   3.121   0.361  14.528  0.2500  0.3967  0.3410
  324MPD2    C3 4866   2.989   0.316  14.518  0.1961  0.0810 -0.0760
  324MPD2    C4 4867   2.955   0.225  14.426  0.2902 -0.4289 -0.3608
  324MPD2    C5 4868   3.048   0.184  14.328 -0.0838 -0.3021 -0.1491
  324MPD2     H 4869   3.144   0.443  14.594  1.3979 -0.8007  1.4287
  324MPD2    H1 4870   2.854   0.186  14.428 -0.2688  1.1623  2.0163
  324MPD2    H2 4871   3.247   0.199  14.261 -1.9564 -0.4497 -0.2686
  324MPD2    H3 4872   3.031   0.119  14.243  0.4399  0.7145 -1.0304
  324MPD2     N 4873   2.880   0.343  14.599  0.5807  0.2306 -0.3861
  324MPD2    H5 4874   2.798   0.283  14.593  2.0577 -1.7080 -1.2542
  324MPD2    N1 4875   3.349   0.359  14.435 -0.0924  0.4649  0.0445
  324MPD2    H7 4876   3.369   0.413  14.519  2.9597 -1.1900  0.3946
  325TMC3    C1 4877   2.722   0.464  14.730  0.9221  0.2425  0.2579
  325TMC3    C2 4878   2.684   0.338  14.758 -0.4933  0.1861 -0.7985
  325TMC3    C3 4879   2.551   0.304  14.746  0.0654  0.3865  0.2094
  325TMC3    C4 4880   2.642   0.566  14.688 -0.2401 -0.8238  0.1536
  325TMC3    C5 4881   2.510   0.532  14.692  0.7037 -0.3601  0.6764
  325TMC3    C6 4882   2.461   0.408  14.712 -0.6790  0.5423  0.0137
  325TMC3     C 4883   2.856   0.456  14.679  0.2266  0.3369 -0.1133
  325TMC3     O 4884   2.923   0.558  14.681 -0.2598  0.2533 -0.6675
  325TMC3     H 4885   2.745   0.266  14.811  0.2905  1.6365  0.2689
  325TMC3    H1 4886   2.685   0.662  14.662 -0.9805 -0.2753  0.9754
  325TMC3    H2 4887   2.355   0.387  14.706 -0.4693 -0.3660 -0.4648
  325TMC3    C7 4888   2.411   0.643  14.675 -0.1945  0.4388 -0.5163
  325TMC3    C8 4889   2.545   0.194  14.644  0.8069  0.3744 -0.4868
  325TMC3    O1 4890   2.453   0.757  14.688 -0.3562 -0.1709 -0.6508
  325TMC3    O2 4891   2.657   0.164  14.611  0.4477  0.1886 -0.0420
  326MPD2     C 4892   4.414   1.800  11.071 -0.5099 -0.1928 -0.3935
  326MPD2    C1 4893   4.516   1.802  10.977 -0.0475 -0.4569 -0.4931
  326MPD2    C2 4894   4.632   1.873  10.999  0.1675 -0.6472  0.1622
  326MPD2    C3 4895   4.650   1.936  11.120 -0.1122  0.3201 -0.2460
  326MPD2    C4 4896   4.549   1.933  11.215 -0.3313  0.3718 -0.2034
  326MPD2    C5 4897   4.430   1.874  11.191  0.6134  0.0086 -0.0322
  326MPD2     H 4898   4.711   1.883  10.925  1.3105 -1.1102  1.3217
  326MPD2    H1 4899   4.566   1.981  11.311 -1.3904  0.3050  0.0184
  326MPD2    H2 4900   4.319   1.750  11.058 -0.2318 -0.4000 -1.6159
  326MPD2    H3 4901   4.342   1.881  11.255  1.2574 -0.0522  0.8679
  326MPD2     N 4902   0.038   2.020  11.150 -0.3633  0.7582  0.4093
  326MPD2    H5 4903   0.018   2.069  11.237  0.4287 -1.9143  2.1176
  326MPD2    N1 4904   4.506   1.716  10.867  0.5598  0.5230 -0.0128
  326MPD2    H7 4905   4.592   1.703  10.815 -0.0314 -0.1402 -0.8069
  327TMC3    C1 4906   4.411   1.541  10.736  0.5685 -0.5935 -0.2566
  327TMC3    C2 4907   4.317   1.558  10.639 -0.3111 -0.2045 -0.9976
  327TMC3    C3 4908   4.207   1.474  10.637  0.1159  0.8587  0.6625
  327TMC3    C4 4909   4.401   1.426  10.813 -0.6336 -0.4172  0.5121
  327TMC3    C5 4910   4.290   1.345  10.810 -0.5309  0.5368  0.1462
  327TMC3    C6 4911   4.190   1.367  10.726  0.5656 -0.2975  0.6691
  327TMC3     C 4912   4.393   1.654  10.816  0.2235  0.9763  0.1458
  327TMC3     O 4913   4.277   1.690  10.836 -0.2125 -0.4097  0.2772
  327TMC3     H 4914   4.320   1.645  10.575  1.3438  1.0099  0.7317
  327TMC3    H1 4915   4.473   1.417  10.894  0.1753 -1.4411 -0.3173
  327TMC3    H2 4916   4.101   1.306  10.724 -0.9431  1.8975  1.0019
  327TMC3    C7 4917   4.270   1.259  10.926  0.4269  0.2797 -0.0519
  327TMC3    C8 4918   4.082   1.532  10.591  0.1912 -0.2125 -0.4402
  327TMC3    O1 4919   4.162   1.273  10.986 -0.0238 -0.5003 -0.2191
  327TMC3    O2 4920   4.094   1.587  10.486  0.0169 -0.1069  0.0154
  328MPD2     C 4921   1.771   0.420  16.558  0.4914  0.6469  0.1386
  328MPD2    C1 4922   1.769   0.429  16.693  0.3877 -0.0161 -0.1881
  328MPD2    C2 4923   1.769   0.550  16.768  0.0471 -0.3606  0.2493
  328MPD2    C3 4924   1.770   0.665  16.695  0.2512  0.0050 -0.7580
  328MPD2    C4 4925   1.783   0.655  16.560  0.1115 -0.2810  0.6065
  328MPD2    C5 4926   1.787   0.533  16.490 -0.1168 -0.3341  0.2769
  328MPD2     H 4927   1.761   0.556  16.876 -1.8306 -0.0008  0.0855
  328MPD2    H1 4928   1.773   0.741  16.496 -1.0968  0.2087  1.4419
  328MPD2    H2 4929   1.751   0.326  16.508 -0.5025  1.7021 -1.4220
  328MPD2    H3 4930   1.784   0.552  16.383  0.2278  0.6416  0.4440
  328MPD2     N 4931   1.755   0.793  16.747  0.2390  0.0010 -0.5269
  328MPD2    H5 4932   1.722   0.860  16.679  3.9256  1.0473 -1.2534
  328MPD2    N1 4933   1.745   0.309  16.759 -0.8142  0.1773  0.7109
  328MPD2    H7 4934   1.758   0.220  16.712 -1.1234  0.9988 -0.9274
  329TMC3    C1 4935   1.706   0.146  16.924 -0.9012  0.1508 -0.5366
  329TMC3    C2 4936   1.634   0.112  17.037  0.0754 -0.0120  0.8142
  329TMC3    C3 4937   1.657   4.713  17.095  0.2004  0.0014  0.6742
  329TMC3    C4 4938   1.788   0.063  16.857  0.0384  0.5751 -0.2944
  329TMC3    C5 4939   1.810   4.666  16.921 -0.4315 -0.5363 -0.1087
  329TMC3    C6 4940   1.742   4.628  17.036 -0.1183  0.2231  0.0289
  329TMC3     C 4941   1.697   0.290  16.885  0.1471  0.7755  0.4318
  329TMC3     O 4942   1.651   0.374  16.960  0.4742  0.3924 -0.0767
  329TMC3     H 4943   1.557   0.178  17.074 -0.8642 -0.5951 -0.0773
  329TMC3    H1 4944   1.850   0.087  16.772  0.2699 -2.6163 -1.0399
  329TMC3    H2 4945   1.761   4.535  17.087  1.6034  0.0610 -0.8991
  329TMC3    C7 4946   1.870   4.559  16.842  0.0679  0.1356 -0.8019
  329TMC3    C8 4947   1.592   4.674  17.220  0.4783 -1.0295 -0.2422
  329TMC3    O1 4948   1.949   4.490  16.909  0.4588 -0.0239  0.0391
  329TMC3    O2 4949   1.578   4.554  17.245 -0.0857  0.2818  0.0709
  330TMC3    C1 4950   3.330   0.354  10.344 -0.1714 -0.2370  0.7550
  330TMC3    C2 4951   3.334   0.238  10.268  0.1303  0.0214  0.2519
  330TMC3    C3 4952   3.390   0.126  10.326 -0.3796 -0.5458  0.1072
  330TMC3    C4 4953   3.389   0.358  10.468  1.2102 -0.2209  0.6189
  330TMC3    C5 4954   3.436   0.238  10.515  0.3072  0.8119  0.3219
  330TMC3    C6 4955   3.436   0.121  10.456  0.5597 -0.4375 -0.8950
  330TMC3     C 4956   3.261   0.472  10.299  0.2615 -0.7778 -0.6718
  330TMC3     O 4957   3.285   0.575  10.361  0.0894  0.3904 -0.1630
  330TMC3     H 4958   3.285   0.236  10.171  0.0517  0.9286  0.2809
  330TMC3    H1 4959   3.395   0.445  10.532 -1.0641 -2.2020  3.5093
  330TMC3    H2 4960   3.471   0.032  10.507  1.4273  0.4183 -0.0041
  330TMC3    C7 4961   3.510   0.236  10.642 -0.5040  0.5141 -0.5443
  330TMC3    C8 4962   3.354   0.003  10.258  0.6268  0.4465 -0.0947
  330TMC3    O1 4963   3.587   0.140  10.655  0.2390 -0.0111 -0.2154
  330TMC3    O2 4964   3.303   0.022  10.149  0.3736 -0.3150 -0.9737
  331MPD2     C 4965   1.775   4.008  12.631 -0.2815 -0.2217  0.0176
  331MPD2    C1 4966   1.875   4.052  12.553 -0.3547 -0.6145  0.2000
  331MPD2    C2 4967   1.941   3.968  12.466 -0.3507 -0.1488 -0.0342
  331MPD2    C3 4968   1.893   3.845  12.446  0.0261 -0.1494  0.7382
  331MPD2    C4 4969   1.790   3.796  12.518 -1.3457  0.3783  0.6379
  331MPD2    C5 4970   1.734   3.874  12.618 -0.7912  0.5736 -0.2790
  331MPD2     H 4971   2.020   4.006  12.402 -1.4372  1.9111 -0.1548
  331MPD2    H1 4972   1.742   3.700  12.506 -0.4096  0.2069 -1.6959
  331MPD2    H2 4973   1.741   4.075  12.709  0.5892 -0.4352  0.5785
  331MPD2    H3 4974   1.653   3.837  12.680  1.0473 -1.5710  0.8088
  331MPD2     N 4975   1.959   3.768  12.346 -0.2568 -0.2928 -0.0573
  331MPD2    H5 4976   2.033   3.819  12.299  0.4082 -1.3972 -0.2106
  331MPD2    N1 4977   1.906   4.191  12.584 -0.2037  0.5918 -0.5815
  331MPD2    H7 4978   1.844   4.247  12.642 -0.5994 -0.1777 -0.2459
  332TMC3    C1 4979   2.070   3.580  12.264  0.4867 -0.2199  0.0293
  332TMC3    C2 4980   2.133   3.663  12.175 -0.9402 -0.0552  0.2063
  332TMC3    C3 4981   2.267   3.661  12.157  0.5470  0.1126  0.1342
  332TMC3    C4 4982   2.149   3.495  12.334 -0.1059 -0.4360  0.1105
  332TMC3    C5 4983   2.282   3.504  12.324 -0.0774  0.0356  0.1465
  332TMC3    C6 4984   2.348   3.579  12.230  0.7704 -0.2146  0.4837
  332TMC3     C 4985   1.949   3.633  12.336  0.4838  0.4629  1.1887
  332TMC3     O 4986   1.881   3.551  12.397  0.5549  0.0530 -0.5729
  332TMC3     H 4987   2.067   3.717  12.108 -1.8653 -1.1007  0.2734
  332TMC3    H1 4988   2.089   3.438  12.404  1.0430 -1.2310  0.4386
  332TMC3    H2 4989   2.454   3.598  12.218  0.1874  2.7144 -0.0306
  332TMC3    C7 4990   2.362   3.425  12.414 -0.3802 -0.6828 -0.0272
  332TMC3    C8 4991   2.331   3.773  12.087 -0.4650  0.3129 -0.0047
  332TMC3    O1 4992   2.312   3.317  12.448 -0.6368  0.0772 -0.6701
  332TMC3    O2 4993   2.436   3.810  12.140  0.3174  0.2737  0.2553
  333MPD2     C 4994   2.007   3.957  11.044 -0.4882  0.2128 -0.0821
  333MPD2    C1 4995   2.138   3.933  11.045 -0.1415 -0.2087  0.2032
  333MPD2    C2 4996   2.179   3.808  11.075  0.4488  0.1231 -0.6572
  333MPD2    C3 4997   2.087   3.709  11.104  0.4790 -0.0786 -0.4824
  333MPD2    C4 4998   1.954   3.738  11.098  0.3745  0.3185  0.3925
  333MPD2    C5 4999   1.909   3.863  11.068  0.5261 -0.6661 -0.2825
  333MPD2     H 5000   2.285   3.791  11.093  0.3931 -0.4148 -0.8391
  333MPD2    H1 5001   1.876   3.664  11.116 -0.1517  0.8877  0.4560
  333MPD2    H2 5002   1.978   4.056  11.012  1.3256  0.4446 -0.9990
  333MPD2    H3 5003   1.802   3.883  11.060  0.5200 -0.7356 -0.3729
  333MPD2     N 5004   2.135   3.581  11.140  0.1180  0.4192 -0.0802
  333MPD2    H5 5005   2.235   3.567  11.126  0.2589 -0.1043  1.4639
  333MPD2    N1 5006   2.216   4.046  11.022  0.0265  0.2223 -0.1516
  333MPD2    H7 5007   2.169   4.136  11.013 -1.9742 -0.7440  0.6884
  334TMC3    C1 5008   2.424   4.161  10.982 -0.1730 -0.5026 -0.3241
  334TMC3    C2 5009   2.540   4.164  10.914  0.9505 -1.3482  0.1976
  334TMC3    C3 5010   2.624   4.270  10.926  0.3646  0.7375 -0.0730
  334TMC3    C4 5011   2.385   4.267  11.059 -0.3399  0.2871  0.6151
  334TMC3    C5 5012   2.456   4.376  11.045 -0.2380  0.6866 -0.2755
  334TMC3    C6 5013   2.582   4.376  10.995 -0.5890  0.1833 -0.5027
  334TMC3     C 5014   2.352   4.030  10.999 -0.3759  0.1794 -0.2175
  334TMC3     O 5015   2.415   3.929  10.970  0.2434 -0.0261 -0.5088
  334TMC3     H 5016   2.571   4.076  10.859 -0.1252 -0.9347 -1.0712
  334TMC3    H1 5017   2.290   4.265  11.112 -0.3345 -1.0773  0.5744
  334TMC3    H2 5018   2.636   4.470  10.990  1.2829 -0.8501  0.1551
  334TMC3    C7 5019   2.388   4.497  11.084  0.2655 -0.6519 -0.9297
  334TMC3    C8 5020   2.759   4.248  10.910 -0.4850  0.1659  0.4100
  334TMC3    O1 5021   2.269   4.491  11.053  0.1641  0.0105 -0.7762
  334TMC3    O2 5022   2.789   4.158  10.835  0.0956 -0.1533 -0.1740
  335TMC3    C1 5023   2.319   0.892   0.014 -0.2561  0.1186 -0.2210
  335TMC3    C2 5024   2.231   0.815  17.636  0.8053 -0.4057 -0.6491
  335TMC3    C3 5025   2.265   0.784  17.508  0.4550  0.1259  0.0459
  335TMC3    C4 5026   2.442   0.920  17.656  0.3241 -0.0500 -0.2479
  335TMC3    C5 5027   2.466   0.892  17.529  0.0837  1.0920  0.9364
  335TMC3    C6 5028   2.386   0.818  17.452 -0.5434  0.6465 -0.1977
  335TMC3     C 5029   2.316   0.908   0.158  0.1215  0.3066 -0.1936
  335TMC3     O 5030   2.414   0.943   0.217  0.1138 -0.1036  0.4246
  335TMC3     H 5031   2.135   0.784  17.675  0.2211  1.4312 -0.6387
  335TMC3    H1 5032   2.512   0.984   0.015  0.0674  1.2024 -1.4540
  335TMC3    H2 5033   2.411   0.762  17.363  0.0316 -1.0368  1.0148
  335TMC3    C7 5034   2.606   0.910  17.483 -0.1959  0.1983 -0.0563
  335TMC3    C8 5035   2.186   0.673  17.454  0.4290  0.0520  0.4062
  335TMC3    O1 5036   2.605   0.926  17.363 -0.0369 -0.7436  0.1647
  335TMC3    O2 5037   2.146   0.591  17.536 -0.0396 -0.4701  0.0851
  336MPD2     C 5038   2.271   3.645  16.296 -0.2001  0.1829  0.0272
  336MPD2    C1 5039   2.276   3.582  16.175  0.0632 -0.3107  0.2284
  336MPD2    C2 5040   2.293   3.447  16.173  0.3555  0.0086  0.1018
  336MPD2    C3 5041   2.300   3.370  16.285  0.6734  0.2711  0.0055
  336MPD2    C4 5042   2.307   3.432  16.406 -0.4190 -0.6348 -0.0840
  336MPD2    C5 5043   2.286   3.572  16.406  0.0994 -0.5375 -0.2756
  336MPD2     H 5044   2.301   3.406  16.073 -0.5048  3.1630 -1.2683
  336MPD2    H1 5045   2.322   3.373  16.495  2.0080  1.1959  0.6922
  336MPD2    H2 5046   2.249   3.751  16.306 -0.3556  0.2440 -0.8897
  336MPD2    H3 5047   2.279   3.627  16.499  1.9865 -3.0663  1.3886
  336MPD2     N 5048   2.306   3.233  16.275  0.0867  0.0858  1.0293
  336MPD2    H5 5049   2.314   3.188  16.366  1.8057 -1.5511  0.0569
  336MPD2    N1 5050   2.265   3.648  16.049  0.2965  0.4341  1.1792
  336MPD2    H7 5051   2.267   3.596  15.963 -1.7823 -1.8464  2.4989
  337TMC3    C1 5052   2.184   3.801  15.911  0.1664 -0.4262 -0.7429
  337TMC3    C2 5053   2.065   3.738  15.881  0.6448  0.3709  0.1805
  337TMC3    C3 5054   1.974   3.802  15.799  0.2414 -0.1061 -0.4539
  337TMC3    C4 5055   2.208   3.924  15.859  0.1098  0.4805 -0.2014
  337TMC3    C5 5056   2.109   3.983  15.784 -0.4662  0.6667  0.3720
  337TMC3    C6 5057   1.996   3.923  15.755 -0.1355  0.0802  0.3640
  337TMC3     C 5058   2.235   3.778  16.042 -0.7483 -0.1093  0.0633
  337TMC3     O 5059   2.236   3.869  16.118  0.0799 -0.4649  0.3808
  337TMC3     H 5060   2.040   3.639  15.917 -2.7187  1.0585 -0.2502
  337TMC3    H1 5061   2.293   3.984  15.890  0.5963  0.7223 -2.0159
  337TMC3    H2 5062   1.925   3.979  15.695 -0.5261  2.8920  3.4256
  337TMC3    C7 5063   2.128   4.112  15.733 -0.5517  0.1361 -0.6638
  337TMC3    C8 5064   1.847   3.742  15.771  0.9775  0.1259 -0.4065
  337TMC3    O1 5065   2.026   4.179  15.712  0.1497  0.4428  0.0415
  337TMC3    O2 5066   1.820   3.658  15.850  0.3633  0.4417  0.0474
  338MPD2     C 5067   2.514   2.963   0.817  0.3129 -0.3377  0.0595
  338MPD2    C1 5068   2.409   2.920   0.734 -0.2520  0.4561  1.2615
  338MPD2    C2 5069   2.286   2.966   0.771 -0.6347 -0.2749  0.8791
  338MPD2    C3 5070   2.272   3.049   0.881  0.1278 -0.0635  0.0586
  338MPD2    C4 5071   2.381   3.087   0.956  0.2882  0.0455  0.4875
  338MPD2    C5 5072   2.502   3.045   0.921 -0.0220  0.2076  0.6580
  338MPD2     H 5073   2.203   2.933   0.709 -0.7354  1.9641 -0.1774
  338MPD2    H1 5074   2.376   3.159   1.036  1.9434  1.2807 -0.5381
  338MPD2    H2 5075   2.619   2.954   0.791  0.4881 -0.7329  0.9292
  338MPD2    H3 5076   2.585   3.077   0.982  1.7334 -0.0478 -1.6034
  338MPD2     N 5077   2.142   3.088   0.910 -0.6679  0.1607 -0.7047
  338MPD2    H5 5078   2.063   3.055   0.854  0.9148 -1.4487 -1.9798
  338MPD2    N1 5079   2.433   2.826   0.625 -0.1100  0.0350 -0.1215
  338MPD2    H7 5080   2.351   2.792   0.577  0.5110  0.1543 -1.2698
  339TMC3    C1 5081   1.959   3.178   1.032  0.4943 -0.5020  0.0944
  339TMC3    C2 5082   1.901   3.178   1.152  0.0408  0.7474 -0.3644
  339TMC3    C3 5083   1.767   3.185   1.156  0.4281 -0.3448 -0.5478
  339TMC3    C4 5084   1.897   3.199   0.912  0.0807 -0.4332  0.2894
  339TMC3    C5 5085   1.760   3.229   0.916  0.4509 -0.1078 -0.7498
  339TMC3    C6 5086   1.694   3.219   1.044  0.0625 -0.3502  0.0999
  339TMC3     C 5087   2.103   3.153   1.021 -0.3747 -0.2426  0.2649
  339TMC3     O 5088   2.169   3.174   1.122 -0.0191  0.0716 -0.0145
  339TMC3     H 5089   1.965   3.170   1.240  2.3588 -1.4235 -2.2329
  339TMC3    H1 5090   1.949   3.192   0.817  0.1621  2.2333  0.1614
  339TMC3    H2 5091   1.585   3.222   1.044  0.0044 -2.1656 -0.7932
  339TMC3    C7 5092   1.685   3.163   0.815 -0.0207 -0.4819  0.2682
  339TMC3    C8 5093   1.700   3.202   1.283 -0.8248  0.0416 -0.1942
  339TMC3    O1 5094   1.596   3.086   0.850 -0.3573  0.1792  0.4680
  339TMC3    O2 5095   1.596   3.265   1.280 -0.2642  0.6691  0.6877
  340MPD2     C 5096   1.802   1.089   9.809  0.2437 -0.0682 -0.1422
  340MPD2    C1 5097   1.870   0.983   9.861 -0.2123 -0.3441  0.0265
  340MPD2    C2 5098   1.961   1.002   9.958 -0.5194  0.1429  0.0492
  340MPD2    C3 5099   1.979   1.129  10.015 -0.1695  0.5577 -1.0296
  340MPD2    C4 5100   1.911   1.236   9.959 -0.3912 -0.0164  0.0370
  340MPD2    C5 5101   1.821   1.212   9.864  0.4895 -0.2724  0.0130
  340MPD2     H 5102   2.020   0.922  10.001 -1.0466 -0.4353 -0.2941
  340MPD2    H1 5103   1.937   1.335   9.997 -1.1322  0.1060  0.2293
  340MPD2    H2 5104   1.737   1.073   9.724 -0.8681 -0.3779  0.7736
  340MPD2    H3 5105   1.770   1.294   9.814 -0.5559  0.3512  2.0835
  340MPD2     N 5106   2.081   1.164  10.113 -0.1839  0.1037  0.6628
  340MPD2    H5 5107   2.089   1.259  10.148  0.5876  0.8759 -1.5954
  340MPD2    N1 5108   1.834   0.860   9.808  0.0305 -0.0713 -0.9599
  340MPD2    H7 5109   1.758   0.863   9.741 -0.6882 -0.4544 -0.1455
  341TMC3    C1 5110   1.854   0.633   9.736  0.6988 -0.9399  0.3270
  341TMC3    C2 5111   1.762   0.659   9.637 -0.0369  0.1917  0.0620
  341TMC3    C3 5112   1.761   0.559   9.538 -0.0178 -0.4495  0.3784
  341TMC3    C4 5113   1.921   0.517   9.747 -0.0949  0.0987 -0.6415
  341TMC3    C5 5114   1.908   0.424   9.652 -1.1412  0.4294 -0.4664
  341TMC3    C6 5115   1.828   0.441   9.541 -0.1118  0.2124 -0.4409
  341TMC3     C 5116   1.889   0.731   9.837 -0.9871 -0.2890 -0.1506
  341TMC3     O 5117   1.967   0.706   9.927 -0.0374 -0.5652  0.2413
  341TMC3     H 5118   1.687   0.734   9.657 -0.1078  0.6173 -1.7629
  341TMC3    H1 5119   1.990   0.500   9.829 -1.9903 -0.0305  0.9207
  341TMC3    H2 5120   1.828   0.367   9.462 -2.7980  1.3434 -1.4956
  341TMC3    C7 5121   1.989   0.306   9.673  0.1055 -0.0349  0.0163
  341TMC3    C8 5122   1.669   0.561   9.428 -0.5580  0.4005  0.6448
  341TMC3    O1 5123   2.023   0.285   9.786 -0.2502 -0.5546  0.5654
  341TMC3    O2 5124   1.640   0.461   9.373 -0.0744 -0.6109  0.3921
  342MPD2     C 5125   0.225   4.014  17.550 -0.6815 -0.7343  0.0978
  342MPD2    C1 5126   0.359   4.040  17.512  0.5938 -0.2013  0.1620
  342MPD2    C2 5127   0.423   4.159  17.559  0.2329 -0.7361  1.1814
  342MPD2    C3 5128   0.347   4.243  17.647 -0.5818  0.0155  0.5213
  342MPD2    C4 5129   0.216   4.224  17.666  0.1183  0.2529 -0.5271
  342MPD2    C5 5130   0.158   4.113  17.621 -0.2763 -0.5401 -0.6050
  342MPD2     H 5131   0.529   4.176  17.548  0.1610 -0.0755  1.4895
  342MPD2    H1 5132   0.159   4.309   0.010 -1.2073 -1.0858  0.5009
  342MPD2    H2 5133   0.171   3.921  17.537  1.6237 -2.1123  0.4213
  342MPD2    H3 5134   0.051   4.100  17.633 -0.1594 -2.9121 -2.1892
  342MPD2     N 5135   0.406   4.356   0.029  0.0217  0.6175 -0.6121
  342MPD2    H5 5136   0.343   4.421   0.074 -1.0789 -1.8851  1.4815
  342MPD2    N1 5137   0.439   3.943  17.443  0.0888 -0.0930 -0.0873
  342MPD2    H7 5138   0.533   3.973  17.423 -0.0232 -0.9619 -1.9439
  343TMC3    C1 5139   0.497   3.723  17.352  0.5154  0.0366 -0.2461
  343TMC3    C2 5140   0.578   3.769  17.251  0.3072  0.0360 -0.6201
  343TMC3    C3 5141   0.648   3.670  17.185 -0.0656  0.4471  0.4510
  343TMC3    C4 5142   0.476   3.593  17.376 -0.4133 -0.0523 -0.6497
  343TMC3    C5 5143   0.554   3.499  17.317  0.2779 -1.2076 -0.7234
  343TMC3    C6 5144   0.635   3.534  17.209 -0.1898  0.0196 -0.6094
  343TMC3     C 5145   0.402   3.814  17.412  0.6254  0.1213 -0.3870
  343TMC3     O 5146   0.296   3.762  17.447  0.0182  0.3568 -0.2474
  343TMC3     H 5147   0.586   3.873  17.222  3.2455 -0.6603 -2.3653
  343TMC3    H1 5148   0.419   3.559  17.462  0.1385  1.9992  0.5389
  343TMC3    H2 5149   0.691   3.455  17.161 -0.6818 -0.9268  0.3557
  343TMC3    C7 5150   0.512   3.359  17.322  1.0709 -0.5510 -0.4950
  343TMC3    C8 5151   0.772   3.717  17.140 -1.5805 -0.4390  0.0986
  343TMC3    O1 5152   0.517   3.295  17.218 -0.2319  0.0134  0.3388
  343TMC3    O2 5153   0.806   3.834  17.151  0.0794  0.1773 -0.0016
  344MPD2     C 5154   1.549   3.437  10.557 -0.3913 -0.0959  0.1884
  344MPD2    C1 5155   1.424   3.445  10.518 -0.6612 -0.0209  0.4417
  344MPD2    C2 5156   1.380   3.520  10.420  0.3582 -0.3927  0.6665
  344MPD2    C3 5157   1.466   3.613  10.358  0.9004  0.7900 -0.4374
  344MPD2    C4 5158   1.591   3.617  10.403 -0.2513  0.9523  0.3381
  344MPD2    C5 5159   1.631   3.521  10.492  0.3487  0.4614 -0.6629
  344MPD2     H 5160   1.275   3.520  10.396  1.0090 -0.3926 -2.1489
  344MPD2    H1 5161   1.665   3.678  10.354  0.4402  0.2528  0.5129
  344MPD2    H2 5162   1.586   3.365  10.628 -1.7807 -1.0758 -0.0758
  344MPD2    H3 5163   1.735   3.506  10.518  0.3246  0.2707 -0.6808
  344MPD2     N 5164   1.425   3.692  10.251  0.4359  0.0761 -0.7449
  344MPD2    H5 5165   1.475   3.781  10.251 -0.9496  0.8486 -1.6299
  344MPD2    N1 5166   1.325   3.353  10.563 -0.2311 -0.3487 -0.0847
  344MPD2    H7 5167   1.244   3.335  10.504 -0.4019  1.4761 -0.4310
  345TMC3    C1 5168   1.280   3.800  10.100  0.6224  0.1019  0.3226
  345TMC3    C2 5169   1.313   3.917  10.158 -0.4447 -0.0093  0.0810
  345TMC3    C3 5170   1.275   4.023  10.092 -0.2823  0.4267 -0.3907
  345TMC3    C4 5171   1.197   3.785   9.988  0.9607 -0.6332  0.3739
  345TMC3    C5 5172   1.154   3.902   9.938 -0.0229  0.0069  0.3571
  345TMC3    C6 5173   1.203   4.020   9.973 -0.3944  0.3031 -0.0078
  345TMC3     C 5174   1.312   3.676  10.174 -0.2082  0.1946  0.0101
  345TMC3     O 5175   1.241   3.573  10.164 -0.3686 -0.1968 -0.0928
  345TMC3     H 5176   1.348   3.918  10.261  1.0002 -0.6312 -0.4047
  345TMC3    H1 5177   1.185   3.685   9.947  0.9743 -0.1479 -0.7961
  345TMC3    H2 5178   1.158   4.108   9.928  0.2189  0.9113  0.5827
  345TMC3    C7 5179   1.053   3.907   9.833  0.2133  0.1329 -0.6620
  345TMC3    C8 5180   1.313   4.159  10.132 -0.2900  0.5028  0.5320
  345TMC3    O1 5181   1.019   4.017   9.793  0.3265 -0.4017 -0.2207
  345TMC3    O2 5182   1.278   4.245  10.053 -0.3087 -0.4860  0.3774
  346MPD2     C 5183   1.427   0.121  13.738 -0.0643  0.1278 -0.7817
  346MPD2    C1 5184   1.550   0.175  13.769  0.0850  0.1831  0.9062
  346MPD2    C2 5185   1.570   0.262  13.873 -0.2682  0.9139  0.3079
  346MPD2    C3 5186   1.472   0.287  13.967 -0.4617 -0.1860  0.1941
  346MPD2    C4 5187   1.345   0.231  13.944  0.3000  0.1926 -0.3843
  346MPD2    C5 5188   1.330   0.150  13.832 -0.1033  0.6355  0.0608
  346MPD2     H 5189   1.664   0.316  13.887  0.4207 -0.3560  0.5391
  346MPD2    H1 5190   1.268   0.244  14.019  0.2366  0.3176 -0.4705
  346MPD2    H2 5191   1.403   0.065  13.648  0.6111  0.2195 -1.0177
  346MPD2    H3 5192   1.234   0.110  13.802  0.6317 -1.2293  0.1828
  346MPD2     N 5193   1.501   0.369  14.081 -0.3765 -0.3954  0.0140
  346MPD2    H5 5194   1.587   0.422  14.067 -0.0475 -1.1100 -0.6678
  346MPD2    N1 5195   1.662   0.166  13.681 -0.8111 -0.1716  0.1200
  346MPD2    H7 5196   1.747   0.217  13.703 -1.0981 -0.5197  2.0381
  347TMC3    C1 5197   1.486   0.475  14.297 -0.1786  0.2174  0.6141
  347TMC3    C2 5198   1.626   0.468  14.319  0.5175 -0.8785 -0.0412
  347TMC3    C3 5199   1.667   0.536  14.433 -0.4834  0.0411  0.6347
  347TMC3    C4 5200   1.401   0.543  14.378 -0.2186 -0.5431 -0.4135
  347TMC3    C5 5201   1.450   0.608  14.497 -0.4326 -0.2883 -0.3292
  347TMC3    C6 5202   1.582   0.599  14.522  0.3096  0.3216 -0.5231
  347TMC3     C 5203   1.421   0.394  14.187  0.0541  0.2602 -0.1496
  347TMC3     O 5204   1.302   0.377  14.200 -0.4858 -0.1355  0.2000
  347TMC3     H 5205   1.692   0.412  14.253 -0.0919  0.1432 -1.5317
  347TMC3    H1 5206   1.293   0.545  14.362  0.0429  0.0197 -2.0335
  347TMC3    H2 5207   1.612   0.655  14.609  0.5777 -2.7418  1.3614
  347TMC3    C7 5208   1.351   0.625  14.599  0.3293 -1.0449  0.1356
  347TMC3    C8 5209   1.807   0.545  14.456  0.3853  0.0890 -0.7125
  347TMC3    O1 5210   1.266   0.538  14.601 -0.3220  0.0296 -0.1446
  347TMC3    O2 5211   1.873   0.457  14.405 -0.3759 -0.3559  0.1401
  348MPD2     C 5212   0.135   0.239  12.392 -0.4618  0.7125  0.2113
  348MPD2    C1 5213   0.124   0.216  12.258 -0.5558 -0.0781  0.1980
  348MPD2    C2 5214   0.063   0.310  12.178 -1.0329 -0.4043  0.1393
  348MPD2    C3 5215   0.007   0.426  12.229  0.3277 -0.1285 -0.8601
  348MPD2    C4 5216   0.019   0.451  12.366 -0.4019  0.1678 -0.0725
  348MPD2    C5 5217   0.075   0.350  12.445  0.4969 -0.4172  0.2995
  348MPD2     H 5218   0.065   0.289  12.072  1.0221  0.7401 -0.0508
  348MPD2    H1 5219   4.696   0.535  12.418 -1.6500 -1.2428  1.0896
  348MPD2    H2 5220   0.183   0.169  12.461  0.8594 -0.2312 -1.6596
  348MPD2    H3 5221   0.083   0.367  12.552 -0.9567  0.0436  0.3324
  348MPD2     N 5222   4.658   0.512  12.143 -0.3246  0.2005  0.4716
  348MPD2    H5 5223   4.660   0.492  12.044 -1.3002  0.1304  0.4636
  348MPD2    N1 5224   0.166   0.096  12.193 -0.1495  1.3585 -0.2296
  348MPD2    H7 5225   0.144   0.080  12.095 -0.1311  2.0867 -0.3536
  349TMC3    C1 5226   0.210   4.601  12.163 -0.1779 -0.2431 -1.2753
  349TMC3    C2 5227   0.295   4.490  12.186 -0.2411  0.0045 -0.6119
  349TMC3    C3 5228   0.287   4.388  12.096  0.3602 -0.5274  0.2166
  349TMC3    C4 5229   0.101   4.598  12.081 -0.0296  0.0013 -1.2677
  349TMC3    C5 5230   0.092   4.488  11.998  0.1178  0.3316  0.1874
  349TMC3    C6 5231   0.188   4.382  11.998 -0.4572  1.0371 -0.3160
  349TMC3     C 5232   0.212   4.710  12.254  0.2214  0.0166 -0.0456
  349TMC3     O 5233   0.266   4.692  12.364  0.1520 -0.0110  0.0280
  349TMC3     H 5234   0.368   4.482  12.265 -0.7053  0.6883 -0.1090
  349TMC3    H1 5235   0.020   4.670  12.088 -0.4116 -0.6225  0.7260
  349TMC3    H2 5236   0.176   4.295  11.935  0.6761  0.4419  0.2854
  349TMC3    C7 5237   4.713   4.476  11.898  0.2593 -0.4833  0.4102
  349TMC3    C8 5238   0.359   4.273  12.122 -0.8241  0.0105 -0.3462
  349TMC3    O1 5239   4.702   4.367  11.843  0.6922  0.4853 -0.3811
  349TMC3    O2 5240   0.357   4.231  12.236 -0.0606 -0.0903 -0.0216
  350MPD2     C 5241   3.922   2.606   9.748 -0.3157 -0.6766  1.2321
  350MPD2    C1 5242   3.804   2.633   9.820  1.0361 -0.1070  0.0396
  350MPD2    C2 5243   3.810   2.754   9.889 -0.0985 -1.1857 -0.2891
  350MPD2    C3 5244   3.901   2.851   9.870 -0.0877  0.3177 -0.1371
  350MPD2    C4 5245   4.010   2.826   9.792 -0.7287 -0.0732  0.7534
  350MPD2    C5 5246   4.025   2.703   9.732  0.3552 -0.4428 -0.5396
  350MPD2     H 5247   3.730   2.787   9.955  0.2958 -3.5333  1.3801
  350MPD2    H1 5248   4.087   2.901   9.782 -0.5714 -0.3313  0.0385
  350MPD2    H2 5249   3.944   2.513   9.697 -0.5120  0.4223 -0.8683
  350MPD2    H3 5250   4.119   2.672   9.689  1.8972  0.0176  2.4807
  350MPD2     N 5251   3.893   2.970   9.946 -0.3935 -0.1452  0.2434
  350MPD2    H5 5252   3.832   2.983  10.025 -0.8071  0.9351 -0.2517
  350MPD2    N1 5253   3.698   2.534   9.836  0.2071  0.2796 -0.3794
  350MPD2    H7 5254   3.611   2.566   9.878 -0.1835 -0.9948 -0.2233
  351TMC3    C1 5255   3.589   2.338   9.776  0.3586  0.2266 -0.0561
  351TMC3    C2 5256   3.595   2.201   9.804 -0.5078 -0.0215 -0.3059
  351TMC3    C3 5257   3.485   2.131   9.756  0.8630  0.2498 -0.0009
  351TMC3    C4 5258   3.488   2.399   9.709 -0.8336 -0.0624 -0.6844
  351TMC3    C5 5259   3.383   2.323   9.662 -0.0140  0.4956  0.5069
  351TMC3    C6 5260   3.376   2.189   9.686 -0.2994 -0.6421 -0.1840
  351TMC3     C 5261   3.718   2.401   9.811 -0.4338  0.2841  0.9141
  351TMC3     O 5262   3.822   2.338   9.803  0.1659 -0.2301 -0.0107
  351TMC3     H 5263   3.672   2.163   9.870 -0.7030  2.0278  1.0857
  351TMC3    H1 5264   3.499   2.503   9.679  0.6964  0.2616  1.0760
  351TMC3    H2 5265   3.303   2.122   9.642 -2.3622  1.6574 -0.3404
  351TMC3    C7 5266   3.271   2.392   9.590 -0.3889  0.3808 -0.4199
  351TMC3    C8 5267   3.467   1.992   9.795  0.0049 -0.0260 -0.0983
  351TMC3    O1 5268   3.295   2.504   9.545 -0.4490 -0.6328 -0.2613
  351TMC3    O2 5269   3.362   1.936   9.749  0.3852 -0.2864 -0.6060
  352MPD2     C 5270   2.620   0.358   1.128 -0.3551  0.0349  0.3470
  352MPD2    C1 5271   2.489   0.314   1.132 -0.2667  0.2560 -0.8426
  352MPD2    C2 5272   2.456   0.194   1.193  0.7433  1.2612 -0.2005
  352MPD2    C3 5273   2.558   0.113   1.243  0.0042  0.0814 -0.4294
  352MPD2    C4 5274   2.687   0.156   1.240 -0.5576 -0.7045 -0.5301
  352MPD2    C5 5275   2.719   0.278   1.188  0.3629 -0.5557 -0.3246
  352MPD2     H 5276   2.354   0.159   1.205 -0.0900  3.0946 -2.0681
  352MPD2    H1 5277   2.773   0.112   1.289 -0.9234 -1.6937 -0.7843
  352MPD2    H2 5278   2.646   0.453   1.083 -0.0167 -0.1501  0.1475
  352MPD2    H3 5279   2.821   0.314   1.194 -0.2433  1.1222 -0.1601
  352MPD2     N 5280   2.532   4.707   1.303 -0.1575  0.3420  0.4328
  352MPD2    H5 5281   2.613   4.657   1.338  0.6303  1.3717  0.0783
  352MPD2    N1 5282   2.391   0.407   1.084 -0.2028 -0.5341 -0.2574
  352MPD2    H7 5283   2.421   0.498   1.049 -1.2250 -0.2472 -0.3859
  353TMC3    C1 5284   2.420   4.522   1.385  0.1739 -0.0120 -0.2672
  353TMC3    C2 5285   2.547   4.472   1.399 -0.8259  0.5551  0.1302
  353TMC3    C3 5286   2.561   4.352   1.454  0.3273 -0.0669  0.3892
  353TMC3    C4 5287   2.303   4.456   1.413 -0.2121 -0.2948  0.0561
  353TMC3    C5 5288   2.325   4.343   1.482 -0.0016  0.0655  0.0869
  353TMC3    C6 5289   2.454   4.288   1.506  0.0411  0.4996 -0.2512
  353TMC3     C 5290   2.408   4.651   1.324  0.3243 -0.5544 -0.0287
  353TMC3     O 5291   2.298   4.682   1.289 -0.3203 -0.0639 -0.3807
  353TMC3     H 5292   2.638   4.508   1.352 -0.2162  3.6000  3.6511
  353TMC3    H1 5293   2.206   4.497   1.389  0.2966  0.1361 -1.2680
  353TMC3    H2 5294   2.468   4.188   1.544 -2.2480  0.9263  1.7324
  353TMC3    C7 5295   2.214   4.260   1.509  0.0717  0.3703  0.9787
  353TMC3    C8 5296   2.663   4.268   1.394  0.1472 -0.0031 -0.0035
  353TMC3    O1 5297   2.229   4.138   1.526 -0.5907 -0.1523  0.1187
  353TMC3    O2 5298   2.707   4.314   1.291  0.7673 -0.2072 -0.0341
  354TMC3    C1 5299   4.493   1.574  13.475 -0.4272 -0.5640 -0.4097
  354TMC3    C2 5300   4.486   1.666  13.382  0.3834  0.3305  0.0378
  354TMC3    C3 5301   4.551   1.649  13.267  0.0723 -0.0505 -0.1423
  354TMC3    C4 5302   4.563   1.458  13.459  0.1377 -1.1823  0.0476
  354TMC3    C5 5303   4.609   1.434  13.328  0.0774  0.5588 -0.6404
  354TMC3    C6 5304   4.620   1.537  13.240  0.1798  0.2132  0.3769
  354TMC3     C 5305   4.413   1.586  13.592  0.6884 -0.5770  0.1794
  354TMC3     O 5306   4.306   1.652  13.599  0.1485  0.5020  0.2127
  354TMC3     H 5307   4.436   1.758  13.409 -2.0175 -1.4593  1.6665
  354TMC3    H1 5308   4.537   1.372  13.519 -0.1197 -1.8886 -1.0598
  354TMC3    H2 5309   4.675   1.524  13.147 -2.1176  1.5196 -1.1473
  354TMC3    C7 5310   4.667   1.301  13.310 -0.2900  0.3287  0.3138
  354TMC3    C8 5311   4.496   1.711  13.156  0.1684 -0.5860 -0.2738
  354TMC3    O1 5312   4.685   1.232  13.410 -0.0766  0.4810 -0.1572
  354TMC3    O2 5313   4.490   1.641  13.060  0.1607  0.3909 -0.0569
  355MPD2     C 5314   4.143   2.059  11.512  0.2280 -0.3062  0.4004
  355MPD2    C1 5315   4.232   2.108  11.415 -0.7120 -0.2487  0.3181
  355MPD2    C2 5316   4.367   2.131  11.458  0.5702  0.8444  0.5229
  355MPD2    C3 5317   4.412   2.105  11.586  0.6375 -0.3117  0.1678
  355MPD2    C4 5318   4.324   2.063  11.679 -0.8502  0.5313  0.0190
  355MPD2    C5 5319   4.190   2.042  11.639  0.5409  0.0956  0.2147
  355MPD2     H 5320   4.437   2.182  11.393  0.8910 -0.1040  0.1296
  355MPD2    H1 5321   4.350   2.040  11.781 -2.0820  2.8919  0.8704
  355MPD2    H2 5322   4.035   2.052  11.506  0.1023  1.2224  0.8747
  355MPD2    H3 5323   4.115   1.996  11.702 -0.6413  1.1825 -0.3947
  355MPD2     N 5324   4.548   2.125  11.631 -0.7779  0.0675 -0.2171
  355MPD2    H5 5325   4.562   2.110  11.730  1.5689  1.5104 -0.3370
  355MPD2    N1 5326   4.182   2.128  11.283  1.1357 -0.2694 -0.2211
  355MPD2    H7 5327   4.084   2.109  11.264  0.3475  1.3312  2.2909
  356TMC3    C1 5328   0.050   2.185  11.614  0.7682  0.1162  0.0541
  356TMC3    C2 5329   0.161   2.190  11.530 -0.6518  0.5079  0.9118
  356TMC3    C3 5330   0.260   2.286  11.556 -0.7799 -0.0428  0.6304
  356TMC3    C4 5331   0.043   2.265  11.724 -0.1902  0.3852  0.7286
  356TMC3    C5 5332   0.150   2.350  11.746  0.0853 -0.4857  0.2822
  356TMC3    C6 5333   0.262   2.366  11.668  0.2305 -0.0706 -0.0050
  356TMC3     C 5334   4.647   2.147  11.548 -0.3224  0.1926  0.3665
  356TMC3     O 5335   4.659   2.142  11.426 -0.2237  0.4022  0.0164
  356TMC3     H 5336   0.169   2.135  11.437  2.4134  1.4693  0.5812
  356TMC3    H1 5337   4.680   2.263  11.790 -0.2437 -1.8888  0.5730
  356TMC3    H2 5338   0.348   2.428  11.688 -0.1112 -0.3259  2.2845
  356TMC3    C7 5339   0.152   2.418  11.874  0.4170  0.4231 -0.3476
  356TMC3    C8 5340   0.370   2.306  11.463  0.3385  0.2792  0.6768
  356TMC3    O1 5341   0.099   2.358  11.969  0.3557 -0.3199  0.2830
  356TMC3    O2 5342   0.419   2.212  11.403 -0.2405 -0.2328 -0.0965
  357MPD2     C 5343   3.857   2.423   1.258 -0.2252 -0.0017  1.1784
  357MPD2    C1 5344   3.834   2.379   1.384 -0.1605  0.2372  0.8028
  357MPD2    C2 5345   3.708   2.358   1.426  0.0284  0.7468 -0.0052
  357MPD2    C3 5346   3.601   2.385   1.340  0.0411  0.1285 -0.5803
  357MPD2    C4 5347   3.620   2.426   1.207  0.4492 -0.3427 -0.1711
  357MPD2    C5 5348   3.751   2.446   1.172 -0.3365  0.1351 -0.1608
  357MPD2     H 5349   3.689   2.333   1.530 -0.2660 -1.0148 -0.4783
  357MPD2    H1 5350   3.543   2.444   1.133  2.6193 -2.2131 -2.9092
  357MPD2    H2 5351   3.953   2.425   1.208  0.1923 -0.6828  1.9522
  357MPD2    H3 5352   3.771   2.480   1.071  1.7297  2.5480  1.0771
  357MPD2     N 5353   3.464   2.367   1.374  0.4026  0.0445  0.5976
  357MPD2    H5 5354   3.397   2.384   1.300  1.0487  0.7070  0.1707
  357MPD2    N1 5355   3.954   2.354   1.458 -0.4440  0.2947  0.1839
  357MPD2    H7 5356   4.043   2.351   1.409 -0.2087  0.1904  0.6226
  358TMC3    C1 5357   4.091   2.229   1.607 -0.0038 -0.0401 -0.5095
  358TMC3    C2 5358   4.125   2.137   1.515 -0.2649 -0.6591  0.0452
  358TMC3    C3 5359   4.239   2.064   1.525 -0.5509  0.0812  0.1996
  358TMC3    C4 5360   4.157   2.243   1.727  0.6162 -0.3220  0.5728
  358TMC3    C5 5361   4.269   2.166   1.734 -0.1743  0.3668 -0.3196
  358TMC3    C6 5362   4.324   2.081   1.637  0.2790 -0.1147  0.3030
  358TMC3     C 5363   3.967   2.301   1.585  0.3076  0.3498  0.2530
  358TMC3     O 5364   3.888   2.318   1.677 -0.9900  0.0489  0.1201
  358TMC3     H 5365   4.067   2.130   1.423  0.0075  0.4119 -0.2088
  358TMC3    H1 5366   4.136   2.329   1.790  1.4445 -1.0248  1.8069
  358TMC3    H2 5367   4.400   2.012   1.671  0.9635  1.7948  2.6377
  358TMC3    C7 5368   4.361   2.193   1.840 -0.0195 -0.2816  0.3838
  358TMC3    C8 5369   4.266   1.962   1.422  0.6254  0.5589  0.2378
  358TMC3    O1 5370   4.474   2.147   1.823  0.0386 -0.0744  0.0751
  358TMC3    O2 5371   4.180   1.950   1.337  0.0035 -0.0822  0.5275
  359MPD2     C 5372   4.692   1.459  12.574  0.3271 -0.4853 -0.2596
  359MPD2    C1 5373   4.654   1.355  12.497 -0.2153  0.2181  0.1716
  359MPD2    C2 5374   4.521   1.312  12.504  0.0060 -0.2945  0.2415
  359MPD2    C3 5375   4.430   1.372  12.587 -0.2195 -0.6210  0.5848
  359MPD2    C4 5376   4.470   1.489  12.656 -0.3650  0.8624  0.3907
  359MPD2    C5 5377   4.599   1.529  12.650  0.2869 -0.3893  0.4779
  359MPD2     H 5378   4.502   1.215  12.461 -0.1374  0.4983 -1.4630
  359MPD2    H1 5379   4.405   1.536  12.729 -1.8896  0.7813 -0.9065
  359MPD2    H2 5380   0.071   1.496  12.577 -0.0572  0.6220 -0.9417
  359MPD2    H3 5381   4.639   1.612  12.706 -0.9288  0.1446  0.5605
  359MPD2     N 5382   4.305   1.322  12.621 -0.1633 -0.4236 -0.2264
  359MPD2    H5 5383   4.251   1.373  12.690  2.5756  0.3012  1.4079
  359MPD2    N1 5384   0.022   1.291  12.408 -0.4024 -0.9756  0.1493
  359MPD2    H7 5385   4.706   1.210  12.361  0.9915  0.4834 -3.5132
  360TMC3    C1 5386   0.189   1.265  12.249 -0.5627  0.5307 -0.6266
  360TMC3    C2 5387   0.316   1.291  12.220  0.3666 -0.4079  0.2908
  360TMC3    C3 5388   0.393   1.201  12.155 -0.5783 -0.1281 -0.5482
  360TMC3    C4 5389   0.122   1.165  12.188 -0.1360  0.2726 -0.2630
  360TMC3    C5 5390   0.193   1.081  12.102 -0.6670 -0.1904 -0.0822
  360TMC3    C6 5391   0.332   1.101  12.082 -0.1802 -0.6252 -0.4187
  360TMC3     C 5392   0.134   1.345  12.360  0.0963 -0.2680  0.2268
  360TMC3     O 5393   0.186   1.457  12.382 -0.1090 -0.0422 -0.1165
  360TMC3     H 5394   0.366   1.356  12.291 -0.5953  1.2608 -0.5825
  360TMC3    H1 5395   0.016   1.151  12.209  0.3667 -1.9823  0.7477
  360TMC3    H2 5396   0.387   1.032  12.019  1.2820 -1.0132  1.2989
  360TMC3    C7 5397   0.128   1.009  11.988 -0.7097 -0.3719  0.1531
  360TMC3    C8 5398   0.507   1.257  12.095  0.0052 -0.0954  0.0808
  360TMC3    O1 5399   0.192   0.923  11.929  0.1845 -0.1497 -1.1817
  360TMC3    O2 5400   0.520   1.378  12.107 -0.5650  0.2915  0.1271
  361MPD2     C 5401   1.472   4.385  16.698  0.7200  0.1734  0.2691
  361MPD2    C1 5402   1.446   4.389  16.832 -0.0743 -0.1973 -0.8262
  361MPD2    C2 5403   1.524   4.311  16.923 -0.1900 -0.3370  0.1684
  361MPD2    C3 5404   1.627   4.230  16.868 -0.7198 -0.1990 -0.4506
  361MPD2    C4 5405   1.649   4.233  16.733 -0.7882 -0.1008 -0.5579
  361MPD2    C5 5406   1.572   4.308  16.651 -1.0213  0.0006 -0.0790
  361MPD2     H 5407   1.501   4.307  17.029 -0.3062  0.1789  0.1596
  361MPD2    H1 5408   1.715   4.157  16.693 -1.8273 -1.3384  0.0419
  361MPD2    H2 5409   1.423   4.432  16.613  3.2355  3.2085  0.4988
  361MPD2    H3 5410   1.585   4.301  16.544 -0.5418 -2.1325  0.1208
  361MPD2     N 5411   1.709   4.147  16.943  0.1010  0.0929 -0.5300
  361MPD2    H5 5412   1.761   4.079  16.888  1.6390  0.5461  0.3417
  361MPD2    N1 5413   1.327   4.447  16.878 -0.3459  0.0976 -0.6560
  361MPD2    H7 5414   1.317   4.441  16.979  0.9790  2.3641 -0.4098
  362TMC3    C1 5415   1.130   4.585  16.873 -0.4388  0.4033 -0.3239
  362TMC3    C2 5416   1.072   4.525  16.989 -0.1925  0.1943  0.4930
  362TMC3    C3 5417   0.955   4.591  17.039  0.5962  0.2676  0.5940
  362TMC3    C4 5418   1.054   4.677  16.799  0.7767  0.6832  0.2343
  362TMC3    C5 5419   0.953   0.019  16.861  0.0715 -0.3117  0.3953
  362TMC3    C6 5420   0.904   4.700  16.981 -0.5804 -0.1922 -0.0005
  362TMC3     C 5421   1.243   4.530  16.799  0.1155 -0.2834  0.3281
  362TMC3     O 5422   1.268   4.580  16.690  0.5820  1.2214 -0.3207
  362TMC3     H 5423   1.103   4.438  17.046 -0.2530  0.3523  0.7690
  362TMC3    H1 5424   1.090   4.719  16.705  0.2083 -1.7149 -1.0691
  362TMC3    H2 5425   0.808   0.024  17.001 -0.0398  1.5076 -1.3313
  362TMC3    C7 5426   0.870   0.108  16.782 -0.4397  0.2708 -0.0628
  362TMC3    C8 5427   0.866   4.531  17.140 -0.9760  0.0172 -0.9215
  362TMC3    O1 5428   0.859   0.223  16.828  0.6564  0.6678  0.1500
  362TMC3    O2 5429   0.859   4.407  17.142  0.2661  0.0444 -0.2122
  363TMC3    C1 5430   3.308   1.232   9.124  0.2972 -0.6354  0.7015
  363TMC3    C2 5431   3.426   1.250   9.184  0.2864 -0.1733  0.4458
  363TMC3    C3 5432   3.449   1.372   9.253 -0.0382  0.0494  0.3718
  363TMC3    C4 5433   3.209   1.328   9.126 -0.0185  0.1872  0.7878
  363TMC3    C5 5434   3.239   1.449   9.183  1.3358  0.9446  0.0460
  363TMC3    C6 5435   3.358   1.470   9.249 -0.0447  0.2553 -0.0145
  363TMC3     C 5436   3.267   1.100   9.077 -0.3155  0.3106 -0.0003
  363TMC3     O 5437   3.151   1.101   9.035 -0.2870 -0.5675 -0.5959
  363TMC3     H 5438   3.507   1.179   9.199  0.3783 -0.1987 -0.1901
  363TMC3    H1 5439   3.132   1.326   9.050  0.6025 -3.3565  0.2271
  363TMC3    H2 5440   3.375   1.553   9.316  1.5230  1.6166 -2.0631
  363TMC3    C7 5441   3.123   1.520   9.225 -0.3644 -0.1979  0.5818
  363TMC3    C8 5442   3.534   1.384   9.372  0.7651 -0.7158 -0.1815
  363TMC3    O1 5443   3.008   1.477   9.205 -0.0343 -0.1502 -0.0878
  363TMC3    O2 5444   3.584   1.493   9.397 -0.1032 -0.0831 -0.0591
  364MPD2     C 5445   3.584   1.664  10.646  0.3958  0.0761 -0.3319
  364MPD2    C1 5446   3.671   1.685  10.538 -0.2204  0.1418  0.4017
  364MPD2    C2 5447   3.806   1.638  10.553 -0.5010 -0.0583 -0.0154
  364MPD2    C3 5448   3.850   1.577  10.671  0.0085  0.0444  0.1192
  364MPD2    C4 5449   3.764   1.568  10.771  0.0253  0.0495  0.1556
  364MPD2    C5 5450   3.636   1.610  10.762  0.6209 -0.2744 -0.0788
  364MPD2     H 5451   3.883   1.661  10.480  0.9270 -0.0855  1.4911
  364MPD2    H1 5452   3.791   1.526  10.867 -0.5783 -0.5092  0.0834
  364MPD2    H2 5453   3.480   1.693  10.644 -0.0878 -1.6823 -0.8361
  364MPD2    H3 5454   3.570   1.584  10.845 -0.1840  2.6966  0.2345
  364MPD2     N 5455   3.983   1.530  10.687 -0.4319  0.5288  0.3479
  364MPD2    H5 5456   3.997   1.480  10.775 -0.4522 -0.9449 -0.4825
  364MPD2    N1 5457   3.623   1.753  10.426 -0.1841 -0.0577 -0.2905
  364MPD2    H7 5458   3.529   1.787  10.442 -0.4606 -2.1197  2.7193
  365TMC3    C1 5459   3.610   1.884  10.230 -0.5404  0.3815 -0.4123
  365TMC3    C2 5460   3.480   1.856  10.202 -0.0532  0.6568 -0.0617
  365TMC3    C3 5461   3.404   1.957  10.149 -0.2880  0.2658  0.6178
  365TMC3    C4 5462   3.658   2.013  10.209 -0.2541  0.4858  0.0042
  365TMC3    C5 5463   3.588   2.095  10.135 -0.5417 -0.1171  0.1961
  365TMC3    C6 5464   3.457   2.083  10.114  0.3399  0.3234  0.9924
  365TMC3     C 5465   3.693   1.793  10.314  0.0210  0.5571  0.5045
  365TMC3     O 5466   3.815   1.780  10.282 -0.7091 -0.3513 -0.0452
  365TMC3     H 5467   3.448   1.758  10.237  2.2645 -1.2188 -3.1743
  365TMC3    H1 5468   3.758   2.041  10.241 -0.1646 -0.9302  0.9451
  365TMC3    H2 5469   3.396   2.164  10.076 -2.0490 -1.3465  1.3088
  365TMC3    C7 5470   3.621   2.237  10.158 -0.0203  0.4583 -0.0011
  365TMC3    C8 5471   3.261   1.947  10.133 -0.4701 -0.0765 -0.3359
  365TMC3    O1 5472   3.730   2.287  10.128  0.0061 -1.0080 -0.2833
  365TMC3    O2 5473   3.211   2.033  10.062  0.4544  0.1908 -0.1871
  366MPD2     C 5474   1.966   2.531  15.042  0.5485  0.3846  0.0320
  366MPD2    C1 5475   2.010   2.601  15.156 -0.0530  0.3188 -0.5415
  366MPD2    C2 5476   2.141   2.584  15.179 -0.4211  0.0564  0.1183
  366MPD2    C3 5477   2.222   2.501  15.102  0.3759 -0.4559  0.3412
  366MPD2    C4 5478   2.174   2.434  14.997  0.2403 -0.0333 -0.1801
  366MPD2    C5 5479   2.043   2.454  14.964  0.5852 -0.2818 -0.0448
  366MPD2     H 5480   2.169   2.637  15.269 -0.7378 -1.0795  0.8933
  366MPD2    H1 5481   2.234   2.364  14.940  1.7287  2.2183 -1.3589
  366MPD2    H2 5482   1.862   2.539  15.013  0.1297 -0.2252  1.3852
  366MPD2    H3 5483   2.006   2.401  14.877 -2.0734  3.4563 -1.1758
  366MPD2     N 5484   2.362   2.510  15.129  0.5948 -0.1433 -0.0175
  366MPD2    H5 5485   2.389   2.537  15.223 -0.1697 -2.4354  0.8601
  366MPD2    N1 5486   1.939   2.693  15.239 -0.4929  0.1947  0.1477
  366MPD2    H7 5487   1.990   2.758  15.298  0.9915 -0.4293 -0.4778
  367TMC3    C1 5488   1.780   2.869  15.237  0.4133 -0.2678 -0.3025
  367TMC3    C2 5489   1.854   2.913  15.337  0.7560 -0.0255  0.3720
  367TMC3    C3 5490   1.851   3.053  15.372  0.0427  0.2988  0.5133
  367TMC3    C4 5491   1.698   2.937  15.158  0.3909  0.2606 -0.4379
  367TMC3    C5 5492   1.695   3.074  15.195  0.0648 -0.7859  0.0697
  367TMC3    C6 5493   1.770   3.133  15.291  0.1947 -0.2123 -0.6980
  367TMC3     C 5494   1.810   2.735  15.203 -0.2805 -0.0297  0.5214
  367TMC3     O 5495   1.731   2.693  15.113  0.8151 -0.0489  0.0681
  367TMC3     H 5496   1.884   2.843  15.414 -3.0399 -2.6304 -0.4858
  367TMC3    H1 5497   1.643   2.896  15.075 -0.7390  0.5150  0.1875
  367TMC3    H2 5498   1.760   3.240  15.305  1.7384 -0.0867 -0.5845
  367TMC3    C7 5499   1.627   3.165  15.100 -0.5233  0.1499 -0.3068
  367TMC3    C8 5500   1.946   3.107  15.464 -0.1236  0.2995  0.6114
  367TMC3    O1 5501   1.681   3.279  15.082  0.2098  0.2755 -0.1057
  367TMC3    O2 5502   2.025   3.026  15.507 -0.3287  0.2191  0.1229
  368MPD2     C 5503   3.871   4.530  13.505  0.2433 -0.1857  0.5638
  368MPD2    C1 5504   3.843   4.569  13.374  0.5964 -0.2516 -0.5645
  368MPD2    C2 5505   3.942   4.628  13.297 -0.5688  0.4541  0.7463
  368MPD2    C3 5506   4.074   4.644  13.348 -0.6986 -0.0871 -0.7509
  368MPD2    C4 5507   4.100   4.591  13.476  0.2098 -0.6194 -0.1417
  368MPD2    C5 5508   4.000   4.529  13.546  0.4656  0.2789 -0.3594
  368MPD2     H 5509   3.926   4.657  13.194 -0.5442 -0.4738  0.4766
  368MPD2    H1 5510   4.197   4.600  13.524  0.2396  0.2699 -0.3667
  368MPD2    H2 5511   3.796   4.476  13.562 -0.3037 -0.6926 -0.6534
  368MPD2    H3 5512   4.010   4.490  13.647 -2.2021 -0.2936 -0.3309
  368MPD2     N 5513   4.174   4.713  13.278  0.0739 -0.4237 -0.0539
  368MPD2    H5 5514   4.268   0.001  13.315  0.1826  0.1743 -0.4969
  368MPD2    N1 5515   3.707   4.545  13.320  0.5149  0.0431  0.9665
  368MPD2    H7 5516   3.648   4.485  13.377  1.4573 -2.1866 -0.4199
  369TMC3    C1 5517   3.512   4.563  13.201 -0.1976  0.2697  0.3646
  369TMC3    C2 5518   3.440   4.644  13.119 -0.2965  0.2788  0.4218
  369TMC3    C3 5519   3.311   4.611  13.082  0.5669 -0.0901 -0.2913
  369TMC3    C4 5520   3.468   4.453  13.255  0.2356  0.1012 -1.2615
  369TMC3    C5 5521   3.335   4.426  13.230 -0.8720  0.6769 -0.5206
  369TMC3    C6 5522   3.254   4.503  13.144 -0.7815 -0.2344  0.0039
  369TMC3     C 5523   3.650   4.602  13.217 -0.1118  0.1640  0.6259
  369TMC3     O 5524   3.692   4.702  13.161 -0.4649  0.8715 -0.0420
  369TMC3     H 5525   3.490   0.007  13.077  0.6320  0.1681  1.2930
  369TMC3    H1 5526   3.522   4.382  13.318 -1.5860  0.2285  0.4769
  369TMC3    H2 5527   3.145   4.503  13.147 -0.8791  1.9975 -2.7997
  369TMC3    C7 5528   3.272   4.320  13.307  0.6997 -0.2256  0.6897
  369TMC3    C8 5529   3.233   4.712  13.004  0.1376  0.0281  0.7949
  369TMC3    O1 5530   3.300   4.313  13.423  0.3779  0.3796  0.4316
  369TMC3    O2 5531   3.298   0.084  12.970  0.8561 -0.2234 -0.1382
  370TMC3    C1 5532   2.590   0.444  16.300 -1.0842 -0.1966 -0.2304
  370TMC3    C2 5533   2.541   0.368  16.413 -0.2477 -0.6494  1.2388
  370TMC3    C3 5534   2.483   0.244  16.396  0.4207 -0.5615 -0.9359
  370TMC3    C4 5535   2.575   0.398  16.176  0.2789 -0.5425  0.3364
  370TMC3    C5 5536   2.507   0.283  16.167 -0.3523 -0.0319  0.2269
  370TMC3    C6 5537   2.460   0.198  16.267  0.2546 -0.9506 -0.0965
  370TMC3     C 5538   2.631   0.584  16.305 -0.8358 -0.4163 -0.5052
  370TMC3     O 5539   2.710   0.630  16.221 -0.3571  0.4506 -0.0392
  370TMC3     H 5540   2.568   0.399  16.513  0.8218 -0.5033  0.9099
  370TMC3    H1 5541   2.596   0.456  16.087  0.1256 -2.0478 -0.6715
  370TMC3    H2 5542   2.411   0.104  16.247  1.4654 -1.3316 -1.3287
  370TMC3    C7 5543   2.520   0.215  16.043  0.1355 -0.5016  0.0122
  370TMC3    C8 5544   2.446   0.162  16.516 -0.1792 -0.1784 -0.0701
  370TMC3    O1 5545   2.515   0.284  15.943 -0.2896 -0.5139 -0.0006
  370TMC3    O2 5546   2.415   0.046  16.511  0.5109  0.2869 -0.1148
  371TMC3    C1 5547   3.930   3.522  15.637  0.7453  0.1951  0.4393
  371TMC3    C2 5548   3.795   3.513  15.639  0.4328  0.2010  0.6707
  371TMC3    C3 5549   3.726   3.618  15.595 -0.2724  0.6839  0.1058
  371TMC3    C4 5550   3.986   3.640  15.606 -0.2069 -0.3236  0.4401
  371TMC3    C5 5551   3.913   3.744  15.558  0.4146 -0.0703  0.3008
  371TMC3    C6 5552   3.780   3.737  15.555  0.8305 -0.1709 -0.5048
  371TMC3     C 5553   4.003   3.403  15.621  0.4296  0.0906  0.1889
  371TMC3     O 5554   4.084   3.402  15.529  0.3598 -0.9166 -0.2243
  371TMC3     H 5555   3.745   3.421  15.668  0.2415  0.1061  0.0348
  371TMC3    H1 5556   4.094   3.641  15.619 -0.0924 -0.5082 -0.4935
  371TMC3    H2 5557   3.715   3.819  15.525 -0.6493 -0.8468  0.8562
  371TMC3    C7 5558   3.985   3.849  15.493 -0.4076 -0.1617  0.0637
  371TMC3    C8 5559   3.579   3.602  15.573 -0.1989  0.1058 -0.4014
  371TMC3    O1 5560   3.922   3.951  15.478  0.3614  0.3383  0.1218
  371TMC3    O2 5561   3.545   3.487  15.552 -0.2155 -0.4982 -0.0403
  372MPD2     C 5562   3.393   0.136  13.473 -0.3641  0.1152  0.0441
  372MPD2    C1 5563   3.499   0.057  13.513  0.2493  0.5475 -0.1192
  372MPD2    C2 5564   3.478   4.659  13.572  0.4086  0.3168 -0.0467
  372MPD2    C3 5565   3.351   4.614  13.618  0.4302 -0.1157  0.5912
  372MPD2    C4 5566   3.244   4.696  13.592  0.4213  0.9716 -0.6532
  372MPD2    C5 5567   3.268   0.094  13.519 -0.9131 -0.7427  0.1709
  372MPD2     H 5568   3.562   4.593  13.588  1.4978  1.5644 -0.5949
  372MPD2    H1 5569   3.144   4.667  13.623  0.4904  0.0149 -1.3545
  372MPD2    H2 5570   3.401   0.237  13.434 -1.0845  0.4033  0.6403
  372MPD2    H3 5571   3.188   0.163  13.497  1.2063  1.6711 -0.0007
  372MPD2     N 5572   3.339   4.485  13.682  0.7868 -0.6086  0.4825
  372MPD2    H5 5573   3.428   4.436  13.690 -0.1498 -2.5304 -0.7902
  372MPD2    N1 5574   3.638   0.098  13.502  0.2700 -0.3657  0.1696
  372MPD2    H7 5575   3.705   0.030  13.535  1.0295 -1.0935 -2.8894
  373TMC3    C1 5576   3.249   4.296  13.795 -0.0927  0.3479  0.0558
  373TMC3    C2 5577   3.204   4.284  13.924 -0.5017 -0.6545  0.7213
  373TMC3    C3 5578   3.280   4.201  14.009  0.0431  0.2475  0.2725
  373TMC3    C4 5579   3.359   4.232  13.748  0.3218  0.4314  0.2009
  373TMC3    C5 5580   3.422   4.147  13.836  0.3251  0.5348  0.6128
  373TMC3    C6 5581   3.384   4.128  13.960 -0.0489 -0.1442 -0.4951
  373TMC3     C 5582   3.231   4.427  13.741  0.5541 -0.1255 -0.2471
  373TMC3     O 5583   3.122   4.481  13.755 -0.2984 -0.3290  0.2620
  373TMC3     H 5584   3.128   4.351  13.962  1.1991  0.6405  1.8331
  373TMC3    H1 5585   3.386   4.249  13.644 -0.4369 -1.4429 -0.3201
  373TMC3    H2 5586   3.440   4.063  14.026 -0.2094  1.9821  1.7230
  373TMC3    C7 5587   3.524   4.066  13.771  0.1652 -0.8423 -0.3294
  373TMC3    C8 5588   3.297   4.231  14.150  0.0038  0.1271 -0.4978
  373TMC3    O1 5589   3.535   4.083  13.651  0.2416  0.0725  0.2388
  373TMC3    O2 5590   3.412   4.225  14.186 -0.0058 -0.5631  0.1448
  374TMC3    C1 5591   3.196   0.145  10.886  0.4325 -0.2004  0.0018
  374TMC3    C2 5592   3.167   0.277  10.918  0.4332 -0.6022 -0.5050
  374TMC3    C3 5593   3.036   0.313  10.917  0.6414  0.4660  0.3559
  374TMC3    C4 5594   3.096   0.054  10.850 -0.2074 -0.3720  0.0643
  374TMC3    C5 5595   2.965   0.096  10.871 -0.6199  0.0082  0.3294
  374TMC3    C6 5596   2.933   0.230  10.877 -0.4659 -0.5764 -0.5862
  374TMC3     C 5597   3.331   0.098  10.912 -0.6011  0.3257  1.1194
  374TMC3     O 5598   3.399   0.167  10.989 -0.3114  0.1832 -0.6901
  374TMC3     H 5599   3.248   0.331  10.966  1.3508  0.4855 -3.3158
  374TMC3    H1 5600   3.126   4.673  10.860 -4.0444 -1.5398 -0.7051
  374TMC3    H2 5601   2.832   0.265  10.858 -0.1857  0.4516 -0.1798
  374TMC3    C7 5602   2.861   0.018  10.808 -0.0388 -0.6952 -0.1865
  374TMC3    C8 5603   3.011   0.457  10.931 -0.3741 -0.5157  0.8624
  374TMC3    O1 5604   2.749   0.066  10.803 -0.6210  0.1928  0.0456
  374TMC3    O2 5605   2.913   0.504  10.876  0.5910 -0.1619  0.2025
  375MPD2     C 5606   3.858   1.262  17.081  0.1070  0.4507 -0.8484
  375MPD2    C1 5607   3.781   1.163  17.028  0.1251 -0.2877  0.3183
  375MPD2    C2 5608   3.846   1.053  16.967  0.0040 -0.6426  0.2581
  375MPD2    C3 5609   3.979   1.048  16.947  0.0018 -0.2922  0.0268
  375MPD2    C4 5610   4.050   1.149  16.992  0.0689 -0.3285  0.7943
  375MPD2    C5 5611   3.996   1.256  17.057  0.0124 -0.1109  0.2561
  375MPD2     H 5612   3.778   0.972  16.942 -0.6150 -0.1990  0.4869
  375MPD2    H1 5613   4.154   1.156  16.963 -1.0413 -0.2788 -3.1556
  375MPD2    H2 5614   3.809   1.349  17.124 -3.0827 -1.3424 -0.8851
  375MPD2    H3 5615   4.056   1.336  17.098 -0.7970  1.0917 -0.9114
  375MPD2     N 5616   4.036   0.944  16.876 -0.4548  0.7110  0.2175
  375MPD2    H5 5617   4.137   0.940  16.866 -0.5357  0.1275 -0.3664
  375MPD2    N1 5618   3.645   1.166  17.035 -0.7913  0.0681 -0.3391
  375MPD2    H7 5619   3.604   1.075  17.016 -0.9967 -0.2588  1.7193
  376TMC3    C1 5620   4.067   0.759  16.744  0.4308 -0.3267 -0.3691
  376TMC3    C2 5621   4.184   0.720  16.803 -0.5239  0.0633 -0.0387
  376TMC3    C3 5622   4.267   0.625  16.744 -0.6123  0.2088 -0.1330
  376TMC3    C4 5623   4.025   0.698  16.631  0.3639  0.1647 -0.5057
  376TMC3    C5 5624   4.100   0.593  16.589  0.0526  0.1311  0.0937
  376TMC3    C6 5625   4.217   0.542  16.648  0.6040  0.2971 -0.3117
  376TMC3     C 5626   3.970   0.853  16.797 -0.4428  0.0901 -0.1352
  376TMC3     O 5627   3.850   0.839  16.772  0.6211 -0.6530 -0.5328
  376TMC3     H 5628   4.232   0.782  16.878  0.4601 -1.1220  0.3060
  376TMC3    H1 5629   3.932   0.727  16.585 -0.3541 -0.1023  0.7682
  376TMC3    H2 5630   4.298   0.489  16.597 -1.5170 -2.9156 -0.3266
  376TMC3    C7 5631   4.108   0.590  16.447 -0.1705  0.1570 -0.1411
  376TMC3    C8 5632   4.408   0.659  16.721  0.1166 -0.4367 -0.5160
  376TMC3    O1 5633   4.064   0.693  16.395  0.5444  0.0182  0.1099
  376TMC3    O2 5634   4.439   0.645  16.604  0.1428 -0.0215  0.3109
  377MPD2     C 5635   1.262   0.374  12.164 -0.7405  0.7013 -0.3930
  377MPD2    C1 5636   1.369   0.325  12.232 -0.1517 -0.0927  0.5641
  377MPD2    C2 5637   1.338   0.254  12.348 -0.6049  0.3010 -0.0870
  377MPD2    C3 5638   1.214   0.256  12.404 -0.4623  0.2019 -0.0777
  377MPD2    C4 5639   1.112   0.338  12.343  0.4171  0.4247  0.1649
  377MPD2    C5 5640   1.141   0.385  12.219 -0.3198 -1.0339  0.0731
  377MPD2     H 5641   1.423   0.214  12.402 -2.0433  0.7948  2.4903
  377MPD2    H1 5642   1.015   0.349  12.390  0.8556  2.8619  0.4968
  377MPD2    H2 5643   1.285   0.427  12.072  1.0689  1.3249  0.4162
  377MPD2    H3 5644   1.065   0.449  12.175  1.0040  0.0611 -0.6099
  377MPD2     N 5645   1.183   0.193  12.523  0.3334 -0.1318 -0.1477
  377MPD2    H5 5646   1.088   0.214  12.552 -0.2899  0.0273 -2.3124
  377MPD2    N1 5647   1.502   0.336  12.180  0.6518  0.1892 -0.9009
  377MPD2    H7 5648   1.516   0.375  12.087 -0.4209 -1.8832 -1.9371
  378TMC3    C1 5649   1.842   0.307  11.959  0.0667 -0.1948  0.1267
  378TMC3    C2 5650   1.726   0.311  12.029  0.5919  0.0735  0.3897
  378TMC3    C3 5651   1.731   0.290  12.164  0.0733  0.0810 -0.1406
  378TMC3    C4 5652   1.961   0.267  12.023  0.0239 -0.3461  0.5544
  378TMC3    C5 5653   1.960   0.243  12.157  0.1881 -0.5023  0.1667
  378TMC3    C6 5654   1.846   0.258  12.229 -0.1771 -0.6860 -0.9164
  378TMC3     C 5655   1.826   0.332  11.817  0.5895  0.3719  1.3605
  378TMC3     O 5656   1.722   0.384  11.776 -0.3157  0.3785 -0.0835
  378TMC3     H 5657   1.631   0.321  11.976  0.9331 -0.1075 -0.2601
  378TMC3    H1 5658   2.049   0.243  11.963 -0.5044 -2.2579  0.5489
  378TMC3    H2 5659   1.851   0.260  12.337  0.4882 -2.1794 -0.9140
  378TMC3    C7 5660   2.086   0.230  12.240 -0.6261  1.2015 -0.3765
  378TMC3    C8 5661   1.616   0.303  12.250 -0.1621  0.3563  0.3013
  378TMC3    O1 5662   2.065   0.202  12.356  0.0732  0.2248  0.8898
  378TMC3    O2 5663   1.628   0.266  12.365  0.2234 -0.4866 -0.4162
  379MPD2     C 5664   2.653   3.288  16.428  0.8782  0.3475 -0.1942
  379MPD2    C1 5665   2.739   3.225  16.342  0.2451 -0.1792 -0.8128
  379MPD2    C2 5666   2.843   3.147  16.397  0.4995 -0.3950 -0.0608
  379MPD2    C3 5667   2.857   3.131  16.532  0.1765  0.4321 -0.4835
  379MPD2    C4 5668   2.775   3.203  16.618 -0.1692  0.0654  0.1523
  379MPD2    C5 5669   2.672   3.275  16.560 -0.6703 -0.0292 -0.1272
  379MPD2     H 5670   2.908   3.094  16.328  0.7643  0.9916 -0.8842
  379MPD2    H1 5671   2.777   3.203  16.726 -2.7720  1.6693  0.1960
  379MPD2    H2 5672   2.568   3.344  16.390  1.2854 -0.4630 -2.3090
  379MPD2    H3 5673   2.595   3.320  16.622 -2.9137 -3.4973 -0.3763
  379MPD2     N 5674   2.960   3.054  16.594 -0.3544 -0.6969 -0.2776
  379MPD2    H5 5675   2.968   3.053  16.695 -1.1586 -0.7199 -0.2164
  379MPD2    N1 5676   2.726   3.256  16.205 -0.4854 -0.5876 -0.3430
  379MPD2    H7 5677   2.663   3.331  16.176 -0.2063 -0.1012  0.3020
  380TMC3    C1 5678   2.734   3.212  15.977 -0.8284 -0.3032 -0.1530
  380TMC3    C2 5679   2.769   3.127  15.881  0.7716 -0.7678  0.4117
  380TMC3    C3 5680   2.699   3.125  15.765 -0.3497 -0.6661  0.0983
  380TMC3    C4 5681   2.625   3.301  15.957  0.4563  0.2011  0.4277
  380TMC3    C5 5682   2.555   3.287  15.841 -0.1928 -0.8955 -0.0820
  380TMC3    C6 5683   2.595   3.206  15.740  0.2578 -0.2151 -0.1805
  380TMC3     C 5684   2.789   3.184  16.107  0.2054 -0.0221 -0.4792
  380TMC3     O 5685   2.870   3.088  16.113  0.4512  1.2070  0.1128
  380TMC3     H 5686   2.853   3.059  15.889  0.6741 -0.9071  0.2685
  380TMC3    H1 5687   2.591   3.374  16.029 -2.0271  1.6697 -2.2321
  380TMC3    H2 5688   2.550   3.224  15.643  0.1230 -2.7288 -0.5775
  380TMC3    C7 5689   2.440   3.374  15.814 -0.2857  0.3623  0.9124
  380TMC3    C8 5690   2.757   3.033  15.662  0.4389  0.0905  0.2552
  380TMC3    O1 5691   2.442   3.485  15.866  0.3629  0.0700  0.6838
  380TMC3    O2 5692   2.821   2.935  15.701 -0.1209 -0.3565  0.5042
  381TMC3    C1 5693   2.498   4.049  16.271  0.2338 -0.4704  1.0750
  381TMC3    C2 5694   2.558   4.172  16.280 -0.2899 -0.1905  0.3448
  381TMC3    C3 5695   2.562   4.248  16.399  0.1016  0.6846 -0.1436
  381TMC3    C4 5696   2.437   3.988  16.383  0.6421 -0.1787  0.2152
  381TMC3    C5 5697   2.419   4.073  16.490 -1.0423 -0.3318  0.7388
  381TMC3    C6 5698   2.479   4.193  16.501  0.2877 -0.3326 -0.4298
  381TMC3     C 5699   2.536   3.959  16.163  0.0472 -0.4246  0.4511
  381TMC3     O 5700   2.548   3.843  16.191 -0.1856 -0.2991 -0.2676
  381TMC3     H 5701   2.620   4.215  16.202  1.8575 -0.0542  2.1191
  381TMC3    H1 5702   2.390   3.890  16.380 -0.9080  0.6135 -1.2023
  381TMC3    H2 5703   2.468   4.250  16.593  1.8761 -0.2809 -0.2723
  381TMC3    C7 5704   2.317   4.040  16.593  0.2999  0.5892  0.3853
  381TMC3    C8 5705   2.641   4.370  16.407  0.2135 -0.3558  0.7326
  381TMC3    O1 5706   2.262   3.928  16.585 -0.7101 -0.1274  0.0743
  381TMC3    O2 5707   2.691   4.410  16.303  0.0170 -0.0787 -0.4589
  382MPD2     C 5708   1.731   1.941  17.270 -0.0071 -0.2215 -0.2432
  382MPD2    C1 5709   1.632   1.917  17.366 -0.0767  0.1996 -0.5257
  382MPD2    C2 5710   1.635   1.797  17.438  0.0805 -0.6657 -0.4886
  382MPD2    C3 5711   1.729   1.698  17.423  0.0219  0.3929  0.4845
  382MPD2    C4 5712   1.819   1.730  17.321 -0.1899 -0.3258 -0.3320
  382MPD2    C5 5713   1.824   1.846  17.253  0.2479  0.7161 -0.1407
  382MPD2     H 5714   1.550   1.783  17.504  0.9891 -0.3124  0.7442
  382MPD2    H1 5715   1.894   1.656  17.297  0.0796  0.1188 -0.8753
  382MPD2    H2 5716   1.741   2.037  17.220 -0.0997  0.5702  1.2476
  382MPD2    H3 5717   1.900   1.863  17.178 -1.2827  1.0207 -1.6261
  382MPD2     N 5718   1.726   1.573  17.482  0.7060  0.1376  0.1517
  382MPD2    H5 5719   1.787   1.501  17.447  1.4866  0.7782  0.1941
  382MPD2    N1 5720   1.526   2.008  17.389  0.3409  0.1824  0.2563
  382MPD2    H7 5721   1.448   1.973  17.445  1.3451 -1.4286  0.6460
  383TMC3    C1 5722   1.651   1.412  17.627 -0.4197 -0.1398  0.1746
  383TMC3    C2 5723   1.644   1.323  17.522  0.2720 -0.2590 -0.1385
  383TMC3    C3 5724   1.620   1.197  17.555  0.5212 -0.2622  0.4361
  383TMC3    C4 5725   1.635   1.383   0.061  0.1556 -0.1398  0.0899
  383TMC3    C5 5726   1.610   1.250   0.088 -0.7005 -0.2832  0.4129
  383TMC3    C6 5727   1.608   1.160  17.685  0.6184  0.5313 -0.5668
  383TMC3     C 5728   1.660   1.551  17.602 -0.1899 -0.5825  0.0160
  383TMC3     O 5729   1.621   1.632  17.686 -0.7371  0.6978  0.8148
  383TMC3     H 5730   1.653   1.361  17.421 -0.8166  1.0545  0.2684
  383TMC3    H1 5731   1.637   1.463   0.135 -2.8916  1.1822 -1.2659
  383TMC3    H2 5732   1.578   1.059   0.019  0.3772  0.6672 -0.3256
  383TMC3    C7 5733   1.568   1.212   0.218  0.4541 -0.3167  0.2695
  383TMC3    C8 5734   1.553   1.129  17.447  0.5429  0.0583  0.2904
  383TMC3    O1 5735   1.510   1.103   0.231 -0.1932 -0.3538  0.3117
  383TMC3    O2 5736   1.511   1.196  17.354  0.4058  0.4215  0.3984
  384MPD2     C 5737   3.592   3.353  12.515 -0.3184 -0.5537 -0.3415
  384MPD2    C1 5738   3.490   3.269  12.472  0.0329 -1.0660 -0.3009
  384MPD2    C2 5739   3.466   3.264  12.339 -0.5241  0.5070 -0.0654
  384MPD2    C3 5740   3.527   3.346  12.251 -0.3013 -0.5101 -0.3547
  384MPD2    C4 5741   3.628   3.426  12.286 -1.1040  0.1227  0.3315
  384MPD2    C5 5742   3.670   3.419  12.419  0.3775  0.6155 -0.3766
  384MPD2     H 5743   3.394   3.191  12.305  0.8253 -0.2438 -1.2747
  384MPD2    H1 5744   3.686   3.481  12.213 -2.7379 -0.7081 -1.5884
  384MPD2    H2 5745   3.619   3.364  12.620 -0.1313  0.4047 -0.4849
  384MPD2    H3 5746   3.754   3.484  12.441  1.3994 -0.6066 -0.6060
  384MPD2     N 5747   3.483   3.336  12.115  0.4118  0.4401 -0.3903
  384MPD2    H5 5748   3.409   3.268  12.098 -0.2453  0.1108  3.5659
  384MPD2    N1 5749   3.423   3.177  12.551  0.6339 -0.2545  0.4318
  384MPD2    H7 5750   3.370   3.105  12.503 -0.0868  2.0361 -2.2037
  385TMC3    C1 5751   3.458   3.360  11.888 -0.1685 -0.4866 -0.7658
  385TMC3    C2 5752   3.542   3.313  11.793  0.5937 -0.5420  0.2387
  385TMC3    C3 5753   3.508   3.192  11.732 -0.3294 -0.8719 -0.0555
  385TMC3    C4 5754   3.348   3.291  11.917  0.8302 -0.3632  0.4921
  385TMC3    C5 5755   3.314   3.175  11.859 -0.3107  0.7262 -0.2638
  385TMC3    C6 5756   3.392   3.125  11.761  0.8546 -0.3108  0.5858
  385TMC3     C 5757   3.537   3.400  12.008  0.1656 -0.1378  0.2362
  385TMC3     O 5758   3.633   3.475  11.996  0.6475 -0.2782  0.2676
  385TMC3     H 5759   3.634   3.364  11.768  1.0225 -1.1532  0.5504
  385TMC3    H1 5760   3.277   3.343  11.981 -0.4152 -0.1054 -1.1066
  385TMC3    H2 5761   3.375   3.023  11.728 -2.3032 -0.0893  1.4673
  385TMC3    C7 5762   3.262   3.090  11.964 -0.2349  0.4058 -1.3689
  385TMC3    C8 5763   3.585   3.145  11.616  0.4889  0.2130 -0.1803
  385TMC3    O1 5764   3.303   3.130  12.073  0.7999  0.3285  0.2627
  385TMC3    O2 5765   3.711   3.161  11.617 -0.8845  0.2394 -1.4397
  386TMC3    C1 5766   3.874   0.687  11.990 -0.1118  0.2184 -0.5079
  386TMC3    C2 5767   3.817   0.619  11.887  0.4764 -0.0036  0.0537
  386TMC3    C3 5768   3.708   0.682  11.837  0.3086  0.1013 -0.3786
  386TMC3    C4 5769   3.817   0.785  12.065 -0.7093  0.3595 -0.5826
  386TMC3    C5 5770   3.690   0.827  12.025  0.9045 -0.2280  0.2436
  386TMC3    C6 5771   3.640   0.775  11.914  0.2579 -0.7611  0.2692
  386TMC3     C 5772   3.990   0.636  12.055 -0.5494 -0.8811  1.0736
  386TMC3     O 5773   4.054   0.705  12.129  0.0713  0.1622 -0.6021
  386TMC3     H 5774   3.870   0.545  11.828  0.0044  1.5036 -2.2472
  386TMC3    H1 5775   3.857   0.828  12.156  1.9854 -0.7514 -1.2361
  386TMC3    H2 5776   3.536   0.795  11.892  0.4092  0.5281  0.7641
  386TMC3    C7 5777   3.592   0.863  12.120 -0.3406 -0.4512  0.1971
  386TMC3    C8 5778   3.622   0.615  11.747 -0.4668 -0.3549 -0.1098
  386TMC3    O1 5779   3.477   0.830  12.102 -0.1433 -0.0683  0.5008
  386TMC3    O2 5780   3.551   0.686  11.680  0.4272  0.2631  0.7605
  387MPD2     C 5781   0.122   0.065   9.600  0.0788 -0.2583 -0.0302
  387MPD2    C1 5782   0.251   0.056   9.555  0.6599 -0.4623  0.2508
  387MPD2    C2 5783   0.285   4.664   9.488  0.6848 -0.4225  0.5037
  387MPD2    C3 5784   0.210   4.549   9.473 -0.6387  0.2127  0.6172
  387MPD2    C4 5785   0.087   4.562   9.520 -0.0605  0.3789  0.1633
  387MPD2    C5 5786   0.040   4.677   9.581 -0.3798 -0.1603 -0.3031
  387MPD2     H 5787   0.388   4.647   9.458  1.2913  2.6611  0.7813
  387MPD2    H1 5788   0.014   4.484   9.502  1.2105 -0.7868  0.0727
  387MPD2    H2 5789   0.082   0.155   9.645  1.1887  1.4936 -2.5887
  387MPD2    H3 5790   4.661   4.672   9.618  0.2067  1.5720  1.5750
  387MPD2     N 5791   0.263   4.442   9.399 -0.0009 -0.0885 -0.4794
  387MPD2    H5 5792   0.358   4.460   9.369 -0.9680  0.7065 -3.0300
  387MPD2    N1 5793   0.352   0.159   9.575  0.3953 -0.0947  0.0353
  387MPD2    H7 5794   0.432   0.151   9.512 -0.7545 -0.0672 -1.4439
  388TMC3    C1 5795   0.474   0.338   9.637  0.2793 -0.2556  0.3407
  388TMC3    C2 5796   0.479   0.474   9.645  0.4303 -0.1750  0.2232
  388TMC3    C3 5797   0.607   0.527   9.661 -0.5148  1.0293  0.0385
  388TMC3    C4 5798   0.579   0.253   9.608 -0.1069 -0.4124 -0.3410
  388TMC3    C5 5799   0.701   0.317   9.600  0.0274 -1.5831 -0.2882
  388TMC3    C6 5800   0.719   0.448   9.631  0.5148  0.0284  0.7796
  388TMC3     C 5801   0.347   0.264   9.657  0.5177  0.2538  0.2823
  388TMC3     O 5802   0.254   0.304   9.719  0.2349  0.1040  0.4952
  388TMC3     H 5803   0.390   0.527   9.677 -0.5203 -2.6009  1.5570
  388TMC3    H1 5804   0.570   0.145   9.617 -3.2944 -0.4266 -3.2977
  388TMC3    H2 5805   0.817   0.486   9.605  0.4051 -0.6223 -0.5573
  388TMC3    C7 5806   0.817   0.237   9.574 -0.0124 -0.8226  0.9282
  388TMC3    C8 5807   0.616   0.662   9.709 -0.2047 -0.4223 -0.2163
  388TMC3    O1 5808   0.916   0.245   9.644  0.1099  0.0010 -0.2171
  388TMC3    O2 5809   0.507   0.713   9.730  0.0716  0.1975 -0.3528
  389MPD2     C 5810   0.341   3.272  10.124 -0.2022  0.0481 -0.5004
  389MPD2    C1 5811   0.199   3.260  10.112 -0.4943  0.5195 -0.4033
  389MPD2    C2 5812   0.134   3.163  10.183  0.1343 -0.2769  0.5946
  389MPD2    C3 5813   0.209   3.072  10.263  0.3369  0.1413 -0.3933
  389MPD2    C4 5814   0.350   3.077  10.266 -0.5030 -0.4306 -0.3074
  389MPD2    C5 5815   0.411   3.173  10.191 -0.4628 -0.3601  0.2878
  389MPD2     H 5816   0.025   3.168  10.181  0.0963 -1.2922 -0.1061
  389MPD2    H1 5817   0.407   2.998  10.314  0.0366  0.8350  1.1241
  389MPD2    H2 5818   0.399   3.341  10.065 -0.0142  1.8357  1.8181
  389MPD2    H3 5819   0.519   3.181  10.179 -0.2361 -3.4760  0.3348
  389MPD2     N 5820   0.147   2.962  10.324  0.1567  0.3689 -0.2319
  389MPD2    H5 5821   0.202   2.915  10.395  0.4965  3.0924  1.2960
  389MPD2    N1 5822   0.140   3.350  10.019 -0.8508 -0.0833  0.0552
  389MPD2    H7 5823   0.193   3.433   9.997 -1.2089  1.1252  3.7409
  390TMC3    C1 5824   4.683   2.864  10.430  0.2916 -0.0124 -0.0512
  390TMC3    C2 5825   4.549   2.828  10.425  0.1630 -0.3005  0.5871
  390TMC3    C3 5826   4.483   2.821  10.542  0.2840  0.1116 -0.6504
  390TMC3    C4 5827   0.024   2.878  10.553 -0.9139 -0.2626 -0.2546
  390TMC3    C5 5828   4.669   2.869  10.666  0.3114  0.1401 -0.6313
  390TMC3    C6 5829   4.536   2.846  10.665  0.2427 -0.2025 -0.0948
  390TMC3     C 5830   0.015   2.933  10.317 -0.7584  0.5955  0.2635
  390TMC3     O 5831   4.654   2.962  10.232  0.4927 -0.7722  0.1814
  390TMC3     H 5832   4.508   2.798  10.329 -0.3566 -0.2492  0.7892
  390TMC3    H1 5833   0.128   2.909  10.557 -1.1664  0.4381  1.2083
  390TMC3    H2 5834   4.481   2.815  10.754  0.7115 -1.7868 -0.3528
  390TMC3    C7 5835   0.033   2.860  10.795 -0.5874  0.0820  0.6207
  390TMC3    C8 5836   4.351   2.767  10.545  0.0670 -0.1501 -0.9990
  390TMC3    O1 5837   0.153   2.881  10.787 -0.6275  0.4934 -0.5218
  390TMC3    O2 5838   4.327   2.677  10.470 -0.1830  0.5428 -0.0052
  391MPD2     C 5839   3.973   1.087  12.022  0.8853  0.2665 -0.2238
  391MPD2    C1 5840   4.050   1.003  11.946  1.0887 -0.2814 -0.6482
  391MPD2    C2 5841   4.001   0.963  11.822  0.1239 -0.2876 -0.3268
  391MPD2    C3 5842   3.879   1.013  11.776 -0.6409  0.3702  0.4466
  391MPD2    C4 5843   3.797   1.077  11.871 -0.3090  0.4765  0.0418
  391MPD2    C5 5844   3.845   1.115  11.991 -0.3078  0.5115 -0.0976
  391MPD2     H 5845   4.061   0.909  11.750 -0.3496 -0.9130 -0.2511
  391MPD2    H1 5846   3.689   1.087  11.864 -0.2415  0.6650 -0.7238
  391MPD2    H2 5847   4.010   1.124  12.117  0.5595 -1.8623  0.7341
  391MPD2    H3 5848   3.779   1.170  12.057  0.6278 -1.7966  2.7287
  391MPD2     N 5849   3.830   0.984  11.646 -0.0321 -0.5041  0.1292
  391MPD2    H5 5850   3.890   0.928  11.587  1.2056  0.5820  0.3494
  391MPD2    N1 5851   4.182   0.962  11.989  0.1598 -0.4477 -0.3545
  391MPD2    H7 5852   4.226   1.011  12.066  3.6123 -0.0987 -2.5829
  392TMC3    C1 5853   3.679   0.958  11.455  0.7193 -0.3154  0.9350
  392TMC3    C2 5854   3.548   0.935  11.405  0.2023  0.4894  0.4467
  392TMC3    C3 5855   3.525   0.949  11.272  0.1047 -0.1131 -0.5826
  392TMC3    C4 5856   3.780   0.993  11.370 -0.5400 -0.8899 -0.2177
  392TMC3    C5 5857   3.749   0.999  11.234 -0.1799  0.3828  0.1817
  392TMC3    C6 5858   3.623   0.985  11.176  0.1550 -0.3595 -0.2461
  392TMC3     C 5859   3.700   0.990  11.596 -0.0471 -0.1011  0.3755
  392TMC3     O 5860   3.605   1.048  11.648 -0.5680  0.2386  0.2066
  392TMC3     H 5861   3.466   0.924  11.474 -0.9620  0.9070 -0.8760
  392TMC3    H1 5862   3.870   1.029  11.419 -1.0078 -0.8534  0.6232
  392TMC3    H2 5863   3.602   0.990  11.070 -1.5480 -0.5367  0.0790
  392TMC3    C7 5864   3.866   1.010  11.149 -0.3161  0.6012  0.2593
  392TMC3    C8 5865   3.405   0.889  11.224 -0.3327  0.3115  0.1059
  392TMC3    O1 5866   3.975   0.970  11.193  0.0302  0.3820  0.5714
  392TMC3    O2 5867   3.352   0.810  11.304 -0.4299  0.0660  0.2194
  393TMC3    C1 5868   2.844   3.235  10.192  0.3841  1.0676  0.8763
  393TMC3    C2 5869   2.722   3.217  10.250  0.2888  0.0329 -0.1527
  393TMC3    C3 5870   2.717   3.202  10.390 -0.0518 -0.2200  0.0265
  393TMC3    C4 5871   2.959   3.240  10.274 -0.5280 -0.3234  0.6220
  393TMC3    C5 5872   2.948   3.239  10.410 -0.0168 -0.0147  0.3098
  393TMC3    C6 5873   2.828   3.219  10.471  0.1665 -0.2357  1.2477
  393TMC3     C 5874   2.872   3.268  10.053  0.4791 -0.8930  0.4137
  393TMC3     O 5875   2.979   3.244  10.002  0.4279  0.0250  0.2877
  393TMC3     H 5876   2.631   3.204  10.192  0.7044 -1.9314 -0.3731
  393TMC3    H1 5877   3.055   3.263  10.230 -0.7212 -1.5991 -0.4712
  393TMC3    H2 5878   2.826   3.215  10.579  0.5288  1.9053  1.3204
  393TMC3    C7 5879   3.051   3.303  10.484  0.6582  0.0783 -0.4237
  393TMC3    C8 5880   2.587   3.190  10.461 -0.0816 -0.0384  0.1241
  393TMC3    O1 5881   3.021   3.343  10.598 -0.1394 -0.2518  0.1207
  393TMC3    O2 5882   2.491   3.245  10.410  0.3042  0.0299  0.0388
  394TMC3    C1 5883   4.690   3.422   9.864 -0.2420  0.6709 -0.3184
  394TMC3    C2 5884   4.605   3.379   9.762 -0.5145 -0.5145  0.5546
  394TMC3    C3 5885   4.600   3.456   9.647 -0.1568 -0.2572  0.1637
  394TMC3    C4 5886   0.029   3.542   9.866 -0.3787  0.9473 -0.0741
  394TMC3    C5 5887   0.010   3.618   9.758 -0.5031  0.2901 -0.1449
  394TMC3    C6 5888   4.663   3.579   9.648  0.1210  0.0641 -0.5552
  394TMC3     C 5889   0.017   3.317   9.953  0.0467  0.4787 -0.8206
  394TMC3     O 5890   4.680   3.210   9.954 -0.1811 -0.1669  0.1706
  394TMC3     H 5891   4.560   3.281   9.771  0.2282 -0.9257 -0.2014
  394TMC3    H1 5892   0.062   3.589   9.959 -0.9265  0.1637  0.5159
  394TMC3    H2 5893   4.682   3.645   9.564  0.4097  1.3101  0.4860
  394TMC3    C7 5894   0.063   3.754   9.760  0.1521 -0.1509 -0.9740
  394TMC3    C8 5895   4.650   3.371   9.542 -0.4475  0.6045 -0.0889
  394TMC3    O1 5896   0.001   3.848   9.710  0.3264 -0.7149 -0.0850
  394TMC3    O2 5897   4.569   3.334   9.463  0.3172  0.6608 -0.4219
  395TMC3    C1 5898   4.163   1.062  14.502  0.2354 -0.5452  0.4944
  395TMC3    C2 5899   4.098   0.986  14.599 -0.4110  0.3954 -0.2002
  395TMC3    C3 5900   4.094   1.042  14.721 -0.4490  0.2842 -0.4709
  395TMC3    C4 5901   4.224   1.183  14.525 -0.2917  0.2116  0.6461
  395TMC3    C5 5902   4.208   1.242  14.645 -0.7837  0.0995  0.4078
  395TMC3    C6 5903   4.137   1.171  14.743  0.2082 -0.2714 -0.3817
  395TMC3     C 5904   4.235   0.985  14.404  0.3816 -0.1527 -0.2225
  395TMC3     O 5905   4.345   1.028  14.377  0.0921  0.0278 -0.0475
  395TMC3     H 5906   4.040   0.897  14.578  0.2917  0.2603 -1.5510
  395TMC3    H1 5907   4.273   1.234  14.443  0.5681 -0.4610  0.7403
  395TMC3    H2 5908   4.155   1.202  14.846 -0.6272  0.9839 -0.6266
  395TMC3    C7 5909   4.339   1.286  14.683  0.0792 -0.2123  0.5845
  395TMC3    C8 5910   4.083   0.948  14.830 -0.0685  0.2505 -0.4865
  395TMC3    O1 5911   4.381   1.241  14.790  0.6952 -0.5015 -0.4046
  395TMC3    O2 5912   4.038   0.975  14.938 -0.4644  0.0380 -0.3429
  396MPD2     C 5913   0.875   1.854  17.019  0.2215 -0.3222  1.3222
  396MPD2    C1 5914   0.747   1.875  17.063 -0.4973  0.3005 -0.1504
  396MPD2    C2 5915   0.659   1.927  16.966 -0.2339 -0.1625 -0.3141
  396MPD2    C3 5916   0.706   1.957  16.837  0.0377  0.7435 -0.5706
  396MPD2    C4 5917   0.839   1.946  16.804 -0.3205  0.0495  0.0327
  396MPD2    C5 5918   0.916   1.889  16.899  0.0268 -0.7878 -0.6810
  396MPD2     H 5919   0.555   1.943  16.991  0.8220  2.3343  2.5088
  396MPD2    H1 5920   0.886   1.962  16.707  0.9131  0.1161  0.6401
  396MPD2    H2 5921   0.949   1.810  17.084 -0.9019  1.3737  3.7364
  396MPD2    H3 5922   1.021   1.871  16.880 -0.1681 -0.6383 -1.9578
  396MPD2     N 5923   0.615   2.018  16.749  0.1686 -0.1322  0.0777
  396MPD2    H5 5924   0.526   2.055  16.780 -0.5003 -2.2579  0.6774
  396MPD2    N1 5925   0.715   1.823  17.190  0.4185  0.0206  0.8753
  396MPD2    H7 5926   0.787   1.791  17.254 -0.2032 -0.9915  1.0696
  397TMC3    C1 5927   0.594   1.739  17.363 -0.4853  0.2537 -0.2486
  397TMC3    C2 5928   0.685   1.638  17.397  0.3772  0.1944 -0.3189
  397TMC3    C3 5929   0.636   1.541  17.474 -0.3420 -0.2298 -0.1199
  397TMC3    C4 5930   0.469   1.744  17.415 -0.8838  0.2654  0.0413
  397TMC3    C5 5931   0.431   1.648  17.501  0.3444  0.0751  0.4735
  397TMC3    C6 5932   0.515   1.545  17.538 -0.3744 -0.1289 -0.7091
  397TMC3     C 5933   0.593   1.810  17.239  0.1441  0.1361 -0.0770
  397TMC3     O 5934   0.484   1.835  17.187  0.0322  0.4956 -0.3239
  397TMC3     H 5935   0.771   1.628  17.333 -1.0364 -2.7270 -1.7740
  397TMC3    H1 5936   0.402   1.825  17.387 -0.3752  0.2975 -1.0846
  397TMC3    H2 5937   0.492   1.457  17.597  0.6162  0.2841  0.3219
  397TMC3    C7 5938   0.291   1.626  17.521 -0.2787 -0.5576  0.3487
  397TMC3    C8 5939   0.673   1.409  17.434  0.1900  0.4727  0.8012
  397TMC3    O1 5940   0.215   1.631  17.426 -0.0117 -0.0855 -0.2795
  397TMC3    O2 5941   0.793   1.401  17.428  0.1149  0.1902 -0.5437
  398MPD2     C 5942   2.566   2.186   0.250 -0.4836  0.1542 -0.1305
  398MPD2    C1 5943   2.687   2.183   0.308 -0.6244  0.2995 -0.6884
  398MPD2    C2 5944   2.768   2.297   0.313  0.0294 -0.3046 -0.7518
  398MPD2    C3 5945   2.727   2.409   0.243 -0.7310 -0.9418  0.5332
  398MPD2    C4 5946   2.609   2.408   0.170 -0.1496 -0.4796  0.8842
  398MPD2    C5 5947   2.529   2.301   0.184  0.2238  0.1343 -0.3793
  398MPD2     H 5948   2.862   2.304   0.364 -0.6509  1.7495  0.2106
  398MPD2    H1 5949   2.564   2.488   0.112 -1.8083  0.0953  2.9816
  398MPD2    H2 5950   2.496   2.104   0.237  1.1882 -1.3209  0.1591
  398MPD2    H3 5951   2.432   2.302   0.137  0.3602  0.0548 -0.6623
  398MPD2     N 5952   2.805   2.530   0.254 -0.1172 -0.3295 -0.2846
  398MPD2    H5 5953   2.883   2.540   0.317  1.0698  1.4595 -2.0388
  398MPD2    N1 5954   2.728   2.072   0.375 -0.4434  0.0971  0.1588
  398MPD2    H7 5955   2.804   2.083   0.441 -0.1124  0.5463 -0.2874
  399TMC3    C1 5956   2.720   1.854   0.460 -0.5228  0.1339 -0.2349
  399TMC3    C2 5957   2.841   1.858   0.515 -0.0104  0.1574  0.3781
  399TMC3    C3 5958   2.866   1.765   0.613 -0.2659 -0.7064 -0.0558
  399TMC3    C4 5959   2.635   1.753   0.468  0.0362 -0.2869 -0.1649
  399TMC3    C5 5960   2.662   1.663   0.572  0.2194  0.4276 -0.2614
  399TMC3    C6 5961   2.766   1.681   0.654 -0.3307  0.0583 -0.1960
  399TMC3     C 5962   2.677   1.948   0.359 -0.1891  0.0332  0.0473
  399TMC3     O 5963   2.618   1.901   0.261  0.0227 -0.0069 -0.4522
  399TMC3     H 5964   2.922   1.921   0.480 -1.0332  1.4315  0.3305
  399TMC3    H1 5965   2.547   1.751   0.405 -0.4541  0.1919  0.5132
  399TMC3    H2 5966   2.780   1.606   0.732 -1.5826 -0.5245 -0.5244
  399TMC3    C7 5967   2.564   1.575   0.619 -0.4355 -0.9149  0.2152
  399TMC3    C8 5968   3.002   1.773   0.666 -0.5271 -0.6098  0.4117
  399TMC3    O1 5969   2.567   1.555   0.742  0.0792 -1.0723  0.4038
  399TMC3    O2 5970   3.086   1.837   0.596  0.3253 -0.2964 -0.3070
  400TMC3    C1 5971   1.702   0.966  16.892  0.8618  0.0663 -0.0304
  400TMC3    C2 5972   1.568   0.973  16.864 -0.0148 -1.3495  0.1987
  400TMC3    C3 5973   1.498   1.065  16.942 -0.6161  0.1558 -0.0152
  400TMC3    C4 5974   1.761   1.045  16.984  0.2631 -0.1383 -0.1798
  400TMC3    C5 5975   1.684   1.136  17.054 -0.0031  0.0596 -0.6502
  400TMC3    C6 5976   1.547   1.136  17.045  0.0674 -0.0101 -0.2481
  400TMC3     C 5977   1.758   0.834  16.883 -0.2415 -0.2562 -0.2486
  400TMC3     O 5978   1.808   0.784  16.985  0.0102  0.0076  0.0791
  400TMC3     H 5979   1.520   0.910  16.789 -1.2248 -0.0831 -0.0793
  400TMC3    H1 5980   1.869   1.048  16.981  0.3106 -0.4386  1.1707
  400TMC3    H2 5981   1.468   1.189  17.098  1.1219  1.6295 -0.3269
  400TMC3    C7 5982   1.739   1.264  17.070 -0.2298 -0.6892  0.1569
  400TMC3    C8 5983   1.398   1.141  16.864 -0.0765  0.7660 -0.6125
  400TMC3    O1 5984   1.862   1.255  17.081 -0.1877  0.5165 -0.4218
  400TMC3    O2 5985   1.362   1.247  16.909  0.1720  0.5616  0.2355
  401MPD2     C 5986   3.966   0.330   0.350  0.0402 -0.4474 -0.6641
  401MPD2    C1 5987   4.059   0.287   0.440  0.1097  0.1703 -0.8694
  401MPD2    C2 5988   4.122   0.161   0.422 -0.1108 -0.0094 -0.0732
  401MPD2    C3 5989   4.093   0.087   0.308 -0.3725  0.2738  0.2887
  401MPD2    C4 5990   4.006   0.137   0.217 -1.3802 -0.1469  0.2131
  401MPD2    C5 5991   3.946   0.256   0.236  0.6076 -0.1056 -0.4731
  401MPD2     H 5992   4.195   0.126   0.495 -0.2781  0.8131  0.5008
  401MPD2    H1 5993   3.988   0.089   0.122 -1.2164  1.6792 -0.7411
  401MPD2    H2 5994   3.921   0.427   0.370 -0.8095 -0.9308 -0.2029
  401MPD2    H3 5995   3.883   0.287   0.154 -1.4421  0.0869  1.1730
  401MPD2     N 5996   4.159   4.679   0.307  0.3523 -0.5913  0.0629
  401MPD2    H5 5997   4.220   4.659   0.385  0.8233  2.4093  0.4399
  401MPD2    N1 5998   4.106   0.366   0.545 -0.0790 -0.1172  0.5436
  401MPD2    H7 5999   4.182   0.322   0.596 -1.5494 -0.8501  2.1150
  402TMC3    C1 6000   4.207   4.462   0.246  0.0347  0.0485  0.0763
  402TMC3    C2 6001   4.226   4.432   0.380  0.5318  0.8518 -0.1628
  402TMC3    C3 6002   4.302   4.315   0.401  0.6695 -0.1430 -0.3279
  402TMC3    C4 6003   4.259   4.385   0.148  0.3006  0.0377 -0.3518
  402TMC3    C5 6004   4.338   4.280   0.177  0.1849 -0.4255  0.6491
  402TMC3    C6 6005   4.365   4.237   0.302 -0.7430 -0.4616 -0.0085
  402TMC3     C 6006   4.138   4.582   0.210 -0.6443 -0.5011 -0.0399
  402TMC3     O 6007   4.085   4.591   0.101  0.4117 -0.3860  0.1615
  402TMC3     H 6008   4.179   4.481   0.465 -0.4230 -0.2842 -0.0338
  402TMC3    H1 6009   4.242   4.413   0.045 -0.3814 -1.6975 -0.7119
  402TMC3    H2 6010   4.420   4.145   0.321 -1.4973 -1.0801 -0.7904
  402TMC3    C7 6011   4.375   4.196   0.063  0.1983  0.1908  0.0407
  402TMC3    C8 6012   4.345   4.290   0.544 -0.5449 -0.0078 -0.2768
  402TMC3    O1 6013   4.311   4.225  17.651 -0.5670  0.0988  0.1609
  402TMC3    O2 6014   4.366   4.174   0.572  0.3188  0.6183  0.2716
  403MPD2     C 6015   2.990   3.031  13.305  0.2180  0.1484 -0.3083
  403MPD2    C1 6016   2.940   2.958  13.416 -0.5369 -0.0979  0.2031
  403MPD2    C2 6017   2.969   3.011  13.543  0.7423  0.3468 -0.2381
  403MPD2    C3 6018   3.027   3.134  13.568 -0.1389 -0.5051 -0.3480
  403MPD2    C4 6019   3.053   3.208  13.452 -0.2706  0.4770 -0.3730
  403MPD2    C5 6020   3.047   3.156  13.323 -0.6759  0.3693 -0.1424
  403MPD2     H 6021   2.926   2.962  13.629  0.4455  1.9747  0.5388
  403MPD2    H1 6022   3.093   3.309  13.461 -2.2280  1.2713 -0.6043
  403MPD2    H2 6023   2.981   2.994  13.203  0.7383 -1.9186  0.4157
  403MPD2    H3 6024   3.076   3.225  13.244  2.5856  1.8844  2.3554
  403MPD2     N 6025   3.052   3.172  13.700  0.5440  0.9855 -0.3150
  403MPD2    H5 6026   3.045   3.101  13.772  1.2991  0.2483 -0.9669
  403MPD2    N1 6027   2.861   2.843  13.395  0.0640  0.4775 -0.1388
  403MPD2    H7 6028   2.856   2.818  13.297 -1.4841 -0.9432  0.3054
  404TMC3    C1 6029   2.742   2.645  13.418 -0.2249 -0.2768  0.1903
  404TMC3    C2 6030   2.718   2.524  13.489  0.6336  0.2793 -0.1142
  404TMC3    C3 6031   2.635   2.429  13.435  0.8126  0.2849 -0.7608
  404TMC3    C4 6032   2.678   2.665  13.294 -0.2044 -0.0686 -0.5468
  404TMC3    C5 6033   2.613   2.560  13.240  0.7810  0.2409 -0.0365
  404TMC3    C6 6034   2.600   2.441  13.306 -0.5123 -0.2699  0.8059
  404TMC3     C 6035   2.810   2.751  13.485  0.1103 -0.0176 -0.5022
  404TMC3     O 6036   2.842   2.755  13.602  0.2832 -0.0803  0.5993
  404TMC3     H 6037   2.771   2.508  13.582  0.7343  1.7617  0.0852
  404TMC3    H1 6038   2.682   2.760  13.243 -0.3574  0.0095 -0.4118
  404TMC3    H2 6039   2.536   2.361  13.271  1.8080 -0.8822 -2.0916
  404TMC3    C7 6040   2.608   2.561  13.095  0.0729  0.1375 -0.1645
  404TMC3    C8 6041   2.634   2.300  13.486 -0.0506 -0.5180  0.3221
  404TMC3    O1 6042   2.671   2.651  13.035 -0.1931 -0.1973 -0.1898
  404TMC3    O2 6043   2.695   2.221  13.419 -0.2351 -0.0356 -0.3675
  405MPD2     C 6044   3.276   3.959  15.091  0.2594 -0.0280 -0.9729
  405MPD2    C1 6045   3.314   3.854  15.002 -0.6800  0.3228  0.2897
  405MPD2    C2 6046   3.248   3.843  14.877 -1.2860  0.8950  0.6010
  405MPD2    C3 6047   3.153   3.940  14.842 -0.4094  0.4442 -0.0735
  405MPD2    C4 6048   3.119   4.035  14.929 -0.2850 -0.4615  0.1453
  405MPD2    C5 6049   3.180   4.049  15.050  0.0651  0.1101 -0.4083
  405MPD2     H 6050   3.267   3.761  14.808  0.9974  3.3150 -1.6177
  405MPD2    H1 6051   3.030   4.091  14.903 -0.6958 -2.0718 -1.9305
  405MPD2    H2 6052   3.318   3.969  15.191 -0.5927 -0.6208 -0.5498
  405MPD2    H3 6053   3.151   4.123  15.125 -0.0656 -0.6227  0.2687
  405MPD2     N 6054   3.081   3.919  14.722  0.0956 -0.2802  0.4177
  405MPD2    H5 6055   3.100   3.833  14.672 -0.7929  0.6328 -1.5218
  405MPD2    N1 6056   3.408   3.751  15.030 -0.3392 -0.2814 -0.4182
  405MPD2    H7 6057   3.403   3.684  14.954 -1.4571 -0.3246 -0.3070
  406TMC3    C1 6058   2.825   3.916  14.338 -0.5757 -0.2275  0.0521
  406TMC3    C2 6059   2.859   3.786  14.321  0.2848 -0.2956  0.8884
  406TMC3    C3 6060   2.933   3.726  14.423  0.2485  1.0712 -0.0590
  406TMC3    C4 6061   2.860   3.987  14.450  0.5791  0.0406 -0.4855
  406TMC3    C5 6062   2.918   3.920  14.556 -0.3071  0.0778 -0.6555
  406TMC3    C6 6063   2.959   3.786  14.545  0.4055 -0.0731 -0.1241
  406TMC3     C 6064   2.752   3.993  14.242 -0.2654 -0.1488  0.6177
  406TMC3     O 6065   2.774   4.114  14.249  0.5373  0.2247 -0.4563
  406TMC3     H 6066   2.835   3.730  14.231  0.7233 -3.4440  2.7420
  406TMC3    H1 6067   2.839   4.092  14.465  2.2260  0.3112 -0.0029
  406TMC3    H2 6068   2.998   3.726  14.627 -1.2019 -1.0313 -0.0558
  406TMC3    C7 6069   2.979   3.990  14.663 -0.0434  0.4920 -0.2502
  406TMC3    C8 6070   2.982   3.591  14.401  0.3013  0.3133  0.6064
  406TMC3    O1 6071   2.920   4.093  14.691  0.0149 -0.6583  0.1436
  406TMC3    O2 6072   2.919   3.512  14.333  0.2722 -0.2174  0.4584
  407MPD2     C 6073   0.005   0.934   9.620  0.2622 -0.0165 -0.2659
  407MPD2    C1 6074   0.083   0.821   9.611  0.1753 -0.0007 -0.7779
  407MPD2    C2 6075   0.073   0.730   9.712  0.3871 -1.0593 -0.7820
  407MPD2    C3 6076   4.708   0.743   9.817  0.4351  0.1949 -0.1582
  407MPD2    C4 6077   4.615   0.842   9.804  0.2851  0.3083 -0.0311
  407MPD2    C5 6078   4.626   0.942   9.711 -0.7142  0.1517  0.7807
  407MPD2     H 6079   0.140   0.645   9.711  0.1788 -1.2287  0.4472
  407MPD2    H1 6080   4.540   0.853   9.882 -1.5118 -2.2451 -1.4087
  407MPD2    H2 6081   0.015   1.023   9.559 -1.2497 -0.3064 -0.9551
  407MPD2    H3 6082   4.561   1.029   9.710  0.8207  1.2579 -2.0232
  407MPD2     N 6083   4.717   0.670   9.935 -0.0386  0.5631  0.2695
  407MPD2    H5 6084   4.647   0.682  10.008 -0.7195  0.7140 -0.4129
  407MPD2    N1 6085   0.176   0.818   9.514  0.4117 -0.1491  0.0145
  407MPD2    H7 6086   0.179   0.893   9.445 -0.1660  0.0115  0.1630
  408TMC3    C1 6087   0.373   0.734   9.406  0.0959  0.7308 -0.3528
  408TMC3    C2 6088   0.418   0.636   9.330  0.0359 -0.1053  0.2443
  408TMC3    C3 6089   0.538   0.654   9.267  0.2971 -0.1867 -0.6261
  408TMC3    C4 6090   0.449   0.838   9.445 -0.1928  0.0596  0.4368
  408TMC3    C5 6091   0.571   0.854   9.394 -0.2056 -0.1124  0.1359
  408TMC3    C6 6092   0.623   0.762   9.306  0.0585  0.6568 -0.9463
  408TMC3     C 6093   0.252   0.709   9.475  0.0584  0.5002  0.2438
  408TMC3     O 6094   0.224   0.591   9.491 -0.0708 -0.1925  0.2710
  408TMC3     H 6095   0.361   0.547   9.309  0.8394 -0.4545 -0.4550
  408TMC3    H1 6096   0.405   0.900   9.522 -0.5877 -0.4944  0.6614
  408TMC3    H2 6097   0.725   0.777   9.272  0.1275 -1.5446 -1.7034
  408TMC3    C7 6098   0.660   0.954   9.441  0.5050 -0.2775 -0.4751
  408TMC3    C8 6099   0.601   0.530   9.229 -0.0117  0.0352 -0.3099
  408TMC3    O1 6100   0.781   0.951   9.413 -0.2914 -0.6198  0.5491
  408TMC3    O2 6101   0.520   0.447   9.186 -0.2262 -0.2689  0.4097
  409MPD2     C 6102   0.387   0.634  16.917  0.0266 -0.7801  0.3867
  409MPD2    C1 6103   0.462   0.644  17.032  0.5095 -0.1086 -0.3675
  409MPD2    C2 6104   0.582   0.716  17.025  0.3397 -0.3145 -1.2057
  409MPD2    C3 6105   0.628   0.766  16.904  1.2169  0.0190 -0.9352
  409MPD2    C4 6106   0.546   0.764  16.796 -0.1760 -0.0601  0.7455
  409MPD2    C5 6107   0.431   0.693  16.801  0.6247  0.2907 -0.8683
  409MPD2     H 6108   0.655   0.725  17.105  0.3684 -0.6030 -1.1992
  409MPD2    H1 6109   0.576   0.804  16.700 -0.5708 -2.0596 -0.1930
  409MPD2    H2 6110   0.289   0.590  16.926  0.5387 -2.0763 -0.4405
  409MPD2    H3 6111   0.368   0.681  16.713  1.5102 -0.9047 -1.3381
  409MPD2     N 6112   0.749   0.841  16.903  0.1542 -0.7776 -0.0313
  409MPD2    H5 6113   0.809   0.835  16.984 -0.3838 -3.6274  0.1633
  409MPD2    N1 6114   0.428   0.593  17.156  0.0922 -0.0303  0.4538
  409MPD2    H7 6115   0.506   0.600  17.221 -0.4305 -1.1930  1.2061
  410TMC3    C1 6116   0.925   0.989  16.831  1.3552 -0.2611 -0.6086
  410TMC3    C2 6117   0.997   0.960  16.941  0.2978  0.5027  0.0949
  410TMC3    C3 6118   1.063   1.059  17.010  0.2173 -0.4611 -0.9634
  410TMC3    C4 6119   0.921   1.111  16.780 -0.1244  0.1715  0.6890
  410TMC3    C5 6120   0.981   1.213  16.852 -0.6766  0.6101 -0.2104
  410TMC3    C6 6121   1.062   1.185  16.962 -0.7081  0.3104  0.1582
  410TMC3     C 6122   0.803   0.908  16.798 -0.0834 -0.1656 -0.5859
  410TMC3     O 6123   0.763   0.928  16.686  0.2452  0.4705  0.3430
  410TMC3     H 6124   0.995   0.857  16.977 -0.0864  0.2657 -0.6002
  410TMC3    H1 6125   0.852   1.132  16.699 -0.3549 -0.0723  0.8238
  410TMC3    H2 6126   1.118   1.260  17.015  0.3073  1.1996 -2.1570
  410TMC3    C7 6127   0.985   1.346  16.801 -0.1766 -0.1393  0.6062
  410TMC3    C8 6128   1.148   1.029  17.121  0.1208 -0.3175 -0.5054
  410TMC3    O1 6129   0.887   1.375  16.730  0.2283  0.4251  0.1439
  410TMC3    O2 6130   1.174   1.121  17.196 -0.1266 -0.0415  0.2827
  411MPD2     C 6131   0.888   1.490  14.468 -0.1868  0.6280  0.2761
  411MPD2    C1 6132   0.753   1.469  14.474 -0.5172 -0.1406 -0.2872
  411MPD2    C2 6133   0.707   1.340  14.490  0.4907  0.0601 -0.9997
  411MPD2    C3 6134   0.791   1.234  14.503  0.5089 -0.7118  0.3127
  411MPD2    C4 6135   0.925   1.252  14.481  0.2686 -0.1272  0.0266
  411MPD2    C5 6136   0.969   1.385  14.472 -0.9900  0.3684  0.1622
  411MPD2     H 6137   0.601   1.325  14.505  0.4873 -0.6452 -1.7228
  411MPD2    H1 6138   0.998   1.172  14.471 -0.8863 -1.0683 -0.7989
  411MPD2    H2 6139   0.926   1.588  14.440  0.2004  0.4199  0.0808
  411MPD2    H3 6140   1.074   1.397  14.445 -0.9031 -0.4469  0.1464
  411MPD2     N 6141   0.747   1.105  14.537  0.3138 -0.0462  0.1323
  411MPD2    H5 6142   0.819   1.036  14.557 -0.5040 -1.3908 -1.5985
  411MPD2    N1 6143   0.665   1.579  14.486  0.1368  0.6378 -0.4533
  411MPD2    H7 6144   0.714   1.665  14.506  0.0278  0.4387  0.7008
  412TMC3    C1 6145   0.619   0.915  14.529 -0.4175  0.0207  1.2129
  412TMC3    C2 6146   0.517   0.849  14.587 -0.1583 -0.0181 -0.6466
  412TMC3    C3 6147   0.494   0.717  14.550  0.3285  0.1379  0.6448
  412TMC3    C4 6148   0.705   0.861  14.441  0.3434 -0.4357  0.0697
  412TMC3    C5 6149   0.681   0.737  14.396 -0.0647  0.0596 -0.8589
  412TMC3    C6 6150   0.581   0.664  14.459  0.8095  0.4679 -0.0801
  412TMC3     C 6151   0.616   1.059  14.523 -0.2134 -0.2479  0.4870
  412TMC3     O 6152   0.511   1.125  14.516  0.0513  0.6173  0.8425
  412TMC3     H 6153   0.451   0.912  14.645 -1.4485 -1.9768  0.0149
  412TMC3    H1 6154   0.760   0.929  14.378 -2.5909  1.0839 -0.8608
  412TMC3    H2 6155   0.559   0.566  14.419 -0.3567  1.2133 -1.2526
  412TMC3    C7 6156   0.661   0.734  14.246 -0.6670  0.8697  0.0390
  412TMC3    C8 6157   0.354   0.696  14.511 -0.4378 -0.5473 -0.7051
  412TMC3    O1 6158   0.621   0.839  14.196 -0.3335  0.5225  0.1239
  412TMC3    O2 6159   0.335   0.620  14.412 -0.2406 -0.8757 -0.0777
  413MPD2     C 6160   2.200   0.139  15.415  0.0529 -0.1559 -0.1061
  413MPD2    C1 6161   2.148   0.073  15.311 -0.3627  0.0921 -0.3889
  413MPD2    C2 6162   2.224   4.694  15.261  0.1592  0.4108 -0.1233
  413MPD2    C3 6163   2.355   4.678  15.308  0.2594  0.4111 -0.7719
  413MPD2    C4 6164   2.409   0.037  15.407  0.0277 -0.6921 -0.0962
  413MPD2    C5 6165   2.325   0.117  15.474 -0.0239  0.0236 -0.1771
  413MPD2     H 6166   2.197   4.628  15.179 -0.5931  0.1696  0.3206
  413MPD2    H1 6167   2.504   0.018  15.454  0.1528 -0.9209 -0.4378
  413MPD2    H2 6168   2.142   0.221  15.456  0.8224 -0.9158  2.5380
  413MPD2    H3 6169   2.356   0.171  15.563  2.8405  0.3881 -1.4049
  413MPD2     N 6170   2.428   4.561  15.286 -0.3364 -0.3888  0.7629
  413MPD2    H5 6171   2.521   4.560  15.326  0.2720  0.0876 -0.6677
  413MPD2    N1 6172   2.021   0.106  15.263  0.1666  0.6306  0.0099
  413MPD2    H7 6173   1.974   0.181  15.313  0.9573  0.1802  1.4156
  414TMC3    C1 6174   2.504   4.360  15.196 -0.3445  0.0305 -0.6273
  414TMC3    C2 6175   2.503   4.225  15.219  0.5772  0.3531  0.1833
  414TMC3    C3 6176   2.608   4.161  15.174  0.0546 -0.6800  0.0536
  414TMC3    C4 6177   2.602   4.419  15.119  0.2629  0.3201  0.0139
  414TMC3    C5 6178   2.709   4.351  15.072 -0.2351 -0.4599 -0.0090
  414TMC3    C6 6179   2.715   4.226  15.109 -0.5201 -0.1695 -0.2099
  414TMC3     C 6180   2.391   4.441  15.232 -0.0922 -0.3354 -0.1256
  414TMC3     O 6181   2.283   4.387  15.217  0.2519 -0.3778 -0.3788
  414TMC3     H 6182   2.420   4.178  15.269  0.9446  0.4761  0.9103
  414TMC3    H1 6183   2.599   4.524  15.092 -3.2336 -0.1143 -1.3990
  414TMC3    H2 6184   2.807   4.171  15.096 -0.4880 -0.2822  0.5327
  414TMC3    C7 6185   2.840   4.419  15.069  0.4949 -1.0642  0.0513
  414TMC3    C8 6186   2.643   4.030  15.225  0.4511 -0.1229 -1.0828
  414TMC3    O1 6187   2.865   4.488  15.168  0.6994 -0.3638 -0.8338
  414TMC3    O2 6188   2.579   3.929  15.193  0.0311 -0.0192 -0.1858
  415TMC3    C1 6189   2.647   2.614   9.801 -0.4830  0.7301 -0.5245
  415TMC3    C2 6190   2.705   2.673   9.693  0.3011  0.5527 -0.2770
  415TMC3    C3 6191   2.625   2.725   9.593 -0.0903 -0.4403 -0.2407
  415TMC3    C4 6192   2.511   2.601   9.810  0.4626  0.3953 -0.4395
  415TMC3    C5 6193   2.439   2.650   9.701 -0.4538  0.0543 -0.4350
  415TMC3    C6 6194   2.487   2.716   9.596 -0.4846 -0.2337 -0.6858
  415TMC3     C 6195   2.717   2.595   9.926  0.1687 -0.2563  1.0614
  415TMC3     O 6196   2.646   2.606  10.025  0.0284  0.3795  0.4694
  415TMC3     H 6197   2.812   2.684   9.679  0.1619 -0.0867 -1.7991
  415TMC3    H1 6198   2.465   2.551   9.895 -2.3768  1.7909 -1.1519
  415TMC3    H2 6199   2.423   2.757   9.519 -1.5050 -2.9402 -1.2660
  415TMC3    C7 6200   2.293   2.648   9.715 -0.4475  0.3300 -0.0889
  415TMC3    C8 6201   2.670   2.760   9.457 -0.9414 -0.7935  0.4017
  415TMC3    O1 6202   2.231   2.710   9.634 -0.1423 -0.1588  0.3783
  415TMC3    O2 6203   2.581   2.781   9.374 -0.2510  0.1309 -0.8261
  416MPD2     C 6204   0.374   1.416  11.477  0.6358 -0.0746  0.7393
  416MPD2    C1 6205   0.285   1.351  11.394  0.1223  0.0859  0.2852
  416MPD2    C2 6206   0.335   1.269  11.293  0.0846 -0.4709  0.0406
  416MPD2    C3 6207   0.469   1.257  11.272 -0.2500  0.0896  0.5200
  416MPD2    C4 6208   0.556   1.330  11.355 -0.2102 -0.7765 -0.2296
  416MPD2    C5 6209   0.508   1.404  11.463 -0.4383 -0.2975 -0.1459
  416MPD2     H 6210   0.266   1.210  11.233 -0.3081  2.4732 -2.4254
  416MPD2    H1 6211   0.658   1.347  11.322 -0.8425 -0.0681 -1.7919
  416MPD2    H2 6212   0.346   1.476  11.563  0.4150 -0.8239  1.1930
  416MPD2    H3 6213   0.574   1.471  11.517  1.0787 -0.9351 -1.2071
  416MPD2     N 6214   0.523   1.172  11.178 -0.8423  0.2059  0.1998
  416MPD2    H5 6215   0.624   1.182  11.165 -0.4860 -1.0545  2.0025
  416MPD2    N1 6216   0.146   1.358  11.429 -0.3172  0.0052  0.3997
  416MPD2    H7 6217   0.117   1.409  11.512  1.1238 -1.1347  1.5939
  417TMC3    C1 6218   4.635   1.378  11.382  0.5840  0.1851  0.3499
  417TMC3    C2 6219   4.615   1.411  11.512  0.4673 -0.4488 -0.3302
  417TMC3    C3 6220   4.487   1.434  11.560 -0.0431  0.3012  0.5664
  417TMC3    C4 6221   4.534   1.382  11.290 -0.9791  0.5749 -0.0841
  417TMC3    C5 6222   4.410   1.430  11.338  0.1824  0.1224 -0.7544
  417TMC3    C6 6223   4.383   1.454  11.470 -0.2965 -0.0533  0.1423
  417TMC3     C 6224   0.041   1.315  11.345 -0.4619  0.0669  0.2396
  417TMC3     O 6225   0.045   1.254  11.238 -0.5168  0.0707  0.1026
  417TMC3     H 6226   4.688   1.376  11.584  0.9510 -1.4700 -1.3166
  417TMC3    H1 6227   4.558   1.361  11.187  1.2438  0.4919  0.4496
  417TMC3    H2 6228   4.282   1.467  11.507 -0.7589  0.6484 -1.3632
  417TMC3    C7 6229   4.317   1.495  11.247 -0.4024  0.1447  0.0950
  417TMC3    C8 6230   4.455   1.466  11.700  0.5390 -0.0407  0.2186
  417TMC3    O1 6231   4.343   1.491  11.130  0.1563 -0.4409  0.4618
  417TMC3    O2 6232   4.340   1.477  11.737  0.6588  0.4305  0.2777
  418TMC3    C1 6233   3.077   2.833   0.157  0.1074 -0.4366 -0.5088
  418TMC3    C2 6234   2.948   2.798   0.122 -0.0258 -0.2252 -0.6106
  418TMC3    C3 6235   2.871   2.751   0.219 -0.1781 -0.7606 -0.5663
  418TMC3    C4 6236   3.117   2.817   0.286 -0.0869 -0.8499 -0.3854
  418TMC3    C5 6237   3.029   2.766   0.379  0.1281 -0.2243  0.2892
  418TMC3    C6 6238   2.900   2.746   0.347  0.7424  0.6830 -0.0455
  418TMC3     C 6239   3.167   2.819   0.052  0.6572  0.3155  0.8037
  418TMC3     O 6240   3.135   2.873  17.640 -0.4755 -0.5227 -0.9944
  418TMC3     H 6241   2.924   2.785   0.017 -1.0175  1.8851 -0.6349
  418TMC3    H1 6242   3.217   2.836   0.324  1.2310 -0.1658 -4.2050
  418TMC3    H2 6243   2.836   2.698   0.421 -1.3663  2.1369 -0.9368
  418TMC3    C7 6244   3.067   2.689   0.498  0.1881  0.0060 -0.3226
  418TMC3    C8 6245   2.779   2.644   0.174  0.1508  0.5511 -0.0669
  418TMC3    O1 6246   3.000   2.593   0.518  0.2237  0.0277 -0.2026
  418TMC3    O2 6247   2.708   2.661   0.072 -0.0945  0.4206  0.2898
  419MPD2     C 6248   1.713   0.815  12.535  0.1755 -0.0110  0.0311
  419MPD2    C1 6249   1.646   0.929  12.527 -0.8261 -0.0825  0.2142
  419MPD2    C2 6250   1.558   0.975  12.623 -0.4851  0.3575 -1.5126
  419MPD2    C3 6251   1.533   0.895  12.733 -0.3290  0.4703 -0.0577
  419MPD2    C4 6252   1.600   0.775  12.736  0.0525 -0.4690 -1.0879
  419MPD2    C5 6253   1.684   0.732  12.642  0.8629  0.2945 -0.4161
  419MPD2     H 6254   1.498   1.063  12.604 -1.2642 -0.1172 -1.2767
  419MPD2    H1 6255   1.592   0.704  12.817  1.8894  1.3582  0.6818
  419MPD2    H2 6256   1.775   0.778  12.453  1.4111  0.5649  0.7120
  419MPD2    H3 6257   1.732   0.640  12.672 -1.7022 -1.2422 -1.0203
  419MPD2     N 6258   1.433   0.932  12.828  0.8189  0.3372 -0.5377
  419MPD2    H5 6259   1.386   1.021  12.817 -0.0883  0.0158  0.6246
  419MPD2    N1 6260   1.659   1.020  12.418 -0.4886  0.0717 -0.2162
  419MPD2    H7 6261   1.624   1.113  12.433 -1.4367 -0.4611  0.8834
  420TMC3    C1 6262   1.296   0.924  13.011  0.5172  0.9396 -0.3808
  420TMC3    C2 6263   1.212   1.008  12.940  0.5362 -0.0420  0.4717
  420TMC3    C3 6264   1.135   1.099  13.020  0.4935  1.0321 -0.1346
  420TMC3    C4 6265   1.326   0.935  13.143 -0.6468 -0.0979  0.0350
  420TMC3    C5 6266   1.263   1.038  13.213  0.2260 -0.9749 -0.0500
  420TMC3    C6 6267   1.174   1.126  13.156 -0.0740 -0.0909 -0.4500
  420TMC3     C 6268   1.393   0.858  12.934 -0.2693  0.3584  0.0979
  420TMC3     O 6269   1.430   0.748  12.978 -0.0588 -0.3691  0.1571
  420TMC3     H 6270   1.204   1.000  12.832  0.7644 -0.5620  0.4962
  420TMC3    H1 6271   1.400   0.870  13.185 -0.7021  0.1478  0.5142
  420TMC3    H2 6272   1.113   1.193  13.216  0.0727 -0.4951  0.1561
  420TMC3    C7 6273   1.343   1.087  13.323  0.5106  0.2626 -0.1554
  420TMC3    C8 6274   1.062   1.204  12.945  0.0321  0.7288 -0.4120
  420TMC3    O1 6275   1.419   1.007  13.380  0.4054  0.2747  0.1237
  420TMC3    O2 6276   1.067   1.322  12.981  0.1307  0.0810  0.3978
  421TMC3    C1 6277   3.137   3.325  13.863 -0.0041 -0.1564  0.1868
  421TMC3    C2 6278   3.128   3.450  13.921  0.0940  0.3124 -0.0157
  421TMC3    C3 6279   3.199   3.474  14.037  0.0713 -0.6849 -0.6249
  421TMC3    C4 6280   3.212   3.224  13.920  0.6826  0.2868  0.3880
  421TMC3    C5 6281   3.284   3.258  14.027  0.3549  0.5381  0.6794
  421TMC3    C6 6282   3.288   3.379  14.085 -0.0300  0.0827 -0.3718
  421TMC3     C 6283   3.078   3.307  13.729  0.0522  0.2003  0.0764
  421TMC3     O 6284   3.055   3.408  13.661 -0.1830  0.6412  0.4238
  421TMC3     H 6285   3.057   3.522  13.883 -2.2704 -0.7607  2.2970
  421TMC3    H1 6286   3.215   3.122  13.882 -2.2527 -0.4336  2.0323
  421TMC3    H2 6287   3.354   3.375  14.170  0.4277  1.9619 -0.6401
  421TMC3    C7 6288   3.334   3.141  14.098  0.0946  0.6968 -0.5317
  421TMC3    C8 6289   3.189   3.607  14.095 -0.1103 -0.4917 -0.8354
  421TMC3    O1 6290   3.452   3.154  14.136  0.2050 -0.0288  0.0212
  421TMC3    O2 6291   3.116   3.690  14.043  0.2445 -0.1822  0.2748
  422TMC3    C1 6292   0.645   4.170  12.484  0.5040 -0.5623  0.0674
  422TMC3    C2 6293   0.634   4.279  12.573  0.7367 -0.4461 -0.2614
  422TMC3    C3 6294   0.520   4.287  12.659 -0.1088  0.2414  0.8080
  422TMC3    C4 6295   0.543   4.076  12.484 -0.2140 -0.4003  0.3484
  422TMC3    C5 6296   0.431   4.099  12.552  0.0014  0.0138  0.1680
  422TMC3    C6 6297   0.430   4.187  12.656 -0.0628  0.4420 -0.2354
  422TMC3     C 6298   0.765   4.150  12.413  0.2999 -0.5066  0.5178
  422TMC3     O 6299   0.829   4.249  12.393 -0.0617  0.1734 -0.2879
  422TMC3     H 6300   0.721   4.342  12.582  0.2920  0.0647  0.5265
  422TMC3    H1 6301   0.546   3.996  12.412  0.3008  1.9093 -2.1787
  422TMC3    H2 6302   0.356   4.177  12.735 -0.4538  2.0200 -0.4150
  422TMC3    C7 6303   0.312   4.018  12.522  0.4024 -0.1877 -0.8928
  422TMC3    C8 6304   0.525   4.380  12.776  0.0836  0.2843 -0.3186
  422TMC3    O1 6305   0.313   3.936  12.436 -0.4209 -0.4166 -0.4049
  422TMC3    O2 6306   0.598   4.481  12.762 -0.2073 -0.1024  0.0222
  423MPD2     C 6307   1.750   0.515   0.565 -0.1505 -0.5799 -0.0546
  423MPD2    C1 6308   1.873   0.464   0.604 -0.4395  0.3144  0.5936
  423MPD2    C2 6309   1.933   0.369   0.531  0.5176  0.3032 -0.2028
  423MPD2    C3 6310   1.895   0.341   0.401  0.6578  0.3152  0.5937
  423MPD2    C4 6311   1.793   0.411   0.356 -0.2983  0.4663  0.3482
  423MPD2    C5 6312   1.712   0.479   0.444 -0.1716  0.0454 -0.1552
  423MPD2     H 6313   2.017   0.317   0.574 -0.0085 -1.0693 -0.8333
  423MPD2    H1 6314   1.754   0.392   0.256  0.7412 -1.2646  0.2834
  423MPD2    H2 6315   1.701   0.595   0.619  1.0223 -0.1799  0.4233
  423MPD2    H3 6316   1.617   0.516   0.408 -0.0706  0.1088 -0.3530
  423MPD2     N 6317   1.949   0.237   0.321  0.3175  0.3204  0.2715
  423MPD2    H5 6318   1.937   0.237   0.220 -0.1491  1.5039  0.3258
  423MPD2    N1 6319   1.943   0.505   0.717 -0.1861  0.0124  0.8996
  423MPD2    H7 6320   2.036   0.466   0.728 -1.2040 -2.1139  1.9737
  424TMC3    C1 6321   2.011   0.600   0.910  0.1073 -0.5733 -0.3461
  424TMC3    C2 6322   2.083   0.483   0.937  0.2087 -0.0990  0.3451
  424TMC3    C3 6323   2.177   0.498   1.029 -0.4223 -0.3276 -0.3091
  424TMC3    C4 6324   2.036   0.721   0.967 -0.4085 -0.8896 -0.1287
  424TMC3    C5 6325   2.136   0.732   1.060 -0.3623 -0.0098  0.2603
  424TMC3    C6 6326   2.210   0.619   1.089  0.7225 -0.6871 -0.3978
  424TMC3     C 6327   1.911   0.600   0.812  0.2924 -0.2695  0.1810
  424TMC3     O 6328   1.832   0.694   0.813 -0.0658 -0.6161  0.1480
  424TMC3     H 6329   2.058   0.387   0.894  0.5066  0.4594 -1.0787
  424TMC3    H1 6330   1.971   0.807   0.957  1.4058  0.4076 -0.6394
  424TMC3    H2 6331   2.298   0.618   1.152 -0.6812 -0.7547  1.5485
  424TMC3    C7 6332   2.193   0.858   1.076  0.0753  1.0841 -0.1827
  424TMC3    C8 6333   2.262   0.377   1.058  0.9658 -0.0235  0.6911
  424TMC3    O1 6334   2.184   0.937   0.979 -0.3051 -0.2656  0.1727
  424TMC3    O2 6335   2.207   0.266   1.050  0.4141  0.1879  0.0353
  425MPD2     C 6336   1.337   4.640   0.259 -0.7597 -0.8796  0.8240
  425MPD2    C1 6337   1.287   4.547   0.168  0.4321 -0.5251 -0.5210
  425MPD2    C2 6338   1.150   4.552   0.131 -0.0368  0.1064 -0.1325
  425MPD2    C3 6339   1.069   4.653   0.179  0.1450 -0.5659  0.6181
  425MPD2    C4 6340   1.121   0.032   0.257 -0.2381 -0.3342  0.3080
  425MPD2    C5 6341   1.250   0.015   0.302  0.3863 -0.0767  0.1157
  425MPD2     H 6342   1.099   4.468   0.086 -0.2025  0.8200 -1.2570
  425MPD2    H1 6343   1.073   0.128   0.271 -1.4290 -1.1070  1.5310
  425MPD2    H2 6344   1.441   4.649   0.289 -0.8087 -1.1866  1.0870
  425MPD2    H3 6345   1.285   0.084   0.378  1.2772 -1.5759  1.0551
  425MPD2     N 6346   0.934   4.642   0.134 -0.6037 -0.1151  0.0402
  425MPD2    H5 6347   0.915   4.567   0.067 -1.7851  1.1604 -1.0617
  425MPD2    N1 6348   1.364   4.443   0.117 -0.4024  0.3576 -0.5179
  425MPD2    H7 6349   1.456   4.428   0.158 -0.6643 -0.1769 -0.1420
  426TMC3    C1 6350   1.400   4.242  17.686 -0.7013  0.9305 -0.0314
  426TMC3    C2 6351   1.388   4.199  17.556  0.3831  0.0929 -0.1209
  426TMC3    C3 6352   1.401   4.065  17.532  0.3415 -0.0018  0.1731
  426TMC3    C4 6353   1.425   4.155   0.099 -0.5341  0.9296  0.0144
  426TMC3    C5 6354   1.427   4.019   0.070  0.2177 -0.6875 -1.0808
  426TMC3    C6 6355   1.417   3.971  17.634 -0.0415 -0.8434  0.4714
  426TMC3     C 6356   1.325   4.361   0.009 -0.1334  0.2755 -0.3755
  426TMC3     O 6357   1.250   4.375  17.608  0.1028 -0.1627  0.2443
  426TMC3     H 6358   1.385   4.274  17.478 -0.1331 -0.1959 -0.3795
  426TMC3    H1 6359   1.420   4.188   0.202 -0.8617 -0.0693  0.3133
  426TMC3    H2 6360   1.411   3.864  17.617  0.4363 -1.1126  2.0612
  426TMC3    C7 6361   1.406   3.919   0.171 -0.1070  0.1927 -0.7398
  426TMC3    C8 6362   1.377   4.022  17.399 -0.1919 -0.2831 -0.6106
  426TMC3    O1 6363   1.408   3.800   0.139 -0.8405 -0.6591 -0.1891
  426TMC3    O2 6364   1.448   3.936  17.357 -0.1281  0.3670 -0.1293
  427MPD2     C 6365   4.443   1.939  15.474 -0.3038  0.5877  0.0548
  427MPD2    C1 6366   4.390   1.818  15.430  0.3805 -0.5179 -0.2576
  427MPD2    C2 6367   4.252   1.805  15.413  0.5687 -0.3712  0.5239
  427MPD2    C3 6368   4.159   1.905  15.443 -0.3328 -0.0371 -0.2226
  427MPD2    C4 6369   4.210   2.025  15.473  0.2695 -0.5410 -0.5102
  427MPD2    C5 6370   4.345   2.034  15.491 -0.3026  0.2827  0.3896
  427MPD2     H 6371   4.218   1.710  15.373  0.5158  1.1785 -3.0890
  427MPD2    H1 6372   4.146   2.113  15.476  0.7575 -0.1439 -1.6422
  427MPD2    H2 6373   4.547   1.965  15.488  0.1031  0.2112 -2.1182
  427MPD2    H3 6374   4.385   2.133  15.514  0.9191 -0.3078  0.8102
  427MPD2     N 6375   4.018   1.886  15.421 -0.0973  0.0258  0.1774
  427MPD2    H5 6376   3.964   1.969  15.444  0.3320  0.3894 -0.1303
  427MPD2    N1 6377   4.469   1.707  15.414 -0.1135  0.0515  0.0456
  427MPD2    H7 6378   4.415   1.625  15.387  1.8394 -1.1044 -0.3629
  428TMC3    C1 6379   4.667   1.568  15.409 -0.4794  0.2104 -0.0315
  428TMC3    C2 6380   4.592   1.455  15.369  0.1800  0.6009 -0.0766
  428TMC3    C3 6381   4.661   1.364  15.303  0.3943  0.0491 -0.3587
  428TMC3    C4 6382   0.082   1.562  15.421 -0.4599  0.5851 -0.1553
  428TMC3    C5 6383   0.144   1.456  15.359  0.1055  0.1945 -0.9287
  428TMC3    C6 6384   0.071   1.371  15.286  0.0299  0.1898  0.1205
  428TMC3     C 6385   4.607   1.698  15.431  0.2407 -0.1537 -0.2045
  428TMC3     O 6386   4.685   1.785  15.471  0.0620  0.1997 -0.3087
  428TMC3     H 6387   4.484   1.440  15.367  0.1867  0.6668 -0.8124
  428TMC3    H1 6388   0.151   1.641  15.448  0.8689  0.1720 -2.3603
  428TMC3    H2 6389   0.121   1.298  15.223 -1.6735 -0.2506 -0.7245
  428TMC3    C7 6390   0.280   1.473  15.323 -0.1939  0.1781  0.2257
  428TMC3    C8 6391   4.603   1.241  15.243 -0.3175  0.7862  0.2246
  428TMC3    O1 6392   0.344   1.516  15.418 -0.4365 -0.1493 -0.2120
  428TMC3    O2 6393   4.676   1.181  15.165 -0.1734  0.0539  0.0500
  429MPD2     C 6394   0.756   1.887  17.649  0.4159 -0.4368 -0.6870
  429MPD2    C1 6395   0.863   1.806  17.610  0.3260  0.0438  0.3551
  429MPD2    C2 6396   0.941   1.841  17.505  0.2696  0.3074 -0.2116
  429MPD2    C3 6397   0.909   1.953  17.436 -0.3767 -0.1631 -0.0530
  429MPD2    C4 6398   0.802   2.028  17.471  0.1797  0.1941 -0.2182
  429MPD2    C5 6399   0.723   1.998  17.577  0.4044 -0.2071 -0.6617
  429MPD2     H 6400   1.033   1.791  17.479 -1.5007 -0.6443 -4.6026
  429MPD2    H1 6401   0.778   2.116  17.412 -1.7958 -0.4893 -0.4356
  429MPD2    H2 6402   0.692   1.859   0.040  0.5488  1.0564 -0.0960
  429MPD2    H3 6403   0.635   2.059  17.594 -0.1914 -1.1991 -0.1946
  429MPD2     N 6404   0.984   1.975  17.323 -0.0250  0.0379 -0.3924
  429MPD2    H5 6405   1.028   1.891  17.286  0.2410 -0.2924  0.6858
  429MPD2    N1 6406   0.909   1.684  17.667 -0.5921  0.4556  0.3608
  429MPD2    H7 6407   0.977   1.633  17.612  1.4586  0.8839  2.5539
  430TMC3    C1 6408   1.122   2.080  17.174  0.5753  0.2809 -0.5714
  430TMC3    C2 6409   1.115   2.162  17.071 -0.1079  0.4204 -0.1321
  430TMC3    C3 6410   1.201   2.135  16.965 -0.0370 -0.3861  0.4620
  430TMC3    C4 6411   1.207   1.970  17.186 -0.2801 -0.4181  0.3633
  430TMC3    C5 6412   1.297   1.950  17.081 -0.4826 -0.0752 -0.1088
  430TMC3    C6 6413   1.291   2.032  16.973 -0.8892 -0.0587 -0.6613
  430TMC3     C 6414   1.013   2.096  17.260  0.9062  1.0144 -0.6815
  430TMC3     O 6415   0.964   2.209  17.276  0.1948  0.7797  0.4184
  430TMC3     H 6416   1.043   2.243  17.063  0.8676  1.4845  1.6647
  430TMC3    H1 6417   1.200   1.898  17.267  0.3436 -0.3610  0.4674
  430TMC3    H2 6418   1.360   2.012  16.892 -0.5096 -2.8102  0.3439
  430TMC3    C7 6419   1.377   1.828  17.071  0.4376  0.3691 -0.4672
  430TMC3    C8 6420   1.163   2.166  16.832  0.2123 -0.8193 -0.2188
  430TMC3    O1 6421   1.321   1.736  17.128 -0.4979  0.0221  0.3641
  430TMC3    O2 6422   1.233   2.119  16.744  0.0589 -0.6011 -0.5893
  431MPD2     C 6423   1.585   1.743  12.725  0.7342 -0.4146  0.2841
  431MPD2    C1 6424   1.656   1.786  12.617  0.3045 -0.0095 -0.2602
  431MPD2    C2 6425   1.670   1.704  12.508 -0.7283 -0.1122 -0.3278
  431MPD2    C3 6426   1.613   1.576  12.512  0.0164  0.6014 -0.2932
  431MPD2    C4 6427   1.542   1.534  12.625  0.6300  0.4403 -0.0676
  431MPD2    C5 6428   1.529   1.618  12.737 -0.1806 -0.2812 -0.2855
  431MPD2     H 6429   1.720   1.743  12.420  1.0577 -0.4068  0.5484
  431MPD2    H1 6430   1.486   1.441  12.628  1.0912  0.1529 -0.4109
  431MPD2    H2 6431   1.577   1.800  12.817 -1.4711  0.2079 -0.2891
  431MPD2    H3 6432   1.478   1.578  12.824  1.2045  0.2162  0.7569
  431MPD2     N 6433   1.613   1.480  12.406  0.9041  0.0454  0.5694
  431MPD2    H5 6434   1.560   1.396  12.427 -1.1429  0.6983 -2.0130
  431MPD2    N1 6435   1.712   1.917  12.605  0.0001  0.3937  0.1126
  431MPD2    H7 6436   1.773   1.934  12.526 -0.7576 -0.4986 -0.6615
  432TMC3    C1 6437   1.706   1.369  12.226 -0.6585  0.3674  0.2551
  432TMC3    C2 6438   1.756   1.373  12.106 -0.0481 -0.0907  0.4124
  432TMC3    C3 6439   1.797   1.260  12.047  0.0306  0.1464  0.1202
  432TMC3    C4 6440   1.702   1.250  12.291 -0.3782  0.2472 -0.1075
  432TMC3    C5 6441   1.727   1.135  12.224 -0.4058  0.3622 -0.1792
  432TMC3    C6 6442   1.778   1.139  12.098  0.3968  0.2409 -0.3165
  432TMC3     C 6443   1.681   1.497  12.287 -0.8347 -0.4813  0.7549
  432TMC3     O 6444   1.734   1.595  12.239  0.0647  0.8875 -0.7025
  432TMC3     H 6445   1.743   1.465  12.050 -0.7604 -0.4875 -0.0666
  432TMC3    H1 6446   1.679   1.260  12.397  0.4545 -1.2970  0.2105
  432TMC3    H2 6447   1.817   1.050  12.050  1.6767  2.0993 -2.7046
  432TMC3    C7 6448   1.724   1.003  12.296  0.0793  0.5626 -0.2600
  432TMC3    C8 6449   1.868   1.265  11.919  0.3475 -0.2063 -0.6238
  432TMC3    O1 6450   1.775   0.903  12.241  0.0395 -0.0930  0.0224
  432TMC3    O2 6451   1.869   1.161  11.852  0.0312 -1.2375  0.5677
  433MPD2     C 6452   0.374   0.609  10.807 -0.5395 -0.2312 -0.2833
  433MPD2    C1 6453   0.366   0.519  10.911 -0.0782  0.5829 -0.4022
  433MPD2    C2 6454   0.436   0.536  11.028  0.1601 -0.2571  0.4809
  433MPD2    C3 6455   0.514   0.646  11.040 -0.0295 -0.1006 -0.7614
  433MPD2    C4 6456   0.532   0.735  10.941  0.0500 -0.3108  1.0093
  433MPD2    C5 6457   0.453   0.724  10.832 -0.5201  0.6831 -0.6496
  433MPD2     H 6458   0.435   0.462  11.108 -1.2529  0.4262  1.1052
  433MPD2    H1 6459   0.601   0.818  10.944  3.2020 -2.9719  1.5134
  433MPD2    H2 6460   0.336   0.603  10.706 -0.6042  0.4786 -0.3038
  433MPD2    H3 6461   0.466   0.798  10.754 -0.9181  2.0733  0.5969
  433MPD2     N 6462   0.590   0.654  11.163  0.4755  0.0798  0.3375
  433MPD2    H5 6463   0.564   0.583  11.230  1.1669  0.8462  1.4157
  433MPD2    N1 6464   0.292   0.399  10.886  0.8649  0.3639  0.0278
  433MPD2    H7 6465   0.241   0.406  10.798 -1.4077  0.2148  1.3384
  434TMC3    C1 6466   0.201   0.179  10.925  1.0272  0.9272 -0.3709
  434TMC3    C2 6467   0.245   0.066  10.981 -0.3257  0.4349 -0.1820
  434TMC3    C3 6468   0.243   4.677  10.915 -0.2925  0.6178 -0.6218
  434TMC3    C4 6469   0.159   0.172  10.790 -0.7790 -0.3593 -0.6817
  434TMC3    C5 6470   0.157   0.051  10.729 -0.0279 -0.0602  0.0306
  434TMC3    C6 6471   0.198   4.662  10.793  0.1804 -0.8266  0.0256
  434TMC3     C 6472   0.267   0.297  10.973  0.4482  0.0972  0.4849
  434TMC3     O 6473   0.303   0.294  11.089  0.2874 -0.3672  0.0651
  434TMC3     H 6474   0.266   0.069  11.088  1.8915  1.8664 -0.6732
  434TMC3    H1 6475   0.130   0.259  10.733 -0.0652  0.0099 -0.4824
  434TMC3    H2 6476   0.169   4.566  10.752  1.0754 -0.7373 -0.8275
  434TMC3    C7 6477   0.079   0.039  10.603  1.0049  0.5354  0.4424
  434TMC3    C8 6478   0.319   4.576  10.987  0.3723 -0.1350  0.3033
  434TMC3    O1 6479   4.713   0.123  10.585 -0.4517  0.0216 -0.0328
  434TMC3    O2 6480   0.329   4.585  11.111 -0.3954  0.4252 -0.3899
  435MPD2     C 6481   2.699   0.419  15.486  0.4754  0.1013 -0.2502
  435MPD2    C1 6482   2.628   0.437  15.607  0.2622 -0.1119 -0.2769
  435MPD2    C2 6483   2.682   0.394  15.725 -0.3630  0.3177 -0.5455
  435MPD2    C3 6484   2.809   0.341  15.734 -0.1984  0.0300 -0.1278
  435MPD2    C4 6485   2.871   0.313  15.610  0.6218  0.6544 -0.0422
  435MPD2    C5 6486   2.818   0.360  15.493 -0.1621  0.3639  0.7647
  435MPD2     H 6487   2.627   0.428  15.812  2.6065 -1.0865  1.9064
  435MPD2    H1 6488   2.964   0.258  15.611 -0.7201 -1.6173  0.2960
  435MPD2    H2 6489   2.660   0.436  15.387  0.8248 -1.2009 -0.6172
  435MPD2    H3 6490   2.876   0.351  15.402  0.5138  0.5868  1.1760
  435MPD2     N 6491   2.859   0.310  15.863  0.1656  0.2707 -0.4266
  435MPD2    H5 6492   2.793   0.328  15.938  1.3634 -0.2801  0.7628
  435MPD2    N1 6493   2.492   0.483  15.596 -0.1225 -0.9791 -0.4716
  435MPD2    H7 6494   2.442   0.494  15.684  1.2462 -0.0966  0.1935
  436TMC3    C1 6495   2.105   0.467  15.647 -0.0719  0.6334  0.1579
  436TMC3    C2 6496   2.231   0.451  15.616 -0.1246 -0.3344 -0.3937
  436TMC3    C3 6497   2.283   0.526  15.519  0.4202 -0.6852 -0.3470
  436TMC3    C4 6498   2.019   0.554  15.587 -0.4776 -0.1413 -0.6550
  436TMC3    C5 6499   2.072   0.631  15.490  0.6141 -0.1550 -0.0711
  436TMC3    C6 6500   2.199   0.616  15.448 -0.0458 -0.2803  0.5532
  436TMC3     C 6501   2.079   0.440  15.785  0.9209 -0.5016 -0.6684
  436TMC3     O 6502   2.123   0.339  15.835 -0.2528 -0.4142  0.7291
  436TMC3     H 6503   2.289   0.379  15.672 -4.2689 -1.9924  1.7762
  436TMC3    H1 6504   1.912   0.554  15.600 -0.4030 -2.2044  0.0078
  436TMC3    H2 6505   2.243   0.682  15.373 -0.5415 -0.6757 -0.0852
  436TMC3    C7 6506   1.994   0.740  15.440 -0.3191  0.2400  0.3557
  436TMC3    C8 6507   2.421   0.512  15.484 -0.0016  0.4651  0.0291
  436TMC3    O1 6508   1.875   0.737  15.465 -0.2469 -0.3127 -0.2271
  436TMC3    O2 6509   2.460   0.563  15.377  0.6472 -0.8172  0.1073
  437TMC3    C1 6510   1.350   2.383  12.532  0.6111  0.1339 -0.4490
  437TMC3    C2 6511   1.242   2.461  12.522  0.3142 -0.4537  0.1538
  437TMC3    C3 6512   1.261   2.585  12.465  0.2153  0.0599 -0.7614
  437TMC3    C4 6513   1.473   2.418  12.486  0.2987 -0.2720  0.3592
  437TMC3    C5 6514   1.482   2.533  12.423 -0.1297  0.4590  0.5953
  437TMC3    C6 6515   1.375   2.616  12.399  0.5913  0.7054 -1.0294
  437TMC3     C 6516   1.348   2.250  12.588 -0.1242  0.3488  0.6263
  437TMC3     O 6517   1.441   2.179  12.564 -0.1046  0.3387 -0.0492
  437TMC3     H 6518   1.147   2.425  12.560 -0.1294  0.8847  0.3159
  437TMC3    H1 6519   1.564   2.371  12.521  1.2148  0.9746 -0.3675
  437TMC3    H2 6520   1.384   2.706  12.339 -2.9591  2.7006  1.4115
  437TMC3    C7 6521   1.614   2.582  12.377 -0.4821  0.4271  0.1022
  437TMC3    C8 6522   1.180   2.698  12.512  0.6999  0.4035 -0.3733
  437TMC3    O1 6523   1.616   2.629  12.269 -0.0763 -0.1298  0.1050
  437TMC3    O2 6524   1.108   2.672  12.611  0.4813 -0.1055 -0.2901
  438MPD2     C 6525   3.666   3.400  16.665 -0.5779 -0.1642  0.1260
  438MPD2    C1 6526   3.707   3.272  16.692  0.0276 -0.3779  0.2380
  438MPD2    C2 6527   3.634   3.195  16.781  0.0661 -0.2964  0.2982
  438MPD2    C3 6528   3.515   3.242  16.837  0.2959 -0.1972 -0.0257
  438MPD2    C4 6529   3.472   3.367  16.799 -0.3028 -0.3542 -0.1361
  438MPD2    C5 6530   3.552   3.446  16.722  0.4812 -0.5116  0.2596
  438MPD2     H 6531   3.671   3.094  16.799  1.7073  0.3128  0.3196
  438MPD2    H1 6532   3.380   3.411  16.835  0.0942 -0.5407  1.0899
  438MPD2    H2 6533   3.723   3.478  16.615 -0.5813 -0.7654 -0.8226
  438MPD2    H3 6534   3.513   3.543  16.693 -1.7363 -0.8203  2.1561
  438MPD2     N 6535   3.419   3.161  16.906 -0.0338  0.6146  0.2913
  438MPD2    H5 6536   3.325   3.197  16.925 -0.7558 -0.0437 -2.1247
  438MPD2    N1 6537   3.823   3.222  16.626 -0.0547  0.1183 -0.6699
  438MPD2    H7 6538   3.861   3.134  16.658  1.6492 -0.0185 -3.0402
  439TMC3    C1 6539   3.982   3.204  16.450 -0.0827  0.3775 -0.2088
  439TMC3    C2 6540   3.996   3.229  16.318  1.1629  0.1488 -0.2809
  439TMC3    C3 6541   4.104   3.170  16.260 -0.5710 -0.6937  0.4491
  439TMC3    C4 6542   4.069   3.130  16.526  0.5660 -0.0112  0.4631
  439TMC3    C5 6543   4.171   3.068  16.462  0.1415 -0.4219  0.3596
  439TMC3    C6 6544   4.191   3.083  16.324 -0.4803  0.3838 -0.0498
  439TMC3     C 6545   3.876   3.279  16.513 -0.0388 -0.1582 -0.9414
  439TMC3     O 6546   3.841   3.382  16.451 -0.3040  0.7788 -0.3729
  439TMC3     H 6547   3.921   3.289  16.267 -0.0275 -0.7474  0.4092
  439TMC3    H1 6548   4.053   3.122  16.633 -1.9264  2.2556  0.2739
  439TMC3    H2 6549   4.275   3.036  16.273 -0.4736 -0.1256  0.4325
  439TMC3    C7 6550   4.239   2.965  16.533 -0.5518 -0.2702 -0.6340
  439TMC3    C8 6551   4.119   3.200  16.118 -0.5680  0.1429  0.8759
  439TMC3    O1 6552   4.250   2.982  16.650  0.7210 -0.0950  0.6141
  439TMC3    O2 6553   4.067   3.300  16.069  0.1992 -0.0774  0.3931
  440MPD2     C 6554   2.461   3.627  14.287 -0.2586 -0.0119 -0.4716
  440MPD2    C1 6555   2.485   3.706  14.402  0.4012 -0.3012 -0.1713
  440MPD2    C2 6556   2.569   3.656  14.496  0.1315 -0.6150 -0.1215
  440MPD2    C3 6557   2.621   3.528  14.489  0.2290  0.3538  0.1541
  440MPD2    C4 6558   2.596   3.451  14.379  0.2023 -0.4164 -0.4402
  440MPD2    C5 6559   2.515   3.504  14.283 -0.3247  0.1026  0.1788
  440MPD2     H 6560   2.609   3.725  14.570  1.4712  0.3746 -1.7727
  440MPD2    H1 6561   2.640   3.352  14.373  0.5029 -0.2327 -1.2984
  440MPD2    H2 6562   2.411   3.664  14.198 -2.9811  0.6306  1.2955
  440MPD2    H3 6563   2.492   3.446  14.194 -1.2817  0.2616  0.3280
  440MPD2     N 6564   2.706   3.473  14.585  0.2885  0.5114 -0.2302
  440MPD2    H5 6565   2.729   3.375  14.578 -0.3555  0.2980  0.5902
  440MPD2    N1 6566   2.442   3.842  14.425  0.6541 -1.3064 -0.0653
  440MPD2    H7 6567   2.451   3.883  14.518 -2.1212 -0.1813 -0.3095
  441TMC3    C1 6568   2.824   3.471  14.790 -0.0615  0.0191  0.3325
  441TMC3    C2 6569   2.916   3.542  14.863  0.2371  0.2185  0.7247
  441TMC3    C3 6570   3.005   3.483  14.947  0.4889 -0.2557 -0.4201
  441TMC3    C4 6571   2.826   3.333  14.788  0.2221 -0.0710 -0.0488
  441TMC3    C5 6572   2.916   3.281  14.878 -0.1449 -1.2256  0.3038
  441TMC3    C6 6573   3.017   3.347  14.934  0.1780  0.6329  0.4252
  441TMC3     C 6574   2.743   3.544  14.699 -0.6472 -0.3947  0.8044
  441TMC3     O 6575   2.739   3.664  14.720 -0.0519 -0.0564  0.2065
  441TMC3     H 6576   2.905   3.650  14.863  1.8231  0.3625 -3.0995
  441TMC3    H1 6577   2.745   3.271  14.751 -0.6665  0.3327  1.2174
  441TMC3    H2 6578   3.089   3.297  14.998 -1.3486 -0.8155  1.0286
  441TMC3    C7 6579   2.870   3.159  14.941 -0.0406 -0.1504  0.1056
  441TMC3    C8 6580   3.037   3.548  15.068 -0.4201  0.7061 -0.3279
  441TMC3    O1 6581   2.817   3.073  14.876 -0.3061  0.3655 -0.4051
  441TMC3    O2 6582   3.127   3.495  15.136 -0.1200  0.6612 -0.5427
  442MPD2     C 6583   1.029   4.278  16.631 -0.8127 -0.8609 -0.3889
  442MPD2    C1 6584   0.932   4.204  16.691 -0.1777 -0.1339  0.7799
  442MPD2    C2 6585   0.918   4.067  16.665  0.2448  0.6454  0.1320
  442MPD2    C3 6586   1.024   4.006  16.585  0.1523  0.4196 -0.1120
  442MPD2    C4 6587   1.129   4.080  16.542 -0.0438  0.5490 -0.4793
  442MPD2    C5 6588   1.130   4.214  16.559  0.2348  0.5408  0.0564
  442MPD2     H 6589   0.833   4.003  16.684  0.2764  0.7718  0.6708
  442MPD2    H1 6590   1.205   4.035  16.479  0.7145 -0.5233  1.1917
  442MPD2    H2 6591   1.037   4.386  16.635  3.5053 -1.2911  2.5869
  442MPD2    H3 6592   1.204   4.269  16.502  2.3683  0.1097  2.3908
  442MPD2     N 6593   1.032   3.865  16.550  0.1174  0.1602 -0.4778
  442MPD2    H5 6594   1.106   3.846  16.483 -0.7125  0.6611 -1.5359
  442MPD2    N1 6595   0.823   4.264  16.758  0.1447  0.5726 -0.0945
  442MPD2    H7 6596   0.767   4.199  16.813 -0.8476  2.0665  0.6505
  443TMC3    C1 6597   0.665   4.436  16.808  0.4978  0.2242 -0.0101
  443TMC3    C2 6598   0.571   4.504  16.731 -0.5074 -0.1144  0.5602
  443TMC3    C3 6599   0.438   4.496  16.769 -0.2405 -0.0107 -0.0834
  443TMC3    C4 6600   0.628   4.361  16.918 -0.1937 -0.9372 -0.0784
  443TMC3    C5 6601   0.497   4.352  16.955  0.0902 -0.1708 -0.3939
  443TMC3    C6 6602   0.404   4.417  16.879  0.3001 -0.2710  0.2899
  443TMC3     C 6603   0.795   4.400  16.752  0.7458  0.3005  0.2043
  443TMC3     O 6604   0.853   4.488  16.688 -0.3925  0.0667  0.2625
  443TMC3     H 6605   0.606   4.563  16.647  0.5883 -0.7732  0.5559
  443TMC3    H1 6606   0.707   4.315  16.977 -0.1990 -0.1820  0.5107
  443TMC3    H2 6607   0.299   4.397  16.898 -0.4411  3.5188  0.2118
  443TMC3    C7 6608   0.456   4.254  17.051  0.7802 -0.2848  0.1895
  443TMC3    C8 6609   0.361   4.463  16.664  0.5437  0.3107 -0.8019
  443TMC3    O1 6610   0.540   4.171  17.078 -0.4827  0.5059  0.4631
  443TMC3    O2 6611   0.312   4.352  16.673  0.9795  0.2129  0.6125
  444MPD2     C 6612   1.062   3.715  17.063  0.3514 -0.2462  0.5462
  444MPD2    C1 6613   0.969   3.623  17.024 -0.7408 -0.1812  0.3210
  444MPD2    C2 6614   1.009   3.521  16.934 -0.5236 -0.0622 -0.6610
  444MPD2    C3 6615   1.144   3.507  16.902 -0.8481 -0.0172 -0.4661
  444MPD2    C4 6616   1.237   3.605  16.938  0.1172  0.1261 -0.5813
  444MPD2    C5 6617   1.193   3.701  17.024 -1.0928  0.3208 -0.5532
  444MPD2     H 6618   0.934   3.445  16.916  0.5955 -1.0649 -1.0626
  444MPD2    H1 6619   1.343   3.593  16.919  0.8624  3.0013  1.7940
  444MPD2    H2 6620   1.043   3.793  17.136  1.4415 -0.1786  0.7713
  444MPD2    H3 6621   1.273   3.767  17.056 -3.0373  2.0861  0.7004
  444MPD2     N 6622   1.181   3.395  16.831  0.2239  0.6665 -0.7273
  444MPD2    H5 6623   1.102   3.351  16.785 -0.6241  0.0317  1.3047
  444MPD2    N1 6624   0.839   3.612  17.083  0.7154  0.3766  0.5285
  444MPD2    H7 6625   0.784   3.537  17.042  1.0286  1.4561 -1.8848
  445TMC3    C1 6626   1.320   3.198  16.781 -1.0680 -0.0238  0.3766
  445TMC3    C2 6627   1.254   3.168  16.670  0.5605 -0.8839 -0.1764
  445TMC3    C3 6628   1.311   3.077  16.590 -0.3014 -0.0203  0.0426
  445TMC3    C4 6629   1.436   3.129  16.825 -0.3394 -0.4504 -0.2483
  445TMC3    C5 6630   1.483   3.034  16.742  0.3318  0.1172  0.2875
  445TMC3    C6 6631   1.433   3.015  16.616  0.3218  0.0991  0.0320
  445TMC3     C 6632   1.306   3.334  16.843  0.4840  0.7395  0.0569
  445TMC3     O 6633   1.400   3.359  16.919  0.1781  0.1329 -0.2211
  445TMC3     H 6634   1.169   3.228  16.638  0.9126  0.9961  2.3814
  445TMC3    H1 6635   1.463   3.133  16.930  1.1214  0.5993 -0.6670
  445TMC3    H2 6636   1.474   2.931  16.561 -3.6704 -1.8395 -0.0402
  445TMC3    C7 6637   1.591   2.961  16.783 -0.2344 -0.2862  0.4844
  445TMC3    C8 6638   1.258   3.070  16.454  0.0652 -1.5945 -0.4259
  445TMC3    O1 6639   1.606   2.956  16.902  0.3498 -0.0170 -0.5353
  445TMC3    O2 6640   1.203   3.175  16.417 -0.1555 -0.3872  0.7136
  446MPD2     C 6641   0.322   0.217  11.606  0.1980  0.0930  0.3535
  446MPD2    C1 6642   0.257   0.172  11.490 -0.3777  0.0444 -1.2128
  446MPD2    C2 6643   0.336   0.123  11.386 -0.5355 -0.1570  0.3392
  446MPD2    C3 6644   0.468   0.096  11.397 -0.2847  0.3171 -0.6275
  446MPD2    C4 6645   0.528   0.120  11.512  0.5696  0.0111 -0.5164
  446MPD2    C5 6646   0.455   0.184  11.608  0.2694 -1.0023  0.1874
  446MPD2     H 6647   0.290   0.091  11.294  1.5356  0.2810 -0.8632
  446MPD2    H1 6648   0.634   0.103  11.526  0.4313 -0.7447 -0.4092
  446MPD2    H2 6649   0.266   0.260  11.687  0.7408  0.7233  0.3934
  446MPD2    H3 6650   0.506   0.219  11.697 -0.3098 -1.2875  0.6359
  446MPD2     N 6651   0.533   0.047  11.279 -0.3795 -0.6513 -0.6012
  446MPD2    H5 6652   0.471   0.024  11.203  0.5478  0.0528 -1.5601
  446MPD2    N1 6653   0.118   0.165  11.479 -0.3690  0.6539 -0.0877
  446MPD2    H7 6654   0.080   0.123  11.394  0.3250  1.6246 -0.8824
  447TMC3    C1 6655   0.698   4.699  11.126 -0.3855 -0.1645 -0.3061
  447TMC3    C2 6656   0.621   0.020  11.016  0.4096 -0.5590  0.9266
  447TMC3    C3 6657   0.665   4.711  10.890  1.5117 -0.3801 -0.0462
  447TMC3    C4 6658   0.817   4.630  11.106 -0.5903 -0.2495  0.8147
  447TMC3    C5 6659   0.858   4.600  10.978  0.4223 -0.0596 -0.2840
  447TMC3    C6 6660   0.790   4.654  10.872 -0.0855 -0.9283 -0.3185
  447TMC3     C 6661   0.659   0.008  11.263  0.0043  0.4977 -0.8847
  447TMC3     O 6662   0.751   0.011  11.341 -0.1706 -0.1494  0.5974
  447TMC3     H 6663   0.526   0.070  11.027  0.3149 -0.6735  0.6382
  447TMC3    H1 6664   0.872   4.595  11.193  1.7148 -0.6250 -0.7950
  447TMC3    H2 6665   0.836   4.636  10.775  0.7135 -0.1867 -0.0798
  447TMC3    C7 6666   1.004   4.592  10.966  0.2935  0.2785 -0.5599
  447TMC3    C8 6667   0.587   0.037  10.778 -0.6449  0.3359 -0.9557
  447TMC3    O1 6668   1.063   4.657  10.881 -0.0581 -0.4422  0.1124
  447TMC3    O2 6669   0.483   0.090  10.802  0.0652  0.0836  0.1106
  448TMC3    C1 6670   3.515   4.176  16.309  0.3421  0.9944 -0.5642
  448TMC3    C2 6671   3.604   4.075  16.272 -0.0641  0.8003  0.1156
  448TMC3    C3 6672   3.693   4.028  16.372 -0.3983 -0.0054 -0.2161
  448TMC3    C4 6673   3.521   4.215  16.440  0.0914 -0.1878  0.7663
  448TMC3    C5 6674   3.611   4.159  16.533  0.4880 -0.0738  0.0745
  448TMC3    C6 6675   3.697   4.061  16.499 -0.4336 -0.2551 -0.5442
  448TMC3     C 6676   3.429   4.240  16.208 -0.4198 -0.4447  0.2934
  448TMC3     O 6677   3.456   4.215  16.092 -0.4040 -0.2635  0.0351
  448TMC3     H 6678   3.614   4.051  16.167  0.2921  2.1897 -0.1688
  448TMC3    H1 6679   3.453   4.286  16.485  0.9874  0.7894  0.5642
  448TMC3    H2 6680   3.768   4.009  16.563 -0.4462 -0.1869 -0.4753
  448TMC3    C7 6681   3.649   4.251  16.639  0.1148  0.3722 -0.2204
  448TMC3    C8 6682   3.795   3.939  16.318 -0.7111 -0.0927 -1.1199
  448TMC3    O1 6683   3.633   4.371  16.613  0.1842  0.1029  0.2384
  448TMC3    O2 6684   3.861   3.890  16.409 -0.1398 -0.7276 -0.2317
  449MPD2     C 6685   0.221   3.067  14.031 -0.2045 -0.6184 -0.3105
  449MPD2    C1 6686   0.116   3.108  13.959  0.4293  0.1169 -0.3959
  449MPD2    C2 6687   4.722   3.028  13.955  0.5326  0.2739 -0.8546
  449MPD2    C3 6688   4.715   2.901  14.010  0.3427  0.2938  0.0821
  449MPD2    C4 6689   0.093   2.868  14.098 -0.4372 -1.2679  0.3790
  449MPD2    C5 6690   0.204   2.949  14.103 -0.0742 -0.4197  0.3928
  449MPD2     H 6691   4.642   3.068  13.892  0.4435 -1.4974 -1.8823
  449MPD2    H1 6692   0.093   2.772  14.147 -0.7279 -2.0569 -1.1596
  449MPD2    H2 6693   0.311   3.124  14.050 -0.5482 -0.0171 -0.4788
  449MPD2    H3 6694   0.288   2.917  14.163 -0.5497 -0.0139  1.2753
  449MPD2     N 6695   4.595   2.834  14.001 -0.4424 -0.4160 -0.2451
  449MPD2    H5 6696   4.530   2.892  13.949 -0.0619  0.1456 -0.1053
  449MPD2    N1 6697   0.125   3.225  13.876  0.2104  0.3446  0.3476
  449MPD2    H7 6698   0.037   3.256  13.836 -0.6329  1.4435  3.0772
  450TMC3    C1 6699   0.203   3.390  13.727 -0.0640  0.3773  0.6494
  450TMC3    C2 6700   0.265   3.366  13.610  0.3638 -0.3767  0.1474
  450TMC3    C3 6701   0.201   3.409  13.502  0.2178  0.4838 -0.4364
  450TMC3    C4 6702   0.075   3.433  13.738  0.3475  0.9073  0.8256
  450TMC3    C5 6703   0.000   3.439  13.625  0.3641 -0.5265  0.3088
  450TMC3    C6 6704   0.065   3.425  13.501 -0.3014 -0.6189 -0.0283
  450TMC3     C 6705   0.233   3.290  13.837  0.6784  0.2294  0.1881
  450TMC3     O 6706   0.350   3.283  13.868  0.0536 -0.7599  0.1682
  450TMC3     H 6707   0.369   3.338  13.620  1.2512  2.4584 -1.0647
  450TMC3    H1 6708   0.028   3.457  13.833  1.7169 -0.7173  1.9045
  450TMC3    H2 6709   0.021   3.457  13.407 -0.4947 -1.5225 -0.2430
  450TMC3    C7 6710   4.603   3.360  13.644  0.2795 -0.6472 -0.5516
  450TMC3    C8 6711   0.269   3.403  13.375 -0.5523 -0.5002  0.3679
  450TMC3    O1 6712   4.599   3.305  13.755 -0.0236  0.1725  0.2454
  450TMC3    O2 6713   0.206   3.455  13.279  0.7470 -1.0117  0.1384
  451MPD2     C 6714   1.624   2.585   1.752 -0.5331  0.0318  0.1840
  451MPD2    C1 6715   1.559   2.471   1.786 -0.1605  0.3574  0.0803
  451MPD2    C2 6716   1.636   2.355   1.809  0.7591 -0.1101 -0.4191
  451MPD2    C3 6717   1.774   2.365   1.814 -0.0637  0.2920  0.2371
  451MPD2    C4 6718   1.836   2.486   1.803 -1.2885  0.1147 -0.0712
  451MPD2    C5 6719   1.763   2.598   1.767  0.2044  0.0349 -0.6243
  451MPD2     H 6720   1.587   2.263   1.838  1.0994 -0.5556 -1.2753
  451MPD2    H1 6721   1.944   2.500   1.807 -1.3040  0.0935  0.3783
  451MPD2    H2 6722   1.572   2.673   1.717 -1.2363 -0.2947  0.4159
  451MPD2    H3 6723   1.815   2.689   1.738 -1.1290  1.0591  0.2245
  451MPD2     N 6724   1.854   2.246   1.831 -0.1433  0.2222  0.0005
  451MPD2    H5 6725   1.954   2.258   1.848 -0.0970 -0.2950  0.0791
  451MPD2    N1 6726   1.414   2.467   1.779 -0.4812  0.1138 -0.4773
  451MPD2    H7 6727   1.368   2.557   1.770 -1.6275 -0.0490  3.6289
  452TMC3    C1 6728   1.901   2.023   1.872  0.0630  0.0335 -0.0630
  452TMC3    C2 6729   2.001   2.047   1.959 -0.5616  0.0013  0.6155
  452TMC3    C3 6730   2.080   1.942   1.988  0.3701 -0.0170  0.0472
  452TMC3    C4 6731   1.875   1.894   1.819 -1.0056  0.1746  0.3982
  452TMC3    C5 6732   1.955   1.787   1.856  0.2060 -0.0619  0.1637
  452TMC3    C6 6733   2.058   1.816   1.948 -0.0174  0.0020  0.2529
  452TMC3     C 6734   1.800   2.118   1.843  0.0132  0.4025  0.2984
  452TMC3     O 6735   1.689   2.074   1.803  0.3918 -0.1814 -0.2131
  452TMC3     H 6736   2.011   2.150   1.989 -0.1767  0.2047 -0.2036
  452TMC3    H1 6737   1.795   1.872   1.750  0.4505 -2.8881 -0.3284
  452TMC3    H2 6738   2.133   1.742   1.976  0.6926  0.1546 -1.2122
  452TMC3    C7 6739   1.950   1.669   1.781  0.0235  0.4930  0.6704
  452TMC3    C8 6740   2.204   1.962   2.054 -0.0506  0.4707 -0.2398
  452TMC3    O1 6741   1.886   1.673   1.674 -0.2424 -0.4359  0.7630
  452TMC3    O2 6742   2.229   1.874   2.135 -0.9830 -0.4094 -0.0555
  453TMC3    C1 6743   2.914   3.879  11.604 -0.5892 -0.5328 -0.0118
  453TMC3    C2 6744   2.806   3.818  11.653 -0.4097  0.1100 -0.9299
  453TMC3    C3 6745   2.698   3.801  11.572  0.5305 -0.3913 -0.1656
  453TMC3    C4 6746   2.921   3.910  11.471 -0.5035  0.5524 -0.0191
  453TMC3    C5 6747   2.814   3.885  11.389 -0.6263  0.3990  0.1150
  453TMC3    C6 6748   2.702   3.826  11.440 -0.2044  0.2866  0.4434
  453TMC3     C 6749   3.005   3.944  11.699  0.0303 -0.6190  0.7404
  453TMC3     O 6750   3.104   3.986  11.649  0.7151 -0.1404 -0.1227
  453TMC3     H 6751   2.800   3.783  11.756  1.7192 -1.5682 -1.3780
  453TMC3    H1 6752   3.014   3.951  11.434 -0.2039  0.3121  0.4778
  453TMC3    H2 6753   2.620   3.787  11.381  0.0365  1.4997 -0.6723
  453TMC3    C7 6754   2.829   3.901  11.247  0.0110  0.2928  0.3383
  453TMC3    C8 6755   2.582   3.713  11.605 -0.4317 -0.1272 -0.5241
  453TMC3    O1 6756   2.737   3.942  11.180 -0.7916 -0.4487  0.1494
  453TMC3    O2 6757   2.485   3.701  11.533 -0.0800 -0.1393 -0.3505
  454MPD2     C 6758   1.942   3.208  16.450  0.4636 -0.1279  0.5779
  454MPD2    C1 6759   1.940   3.330  16.386  0.1067 -0.1663 -0.0441
  454MPD2    C2 6760   1.915   3.445  16.461  0.5148 -0.0530  0.4091
  454MPD2    C3 6761   1.903   3.438  16.599 -0.3062  0.1605 -0.3585
  454MPD2    C4 6762   1.914   3.318  16.660  0.7793  0.9207 -1.3513
  454MPD2    C5 6763   1.933   3.201  16.591 -0.0368  0.7083 -0.0309
  454MPD2     H 6764   1.919   3.538  16.406 -0.6490 -0.3163 -0.1244
  454MPD2    H1 6765   1.908   3.313  16.768  1.7736 -1.4805 -1.4164
  454MPD2    H2 6766   1.955   3.113  16.399  0.4307  0.8577 -1.2769
  454MPD2    H3 6767   1.931   3.103  16.638  3.8667  0.1142 -1.0870
  454MPD2     N 6768   1.848   3.551  16.675  0.2979  0.5455 -0.1916
  454MPD2    H5 6769   1.811   3.545  16.770  1.0193 -4.0277 -0.1652
  454MPD2    N1 6770   1.954   3.353  16.251  0.0275  0.0679  0.3397
  454MPD2    H7 6771   1.938   3.448  16.219  1.7342 -0.6708 -2.6978
  455TMC3    C1 6772   1.680   3.712  16.648  0.1985  0.0983 -0.7168
  455TMC3    C2 6773   1.642   3.762  16.766  0.0529  0.2229  0.0810
  455TMC3    C3 6774   1.512   3.801  16.780  0.1442  0.4174 -0.7467
  455TMC3    C4 6775   1.598   3.704  16.543  0.8629 -0.1822  0.0837
  455TMC3    C5 6776   1.473   3.738  16.560  0.4799 -0.4914 -0.1826
  455TMC3    C6 6777   1.426   3.789  16.677 -0.2001  0.1538 -0.1876
  455TMC3     C 6778   1.812   3.671  16.622 -0.7311 -0.6378  0.1634
  455TMC3     O 6779   1.847   3.721  16.516  0.4169  0.6505 -0.8487
  455TMC3     H 6780   1.715   3.766  16.847  0.9445  0.2051 -0.7215
  455TMC3    H1 6781   1.630   3.653  16.453  1.1791 -0.2896  0.2567
  455TMC3    H2 6782   1.321   3.814  16.682 -0.3044 -0.0587 -1.3891
  455TMC3    C7 6783   1.369   3.700  16.459  0.7375  0.6194 -0.6760
  455TMC3    C8 6784   1.489   3.889  16.889 -0.3053 -0.5197  1.0820
  455TMC3    O1 6785   1.282   3.780  16.435  0.5459 -0.2466  0.3400
  455TMC3    O2 6786   1.566   3.870  16.979  0.1690 -0.1317  0.5822
  456MPD2     C 6787   0.138   3.082  15.791 -0.4376  0.4761 -0.4472
  456MPD2    C1 6788   0.132   3.003  15.905  0.4233  0.7545  0.3773
  456MPD2    C2 6789   0.054   3.054  16.011  0.2588  0.1366 -0.1428
  456MPD2    C3 6790   4.703   3.170  15.998 -0.0084  0.1651  0.1973
  456MPD2    C4 6791   4.711   3.235  15.877  0.2312  0.1718  0.3899
  456MPD2    C5 6792   0.061   3.192  15.771  0.2977 -0.5734  0.3938
  456MPD2     H 6793   0.056   3.002  16.106 -1.5049 -1.6233 -1.0657
  456MPD2    H1 6794   4.647   3.319  15.853  0.7029  0.3229 -0.3563
  456MPD2    H2 6795   0.196   3.057  15.703  0.7725 -4.1628  1.6680
  456MPD2    H3 6796   0.069   3.247  15.677 -0.2606 -2.3395 -0.6785
  456MPD2     N 6797   4.625   3.209  16.108  0.1947  0.3131  1.0556
  456MPD2    H5 6798   4.612   3.140  16.182  2.8844  0.0044  1.2216
  456MPD2    N1 6799   0.219   2.894  15.908 -0.8321  0.5448 -0.3777
  456MPD2    H7 6800   0.280   2.888  15.827 -0.2697  1.6913 -0.0362
  457TMC3    C1 6801   4.463   3.347  16.222 -0.0596 -0.6219  0.9165
  457TMC3    C2 6802   4.348   3.410  16.197  0.4393 -0.1285 -0.0165
  457TMC3    C3 6803   4.272   3.459  16.301 -0.3591 -0.1805  1.0308
  457TMC3    C4 6804   4.503   3.315  16.343 -0.0133  0.1673 -0.5701
  457TMC3    C5 6805   4.430   3.361  16.447  0.5245  0.1936 -0.3746
  457TMC3    C6 6806   4.308   3.429  16.429  0.2995 -0.3062  0.6781
  457TMC3     C 6807   4.556   3.328  16.115 -0.3649  0.1774  0.3792
  457TMC3     O 6808   4.553   3.420  16.033  0.2390 -0.2773 -0.1066
  457TMC3     H 6809   4.327   3.429  16.093 -1.1488 -2.0357 -0.0368
  457TMC3    H1 6810   4.587   3.248  16.361  0.6871  1.3538  0.5479
  457TMC3    H2 6811   4.244   3.473  16.504 -0.0574  1.4632 -0.6513
  457TMC3    C7 6812   4.459   3.330  16.589 -0.4445  0.1239  0.1657
  457TMC3    C8 6813   4.170   3.563  16.270  0.1585 -0.2503 -0.0021
  457TMC3    O1 6814   4.362   3.308  16.662 -0.2306 -0.7629  0.3032
  457TMC3    O2 6815   4.082   3.574  16.352 -0.2725  0.2030  0.1055
  458MPD2     C 6816   2.089   2.732  12.460  0.0549  0.3121 -0.1940
  458MPD2    C1 6817   2.040   2.691  12.582  0.6284 -0.3219  0.2390
  458MPD2    C2 6818   1.918   2.623  12.581  0.0327  0.8778  0.4040
  458MPD2    C3 6819   1.847   2.620  12.465  0.5557  0.4341  0.9621
  458MPD2    C4 6820   1.901   2.661  12.347 -0.0779 -0.9820 -0.4138
  458MPD2    C5 6821   2.018   2.720  12.347  1.5160  0.4279 -0.0905
  458MPD2     H 6822   1.875   2.574  12.667 -0.4328 -0.3580 -0.5332
  458MPD2    H1 6823   1.849   2.652  12.253 -1.5624  1.7818  0.1445
  458MPD2    H2 6824   2.180   2.790  12.461 -0.5595  1.2686 -0.2918
  458MPD2    H3 6825   2.055   2.754  12.251  0.9506 -0.5961 -0.6723
  458MPD2     N 6826   1.714   2.574  12.476  0.1299  0.0005 -0.0084
  458MPD2    H5 6827   1.692   2.538  12.568  0.7470  1.9649  0.8999
  458MPD2    N1 6828   2.124   2.705  12.697 -0.0243 -0.1122 -0.0766
  458MPD2    H7 6829   2.217   2.742  12.679  0.4864 -0.6438  1.5476
  459TMC3    C1 6830   2.183   2.693  12.917 -0.1680  0.4043 -0.0811
  459TMC3    C2 6831   2.285   2.786  12.892  0.6072  0.6516  0.1252
  459TMC3    C3 6832   2.369   2.824  12.997  0.0951 -0.2410 -0.3511
  459TMC3    C4 6833   2.160   2.655  13.043 -0.6809  0.5834  0.9094
  459TMC3    C5 6834   2.243   2.683  13.141 -0.5289 -0.5060 -0.7106
  459TMC3    C6 6835   2.348   2.769  13.123  0.2748 -0.2508  0.9082
  459TMC3     C 6836   2.090   2.664  12.821  0.2890 -0.1390 -0.3732
  459TMC3     O 6837   1.983   2.619  12.859  0.5395 -0.4943  0.3340
  459TMC3     H 6838   2.296   2.838  12.798 -0.5946 -0.5104 -0.6722
  459TMC3    H1 6839   2.071   2.598  13.066  0.5837 -0.9110  2.1006
  459TMC3    H2 6840   2.433   2.778  13.190  2.2970 -0.7908 -1.5412
  459TMC3    C7 6841   2.223   2.622  13.275  0.2820  0.2214 -0.5147
  459TMC3    C8 6842   2.485   2.896  12.960 -0.3750  0.1323 -0.1112
  459TMC3    O1 6843   2.135   2.536  13.279 -0.4459 -0.5869 -0.2273
  459TMC3    O2 6844   2.517   2.891  12.842  0.4661  0.4152  0.6276
  460MPD2     C 6845   0.613   4.653  10.426  0.0650 -0.0423 -0.0596
  460MPD2    C1 6846   0.570   0.004  10.532 -0.0609  0.1897  0.1443
  460MPD2    C2 6847   0.454   0.090  10.511 -0.2756 -0.1197  0.2685
  460MPD2    C3 6848   0.391   0.092  10.387 -0.0915  0.1837 -0.2958
  460MPD2    C4 6849   0.440   0.012  10.283 -0.5812  0.5133  0.3645
  460MPD2    C5 6850   0.544   4.652  10.307 -0.6829  0.2839  0.0963
  460MPD2     H 6851   0.413   0.145  10.594  0.7772  0.1079  0.6396
  460MPD2    H1 6852   0.386   4.712  10.192 -0.0485  2.0606 -0.3382
  460MPD2    H2 6853   0.701   4.591  10.443 -1.4008 -1.5172  2.0252
  460MPD2    H3 6854   0.582   4.596  10.222  3.6710  2.5526  0.5175
  460MPD2     N 6855   0.285   0.192  10.375 -0.5216 -0.0159  0.2327
  460MPD2    H5 6856   0.266   0.259  10.449 -0.7199  0.5186 -0.3058
  460MPD2    N1 6857   0.635   4.709  10.661  0.4422 -0.1673  0.0581
  460MPD2    H7 6858   0.719   4.652  10.663  0.8525  0.4388 -0.3067
  461TMC3    C1 6859   0.170   0.352  10.245  0.1634  0.6689 -0.0075
  461TMC3    C2 6860   0.169   0.424  10.125 -0.1717 -0.3822  0.0542
  461TMC3    C3 6861   0.078   0.521  10.103  0.6219  0.1614 -0.2802
  461TMC3    C4 6862   0.073   0.370  10.334 -0.4472  0.5760 -0.0485
  461TMC3    C5 6863   4.700   0.459  10.308 -0.7559 -0.5389  0.0943
  461TMC3    C6 6864   4.698   0.537  10.190  0.4040  0.4243  0.1600
  461TMC3     C 6865   0.249   0.227  10.247 -0.4977 -0.2882 -0.4616
  461TMC3     O 6866   0.275   0.173  10.138  0.0157 -0.1471  0.0444
  461TMC3     H 6867   0.234   0.387  10.046 -1.4110 -0.5817 -0.8662
  461TMC3    H1 6868   0.069   0.319  10.430  3.2617  0.8014  0.2122
  461TMC3    H2 6869   4.632   0.623  10.185 -0.4426 -0.1765  1.0502
  461TMC3    C7 6870   4.586   0.466  10.398  0.0744  0.4114  0.6049
  461TMC3    C8 6871   0.089   0.579   9.968 -0.4790  0.3694 -0.0879
  461TMC3    O1 6872   4.595   0.421  10.513  0.6103  0.3265  0.3442
  461TMC3    O2 6873   0.202   0.574   9.926 -0.3197  0.1628 -0.4943
  462TMC3    C1 6874   1.597   0.722   0.130 -0.7735 -0.5983  0.1119
  462TMC3    C2 6875   1.591   0.624   0.039  0.0852  0.3734  0.9963
  462TMC3    C3 6876   1.470   0.559   0.023 -0.5970 -0.5143  0.5897
  462TMC3    C4 6877   1.489   0.762   0.199  0.5882 -0.4292  0.3669
  462TMC3    C5 6878   1.368   0.692   0.188 -0.2412  0.2569 -0.3356
  462TMC3    C6 6879   1.362   0.588   0.099  0.0562 -0.7240 -0.3544
  462TMC3     C 6880   1.700   0.819   0.087  0.6657 -0.4414 -0.0615
  462TMC3     O 6881   1.715   0.839  17.661  0.0813  0.0861 -0.1995
  462TMC3     H 6882   1.671   0.606  17.662 -1.2997 -0.0034 -0.4945
  462TMC3    H1 6883   1.501   0.854   0.256 -0.8248  0.0324 -0.0872
  462TMC3    H2 6884   1.265   0.552   0.068 -1.0250  0.5436  1.4897
  462TMC3    C7 6885   1.249   0.760   0.233  0.4579 -0.2412  0.3665
  462TMC3    C8 6886   1.474   0.456  17.615 -0.3919 -1.0203 -0.3797
  462TMC3    O1 6887   1.146   0.696   0.227  0.1430 -0.0945  1.0983
  462TMC3    O2 6888   1.559   0.470  17.525 -0.3402 -0.0874 -0.0226
  463MPD2     C 6889   2.277   3.621   2.040  0.3630  0.1601 -0.7132
  463MPD2    C1 6890   2.316   3.755   2.020 -0.7172  0.7170  0.5987
  463MPD2    C2 6891   2.450   3.773   1.993  0.3159  0.2399  0.2745
  463MPD2    C3 6892   2.546   3.673   1.989  0.1290 -0.4052  0.0300
  463MPD2    C4 6893   2.502   3.553   2.029 -0.1463 -0.0735 -0.7324
  463MPD2    C5 6894   2.371   3.524   2.054  0.4746 -0.0643 -0.0307
  463MPD2     H 6895   2.465   3.872   1.953 -0.7094 -1.1702 -3.5515
  463MPD2    H1 6896   2.567   3.466   2.027  0.1341  0.1327 -0.6564
  463MPD2    H2 6897   2.173   3.591   2.052  0.3179  1.1370  1.5287
  463MPD2    H3 6898   2.342   3.420   2.067 -0.0963 -0.1663 -1.9908
  463MPD2     N 6899   2.686   3.697   1.946 -0.0770  0.1484 -0.3644
  463MPD2    H5 6900   2.757   3.626   1.948  0.6186  0.8304 -0.7805
  463MPD2    N1 6901   2.233   3.874   2.008  0.6907  0.7079 -0.7545
  463MPD2    H7 6902   2.275   3.962   1.982  0.5634  0.8105 -0.6141
  464TMC3    C1 6903   2.023   3.984   1.973 -0.4339  0.0418 -0.5440
  464TMC3    C2 6904   2.094   4.093   1.935 -0.1812  0.0269  0.2252
  464TMC3    C3 6905   2.036   4.216   1.961 -0.0288 -0.2248  0.5692
  464TMC3    C4 6906   1.894   3.992   2.028 -0.2125  0.0056  0.2294
  464TMC3    C5 6907   1.842   4.118   2.044  0.0476  0.3784  0.1446
  464TMC3    C6 6908   1.908   4.235   2.023  0.2050 -0.1597  0.2730
  464TMC3     C 6909   2.099   3.863   2.010  0.2361  0.0417  0.3144
  464TMC3     O 6910   2.029   3.762   2.025  0.1537 -0.3446  0.1642
  464TMC3     H 6911   2.180   4.094   1.870 -1.4332  0.9881 -1.4325
  464TMC3    H1 6912   1.841   3.902   2.056 -1.6956  0.3207 -1.6098
  464TMC3    H2 6913   1.861   4.331   2.041 -2.1386 -1.1323 -0.6563
  464TMC3    C7 6914   1.710   4.135   2.097 -0.4794 -0.5058 -0.1730
  464TMC3    C8 6915   2.100   4.339   1.926  0.7051 -0.9619 -0.3609
  464TMC3    O1 6916   1.682   4.242   2.153  1.0084  0.0358 -0.1977
  464TMC3    O2 6917   2.052   4.449   1.935  0.1856 -0.2350  0.3361
  465MPD2     C 6918   3.534   3.055  17.428  0.1899 -0.9856  0.4230
  465MPD2    C1 6919   3.453   3.059  17.541 -0.1224 -0.1555  0.7165
  465MPD2    C2 6920   3.319   3.093  17.521 -0.5485 -0.6215 -0.6755
  465MPD2    C3 6921   3.274   3.150  17.394  0.3056 -0.2671 -0.4515
  465MPD2    C4 6922   3.362   3.154  17.296 -0.2082  0.0106  0.5002
  465MPD2    C5 6923   3.489   3.105  17.309 -0.0245 -0.3633 -0.2693
  465MPD2     H 6924   3.236   3.079  17.590  0.4704  1.5823  1.0339
  465MPD2    H1 6925   3.341   3.189  17.195  2.1385  1.6349  0.5839
  465MPD2    H2 6926   3.635   3.016  17.427  0.5587 -0.0047 -0.5021
  465MPD2    H3 6927   3.564   3.097  17.232 -0.0834  1.4866 -0.5141
  465MPD2     N 6928   3.140   3.193  17.384  0.2747 -0.7490 -0.2714
  465MPD2    H5 6929   3.082   3.164  17.462 -0.2978  2.6803  0.5494
  465MPD2    N1 6930   3.496   3.025  17.670 -0.2374  0.1658  0.6440
  465MPD2    H7 6931   3.425   2.999   0.045  1.4559 -0.2476  2.2585
  466TMC3    C1 6932   2.752   3.295  17.439 -0.0246 -0.8592 -0.3180
  466TMC3    C2 6933   2.683   3.371  17.344  0.1571 -0.7382  0.4398
  466TMC3    C3 6934   2.755   3.422  17.234  0.0304  0.2339 -0.3931
  466TMC3    C4 6935   2.881   3.257  17.417 -0.6747  0.0998  0.2078
  466TMC3    C5 6936   2.944   3.304  17.309 -0.4111  0.6513  0.0595
  466TMC3    C6 6937   2.885   3.388  17.218 -0.0075 -0.1074 -0.0043
  466TMC3     C 6938   2.699   3.286  17.577 -0.1914 -0.0931  0.7216
  466TMC3     O 6939   2.781   3.303  17.661  0.3040 -0.7134  0.4700
  466TMC3     H 6940   2.588   3.420  17.366  0.1073 -0.6473  0.0279
  466TMC3    H1 6941   2.920   3.184  17.487 -0.9755 -0.6909 -0.4501
  466TMC3    H2 6942   2.946   3.422  17.135  0.8356 -0.2048  0.5737
  466TMC3    C7 6943   3.080   3.266  17.280  0.1149 -0.5146 -0.4823
  466TMC3    C8 6944   2.717   3.557  17.193 -0.2732 -0.8168  0.3326
  466TMC3    O1 6945   3.119   3.295  17.170  0.2801  0.3705 -0.0197
  466TMC3    O2 6946   2.665   3.621  17.280  0.3590  0.0322 -0.1044
  467TMC3    C1 6947   3.465   2.214  13.690  0.0135  0.3021  0.1620
  467TMC3    C2 6948   3.463   2.280  13.568  0.4452  0.0743 -0.2161
  467TMC3    C3 6949   3.376   2.241  13.473  0.3845  0.0255 -0.5648
  467TMC3    C4 6950   3.369   2.113  13.716 -0.2771  0.4512  0.1948
  467TMC3    C5 6951   3.269   2.102  13.621 -0.3743  0.7923 -0.8784
  467TMC3    C6 6952   3.265   2.167  13.501 -0.4484  0.2864 -0.0865
  467TMC3     C 6953   3.595   2.189  13.742 -0.7357 -0.5128 -0.2930
  467TMC3     O 6954   3.613   2.150  13.858  0.1248 -0.4064  0.2566
  467TMC3     H 6955   3.535   2.357  13.543  0.5111 -0.4908 -1.7719
  467TMC3    H1 6956   3.389   2.041  13.795 -1.6241 -1.1033 -0.8779
  467TMC3    H2 6957   3.191   2.146  13.425  0.4879  1.7816 -1.4160
  467TMC3    C7 6958   3.172   1.995  13.643  0.4019  0.2468 -0.2896
  467TMC3    C8 6959   3.416   2.283  13.340  0.3713 -0.3994 -0.3186
  467TMC3    O1 6960   3.104   1.969  13.546  0.0416 -0.0602  0.0734
  467TMC3    O2 6961   3.534   2.303  13.330  0.1088 -0.5826 -0.0859
  468MPD2     C 6962   2.380   0.237  11.307 -0.2237  0.2698 -0.1680
  468MPD2    C1 6963   2.506   0.183  11.326  0.1163 -0.1907 -0.0440
  468MPD2    C2 6964   2.520   0.057  11.273 -0.0775  0.1157  0.3196
  468MPD2    C3 6965   2.426   4.707  11.208  0.3439 -0.1004  0.2670
  468MPD2    C4 6966   2.304   0.044  11.192 -0.0872 -0.3855  0.0061
  468MPD2    C5 6967   2.284   0.168  11.244 -0.0672 -0.2188 -0.6714
  468MPD2     H 6968   2.612   0.003  11.294  0.7186  0.9979 -0.9297
  468MPD2    H1 6969   2.225   4.717  11.137 -0.8196  0.7372  0.0443
  468MPD2    H2 6970   2.359   0.338  11.340  0.4838  0.7784 -1.2793
  468MPD2    H3 6971   2.185   0.205  11.221 -0.7828 -2.4920 -1.2492
  468MPD2     N 6972   2.469   4.586  11.151  0.3251  0.3105  0.4536
  468MPD2    H5 6973   2.562   4.549  11.167 -0.5004 -1.9148  0.0986
  468MPD2    N1 6974   2.605   0.240  11.402 -0.2792 -0.3136 -0.0137
  468MPD2    H7 6975   2.690   0.186  11.404  1.2698  2.2462  1.7887
  469TMC3    C1 6976   2.716   0.389  11.551 -0.8703  0.8583  0.1908
  469TMC3    C2 6977   2.839   0.322  11.542  0.4170 -0.2306 -0.1676
  469TMC3    C3 6978   2.942   0.358  11.621  0.2529 -0.0161 -0.2193
  469TMC3    C4 6979   2.700   0.487  11.645  0.2233  0.2149  0.0424
  469TMC3    C5 6980   2.807   0.519  11.727 -0.5469 -0.4989  0.4227
  469TMC3    C6 6981   2.929   0.454  11.719 -0.5119  0.3491  0.4273
  469TMC3     C 6982   2.598   0.360  11.468  0.4211 -0.3453  0.2629
  469TMC3     O 6983   2.499   0.427  11.494 -0.1053  0.0472 -0.2331
  469TMC3     H 6984   2.860   0.252  11.462  3.7334  1.4806 -0.7778
  469TMC3    H1 6985   2.615   0.553  11.659 -0.0226 -0.1129  0.1176
  469TMC3    H2 6986   3.001   0.480  11.796 -0.8437  0.3089  0.7509
  469TMC3    C7 6987   2.786   0.638  11.808  0.4667  0.5788 -0.4187
  469TMC3    C8 6988   3.064   0.281  11.620 -0.2150  0.5899  0.2087
  469TMC3    O1 6989   2.674   0.652  11.852  0.0656  0.1451 -0.5784
  469TMC3    O2 6990   3.058   0.165  11.577 -0.0093 -0.5108  0.1112
  470TMC3    C1 6991   0.186   2.027   0.709 -0.6847 -0.4215  0.2086
  470TMC3    C2 6992   0.161   2.138   0.784  0.6596 -0.0296 -0.3915
  470TMC3    C3 6993   0.199   2.139   0.915  0.4153  0.8626  0.4218
  470TMC3    C4 6994   0.263   1.925   0.751 -0.3784  0.2513 -0.1745
  470TMC3    C5 6995   0.293   1.926   0.888 -0.3293 -1.3686  0.7597
  470TMC3    C6 6996   0.265   2.034   0.972 -0.1413  0.1799 -0.0771
  470TMC3     C 6997   0.170   2.048   0.567  0.0208 -0.4076  0.1097
  470TMC3     O 6998   0.163   2.163   0.523  0.1242 -0.5640 -0.3664
  470TMC3     H 6999   0.109   2.224   0.745  0.8182  0.1712 -0.1571
  470TMC3    H1 7000   0.295   1.838   0.695  1.7810  1.4290 -0.7815
  470TMC3    H2 7001   0.300   2.032   1.075 -0.2728  1.0657 -0.0081
  470TMC3    C7 7002   0.343   1.803   0.946  0.0067 -0.8289 -0.2029
  470TMC3    C8 7003   0.144   2.233   1.004  0.1915 -0.3637 -0.3937
  470TMC3    O1 7004   0.383   1.720   0.867  0.7323  0.0316 -0.3061
  470TMC3    O2 7005   0.209   2.242   1.107  0.7848  0.1389 -0.7410
  471MPD2     C 7006   0.840   2.372  16.480  0.4088  0.0531 -0.3126
  471MPD2    C1 7007   0.922   2.260  16.471  0.2860  0.0875 -0.2253
  471MPD2    C2 7008   0.992   2.221  16.581  0.5482  0.0681 -0.0738
  471MPD2    C3 7009   0.987   2.297  16.698 -0.1069 -0.4880  0.4643
  471MPD2    C4 7010   0.914   2.418  16.705 -0.2516 -0.4811 -0.2780
  471MPD2    C5 7011   0.836   2.446  16.591 -0.3550  0.0999 -0.0418
  471MPD2     H 7012   1.041   2.125  16.584  2.3418  0.9802 -0.2928
  471MPD2    H1 7013   0.899   2.480  16.792 -0.3237  2.2630 -2.2561
  471MPD2    H2 7014   0.784   2.405  16.393 -0.3900 -1.0540 -0.2222
  471MPD2    H3 7015   0.771   2.533  16.587  1.1667  1.2509  0.3968
  471MPD2     N 7016   1.065   2.265  16.820  0.3345  0.7694  0.0577
  471MPD2    H5 7017   1.064   2.330  16.898  0.4978  0.8925 -0.0407
  471MPD2    N1 7018   0.926   2.167  16.370 -0.1423 -0.2874  0.7331
  471MPD2    H7 7019   0.980   2.084  16.391 -2.1602 -1.9080 -0.5470
  472TMC3    C1 7020   0.830   2.016  16.208 -0.6772 -0.6278  0.1938
  472TMC3    C2 7021   0.704   1.984  16.161  0.4850 -0.0827  0.2077
  472TMC3    C3 7022   0.659   1.859  16.191 -0.3153  0.2377 -0.5650
  472TMC3    C4 7023   0.908   1.932  16.284 -0.3043 -0.0784 -0.6171
  472TMC3    C5 7024   0.851   1.806  16.309 -0.1380  0.3981 -0.6128
  472TMC3    C6 7025   0.728   1.775  16.267 -0.0561  0.1251  0.2083
  472TMC3     C 7026   0.839   2.161  16.261 -0.0524 -0.6162 -0.8279
  472TMC3     O 7027   0.756   2.244  16.221 -0.2401 -0.0869  0.5647
  472TMC3     H 7028   0.648   2.054  16.098 -0.3532 -1.6835 -0.8458
  472TMC3    H1 7029   1.014   1.945  16.305 -0.5319 -2.5596  2.0708
  472TMC3    H2 7030   0.682   1.687  16.311  1.5007 -1.8192 -2.0212
  472TMC3    C7 7031   0.915   1.720  16.407  0.1964 -0.1494  0.6557
  472TMC3    C8 7032   0.534   1.816  16.137 -0.1681 -0.2713 -0.5234
  472TMC3    O1 7033   0.865   1.616  16.430 -0.4377 -0.7536  0.2204
  472TMC3    O2 7034   0.489   1.886  16.047 -0.0789 -0.1186 -0.1131
  473MPD2     C 7035   0.282   4.530  13.800  0.1653  0.4333  0.8021
  473MPD2    C1 7036   0.353   4.607  13.703 -0.2326 -0.8402  0.5130
  473MPD2    C2 7037   0.481   4.646  13.736  1.0297 -0.0961 -0.3582
  473MPD2    C3 7038   0.536   4.617  13.860 -0.1497  0.6583 -0.0001
  473MPD2    C4 7039   0.462   4.545  13.952  0.5026  0.0699  0.0543
  473MPD2    C5 7040   0.338   4.498  13.921  0.7096  0.3479  0.5406
  473MPD2     H 7041   0.529   4.720  13.674  1.3011  3.0454  3.5588
  473MPD2    H1 7042   0.511   4.522  14.045  1.1153  1.0659 -0.0165
  473MPD2    H2 7043   0.185   4.484  13.785 -0.0114  1.7583 -2.0674
  473MPD2    H3 7044   0.273   4.457  13.998  0.6036 -0.1912  0.1644
  473MPD2     N 7045   0.663   4.663  13.900 -0.6933 -0.3938  0.3371
  473MPD2    H5 7046   0.690   4.633  13.993 -0.0978  1.2010  0.6726
  473MPD2    N1 7047   0.302   4.650  13.575  0.3610  0.0728 -0.3019
  473MPD2    H7 7048   0.376   4.692  13.520 -0.2995  1.3845 -0.1787
  474TMC3    C1 7049   0.834   0.088  13.924 -0.2564 -0.4894 -0.0956
  474TMC3    C2 7050   0.848   0.219  13.941  0.4136 -0.4470  0.2070
  474TMC3    C3 7051   0.955   0.264  14.018  0.3942  0.1657  0.9005
  474TMC3    C4 7052   0.907   4.721  13.993 -0.0085 -0.6675  0.3678
  474TMC3    C5 7053   0.999   0.044  14.081  0.2871  0.7599 -0.2551
  474TMC3    C6 7054   1.026   0.178  14.097  0.0303 -0.0278 -0.0380
  474TMC3     C 7055   0.726   0.048  13.842  0.4018  0.5641  0.3785
  474TMC3     O 7056   0.699   0.121  13.747  0.0590  0.3141  0.3207
  474TMC3     H 7057   0.788   0.294  13.889  0.1254 -1.6288 -1.1716
  474TMC3    H1 7058   0.892   4.614  13.981  0.1708 -0.7884  1.2442
  474TMC3    H2 7059   1.114   0.215  14.149  1.0221  0.8290 -2.3475
  474TMC3    C7 7060   1.112   4.684  14.113  0.1205 -0.6527  0.0423
  474TMC3    C8 7061   0.962   0.406  14.041  0.6842 -0.4527 -0.9128
  474TMC3    O1 7062   1.145   4.602  14.027  0.4183 -0.1998 -0.2400
  474TMC3    O2 7063   0.976   0.490  13.951 -0.5315  0.1659  0.0114
  475MPD2     C 7064   3.542   3.345  10.573  0.4052 -0.3566  0.2234
  475MPD2    C1 7065   3.527   3.329  10.441  0.0198 -0.0297  0.0054
  475MPD2    C2 7066   3.402   3.328  10.388 -0.5953  0.6131  0.2313
  475MPD2    C3 7067   3.291   3.333  10.480 -0.0856 -0.1356  0.5669
  475MPD2    C4 7068   3.314   3.360  10.616 -0.0183 -1.1480  0.3922
  475MPD2    C5 7069   3.439   3.369  10.658  0.1708  0.0449 -0.3780
  475MPD2     H 7070   3.387   3.319  10.281  3.4441  2.4636 -0.4764
  475MPD2    H1 7071   3.228   3.372  10.680 -0.8062  2.2320 -1.3170
  475MPD2    H2 7072   3.641   3.341  10.616  0.4032 -1.8543  0.1036
  475MPD2    H3 7073   3.453   3.395  10.762 -0.5028 -0.1340 -0.2437
  475MPD2     N 7074   3.171   3.311  10.416 -0.0116  0.4168 -0.3707
  475MPD2    H5 7075   3.171   3.276  10.321  0.1961 -0.3561 -0.0864
  475MPD2    N1 7076   3.653   3.331  10.371  0.1472  0.3625 -0.4483
  475MPD2    H7 7077   3.740   3.348  10.420 -0.3753  1.6213  0.0555
  476TMC3    C1 7078   3.801   3.290  10.187  0.7760 -0.4168  0.2032
  476TMC3    C2 7079   3.815   3.213  10.074  0.0194  0.0783  0.4125
  476TMC3    C3 7080   3.942   3.190  10.031  0.2922  0.2512 -0.2956
  476TMC3    C4 7081   3.903   3.362  10.242 -0.2131  0.2197  0.4062
  476TMC3    C5 7082   4.026   3.352  10.179  0.6717 -0.4012 -0.6136
  476TMC3    C6 7083   4.046   3.263  10.081  0.4019 -0.5022  0.0755
  476TMC3     C 7084   3.661   3.305  10.236 -0.6122  0.6388  0.1384
  476TMC3     O 7085   3.570   3.277  10.156 -0.1515  0.4351  0.2131
  476TMC3     H 7086   3.731   3.169  10.021  1.2012 -1.6301 -0.0696
  476TMC3    H1 7087   3.880   3.437  10.318  0.1539 -0.8313  1.5556
  476TMC3    H2 7088   4.147   3.246  10.046  0.4533 -0.6808  0.3078
  476TMC3    C7 7089   4.152   3.401  10.253  0.2233  0.4314 -0.3753
  476TMC3    C8 7090   3.973   3.082   9.931 -0.0575  0.1601  0.6457
  476TMC3    O1 7091   4.254   3.362  10.205  0.2760 -1.0686 -0.1881
  476TMC3    O2 7092   4.072   3.101   9.859  0.3506 -0.1061  0.3892
  477MPD2     C 7093   1.059   3.759  11.540 -0.3865 -0.3038  0.1231
  477MPD2    C1 7094   1.072   3.860  11.632  0.5836  0.2723  0.5173
  477MPD2    C2 7095   1.160   3.847  11.738 -0.1750  0.3266  0.2778
  477MPD2    C3 7096   1.238   3.734  11.753 -0.4618 -0.6328  0.4565
  477MPD2    C4 7097   1.230   3.642  11.654  0.6270  0.6613  0.5320
  477MPD2    C5 7098   1.143   3.654  11.551  0.0886 -0.6794 -0.0632
  477MPD2     H 7099   1.161   3.916  11.822 -2.3427 -0.1415  0.6843
  477MPD2    H1 7100   1.285   3.548  11.650 -2.7506 -1.3511  0.6784
  477MPD2    H2 7101   0.990   3.777  11.458 -0.5428  0.4023  0.4066
  477MPD2    H3 7102   1.123   3.582  11.473 -1.1057  1.2712 -1.5340
  477MPD2     N 7103   1.311   3.726  11.875 -0.1969  0.2819 -0.2426
  477MPD2    H5 7104   1.319   3.807  11.935  2.4248  1.0913 -1.6788
  477MPD2    N1 7105   0.996   3.980  11.610 -0.0178  0.5227 -0.6474
  477MPD2    H7 7106   0.926   3.969  11.537 -0.0863  1.6635 -0.7500
  478TMC3    C1 7107   0.933   4.203  11.619  0.2118 -0.0811 -0.3595
  478TMC3    C2 7108   0.913   4.314  11.684  0.5142 -0.5509 -0.5930
  478TMC3    C3 7109   0.857   4.422  11.626 -0.1249 -0.8522  0.6700
  478TMC3    C4 7110   0.898   4.194  11.487  0.1649  0.7032  0.2341
  478TMC3    C5 7111   0.848   4.306  11.429  0.2604 -0.2520  0.1110
  478TMC3    C6 7112   0.823   4.422  11.493  0.8931  0.0963  0.8936
  478TMC3     C 7113   0.999   4.091  11.687  0.0339 -0.5329 -0.0126
  478TMC3     O 7114   1.063   4.104  11.791  0.0878 -0.1268 -0.0954
  478TMC3     H 7115   0.947   4.320  11.787 -0.2039 -0.6295 -0.3527
  478TMC3    H1 7116   0.928   4.107  11.429 -1.7793 -0.4580  0.9669
  478TMC3    H2 7117   0.769   4.500  11.441  0.2296 -0.4126  0.8220
  478TMC3    C7 7118   0.826   4.289  11.286  0.3914 -1.1188  0.0184
  478TMC3    C8 7119   0.821   4.521  11.720 -0.4663  0.0007  0.0923
  478TMC3    O1 7120   0.905   4.229  11.219  0.2235 -0.0832  0.6937
  478TMC3    O2 7121   0.768   4.487  11.827  0.1491 -0.4711  0.3745
  479MPD2     C 7122   0.438   1.509  14.993 -0.8220  0.1594  0.2945
  479MPD2    C1 7123   0.432   1.492  15.129 -0.2338 -0.6771  0.4127
  479MPD2    C2 7124   0.551   1.518  15.202  0.3810 -0.1336 -0.0107
  479MPD2    C3 7125   0.664   1.575  15.140  0.2581  0.2460  0.1527
  479MPD2    C4 7126   0.662   1.593  15.010 -0.3722 -0.6526  0.2599
  479MPD2    C5 7127   0.554   1.554  14.932  0.2878 -0.4710  0.5373
  479MPD2     H 7128   0.556   1.509  15.310 -2.1484  3.3168  0.4167
  479MPD2    H1 7129   0.750   1.635  14.962 -2.9700  3.6064 -0.7567
  479MPD2    H2 7130   0.350   1.500  14.929  0.4408  0.5924 -1.5084
  479MPD2    H3 7131   0.551   1.571  14.825 -0.1798 -0.4793  0.5463
  479MPD2     N 7132   0.762   1.634  15.217 -0.2931 -0.2489  0.1240
  479MPD2    H5 7133   0.823   1.695  15.163 -0.4321  0.1648  0.4281
  479MPD2    N1 7134   0.304   1.478  15.186 -0.3615 -0.3235 -0.0949
  479MPD2    H7 7135   0.226   1.466  15.121 -0.4090 -0.0694 -0.0887
  480TMC3    C1 7136   0.711   1.748  15.636 -0.5350  0.8706 -0.4656
  480TMC3    C2 7137   0.589   1.784  15.603  0.1061 -1.1033 -0.2143
  480TMC3    C3 7138   0.569   1.807  15.466  0.1781  0.2574 -0.1149
  480TMC3    C4 7139   0.816   1.730  15.546  0.4674 -0.5945  0.2320
  480TMC3    C5 7140   0.789   1.750  15.414  0.0159 -0.7040 -0.5152
  480TMC3    C6 7141   0.672   1.801  15.372  0.4952 -0.0325  0.4900
  480TMC3     C 7142   0.740   1.735  15.770 -0.5859 -1.1660  0.2697
  480TMC3     O 7143   0.856   1.748  15.807 -0.3707 -0.2603 -0.3962
  480TMC3     H 7144   0.514   1.806  15.678 -0.3630  1.3407 -1.3904
  480TMC3    H1 7145   0.912   1.703  15.588 -0.3602  1.0917  3.2213
  480TMC3    H2 7146   0.664   1.838  15.271  1.9297  0.1639  0.4540
  480TMC3    C7 7147   0.794   1.622  15.348 -0.4317  0.0833 -0.4678
  480TMC3    C8 7148   0.430   1.820  15.423  0.1740  0.0947  0.8370
  480TMC3    O1 7149   0.763   1.532  15.426 -0.9427  0.2401  0.6315
  480TMC3    O2 7150   0.343   1.838  15.506 -0.5264 -0.6214 -0.4893
  481MPD2     C 7151   2.494   1.129  14.157 -0.1956  0.2145  0.5966
  481MPD2    C1 7152   2.363   1.146  14.198 -0.6748 -0.4032 -0.3386
  481MPD2    C2 7153   2.332   1.154  14.334 -0.0189  0.5394 -0.2818
  481MPD2    C3 7154   2.439   1.159  14.431 -0.0830  0.0140 -0.3043
  481MPD2    C4 7155   2.571   1.139  14.383 -0.1218 -0.0992 -0.3273
  481MPD2    C5 7156   2.594   1.134  14.248  0.1900  0.2216 -0.2447
  481MPD2     H 7157   2.226   1.169  14.354  0.1919 -0.8099  1.7607
  481MPD2    H1 7158   2.666   1.137  14.434  0.2158  0.0416 -0.9520
  481MPD2    H2 7159   2.521   1.119  14.053  0.7408  1.1839  0.7489
  481MPD2    H3 7160   2.692   1.130  14.202 -0.7142  1.8047 -2.2552
  481MPD2     N 7161   2.412   1.158  14.569  0.2759  0.4307  0.3458
  481MPD2    H5 7162   2.486   1.115  14.624  0.2576 -1.9062 -1.4474
  481MPD2    N1 7163   2.268   1.142  14.090  0.2417 -0.1746  0.2063
  481MPD2    H7 7164   2.312   1.111  14.004 -0.8606 -2.3050  0.3954
  482TMC3    C1 7165   2.066   1.134  13.973  0.0105 -0.0431 -0.5257
  482TMC3    C2 7166   2.096   1.019  13.903 -0.7226 -0.6030  0.5301
  482TMC3    C3 7167   2.029   0.986  13.791  0.2728 -0.2187 -0.0493
  482TMC3    C4 7168   1.954   1.210  13.939  0.1615 -0.0151  0.5186
  482TMC3    C5 7169   1.895   1.175  13.818  0.4628  0.0541  0.0200
  482TMC3    C6 7170   1.929   1.066  13.741  0.1199  0.3697  0.5877
  482TMC3     C 7171   2.129   1.165  14.101 -0.1066  0.0543 -0.1713
  482TMC3     O 7172   2.070   1.219  14.192  0.0750 -0.1947  0.1369
  482TMC3     H 7173   2.164   0.950  13.952 -1.2825 -1.2028  0.4549
  482TMC3    H1 7174   1.930   1.300  13.995 -0.1000  0.6245 -0.6175
  482TMC3    H2 7175   1.886   1.028  13.649 -0.2000  1.2888  0.3580
  482TMC3    C7 7176   1.812   1.281  13.758 -0.8677 -0.0690  0.5835
  482TMC3    C8 7177   2.044   0.853  13.745  0.4691 -0.2448  0.9637
  482TMC3    O1 7178   1.834   1.398  13.787  1.1221 -0.4927 -0.4528
  482TMC3    O2 7179   1.951   0.807  13.686 -0.1267 -0.5014  0.4788
  483TMC3    C1 7180   4.157   0.552   0.675 -0.1230  0.4132  0.3637
  483TMC3    C2 7181   4.237   0.664   0.649 -0.2066 -0.3936 -0.2928
  483TMC3    C3 7182   4.317   0.698   0.755  0.2486  0.1714 -0.1692
  483TMC3    C4 7183   4.155   0.483   0.788  0.0480 -0.1484  0.0569
  483TMC3    C5 7184   4.257   0.511   0.877 -0.0298 -0.0319  0.2201
  483TMC3    C6 7185   4.337   0.619   0.861  0.2888 -0.3365 -0.3987
  483TMC3     C 7186   4.084   0.503   0.558 -0.6821 -0.0595 -0.1038
  483TMC3     O 7187   4.055   0.588   0.475 -0.4061  0.7193  0.1957
  483TMC3     H 7188   4.233   0.722   0.558  2.0970 -1.2956 -0.9870
  483TMC3    H1 7189   4.082   0.403   0.799 -0.1096  0.0752  0.6543
  483TMC3    H2 7190   4.416   0.642   0.932 -0.0812 -2.5511  0.7357
  483TMC3    C7 7191   4.298   0.419   0.988  0.4115 -0.3397  0.2018
  483TMC3    C8 7192   4.421   0.787   0.721 -0.5347 -0.3344  0.2578
  483TMC3    O1 7193   4.393   0.441   1.065  0.0658 -0.2902 -0.1030
  483TMC3    O2 7194   4.448   0.796   0.601 -0.2619  0.0159 -0.0319
  484MPD2     C 7195   2.631   3.159  13.161 -0.3324 -0.4428  0.3392
  484MPD2    C1 7196   2.631   3.060  13.068 -0.0987  0.0035  0.0378
  484MPD2    C2 7197   2.745   3.048  12.990  0.1413 -0.7285 -0.8376
  484MPD2    C3 7198   2.851   3.131  13.003  0.3588  0.0353 -0.1099
  484MPD2    C4 7199   2.841   3.239  13.091 -0.3867  0.0685 -0.0454
  484MPD2    C5 7200   2.735   3.249  13.180 -0.3243 -1.0547  0.0531
  484MPD2     H 7201   2.753   2.954  12.937 -0.7852  0.3978 -2.9564
  484MPD2    H1 7202   2.929   3.302  13.099  1.3224 -2.3607  0.1544
  484MPD2    H2 7203   2.552   3.155  13.235  1.2514  0.0074  2.0341
  484MPD2    H3 7204   2.738   3.321  13.260  0.0217 -0.6108 -0.3557
  484MPD2     N 7205   2.966   3.112  12.915  0.0905 -0.4122 -0.1834
  484MPD2    H5 7206   3.036   3.186  12.918 -0.8013  0.4246  0.3440
  484MPD2    N1 7207   2.523   2.973  13.066  0.2531  0.6335 -0.3785
  484MPD2    H7 7208   2.453   2.984  13.139 -0.3749  1.3679 -1.0965
  485TMC3    C1 7209   3.114   3.017  12.757  0.1491 -0.0447 -0.2832
  485TMC3    C2 7210   3.118   2.920  12.658  0.2160 -0.4309  0.0017
  485TMC3    C3 7211   3.241   2.899  12.595 -0.4386  0.7541 -0.2874
  485TMC3    C4 7212   3.225   3.093  12.797  0.4054  0.0287  0.3887
  485TMC3    C5 7213   3.340   3.066  12.726  0.1632 -0.4466  0.2327
  485TMC3    C6 7214   3.351   2.971  12.630  0.7623  0.1157  0.3879
  485TMC3     C 7215   2.993   3.000  12.837  0.3142  0.2736  0.3482
  485TMC3     O 7216   2.926   2.903  12.809  0.0351  0.2945 -0.3096
  485TMC3     H 7217   3.029   2.885  12.608  0.9503 -0.4112 -1.3446
  485TMC3    H1 7218   3.225   3.177  12.866  0.1558 -0.5138  1.0379
  485TMC3    H2 7219   3.447   2.943  12.589  0.2088 -1.4163  0.1283
  485TMC3    C7 7220   3.422   3.177  12.685 -0.2812 -0.0627  0.2156
  485TMC3    C8 7221   3.238   2.905  12.455 -0.0641 -0.1457  0.2783
  485TMC3    O1 7222   3.431   3.275  12.756 -0.2342  0.3053 -0.3423
  485TMC3    O2 7223   3.327   2.964  12.405 -0.0629  0.0222  0.1996
  486MPD2     C 7224   0.195   2.072  13.088 -0.5529  0.6677 -0.9814
  486MPD2    C1 7225   0.124   1.988  13.015 -0.4679 -0.1179  0.0611
  486MPD2    C2 7226   0.020   2.034  12.939  0.2611 -0.2367  0.2097
  486MPD2    C3 7227   4.692   2.166  12.956  0.5476 -0.5097  0.0085
  486MPD2    C4 7228   0.028   2.246  13.056 -0.0892 -0.0279 -0.6807
  486MPD2    C5 7229   0.144   2.201  13.104 -0.1627 -0.7463  0.4964
  486MPD2     H 7230   4.678   1.964  12.886  0.4991 -1.0858  1.0445
  486MPD2    H1 7231   0.006   2.346  13.093  0.7635 -0.8325  2.0567
  486MPD2    H2 7232   0.288   2.043  13.136 -1.8485 -1.8101  0.0178
  486MPD2    H3 7233   0.205   2.272  13.159 -0.2430 -2.0079  2.2334
  486MPD2     N 7234   4.579   2.209  12.880  0.1169  0.0448 -0.1828
  486MPD2    H5 7235   4.540   2.149  12.808  0.6419 -0.7938  0.2290
  486MPD2    N1 7236   0.180   1.858  13.001 -0.3862 -0.9349  0.2244
  486MPD2    H7 7237   0.262   1.839  13.059  1.0936 -0.1705 -1.6393
  487TMC3    C1 7238   0.195   1.635  12.969  0.0344 -0.5330  0.4047
  487TMC3    C2 7239   0.203   1.538  12.869 -0.5520  0.0453  0.4106
  487TMC3    C3 7240   0.265   1.422  12.902  0.0461  0.3944  0.5490
  487TMC3    C4 7241   0.228   1.608  13.094 -1.3215 -0.5483  0.0137
  487TMC3    C5 7242   0.290   1.489  13.125  0.2660 -0.0865 -1.2174
  487TMC3    C6 7243   0.317   1.400  13.029  0.4341  0.2283  1.0277
  487TMC3     C 7244   0.128   1.753  12.933 -0.1929 -0.8671  0.3481
  487TMC3     O 7245   0.036   1.750  12.851  0.5446 -0.9610 -0.1143
  487TMC3     H 7246   0.175   1.558  12.766 -0.8177 -0.1057  0.4534
  487TMC3    H1 7247   0.225   1.686  13.169 -1.9109  1.8092 -2.4599
  487TMC3    H2 7248   0.365   1.305  13.051  0.4183 -0.7163 -3.1330
  487TMC3    C7 7249   0.290   1.442  13.268 -0.3331  0.8535  0.2186
  487TMC3    C8 7250   0.274   1.327  12.796 -0.0155  0.0255 -0.2139
  487TMC3    O1 7251   0.316   1.322  13.282 -0.4584  0.2167  0.2623
  487TMC3    O2 7252   0.309   1.376  12.690  0.1859  0.1814  0.0613
  488MPD2     C 7253   0.560   3.426  16.328  0.9727 -0.0245  0.5224
  488MPD2    C1 7254   0.502   3.545  16.370  0.0330 -0.1108 -0.3301
  488MPD2    C2 7255   0.435   3.551  16.487 -0.8739 -0.5851 -0.3079
  488MPD2    C3 7256   0.431   3.445  16.567  0.0918  0.2636  0.4498
  488MPD2    C4 7257   0.492   3.326  16.529  0.4139  0.7775  0.8078
  488MPD2    C5 7258   0.556   3.313  16.409 -0.0186  0.4165 -0.1215
  488MPD2     H 7259   0.377   3.640  16.509 -1.2990 -1.0796  0.5635
  488MPD2    H1 7260   0.481   3.234  16.585 -0.9476  1.0247  0.9553
  488MPD2    H2 7261   0.618   3.421  16.236  2.2779 -2.5533  1.4790
  488MPD2    H3 7262   0.596   3.217  16.377  1.4752  1.2479 -0.7343
  488MPD2     N 7263   0.371   3.458  16.695 -0.3692 -1.2078  0.8495
  488MPD2    H5 7264   0.333   3.549  16.720  0.7770 -0.8912  1.4297
  488MPD2    N1 7265   0.502   3.663  16.295  0.0606  0.3038 -0.3922
  488MPD2    H7 7266   0.437   3.736  16.323 -0.2866 -0.5643  1.0262
  489TMC3    C1 7267   0.312   3.412  16.924 -0.0234 -0.2566 -0.1397
  489TMC3    C2 7268   0.347   3.535  16.958 -0.2177 -0.2956 -0.8159
  489TMC3    C3 7269   0.292   3.596  17.069  0.2747  0.1237  0.0277
  489TMC3    C4 7270   0.238   3.334  17.007  0.5269 -1.1929 -0.1671
  489TMC3    C5 7271   0.183   3.398  17.115 -0.1074 -0.0695 -0.1699
  489TMC3    C6 7272   0.204   3.526  17.146 -0.2391 -0.2602  0.3416
  489TMC3     C 7273   0.351   3.362  16.791 -0.8885 -1.2296  0.0550
  489TMC3     O 7274   0.379   3.240  16.785 -0.9191  0.5851  0.6034
  489TMC3     H 7275   0.417   3.590  16.897 -1.2644  2.8473  0.7933
  489TMC3    H1 7276   0.224   3.229  16.982  2.0397 -1.3619 -0.3270
  489TMC3    H2 7277   0.166   3.561  17.241 -2.4376  0.2937 -0.7183
  489TMC3    C7 7278   0.091   3.318  17.200  0.3007  0.6754  0.4036
  489TMC3    C8 7279   0.303   3.741  17.075  0.9755  0.3748 -0.2864
  489TMC3    O1 7280   0.087   3.348  17.316  0.3624 -0.2868 -0.3436
  489TMC3    O2 7281   0.389   3.791  17.001  0.3977 -0.3087  0.1101
  490MPD2     C 7282   0.929   3.396  17.388 -0.9255  0.5111 -0.3957
  490MPD2    C1 7283   0.899   3.313  17.497  0.2675  0.1912 -0.4393
  490MPD2    C2 7284   0.962   3.334  17.619  0.1002  0.4381 -0.2291
  490MPD2    C3 7285   1.051   3.443  17.640  0.0031  0.5468  0.3095
  490MPD2    C4 7286   1.098   3.509  17.522 -0.0599  0.1583 -0.3085
  490MPD2    C5 7287   1.033   3.487  17.404  0.1525  0.4141 -0.3996
  490MPD2     H 7288   0.921   3.270   0.004  0.9120  0.5607  0.3012
  490MPD2    H1 7289   1.181   3.579  17.524 -0.6847  0.9455 -1.5821
  490MPD2    H2 7290   0.883   3.394  17.290  1.1455  0.5664 -1.3493
  490MPD2    H3 7291   1.066   3.551  17.324  1.7985 -0.5895 -0.5153
  490MPD2     N 7292   1.130   3.455   0.060  0.5849 -0.4520 -0.1026
  490MPD2    H5 7293   1.221   3.495   0.043 -0.1127  0.3572 -1.9195
  490MPD2    N1 7294   0.832   3.186  17.479  0.2632 -0.5891 -0.2893
  490MPD2    H7 7295   0.819   3.130  17.563 -1.5067 -2.1788 -1.6067
  491TMC3    C1 7296   0.772   2.981  17.370 -0.5288  0.6740 -0.2630
  491TMC3    C2 7297   0.797   2.908  17.478 -0.3509 -0.3331 -0.3843
  491TMC3    C3 7298   0.742   2.787  17.478 -0.5914 -0.0544  0.5845
  491TMC3    C4 7299   0.681   2.940  17.277  0.2280  0.0289  0.0727
  491TMC3    C5 7300   0.615   2.814  17.288  0.1911  0.2590  0.4989
  491TMC3    C6 7301   0.654   2.733  17.393 -0.0849 -0.1033  0.2207
  491TMC3     C 7302   0.808   3.124  17.358 -0.1236  0.1040  0.5270
  491TMC3     O 7303   0.804   3.171  17.247  1.0692 -0.0922 -0.0774
  491TMC3     H 7304   0.873   2.935  17.550 -1.7960  1.7341  0.3642
  491TMC3    H1 7305   0.646   3.013  17.205  0.0816 -1.2270 -1.1332
  491TMC3    H2 7306   0.600   2.643  17.420  0.3846 -0.8131 -1.1815
  491TMC3    C7 7307   0.548   2.756  17.174  0.3600  0.4057  0.7317
  491TMC3    C8 7308   0.752   2.726  17.608  0.1535 -0.0848 -0.3557
  491TMC3    O1 7309   0.516   2.635  17.180 -0.7767 -0.1561 -0.4102
  491TMC3    O2 7310   0.784   2.789   0.014 -0.4220 -0.3704  0.1495
  492MPD2     C 7311   1.284   3.175  11.319 -0.5487  0.6489 -0.3453
  492MPD2    C1 7312   1.194   3.092  11.251 -0.1911 -0.3361  0.1860
  492MPD2    C2 7313   1.129   2.997  11.321  0.2865 -0.1562 -0.0256
  492MPD2    C3 7314   1.144   2.995  11.459 -0.0973  0.0127  0.0090
  492MPD2    C4 7315   1.217   3.089  11.527  0.3580 -0.0534  0.1006
  492MPD2    C5 7316   1.294   3.174  11.456 -0.2789 -0.0369 -0.6822
  492MPD2     H 7317   1.064   2.934  11.262  2.0722  0.0259 -2.1637
  492MPD2    H1 7318   1.228   3.088  11.635  1.0629 -1.4212  0.0172
  492MPD2    H2 7319   1.354   3.239  11.266 -0.0221 -0.4706 -1.0146
  492MPD2    H3 7320   1.369   3.233  11.507  0.3026 -2.8701  1.6871
  492MPD2     N 7321   1.089   2.893  11.541  0.0543  0.2894 -0.0027
  492MPD2    H5 7322   1.117   2.892  11.638 -0.3234  0.8463  0.1159
  492MPD2    N1 7323   1.175   3.111  11.109 -0.2472 -0.0363 -0.3915
  492MPD2    H7 7324   1.216   3.201  11.083  0.8563 -0.6290 -0.7181
  493TMC3    C1 7325   1.141   3.066  10.879  0.0504  0.2214 -1.0802
  493TMC3    C2 7326   1.240   3.150  10.840  0.0437 -0.4938 -0.8298
  493TMC3    C3 7327   1.242   3.182  10.705 -0.1994 -0.6705 -0.3741
  493TMC3    C4 7328   1.051   3.017  10.786 -0.2370 -0.1440 -0.5110
  493TMC3    C5 7329   1.055   3.052  10.657  0.1716 -0.3916 -0.0930
  493TMC3    C6 7330   1.153   3.135  10.611  0.0555  0.1191 -0.7659
  493TMC3     C 7331   1.119   3.026  11.017  0.0148  0.2240  0.0819
  493TMC3     O 7332   1.062   2.921  11.038 -0.2817  0.4643  0.0751
  493TMC3     H 7333   1.312   3.185  10.914 -1.6105 -0.6580  0.8439
  493TMC3    H1 7334   0.964   2.960  10.816  1.3714 -1.1700  2.2075
  493TMC3    H2 7335   1.149   3.166  10.508 -2.6658  1.3895 -0.2766
  493TMC3    C7 7336   0.972   2.989  10.563 -1.1064  0.3891  0.4658
  493TMC3    C8 7337   1.352   3.278  10.676 -0.0600  0.8531 -0.5593
  493TMC3    O1 7338   0.921   3.054  10.467  0.3175 -0.0102  0.2993
  493TMC3    O2 7339   1.441   3.281  10.758  0.5228  0.5242  0.8254
  494TMC3    C1 7340   1.942   4.618   0.751 -0.4033 -0.7053 -0.1306
  494TMC3    C2 7341   1.966   4.493   0.804  0.6616 -0.8737 -0.5210
  494TMC3    C3 7342   1.946   4.385   0.728 -0.9825  0.2156 -0.2608
  494TMC3    C4 7343   1.882   4.630   0.627  0.3366 -0.5524 -0.5069
  494TMC3    C5 7344   1.876   4.514   0.552 -0.2737 -0.4731 -0.1070
  494TMC3    C6 7345   1.917   4.389   0.594 -0.5954  0.1755  0.3414
  494TMC3     C 7346   1.952   4.718   0.851  0.1055  0.3896  0.7496
  494TMC3     O 7347   2.041   4.710   0.939  0.6269 -0.3967  0.3997
  494TMC3     H 7348   1.987   4.479   0.909 -0.5203 -0.5902 -0.2486
  494TMC3    H1 7349   1.872   0.006   0.582 -1.5699  0.3379  1.9168
  494TMC3    H2 7350   1.882   4.296   0.550  1.1744 -0.6738  0.7068
  494TMC3    C7 7351   1.834   4.532   0.412  0.1358  0.0756 -0.3026
  494TMC3    C8 7352   1.923   4.268   0.798 -0.4981  0.0782 -0.1864
  494TMC3    O1 7353   1.866   4.450   0.326  0.8654  0.1337  0.3803
  494TMC3    O2 7354   1.880   4.279   0.911 -0.4047 -0.3623  0.1617
  495TMC3    C1 7355   0.457   1.684  14.483  0.2822 -0.4024 -0.2796
  495TMC3    C2 7356   0.354   1.709  14.397  0.2968  0.6786  0.2028
  495TMC3    C3 7357   0.267   1.810  14.445 -0.3764  0.7269  0.0110
  495TMC3    C4 7358   0.478   1.743  14.603  0.0559  0.1542  0.6857
  495TMC3    C5 7359   0.384   1.830  14.642  0.4183  0.2360 -0.2408
  495TMC3    C6 7360   0.277   1.864  14.568  0.1637  0.3316  0.2890
  495TMC3     C 7361   0.527   1.567  14.466  0.2035 -0.3276 -0.3092
  495TMC3     O 7362   0.465   1.483  14.400 -0.1152  0.1530 -0.1613
  495TMC3     H 7363   0.346   1.662  14.300 -1.1904 -0.3099  0.7993
  495TMC3    H1 7364   0.545   1.696  14.672 -3.5333 -2.8023  2.1568
  495TMC3    H2 7365   0.211   1.943  14.602  0.1103 -0.2163  1.4772
  495TMC3    C7 7366   0.385   1.856  14.782 -0.5154 -0.2746  0.1691
  495TMC3    C8 7367   0.141   1.845  14.378 -0.6801  0.2737 -0.7634
  495TMC3    O1 7368   0.496   1.857  14.840  0.4182  0.4265  0.0673
  495TMC3    O2 7369   0.047   1.890  14.446  0.1465  0.0431  0.0976
  496MPD2     C 7370   2.583   2.228  15.908 -0.5166 -0.0020 -0.2577
  496MPD2    C1 7371   2.528   2.104  15.900 -1.1029 -0.0586 -0.1706
  496MPD2    C2 7372   2.456   2.055  16.007  0.3631 -0.4465 -0.3156
  496MPD2    C3 7373   2.443   2.127  16.124 -0.5045  0.1642  0.0495
  496MPD2    C4 7374   2.489   2.257  16.129  0.6142  1.1073  0.1919
  496MPD2    C5 7375   2.560   2.306  16.022  0.2597 -0.6590  0.0068
  496MPD2     H 7376   2.413   1.955  16.008  1.1878 -0.7932  0.6577
  496MPD2    H1 7377   2.484   2.324  16.214 -0.8981 -0.6037  1.4437
  496MPD2    H2 7378   2.620   2.280  15.821 -0.4806  1.0885  0.4150
  496MPD2    H3 7379   2.598   2.407  16.021  2.8401 -1.5616  3.9742
  496MPD2     N 7380   2.374   2.065  16.229 -0.9023 -0.8185 -0.3247
  496MPD2    H5 7381   2.347   1.969  16.207 -0.1893 -1.3413  1.0554
  496MPD2    N1 7382   2.542   2.041  15.770 -0.6626 -0.5643 -0.7981
  496MPD2    H7 7383   2.619   2.072  15.712 -0.2115  0.3431  0.2910
  497TMC3    C1 7384   2.276   2.017  16.439 -0.1494  0.2270 -0.5965
  497TMC3    C2 7385   2.219   1.895  16.411 -0.0577 -0.0868  0.5565
  497TMC3    C3 7386   2.157   1.819  16.506  0.4089 -0.6473 -0.0599
  497TMC3    C4 7387   2.274   2.065  16.566 -0.3236  0.5067  0.0178
  497TMC3    C5 7388   2.220   1.985  16.662 -0.1790 -0.4383  0.3359
  497TMC3    C6 7389   2.160   1.866  16.638  0.2672 -0.8756 -0.0386
  497TMC3     C 7390   2.347   2.114  16.349  0.3373 -0.1252 -0.2436
  497TMC3     O 7391   2.388   2.223  16.393  0.1383  0.0681  0.6062
  497TMC3     H 7392   2.203   1.860  16.310 -2.0084 -1.8094  1.4395
  497TMC3    H1 7393   2.327   2.155  16.594 -0.0119  0.8689 -1.7865
  497TMC3    H2 7394   2.124   1.810  16.723  0.8238  1.0190  1.4508
  497TMC3    C7 7395   2.253   2.015  16.802 -0.0642  0.1674  0.9159
  497TMC3    C8 7396   2.112   1.677  16.483  1.0961  0.1713 -0.6609
  497TMC3    O1 7397   2.177   1.981  16.893 -0.0972 -0.5307  0.3787
  497TMC3    O2 7398   2.061   1.623  16.583  0.1107 -0.3278 -0.0964
  498MPD2     C 7399   3.007   2.785   9.079 -0.2395 -0.4326  0.2729
  498MPD2    C1 7400   3.076   2.746   9.196  0.1530 -0.0221  0.0962
  498MPD2    C2 7401   3.006   2.727   9.312  0.2360  0.4690  0.3335
  498MPD2    C3 7402   2.870   2.757   9.321  0.3606 -0.1553 -0.3105
  498MPD2    C4 7403   2.802   2.794   9.204 -1.0525 -0.6013 -1.0081
  498MPD2    C5 7404   2.868   2.806   9.087  0.0796  0.3166  0.3481
  498MPD2     H 7405   3.053   2.683   9.400 -0.3113 -0.6161  0.0808
  498MPD2    H1 7406   2.700   2.831   9.195 -0.8766  0.0945 -0.1565
  498MPD2    H2 7407   3.064   2.801   8.989 -2.2998 -0.7840 -1.0822
  498MPD2    H3 7408   2.811   2.851   9.006 -2.2061 -1.3292  1.0689
  498MPD2     N 7409   2.805   2.748   9.444 -0.0313  0.2741 -0.6453
  498MPD2    H5 7410   2.865   2.752   9.526 -1.3542 -1.9357  0.4528
  498MPD2    N1 7411   3.213   2.718   9.193  0.2545  0.2521  0.2450
  498MPD2    H7 7412   3.261   2.702   9.281 -2.6542  1.6009  2.0607
  499TMC3    C1 7413   3.427   2.653   9.113  0.2909  0.1345 -0.2004
  499TMC3    C2 7414   3.438   2.564   9.225  0.4949 -0.1127 -0.7224
  499TMC3    C3 7415   3.558   2.508   9.244 -0.0803 -0.2644  0.6109
  499TMC3    C4 7416   3.532   2.669   9.025 -0.0384  0.0614  0.5007
  499TMC3    C5 7417   3.645   2.598   9.045  0.0378  0.2969  0.2957
  499TMC3    C6 7418   3.661   2.525   9.161  0.8453 -0.5014 -0.1054
  499TMC3     C 7419   3.299   2.715   9.082  0.3896 -1.3220 -0.7315
  499TMC3     O 7420   3.288   2.758   8.966 -0.5204  0.0475  0.2306
  499TMC3     H 7421   3.359   2.540   9.295  1.4842 -0.6936  0.1940
  499TMC3    H1 7422   3.521   2.741   8.945 -1.1860 -0.8051 -0.1302
  499TMC3    H2 7423   3.763   2.506   9.195  0.7633 -0.5203  0.1302
  499TMC3    C7 7424   3.761   2.664   8.988  0.6045  0.1408  0.6498
  499TMC3    C8 7425   3.559   2.399   9.336 -0.6010 -0.3018 -0.5570
  499TMC3    O1 7426   3.753   2.778   8.947  0.3975 -0.6307 -0.3126
  499TMC3    O2 7427   3.463   2.322   9.338  0.1010  0.3713  0.9300
  500MPD2     C 7428   4.664   3.660  10.193  0.5588  0.9454 -0.3031
  500MPD2    C1 7429   4.671   3.786  10.134 -0.5786 -0.0144  0.5253
  500MPD2    C2 7430   4.567   3.834  10.054  0.2166  1.0686  0.3338
  500MPD2    C3 7431   4.455   3.759  10.034 -0.1056 -0.2052 -0.4181
  500MPD2    C4 7432   4.443   3.632  10.101  0.3763 -0.5568  0.1966
  500MPD2    C5 7433   4.554   3.585  10.168 -0.2659 -0.0504 -0.5251
  500MPD2     H 7434   4.589   3.928  10.005 -0.4051 -0.1971 -2.3497
  500MPD2    H1 7435   4.351   3.577  10.091  0.4644 -0.6895  0.1189
  500MPD2    H2 7436   0.018   3.619  10.259 -0.0329 -0.0586 -0.2384
  500MPD2    H3 7437   4.533   3.487  10.208 -3.0799 -0.5854 -3.3267
  500MPD2     N 7438   4.350   3.817   9.958  0.4098 -0.3807  0.1130
  500MPD2    H5 7439   4.353   3.915   9.931 -1.6576 -0.2560  0.3178
  500MPD2    N1 7440   0.059   3.873  10.137  0.8332 -0.1089 -0.2222
  500MPD2    H7 7441   0.038   3.966  10.105 -1.2278 -0.0012  1.4640
  501TMC3    C1 7442   0.274   3.962  10.150  0.1332 -0.6349 -0.4760
  501TMC3    C2 7443   0.224   4.091  10.135  0.1900 -0.1811  0.4189
  501TMC3    C3 7444   0.311   4.195  10.124  0.8293  0.3535  0.2252
  501TMC3    C4 7445   0.410   3.939  10.163  0.1511  0.3005 -0.5693
  501TMC3    C5 7446   0.491   4.048  10.150  0.6331  0.3629 -1.0252
  501TMC3    C6 7447   0.444   4.179  10.142 -0.0701  0.1951  0.7225
  501TMC3     C 7448   0.188   3.846  10.174  0.4164  0.1889 -0.6772
  501TMC3     O 7449   0.217   3.728  10.216  0.6646 -0.3851  0.4731
  501TMC3     H 7450   0.118   4.103  10.151  0.2918 -0.4536  1.2978
  501TMC3    H1 7451   0.448   3.842  10.195 -3.0848 -0.3441  1.4040
  501TMC3    H2 7452   0.510   4.264  10.127  0.0799 -0.2680 -1.3174
  501TMC3    C7 7453   0.634   4.040  10.193 -0.1943 -0.3922  0.5271
  501TMC3    C8 7454   0.264   4.322  10.148  0.1149  0.1988 -0.1357
  501TMC3    O1 7455   0.666   3.929  10.230 -0.7795  0.4895 -0.8295
  501TMC3    O2 7456   0.350   4.409  10.170  0.4537 -0.3426  0.3445
  502TMC3    C1 7457   4.409   2.319  14.916  0.7112 -0.8788  0.1020
  502TMC3    C2 7458   4.477   2.399  14.822 -0.5420  0.3573  0.1648
  502TMC3    C3 7459   4.422   2.528  14.801  0.2007  0.5488  0.9597
  502TMC3    C4 7460   4.289   2.360  14.959 -0.6278  0.8333  0.2511
  502TMC3    C5 7461   4.243   2.487  14.941 -0.5682  0.3935 -0.2422
  502TMC3    C6 7462   4.306   2.580  14.858 -0.4671 -0.0692 -0.5942
  502TMC3     C 7463   4.488   2.297  15.028  0.6803  0.2502 -0.5783
  502TMC3     O 7464   4.436   2.333  15.129  0.5492  0.6519  0.2138
  502TMC3     H 7465   4.567   2.363  14.772 -1.9168  0.3422 -2.2750
  502TMC3    H1 7466   4.226   2.288  15.012 -0.6865 -0.1432 -1.1353
  502TMC3    H2 7467   4.278   2.684  14.852  0.4483  0.1051 -1.9520
  502TMC3    C7 7468   4.154   2.543  15.042  0.3741  0.2315 -0.4582
  502TMC3    C8 7469   4.514   2.643  14.783 -0.3921  0.1306  0.2699
  502TMC3    O1 7470   4.086   2.642  15.018 -0.2966 -0.4784 -0.5125
  502TMC3    O2 7471   4.476   2.753  14.752  0.2460 -0.2387 -0.4084
  503MPD2     C 7472   2.157   3.563  16.866  0.1574 -0.1573 -0.0035
  503MPD2    C1 7473   2.085   3.522  16.972  0.2736  0.3640 -0.3509
  503MPD2    C2 7474   2.088   3.388  17.002 -0.4266  0.1412 -0.5127
  503MPD2    C3 7475   2.147   3.292  16.922  0.5009  0.4773 -0.1615
  503MPD2    C4 7476   2.232   3.342  16.826 -0.7813 -0.8868 -0.5972
  503MPD2    C5 7477   2.238   3.475  16.802 -0.0221 -0.2716  0.1728
  503MPD2     H 7478   2.031   3.355  17.088 -0.9736  2.8895  0.1847
  503MPD2    H1 7479   2.299   3.282  16.766 -1.6830 -1.7683 -0.7174
  503MPD2    H2 7480   2.149   3.663  16.824  0.5403 -0.2195 -0.2240
  503MPD2    H3 7481   2.300   3.513  16.722 -1.0585 -0.8761 -0.9042
  503MPD2     N 7482   2.122   3.154  16.940 -0.1034  0.0641 -0.1050
  503MPD2    H5 7483   2.069   3.128  17.022 -2.3357  1.0587 -1.2606
  503MPD2    N1 7484   2.006   3.612  17.045  0.5124  0.2793  0.2081
  503MPD2    H7 7485   1.975   3.589  17.139  1.0071 -0.2199  0.2513
  504TMC3    C1 7486   2.201   2.934  16.952 -0.5043 -0.3045  1.2231
  504TMC3    C2 7487   2.144   2.915  17.077 -0.1727  0.6683 -1.4664
  504TMC3    C3 7488   2.199   2.825  17.162  0.2319  0.0642  1.1197
  504TMC3    C4 7489   2.306   2.855  16.910  0.5109 -0.0553  0.6073
  504TMC3    C5 7490   2.358   2.759  16.989 -0.5775  0.1862 -0.1961
  504TMC3    C6 7491   2.307   2.745  17.115  0.3387  0.6216  0.0282
  504TMC3     C 7492   2.184   3.054  16.874 -0.4246  0.2807 -0.3303
  504TMC3     O 7493   2.229   3.049  16.760  0.4875 -0.0485 -0.8071
  504TMC3     H 7494   2.050   2.959  17.108  0.4148  0.7469  0.2091
  504TMC3    H1 7495   2.339   2.864  16.807 -1.2705 -2.4136 -0.1776
  504TMC3    H2 7496   2.340   2.663  17.177  1.4794  1.2586  0.2676
  504TMC3    C7 7497   2.496   2.722  16.956  0.2871 -0.1149  0.3591
  504TMC3    C8 7498   2.112   2.778  17.273 -0.3408 -0.0364 -0.3764
  504TMC3    O1 7499   2.535   2.733  16.840 -0.4498  0.7502  0.1302
  504TMC3    O2 7500   1.994   2.809  17.279 -1.1781 -0.2797  0.0775
  505MPD2     C 7501   2.116   2.691  10.783  0.2583  0.4024 -0.7152
  505MPD2    C1 7502   2.142   2.565  10.730  0.1444 -0.1196 -0.3594
  505MPD2    C2 7503   2.273   2.516  10.745 -0.6417  1.1522  0.9630
  505MPD2    C3 7504   2.377   2.595  10.797 -0.5005  0.4204 -0.5965
  505MPD2    C4 7505   2.347   2.722  10.840 -0.4373  0.0301  0.3759
  505MPD2    C5 7506   2.219   2.768  10.827  0.1065 -0.3713 -0.1306
  505MPD2     H 7507   2.304   2.423  10.698  1.8777  1.6997  1.5361
  505MPD2    H1 7508   2.422   2.792  10.875 -0.7828  0.9441 -0.7163
  505MPD2    H2 7509   2.013   2.724  10.785  0.3956  1.0638 -4.3307
  505MPD2    H3 7510   2.197   2.871  10.853 -1.9524 -0.9001  0.2642
  505MPD2     N 7511   2.511   2.553  10.799 -0.5896  0.3158 -0.4781
  505MPD2    H5 7512   2.580   2.626  10.815  0.5924 -0.8790 -0.0944
  505MPD2    N1 7513   2.033   2.493  10.668  0.2119 -0.4751  0.0530
  505MPD2    H7 7514   1.945   2.544  10.658 -0.3046 -0.8717  2.6446
  506TMC3    C1 7515   1.922   2.305  10.588 -0.1036  0.0083  0.6922
  506TMC3    C2 7516   1.885   2.375  10.481 -0.0090  0.2042 -0.1969
  506TMC3    C3 7517   1.873   2.319  10.357  0.3570  1.1907  0.0863
  506TMC3    C4 7518   1.959   2.174  10.565  0.2412 -0.3394  0.6171
  506TMC3    C5 7519   1.966   2.122  10.444  0.4554 -0.8439  0.0244
  506TMC3    C6 7520   1.916   2.193  10.335 -0.4489 -0.5914  0.0148
  506TMC3     C 7521   2.029   2.356  10.666 -0.5608  0.7326 -0.2450
  506TMC3     O 7522   2.122   2.279  10.694 -0.3175 -0.4049  0.2477
  506TMC3     H 7523   1.862   2.481  10.487  0.3977  0.2777 -0.0049
  506TMC3    H1 7524   1.974   2.104  10.647 -1.0284 -0.9932  0.2890
  506TMC3    H2 7525   1.915   2.154  10.234  1.9275  0.0040 -0.2421
  506TMC3    C7 7526   2.082   2.037  10.412  0.8550 -0.0906  0.2278
  506TMC3    C8 7527   1.872   2.408  10.242 -0.1368 -0.1521  0.5793
  506TMC3    O1 7528   2.093   1.976  10.308 -0.0845  0.1184 -0.0384
  506TMC3    O2 7529   1.812   2.512  10.269 -0.1379 -0.0730 -0.3895
  507TMC3    C1 7530   3.424   3.396  15.162 -0.1668  0.4032  0.0607
  507TMC3    C2 7531   3.442   3.367  15.029  0.5843  0.2663  0.5507
  507TMC3    C3 7532   3.514   3.448  14.950  0.2043  0.1101  0.7333
  507TMC3    C4 7533   3.464   3.514  15.214 -0.5602 -0.1237  0.2227
  507TMC3    C5 7534   3.524   3.602  15.129 -0.1126 -0.4512 -0.1199
  507TMC3    C6 7535   3.556   3.568  14.998 -0.2135 -0.7454 -0.0844
  507TMC3     C 7536   3.357   3.297  15.244  0.9136  0.1005  0.0224
  507TMC3     O 7537   3.320   3.197  15.185  0.0643 -0.2224  0.0474
  507TMC3     H 7538   3.387   3.281  14.992  0.7910 -0.2155  1.3677
  507TMC3    H1 7539   3.428   3.540  15.312 -0.5920  0.9027 -0.0632
  507TMC3    H2 7540   3.613   3.636  14.937  0.7845  0.7980  2.5373
  507TMC3    C7 7541   3.475   3.729  15.141 -1.2035  0.2369 -0.2523
  507TMC3    C8 7542   3.477   3.455  14.809 -0.0842  0.5456  0.4401
  507TMC3    O1 7543   3.469   3.783  15.248 -0.3821  0.1775 -0.0574
  507TMC3    O2 7544   3.475   3.569  14.762 -0.3810  0.3025  0.1572
  508MPD2     C 7545   4.200   0.302  16.237  0.4427  0.1674 -0.3519
  508MPD2    C1 7546   4.163   0.435  16.262  0.6683 -0.4569  1.3469
  508MPD2    C2 7547   4.133   0.527  16.158  0.1076  0.0938 -0.5467
  508MPD2    C3 7548   4.125   0.478  16.030  0.1598  0.3366  0.5322
  508MPD2    C4 7549   4.155   0.346  16.007 -1.1018  0.5968  0.0614
  508MPD2    C5 7550   4.204   0.270  16.104 -0.7964  0.1021  0.2002
  508MPD2     H 7551   4.104   0.630  16.177  0.4234  0.1278 -0.2593
  508MPD2    H1 7552   4.162   0.314  15.904 -0.5973  1.4957 -0.1844
  508MPD2    H2 7553   4.237   0.234  16.312  1.5974  2.2344  0.9615
  508MPD2    H3 7554   4.235   0.168  16.083  2.1865  0.9931  0.3108
  508MPD2     N 7555   4.087   0.575  15.929 -0.0189 -0.4082 -0.3826
  508MPD2    H5 7556   4.090   0.673  15.953  3.6374 -0.5237 -0.3383
  508MPD2    N1 7557   4.158   0.472  16.399 -0.1644  0.2260  0.0874
  508MPD2    H7 7558   4.171   0.398  16.467 -1.1822  0.0194  0.0576
  509TMC3    C1 7559   3.954   0.890  15.732 -0.5350  0.5190  0.0570
  509TMC3    C2 7560   4.067   0.964  15.707 -0.0730  0.3451 -0.2579
  509TMC3    C3 7561   4.184   0.896  15.695  0.2368  0.4046 -0.5130
  509TMC3    C4 7562   3.951   0.754  15.749  0.1345 -0.3902  0.1491
  509TMC3    C5 7563   4.069   0.692  15.736  0.2093 -0.6812 -0.0679
  509TMC3    C6 7564   4.181   0.760  15.705 -0.3490  0.2504  0.5656
  509TMC3     C 7565   3.824   0.953  15.752 -0.0395  0.3476  0.3557
  509TMC3     O 7566   3.734   0.891  15.803  0.1681 -0.4115  0.2386
  509TMC3     H 7567   4.064   1.072  15.706  0.4020  0.3448 -1.5316
  509TMC3    H1 7568   3.872   0.691  15.787 -0.6806  0.5637  0.0263
  509TMC3    H2 7569   4.277   0.711  15.692 -0.1812  1.6208 -3.3218
  509TMC3    C7 7570   4.079   0.559  15.793 -0.6323  0.6294 -0.0792
  509TMC3    C8 7571   4.321   0.965  15.678 -0.7500  0.6122  0.9658
  509TMC3    O1 7572   4.099   0.458  15.727  0.3678 -0.1887  0.4659
  509TMC3    O2 7573   4.416   0.890  15.660  0.2279 -0.3768 -0.3054
  510MPD2     C 7574   1.723   2.405  14.647  0.8826 -0.3315 -0.3313
  510MPD2    C1 7575   1.797   2.321  14.725 -0.3390 -0.1966 -0.1362
  510MPD2    C2 7576   1.920   2.278  14.679  0.5689 -0.1405 -0.1136
  510MPD2    C3 7577   1.959   2.294  14.549  0.0920  0.1291 -0.2045
  510MPD2    C4 7578   1.876   2.364  14.464  0.7270 -0.8536 -0.0132
  510MPD2    C5 7579   1.761   2.419  14.513 -0.1576  0.3840 -0.1777
  510MPD2     H 7580   1.981   2.213  14.740  1.4914  0.9868  0.1566
  510MPD2    H1 7581   1.898   2.384  14.360  1.1973  1.4949  0.5372
  510MPD2    H2 7582   1.621   2.428  14.674  1.7546  0.6950  2.1234
  510MPD2    H3 7583   1.697   2.473  14.444  0.6585  0.8757 -0.5514
  510MPD2     N 7584   2.089   2.250  14.520  0.3596  0.2543 -0.0888
  510MPD2    H5 7585   2.146   2.211  14.594  0.2749 -0.9340 -0.6481
  510MPD2    N1 7586   1.740   2.298  14.857  0.3441  0.2794 -0.9903
  510MPD2    H7 7587   1.646   2.332  14.874 -0.0876 -1.6575  0.4143
  511TMC3    C1 7588   1.712   2.182  15.064  0.5725  0.6866 -0.3125
  511TMC3    C2 7589   1.696   2.282  15.163  0.0939 -0.1796  0.9451
  511TMC3    C3 7590   1.661   2.233  15.288 -0.7771  0.3449  0.0145
  511TMC3    C4 7591   1.678   2.048  15.082 -0.2760  0.0729  0.0133
  511TMC3    C5 7592   1.644   2.015  15.209 -0.3156 -0.4160  0.4178
  511TMC3    C6 7593   1.646   2.100  15.312  0.0831 -0.0695  0.1194
  511TMC3     C 7594   1.788   2.204  14.945 -0.2844 -0.9283 -1.2089
  511TMC3     O 7595   1.880   2.123  14.913 -0.2072 -0.2982 -0.0571
  511TMC3     H 7596   1.730   2.384  15.154  2.5253 -1.0363  0.3381
  511TMC3    H1 7597   1.691   1.977  15.000 -3.0018 -1.1625  0.6387
  511TMC3    H2 7598   1.619   2.055  15.406  0.6754  0.6176  0.6148
  511TMC3    C7 7599   1.622   1.871  15.241  0.0495 -0.5824 -0.2725
  511TMC3    C8 7600   1.674   2.326  15.402  0.5490  0.2535  0.3432
  511TMC3    O1 7601   1.645   1.841  15.360 -0.4150  0.9732  0.0522
  511TMC3    O2 7602   1.650   2.443  15.386  0.3218 -0.5413  0.4123
  512TMC3    C1 7603   0.650   1.496  12.976 -0.3340 -0.0048 -0.5417
  512TMC3    C2 7604   0.689   1.500  13.110  0.3022 -0.3873  0.2434
  512TMC3    C3 7605   0.698   1.375  13.176 -0.1610 -0.5417  0.3032
  512TMC3    C4 7606   0.630   1.379  12.904  0.4453 -0.0728 -0.1633
  512TMC3    C5 7607   0.650   1.261  12.974 -0.3625 -0.0523  0.6857
  512TMC3    C6 7608   0.675   1.255  13.111 -0.4231  0.3682  0.1015
  512TMC3     C 7609   0.588   1.619  12.925  0.0659  0.7279  0.3096
  512TMC3     O 7610   0.580   1.713  13.007  1.0139 -0.1769 -0.3262
  512TMC3     H 7611   0.698   1.596  13.160  0.8772 -0.8878  1.1031
  512TMC3    H1 7612   0.605   1.379  12.798  0.6671 -1.5281 -0.2252
  512TMC3    H2 7613   0.681   1.161  13.166  0.9130  1.6708  2.1570
  512TMC3    C7 7614   0.642   1.139  12.883 -0.3502  0.6276 -0.2311
  512TMC3    C8 7615   0.660   1.376  13.313  0.3125 -0.6730  0.2928
  512TMC3    O1 7616   0.622   1.150  12.762  0.0854  0.3079 -0.8384
  512TMC3    O2 7617   0.619   1.272  13.363 -0.2264 -0.4055  0.9728
  513MPD2     C 7618   2.150   1.105  12.926  0.2916 -0.4453  0.4231
  513MPD2    C1 7619   2.179   1.233  12.961 -0.9413  0.1143  0.4330
  513MPD2    C2 7620   2.169   1.278  13.091 -0.0535  0.9878  1.1054
  513MPD2    C3 7621   2.138   1.186  13.187 -0.2355 -0.6275 -0.1517
  513MPD2    C4 7622   2.122   1.052  13.159  0.2636  0.8609  0.6409
  513MPD2    C5 7623   2.136   1.013  13.026  0.4387  0.3323 -0.0498
  513MPD2     H 7624   2.173   1.381  13.123 -3.1760  1.2024  0.8152
  513MPD2    H1 7625   2.106   0.975  13.234  1.9930 -0.0614  0.0782
  513MPD2    H2 7626   2.150   1.082  12.820 -0.4360  1.0950  0.0917
  513MPD2    H3 7627   2.133   0.906  13.009  0.2386 -0.2177  3.3522
  513MPD2     N 7628   2.126   1.237  13.315  0.7919  0.2486 -0.4443
  513MPD2    H5 7629   2.130   1.338  13.322 -0.4442  0.2505  0.1612
  513MPD2    N1 7630   2.199   1.327  12.861  0.2786  0.2715  1.0411
  513MPD2    H7 7631   2.184   1.298  12.765 -0.2759 -1.8136  1.7677
  514TMC3    C1 7632   2.273   1.535  12.760  0.2691 -0.0325  0.3508
  514TMC3    C2 7633   2.180   1.575  12.671 -0.1109 -0.1313 -0.1131
  514TMC3    C3 7634   2.193   1.697  12.611  0.2374  0.1133  0.1798
  514TMC3    C4 7635   2.362   1.628  12.801 -0.3386 -0.4406 -0.3125
  514TMC3    C5 7636   2.372   1.754  12.749  0.8955  0.2010  0.3112
  514TMC3    C6 7637   2.288   1.791  12.651  1.3472  0.2109 -0.0975
  514TMC3     C 7638   2.230   1.457  12.875  0.3184 -0.2115 -0.8317
  514TMC3     O 7639   2.266   1.521  12.974 -0.4524 -0.8077 -0.2710
  514TMC3     H 7640   2.100   1.504  12.653  0.4961 -0.1494 -2.6169
  514TMC3    H1 7641   2.444   1.599  12.867  1.1959  1.7034 -1.2691
  514TMC3    H2 7642   2.295   1.887  12.601  0.1059  1.5314  2.2666
  514TMC3    C7 7643   2.382   1.853  12.860 -0.3769 -0.6494 -0.1092
  514TMC3    C8 7644   2.097   1.749  12.515 -0.2179 -0.5337  0.7930
  514TMC3    O1 7645   2.385   1.971  12.836 -0.5588 -0.6973 -0.6222
  514TMC3    O2 7646   1.977   1.726  12.542 -0.4491 -0.1553 -0.2942
  515MPD2     C 7647   0.774   3.335  15.150 -0.1587  0.5503  0.2274
  515MPD2    C1 7648   0.822   3.352  15.019 -0.3761  0.0881  0.1239
  515MPD2    C2 7649   0.879   3.469  14.980  0.3204 -0.9415 -0.6669
  515MPD2    C3 7650   0.925   3.556  15.075  0.6803 -0.6276 -0.3211
  515MPD2    C4 7651   0.884   3.534  15.208  0.8551  0.0681  0.6542
  515MPD2    C5 7652   0.797   3.434  15.244  0.3324 -0.3987 -0.5057
  515MPD2     H 7653   0.910   3.469  14.876  0.7143 -1.1046 -0.5503
  515MPD2    H1 7654   0.925   3.594  15.289  0.8786 -0.0086  0.6987
  515MPD2    H2 7655   0.734   3.238  15.175  0.3452  0.7346  1.7459
  515MPD2    H3 7656   0.758   3.419  15.344 -1.0096 -0.8047 -1.0855
  515MPD2     N 7657   0.998   3.670  15.050 -0.1542 -0.0467  0.1053
  515MPD2    H5 7658   1.010   3.729  15.132  1.4492  1.1398 -0.9835
  515MPD2    N1 7659   0.810   3.250  14.923  0.2709 -0.1983  0.2336
  515MPD2    H7 7660   0.828   3.274  14.827  0.0325 -0.8136  0.0334
  516TMC3    C1 7661   0.749   3.037  14.832 -0.5924  0.0404  0.4156
  516TMC3    C2 7662   0.689   3.091  14.719  0.6617  0.0055 -0.6138
  516TMC3    C3 7663   0.623   2.995  14.642  0.4451 -0.4474 -0.5237
  516TMC3    C4 7664   0.756   2.903  14.843  0.2478 -0.4372  1.0119
  516TMC3    C5 7665   0.690   2.811  14.764  0.1265  0.8203 -1.0227
  516TMC3    C6 7666   0.624   2.857  14.660 -0.3156 -0.4059  0.2887
  516TMC3     C 7667   0.770   3.116  14.952 -0.5413 -0.3466 -0.1446
  516TMC3     O 7668   0.750   3.052  15.054  0.5057  0.3341 -0.2107
  516TMC3     H 7669   0.664   3.196  14.708  0.1808 -0.2867 -2.4027
  516TMC3    H1 7670   0.809   2.867  14.930  1.5462  0.0131  0.4040
  516TMC3    H2 7671   0.587   2.786  14.587  0.2870 -1.6421  1.2003
  516TMC3    C7 7672   0.652   2.682  14.821 -0.0441  0.2935  0.7013
  516TMC3    C8 7673   0.527   3.040  14.546  0.4583  0.2985  0.1722
  516TMC3    O1 7674   0.683   2.673  14.938 -0.2589 -0.7580  0.0988
  516TMC3    O2 7675   0.433   2.966  14.517  0.2111 -0.1578  0.4412
  517MPD2     C 7676   0.185   0.335   0.141  0.0422  0.0105  0.7126
  517MPD2    C1 7677   0.318   0.342   0.176 -0.0767  0.0613 -0.3182
  517MPD2    C2 7678   0.365   0.456   0.242 -0.0172 -0.2199 -0.5842
  517MPD2    C3 7679   0.285   0.570   0.264  0.2085 -0.0859 -0.1786
  517MPD2    C4 7680   0.158   0.566   0.219  0.1680  0.0187 -0.1808
  517MPD2    C5 7681   0.111   0.451   0.167  0.7304  0.6145  0.0526
  517MPD2     H 7682   0.464   0.452   0.284 -0.2409 -0.2658 -0.0563
  517MPD2    H1 7683   0.087   0.647   0.236 -0.3677 -0.2881 -0.9762
  517MPD2    H2 7684   0.139   0.257   0.082 -0.1746  0.3131  0.4808
  517MPD2    H3 7685   0.006   0.452   0.144  0.7374 -0.0434 -0.0035
  517MPD2     N 7686   0.328   0.684   0.325  0.2080  0.4964  0.2311
  517MPD2    H5 7687   0.270   0.766   0.336  1.0740  1.1094  0.1724
  517MPD2    N1 7688   0.406   0.239   0.147 -0.0017 -0.7094 -0.0494
  517MPD2    H7 7689   0.504   0.249   0.173 -0.6229  1.0617  1.5830
  518TMC3    C1 7690   0.480   0.032   0.094 -0.1581  0.6430  0.0540
  518TMC3    C2 7691   0.448   4.627   0.054  0.0922 -0.2482 -0.9174
  518TMC3    C3 7692   0.550   4.539   0.068  0.0431 -0.4322 -0.6321
  518TMC3    C4 7693   0.610   0.065   0.127  0.1593  0.1682  0.4423
  518TMC3    C5 7694   0.710   4.700   0.111 -0.0108  0.4201 -0.2190
  518TMC3    C6 7695   0.682   4.574   0.077 -0.9935  0.1407 -0.2583
  518TMC3     C 7696   0.370   0.125   0.085 -0.4305  0.1206 -0.6471
  518TMC3     O 7697   0.263   0.082   0.044  0.7241 -0.1329  0.3216
  518TMC3     H 7698   0.345   4.597   0.046 -0.2112  0.2773  0.9382
  518TMC3    H1 7699   0.644   0.168   0.129  0.2583  0.1079  2.2618
  518TMC3    H2 7700   0.744   4.487   0.094 -1.3687 -0.0254  0.2692
  518TMC3    C7 7701   0.837   0.005   0.167 -0.0364 -1.2058 -0.0636
  518TMC3    C8 7702   0.536   4.401   0.025  0.5730 -0.2434  0.1675
  518TMC3    O1 7703   0.838   0.094   0.249 -0.3189 -0.2202 -0.2996
  518TMC3    O2 7704   0.637   4.349  17.671  0.2656  0.1607  0.2564
  519MPD2     C 7705   1.770   3.291  14.422 -0.5723  0.0146  0.8156
  519MPD2    C1 7706   1.685   3.202  14.355  0.3587 -0.2435 -0.2490
  519MPD2    C2 7707   1.723   3.066  14.353 -0.2903  0.6541 -0.1014
  519MPD2    C3 7708   1.842   3.022  14.416 -0.0681  0.3487  0.8291
  519MPD2    C4 7709   1.914   3.116  14.483  0.3593 -0.4573 -0.3654
  519MPD2    C5 7710   1.881   3.245  14.488  0.1723  0.2795 -0.5033
  519MPD2     H 7711   1.656   2.999  14.300 -1.6907  1.0077  1.2165
  519MPD2    H1 7712   1.996   3.081  14.544  0.2366  3.4435  1.9714
  519MPD2    H2 7713   1.747   3.397  14.414 -1.5553 -0.2997 -0.5998
  519MPD2    H3 7714   1.944   3.317  14.537  1.9777 -1.2245 -0.6082
  519MPD2     N 7715   1.898   2.890  14.396 -0.7491 -0.5495  0.3364
  519MPD2    H5 7716   1.982   2.874  14.450 -0.0889  0.5086 -0.3889
  519MPD2    N1 7717   1.566   3.256  14.304  0.1373  0.2577 -0.1699
  519MPD2    H7 7718   1.568   3.355  14.283  1.8485  0.5004  1.2177
  520TMC3    C1 7719   1.916   2.673  14.313  0.0654  0.3332 -0.3671
  520TMC3    C2 7720   1.855   2.595  14.215  0.6214 -0.4786  0.0563
  520TMC3    C3 7721   1.941   2.535  14.125 -0.1582 -0.1409  0.8135
  520TMC3    C4 7722   2.051   2.668  14.339  0.0994  0.0721 -0.3595
  520TMC3    C5 7723   2.129   2.584  14.259  0.2868  0.3784 -0.3207
  520TMC3    C6 7724   2.077   2.525  14.147  0.2335  0.0977  0.0652
  520TMC3     C 7725   1.844   2.796  14.311 -0.5252  0.3367 -0.3085
  520TMC3     O 7726   1.762   2.802  14.220 -0.8908  0.1137 -0.3217
  520TMC3     H 7727   1.747   2.580  14.214  0.8741 -2.4014  0.8835
  520TMC3    H1 7728   2.095   2.733  14.414  1.8384  0.8856 -2.0966
  520TMC3    H2 7729   2.140   2.451  14.099 -0.8510 -1.7700  1.5043
  520TMC3    C7 7730   2.258   2.544  14.308 -0.4710 -0.3972 -0.5991
  520TMC3    C8 7731   1.910   2.520  13.989  0.9963 -0.0652 -0.1519
  520TMC3    O1 7732   2.287   2.553  14.426 -0.0338 -0.1648 -0.2546
  520TMC3    O2 7733   1.998   2.485  13.914 -0.1590 -0.3234 -0.5665
  521MPD2     C 7734   2.923   0.866  17.656 -0.7006  0.0251  0.6114
  521MPD2    C1 7735   2.840   0.917  17.561 -0.2105 -0.3197 -0.1432
  521MPD2    C2 7736   2.895   1.000  17.464  0.2057  0.3928 -0.7272
  521MPD2    C3 7737   3.026   1.041  17.474  0.1979 -0.0330  1.3046
  521MPD2    C4 7738   3.107   0.997  17.575  1.3039  0.8471 -0.1976
  521MPD2    C5 7739   3.049   0.914  17.663 -0.0801 -0.3258  0.7660
  521MPD2     H 7740   2.830   1.030  17.382 -0.4465 -0.1418 -0.4015
  521MPD2    H1 7741   3.205   1.037  17.600  1.8086  1.3105 -2.8926
  521MPD2    H2 7742   2.886   0.796   0.036  1.7010 -1.8279  0.0592
  521MPD2    H3 7743   3.104   0.883   0.058  2.6258 -2.2068 -1.6061
  521MPD2     N 7744   3.073   1.123  17.370  0.6813  0.8263 -0.2271
  521MPD2    H5 7745   3.006   1.138  17.296  0.7687 -0.3408 -0.5531
  521MPD2    N1 7746   2.704   0.876  17.576 -0.3461 -0.5675 -0.2909
  521MPD2    H7 7747   2.675   0.825  17.658 -0.9551  2.2804  1.2921
  522TMC3    C1 7748   3.229   1.209  17.216 -0.0377 -0.3568  0.4953
  522TMC3    C2 7749   3.352   1.259  17.194 -0.6245 -0.1671 -0.0359
  522TMC3    C3 7750   3.417   1.239  17.080 -0.5362  0.4229  0.0447
  522TMC3    C4 7751   3.166   1.141  17.116 -0.6915  0.3192 -0.4514
  522TMC3    C5 7752   3.240   1.114  17.007 -0.4970 -0.0300 -0.4121
  522TMC3    C6 7753   3.366   1.156  16.985  0.3486 -0.6891  0.3297
  522TMC3     C 7754   3.208   1.159  17.349 -0.9908  0.1853  0.2936
  522TMC3     O 7755   3.310   1.131  17.412  0.6786  0.0446 -0.2584
  522TMC3     H 7756   3.386   1.317  17.279  1.7951 -1.5424 -0.0644
  522TMC3    H1 7757   3.065   1.101  17.119 -0.3443 -0.6290 -1.2045
  522TMC3    H2 7758   3.433   1.133  16.903 -0.5925 -1.0471 -0.3279
  522TMC3    C7 7759   3.187   1.033  16.892  0.2248  0.4561  0.4412
  522TMC3    C8 7760   3.559   1.270  17.080  0.3386 -0.4409  0.4039
  522TMC3    O1 7761   3.270   0.978  16.822  0.0495 -0.7044 -0.2216
  522TMC3    O2 7762   3.589   1.363  17.150 -0.3483  0.2572  0.0267
  523MPD2     C 7763   4.322   0.534  10.513  0.5527  0.8245 -0.0084
  523MPD2    C1 7764   4.354   0.515  10.375 -0.1475 -1.0079  0.0142
  523MPD2    C2 7765   4.254   0.527  10.281 -0.2873  0.9330  0.1194
  523MPD2    C3 7766   4.125   0.572  10.318 -0.9197 -0.0109  0.2479
  523MPD2    C4 7767   4.093   0.592  10.450 -0.5547 -0.3434  0.3685
  523MPD2    C5 7768   4.199   0.569  10.541  0.4311 -0.2027  0.5263
  523MPD2     H 7769   4.273   0.515  10.175  1.8641 -3.0573  0.9375
  523MPD2    H1 7770   3.995   0.630  10.475 -1.3955 -2.8322  0.8940
  523MPD2    H2 7771   4.402   0.535  10.586 -0.2153 -0.9654  0.8614
  523MPD2    H3 7772   4.185   0.583  10.648 -3.1870  0.1413 -0.0061
  523MPD2     N 7773   4.023   0.605  10.228  0.1744 -0.3587  0.5869
  523MPD2    H5 7774   3.953   0.672  10.257 -3.0356 -3.1531 -0.6478
  523MPD2    N1 7775   4.482   0.509  10.320  0.4982 -0.0579  0.1106
  523MPD2    H7 7776   4.486   0.520  10.219 -3.9756 -1.7356 -0.2775
  524TMC3    C1 7777   3.892   0.583  10.024  0.2360  0.0324 -0.2752
  524TMC3    C2 7778   3.859   0.499   9.921 -0.9569 -0.2262 -0.4784
  524TMC3    C3 7779   3.785   0.551   9.822 -0.5630  0.1798  0.5769
  524TMC3    C4 7780   3.869   0.720  10.009  0.8623 -0.1064 -0.0502
  524TMC3    C5 7781   3.799   0.769   9.900  0.4151  0.0331 -0.0381
  524TMC3    C6 7782   3.759   0.685   9.802 -0.1232  0.3040  0.1036
  524TMC3     C 7783   4.010   0.540  10.105  0.2568 -0.2056  0.2479
  524TMC3     O 7784   4.079   0.454  10.059 -0.1424 -0.0416 -0.3110
  524TMC3     H 7785   3.865   0.393   9.944 -0.7601  0.2071  1.4309
  524TMC3    H1 7786   3.894   0.770  10.102  3.6393 -1.1953 -0.2239
  524TMC3    H2 7787   3.719   0.712   9.705  1.8845 -0.3358 -0.8950
  524TMC3    C7 7788   3.778   0.910   9.888 -0.2147  0.2932  0.5034
  524TMC3    C8 7789   3.702   0.462   9.745  0.3020 -0.1237  0.1604
  524TMC3    O1 7790   3.819   0.987   9.974  0.0250  0.4977  0.1032
  524TMC3    O2 7791   3.752   0.353   9.739 -0.9703  0.4364  0.3740
  525MPD2     C 7792   3.403   2.738  14.717  0.1836  0.1781  0.4434
  525MPD2    C1 7793   3.531   2.719  14.755 -0.3982 -0.1860 -0.6532
  525MPD2    C2 7794   3.632   2.802  14.705  0.3887  0.2617 -0.1363
  525MPD2    C3 7795   3.602   2.893  14.608  0.9826 -0.5664 -0.0221
  525MPD2    C4 7796   3.466   2.910  14.570 -0.5295  0.6526 -0.5027
  525MPD2    C5 7797   3.365   2.825  14.616  0.0269 -0.4823 -0.3166
  525MPD2     H 7798   3.732   2.776  14.738 -0.3204 -0.7692  1.2129
  525MPD2    H1 7799   3.433   2.989  14.504 -1.4141  1.7958  1.3227
  525MPD2    H2 7800   3.328   2.674  14.763  1.6068 -1.1731  0.8813
  525MPD2    H3 7801   3.266   2.835  14.575  0.5323 -0.6263 -1.5649
  525MPD2     N 7802   3.705   2.972  14.550 -0.1289  0.0436  0.0194
  525MPD2    H5 7803   3.672   3.044  14.486 -1.2458 -1.2829 -0.9136
  525MPD2    N1 7804   3.566   2.620  14.846 -0.7003  0.4558  0.5151
  525MPD2    H7 7805   3.658   2.627  14.889 -0.9084 -0.6097  1.1264
  526TMC3    C1 7806   3.531   2.467  15.026 -0.1076  0.3438  0.3043
  526TMC3    C2 7807   3.438   2.434  15.120 -0.0344 -1.1490 -0.1407
  526TMC3    C3 7808   3.493   2.369  15.233  1.1536 -0.0364  0.3153
  526TMC3    C4 7809   3.659   2.426  15.022  0.1900  0.1286  0.8177
  526TMC3    C5 7810   3.701   2.341  15.121 -0.4903  0.6247  0.2237
  526TMC3    C6 7811   3.622   2.319  15.234 -0.4077 -0.4731 -0.3731
  526TMC3     C 7812   3.475   2.534  14.911 -0.2888  0.0335  0.6549
  526TMC3     O 7813   3.370   2.489  14.877  0.5740  0.4996 -0.1124
  526TMC3     H 7814   3.345   2.490  15.122 -0.5859 -2.0874  0.3092
  526TMC3    H1 7815   3.718   2.445  14.934 -1.6051  1.8580 -0.0035
  526TMC3    H2 7816   3.661   2.270  15.323 -0.2240  1.2690  0.4946
  526TMC3    C7 7817   3.833   2.267  15.119 -0.7701 -0.0720  0.1908
  526TMC3    C8 7818   3.419   2.351  15.358 -0.4904  0.3141 -0.3876
  526TMC3    O1 7819   3.865   2.215  15.223 -0.2433 -0.4982  0.2841
  526TMC3    O2 7820   3.482   2.301  15.455  0.6789  0.4108 -0.2844
  527MPD2     C 7821   2.449   1.192   1.368  0.1146 -0.5686  0.5855
  527MPD2    C1 7822   2.415   1.075   1.435 -0.3348  0.1622 -0.1286
  527MPD2    C2 7823   2.336   0.977   1.381 -0.1955  0.0376 -0.0895
  527MPD2    C3 7824   2.292   0.986   1.252 -0.3148  0.3515  0.3017
  527MPD2    C4 7825   2.322   1.104   1.181  0.5044 -0.8354 -0.2986
  527MPD2    C5 7826   2.404   1.205   1.238  0.2310 -0.4301 -0.0923
  527MPD2     H 7827   2.312   0.888   1.438  1.2542 -1.5319 -1.9073
  527MPD2    H1 7828   2.284   1.128   1.082  2.3501  1.1649 -0.5061
  527MPD2    H2 7829   2.508   1.274   1.406 -0.6894  0.9251 -1.4132
  527MPD2    H3 7830   2.430   1.289   1.175 -0.8687 -0.7881 -1.0286
  527MPD2     N 7831   2.228   0.876   1.201  0.9088 -0.0418  0.1411
  527MPD2    H5 7832   2.215   0.805   1.272 -3.3312  1.5009  0.8788
  527MPD2    N1 7833   2.443   1.050   1.572  0.6550 -0.0098 -0.3412
  527MPD2    H7 7834   2.390   0.971   1.605  1.9126 -0.6104  0.2494
  528TMC3    C1 7835   2.591   1.035   1.746 -0.2116 -0.8661  0.1549
  528TMC3    C2 7836   2.652   1.112   1.849 -0.7665 -0.1665 -0.5985
  528TMC3    C3 7837   2.704   1.037   1.944  0.0400 -0.2408 -0.1379
  528TMC3    C4 7838   2.568   0.900   1.748 -1.0283  0.7772  0.2460
  528TMC3    C5 7839   2.627   0.830   1.848 -0.2428 -0.2513  0.1356
  528TMC3    C6 7840   2.697   0.896   1.947 -0.4285 -0.0657  0.1870
  528TMC3     C 7841   2.542   1.110   1.643 -0.0757 -0.2135  0.7839
  528TMC3     O 7842   2.599   1.210   1.611 -0.0357  0.4639 -0.0633
  528TMC3     H 7843   2.668   1.217   1.828  0.9430 -0.3025  0.0929
  528TMC3    H1 7844   2.523   0.842   1.668 -1.0846 -0.6079  1.2804
  528TMC3    H2 7845   2.721   0.844   2.039 -0.7617  1.5501  1.1861
  528TMC3    C7 7846   2.581   0.696   1.881 -1.0349 -0.3210  0.1624
  528TMC3    C8 7847   2.764   1.108   2.048  0.2847 -0.2758  0.0020
  528TMC3    O1 7848   2.658   0.626   1.942 -0.1278 -0.5065  0.2631
  528TMC3    O2 7849   2.799   1.218   2.019  0.3392 -0.1041 -0.2103
  529MPD2     C 7850   3.858   4.346   0.495  0.0532  0.4141 -0.0727
  529MPD2    C1 7851   3.928   4.224   0.479  0.1371  0.5642  0.7284
  529MPD2    C2 7852   3.947   4.166   0.360  0.5568  0.4547  0.5287
  529MPD2    C3 7853   3.904   4.233   0.246  0.4835  0.1111 -0.5401
  529MPD2    C4 7854   3.841   4.352   0.264  0.0303 -0.5565  0.2178
  529MPD2    C5 7855   3.809   4.405   0.381 -0.1989  0.2291  0.5535
  529MPD2     H 7856   3.990   4.066   0.355 -3.1420 -1.2805  3.2963
  529MPD2    H1 7857   3.812   4.408   0.175 -1.4059 -2.1273 -0.2908
  529MPD2    H2 7858   3.840   4.390   0.593 -0.5527 -0.9341  0.4262
  529MPD2    H3 7859   3.751   4.497   0.381  0.3680  0.5884  0.4578
  529MPD2     N 7860   3.934   4.187   0.117 -0.0505 -0.3974 -0.5883
  529MPD2    H5 7861   3.923   4.261   0.047  2.0109  1.0636  0.6271
  529MPD2    N1 7862   3.966   4.145   0.590  0.4482  0.0591 -0.0167
  529MPD2    H7 7863   3.975   4.046   0.571  1.9305  0.1159  0.4066
  530TMC3    C1 7864   3.985   4.084   0.816 -0.3508  0.4266 -0.0494
  530TMC3    C2 7865   4.046   4.106   0.932 -0.2557 -0.0829  0.6079
  530TMC3    C3 7866   4.048   3.999   1.021 -0.0411  0.0429  0.2165
  530TMC3    C4 7867   3.910   3.966   0.796 -0.6251  0.4639 -0.3255
  530TMC3    C5 7868   3.901   3.876   0.896  0.3357  0.3537 -0.4003
  530TMC3    C6 7869   3.972   3.883   1.011  0.5808  0.3316 -0.5632
  530TMC3     C 7870   3.970   4.190   0.718  0.0503 -0.1177  0.5682
  530TMC3     O 7871   3.995   4.305   0.757 -0.1141 -0.2202  0.2066
  530TMC3     H 7872   4.106   4.195   0.944 -3.4398  2.3249 -1.0820
  530TMC3    H1 7873   3.847   3.947   0.709  1.7226  0.7940 -2.1020
  530TMC3    H2 7874   3.961   3.811   1.092 -1.1416  2.4133  1.0549
  530TMC3    C7 7875   3.803   3.771   0.872  0.7976 -0.4901  0.0928
  530TMC3    C8 7876   4.140   4.010   1.137 -0.5320 -0.0726  0.0144
  530TMC3    O1 7877   3.708   3.796   0.798  0.4189  0.3001 -0.2115
  530TMC3    O2 7878   4.162   4.124   1.168  0.0007  0.3281  0.1959
  531MPD2     C 7879   2.342   1.918  13.376  1.0126 -0.0677  0.2960
  531MPD2    C1 7880   2.319   1.787  13.342 -0.2114  0.3158 -0.0491
  531MPD2    C2 7881   2.337   1.748  13.214  0.0748 -0.8185 -0.3647
  531MPD2    C3 7882   2.362   1.840  13.113  0.6094 -0.0678  0.0463
  531MPD2    C4 7883   2.387   1.971  13.142  0.8642  0.8414  0.3525
  531MPD2    C5 7884   2.371   2.008  13.276 -0.0902 -0.0575  0.1454
  531MPD2     H 7885   2.339   1.643  13.186 -2.4642 -0.3654 -2.2165
  531MPD2    H1 7886   2.400   2.042  13.061 -4.2140  1.4112  0.0150
  531MPD2    H2 7887   2.332   1.952  13.478 -2.4511  2.2049 -0.7929
  531MPD2    H3 7888   2.398   2.108  13.308  0.4482 -0.4375  0.8856
  531MPD2     N 7889   2.374   1.787  12.983 -0.8688 -0.4691 -0.0209
  531MPD2    H5 7890   2.344   1.690  12.987 -2.2402  0.0303  2.2938
  531MPD2    N1 7891   2.296   1.693  13.443 -0.4941  0.3269 -1.3467
  531MPD2    H7 7892   2.325   1.713  13.538 -1.7127  0.3848 -0.9940
  532TMC3    C1 7893   2.246   1.477  13.525  0.4103  0.6370  0.7375
  532TMC3    C2 7894   2.152   1.382  13.502  0.6335 -0.1199  0.4302
  532TMC3    C3 7895   2.180   1.249  13.533  0.4167 -0.7815  0.4343
  532TMC3    C4 7896   2.370   1.445  13.584 -0.0080  0.6112  0.2769
  532TMC3    C5 7897   2.377   1.318  13.634  0.3622 -0.4605 -0.0768
  532TMC3    C6 7898   2.296   1.213  13.595  0.0924  0.1635 -0.7201
  532TMC3     C 7899   2.236   1.574  13.417 -0.1374  0.1729  0.4975
  532TMC3     O 7900   2.176   1.529  13.322  0.0302 -0.5778  0.5644
  532TMC3     H 7901   2.051   1.411  13.476  0.3523  0.1205  1.7743
  532TMC3    H1 7902   2.434   1.528  13.613  1.1557 -0.1326 -0.1462
  532TMC3    H2 7903   2.314   1.107  13.601 -0.6985  0.1363  1.4377
  532TMC3    C7 7904   2.493   1.289  13.717 -0.2084 -0.3841 -0.1722
  532TMC3    C8 7905   2.147   1.162  13.426 -0.6362 -0.3669 -0.9943
  532TMC3    O1 7906   2.473   1.204  13.804  0.2072  0.2310 -0.6715
  532TMC3    O2 7907   2.186   1.048  13.435 -0.3358  0.3550  0.3297
  533TMC3    C1 7908   3.889   3.094  14.561 -0.0898 -0.2191  0.4490
  533TMC3    C2 7909   4.027   3.094  14.562 -0.5032  0.1732  0.3434
  533TMC3    C3 7910   4.079   3.209  14.609 -0.1618  0.0884 -0.0566
  533TMC3    C4 7911   3.814   3.199  14.603  0.0506  0.0037 -0.3805
  533TMC3    C5 7912   3.877   3.301  14.671 -0.1480 -0.4959  0.1372
  533TMC3    C6 7913   4.013   3.309  14.673  0.6808  0.2575  0.0755
  533TMC3     C 7914   3.833   2.971  14.587 -0.3737 -0.3836 -0.6795
  533TMC3     O 7915   3.904   2.891  14.646  0.4447 -0.4491 -0.8458
  533TMC3     H 7916   4.082   3.009  14.524 -0.9388 -0.0616  0.2409
  533TMC3    H1 7917   3.706   3.201  14.599  0.0994  0.8979 -1.5528
  533TMC3    H2 7918   4.063   3.387  14.729  0.8094  1.0377 -1.1331
  533TMC3    C7 7919   3.813   3.297  14.800 -0.4850 -0.6544 -0.5305
  533TMC3    C8 7920   4.222   3.226  14.584 -0.9289  0.3264  0.8603
  533TMC3    O1 7921   3.736   3.205  14.818  0.1825 -0.1696 -0.1184
  533TMC3    O2 7922   4.300   3.137  14.616 -0.0102  0.6002  0.3847
  534MPD2     C 7923   1.421   4.121   2.161 -0.6288  0.2070  0.0528
  534MPD2    C1 7924   1.485   4.025   2.077 -0.7852 -0.5864  0.5277
  534MPD2    C2 7925   1.406   3.929   2.011  0.2033  0.1672 -0.2662
  534MPD2    C3 7926   1.265   3.937   2.016 -0.5513  0.1752 -0.0715
  534MPD2    C4 7927   1.207   4.042   2.090  0.4204  0.1654  0.1947
  534MPD2    C5 7928   1.280   4.124   2.173 -0.1665  0.6151  0.0621
  534MPD2     H 7929   1.464   3.848   1.968 -0.4728 -1.4734  1.9291
  534MPD2    H1 7930   1.099   4.050   2.095  0.3992  0.3020 -0.4908
  534MPD2    H2 7931   1.480   4.188   2.222 -0.2331 -0.0272 -0.0743
  534MPD2    H3 7932   1.223   4.202   2.222 -0.2772  0.4358  0.2192
  534MPD2     N 7933   1.188   3.838   1.948  0.2565 -0.0785  0.0749
  534MPD2    H5 7934   1.237   3.770   1.891  0.8624 -0.4409  1.0157
  534MPD2    N1 7935   1.626   4.028   2.058 -0.2746  0.8707  0.3616
  534MPD2    H7 7936   1.668   3.963   1.992 -0.8797  0.2992  0.5395
  535TMC3    C1 7937   0.999   3.763   1.820  0.4381 -0.0930  0.2511
  535TMC3    C2 7938   0.866   3.750   1.806  0.5507 -0.5447 -0.2664
  535TMC3    C3 7939   0.813   3.722   1.680  0.1593 -0.8412  0.5565
  535TMC3    C4 7940   1.083   3.760   1.709 -0.1405 -0.0275  0.0042
  535TMC3    C5 7941   1.034   3.740   1.586 -0.0633 -0.0086  0.4501
  535TMC3    C6 7942   0.899   3.715   1.573  0.0466  0.1630 -0.4654
  535TMC3     C 7943   1.049   3.839   1.930  0.2866  0.0201 -0.0860
  535TMC3     O 7944   0.965   3.912   1.978 -0.1059  0.4761 -0.6200
  535TMC3     H 7945   0.803   3.746   1.894  0.9644  1.8207  0.1509
  535TMC3    H1 7946   1.186   3.795   1.710 -0.7529  1.8439 -1.6514
  535TMC3    H2 7947   0.852   3.701   1.477  2.9554  0.5531 -1.9520
  535TMC3    C7 7948   1.102   3.808   1.488 -0.5845  0.2762  0.1035
  535TMC3    C8 7949   0.679   3.774   1.647 -0.0194  0.2057  0.1754
  535TMC3    O1 7950   1.201   3.754   1.439  0.0936 -0.0995 -0.5059
  535TMC3    O2 7951   0.644   3.766   1.531 -0.0053 -0.0981 -0.6471
  536MPD2     C 7952   0.577   2.307  15.971 -0.4608  0.3212 -0.3268
  536MPD2    C1 7953   0.461   2.323  16.044 -0.5749 -0.0556 -0.1657
  536MPD2    C2 7954   0.346   2.377  15.982 -0.2363 -0.6773  0.5861
  536MPD2    C3 7955   0.356   2.401  15.850 -0.3652 -0.2169  0.3691
  536MPD2    C4 7956   0.469   2.383  15.779  0.2611 -0.0157  0.5514
  536MPD2    C5 7957   0.581   2.341  15.838  0.4926 -0.6759 -0.1369
  536MPD2     H 7958   0.250   2.386  16.031 -0.7835  0.8723 -0.7373
  536MPD2    H1 7959   0.475   2.412  15.674  0.3646  1.8519  1.0830
  536MPD2    H2 7960   0.665   2.268  16.021 -1.4466  1.3735  2.2843
  536MPD2    H3 7961   0.670   2.329  15.778  0.2852 -1.1916 -0.3410
  536MPD2     N 7962   0.259   2.472  15.782  0.2888 -0.2241  0.4243
  536MPD2    H5 7963   0.272   2.503  15.686 -0.8078  1.6307  0.8810
  536MPD2    N1 7964   0.475   2.279  16.178  0.2035  0.6032  0.2953
  536MPD2    H7 7965   0.565   2.250  16.214 -0.1556 -0.3253  0.4486
  537TMC3    C1 7966   0.431   2.273  16.414 -0.1349  0.1025  0.0320
  537TMC3    C2 7967   0.387   2.360  16.516 -0.7867  0.7121  0.0852
  537TMC3    C3 7968   0.449   2.360  16.633  0.1996  0.1040 -0.6768
  537TMC3    C4 7969   0.518   2.170  16.444  0.8801  0.2201  0.1354
  537TMC3    C5 7970   0.562   2.157  16.573  0.0655 -0.3492 -0.1110
  537TMC3    C6 7971   0.543   2.258  16.668  0.7880  0.5424 -0.5334
  537TMC3     C 7972   0.377   2.287  16.274 -0.5296 -0.1304 -0.0683
  537TMC3     O 7973   0.260   2.322  16.256 -0.3777 -0.5993 -0.7729
  537TMC3     H 7974   0.314   2.437  16.493 -0.3915  0.9172 -0.4708
  537TMC3    H1 7975   0.559   2.104  16.367 -0.9587  0.3249 -0.9258
  537TMC3    H2 7976   0.606   2.261  16.756  0.7695 -1.3683 -0.4449
  537TMC3    C7 7977   0.642   2.048  16.615  0.1135  0.7982  0.0363
  537TMC3    C8 7978   0.446   2.460  16.732  0.8045  0.2406 -0.3238
  537TMC3    O1 7979   0.706   1.995  16.526  0.3988  0.2271 -0.7855
  537TMC3    O2 7980   0.479   2.423  16.844  0.3441  0.1975 -0.2336
  538TMC3    C1 7981   0.703   0.468  10.464 -0.2236  0.0629 -0.7120
  538TMC3    C2 7982   0.802   0.565  10.461  0.5475  0.0856 -0.5100
  538TMC3    C3 7983   0.774   0.690  10.405 -0.3149 -0.3474 -0.0882
  538TMC3    C4 7984   0.585   0.479  10.393 -0.6718 -0.5077  0.1288
  538TMC3    C5 7985   0.565   0.605  10.340 -0.7024 -0.5926  0.2621
  538TMC3    C6 7986   0.650   0.709  10.347 -1.1551  0.4133  0.3819
  538TMC3     C 7987   0.685   0.402  10.591 -0.2313  0.5426 -0.2390
  538TMC3     O 7988   0.571   0.383  10.626  0.0039 -0.0921  0.1071
  538TMC3     H 7989   0.889   0.550  10.523  0.0312  1.9982  0.6830
  538TMC3    H1 7990   0.518   0.395  10.395 -2.8581  1.2068 -0.6794
  538TMC3    H2 7991   0.628   0.812  10.318  0.3407  0.9637  1.1936
  538TMC3    C7 7992   0.422   0.637  10.355 -0.1521 -0.1812 -0.2354
  538TMC3    C8 7993   0.833   0.807  10.470 -0.5951  0.4367 -1.0990
  538TMC3    O1 7994   0.348   0.542  10.370 -0.1388  0.5639 -0.2705
  538TMC3    O2 7995   0.756   0.900  10.492  0.0850  0.2515  0.1233
  539MPD2     C 7996   0.781   0.063  11.873  0.0546  0.0692  0.7501
  539MPD2    C1 7997   0.814   0.055  11.738 -0.2968  0.4889  0.3720
  539MPD2    C2 7998   0.848   0.162  11.660 -0.5106  0.2352 -0.3129
  539MPD2    C3 7999   0.850   0.287  11.724  0.4872  0.1374 -0.1060
  539MPD2    C4 8000   0.809   0.294  11.855 -0.8628 -0.2106  0.1448
  539MPD2    C5 8001   0.771   0.192  11.930  0.0475 -0.1534 -1.0340
  539MPD2     H 8002   0.867   0.141  11.555  1.2003  0.2237 -0.0091
  539MPD2    H1 8003   0.774   0.394  11.881 -1.8881  0.1320 -2.6018
  539MPD2    H2 8004   0.767   4.702  11.940 -1.1171  0.9623  1.6308
  539MPD2    H3 8005   0.738   0.208  12.032  1.2415 -0.8924 -0.5268
  539MPD2     N 8006   0.856   0.408  11.656 -0.6016  0.1281 -0.5004
  539MPD2    H5 8007   0.841   0.496  11.704 -0.9633 -0.0935 -0.2047
  539MPD2    N1 8008   0.829   4.648  11.667 -0.2620  0.1333 -0.5036
  539MPD2    H7 8009   0.832   4.661  11.566 -2.4358 -0.2526 -0.6297
  540TMC3    C1 8010   0.817   0.561  11.493  0.4184  0.4585 -0.1575
  540TMC3    C2 8011   0.763   0.590  11.369 -0.4898  0.3701 -1.0204
  540TMC3    C3 8012   0.737   0.714  11.332 -0.0858  0.0822 -0.3990
  540TMC3    C4 8013   0.846   0.669  11.574  0.5531 -0.6372  0.1099
  540TMC3    C5 8014   0.810   0.797  11.530  0.0623  0.1055  0.2154
  540TMC3    C6 8015   0.762   0.824  11.406  0.4252 -0.1483  0.1745
  540TMC3     C 8016   0.841   0.424  11.519 -0.2835  0.5827  0.3322
  540TMC3     O 8017   0.833   0.346  11.425 -0.2461  0.0605  0.3604
  540TMC3     H 8018   0.755   0.511  11.295 -0.9084  0.6104 -1.2281
  540TMC3    H1 8019   0.891   0.660  11.672  0.9593  1.0168  0.0639
  540TMC3    H2 8020   0.735   0.922  11.369  4.0873  0.2416 -1.4577
  540TMC3    C7 8021   0.789   0.888  11.641 -0.9017 -0.1015  0.2239
  540TMC3    C8 8022   0.690   0.740  11.200 -1.2624 -0.2287  0.7738
  540TMC3    O1 8023   0.791   0.842  11.751 -0.2502 -0.4900 -0.3086
  540TMC3    O2 8024   0.718   0.846  11.147 -0.3382 -0.0968  0.6079
  541MPD2     C 8025   4.370   2.054  13.117 -0.2055 -0.3239 -0.6701
  541MPD2    C1 8026   4.404   1.929  13.075 -0.0483  0.6709 -0.3342
  541MPD2    C2 8027   4.366   1.886  12.949  0.1045  0.2789  0.1487
  541MPD2    C3 8028   4.307   1.981  12.861 -0.5645 -0.7792  0.5766
  541MPD2    C4 8029   4.248   2.094  12.917  0.0258 -0.2892  0.3566
  541MPD2    C5 8030   4.276   2.132  13.045  0.7060  0.0830  0.0439
  541MPD2     H 8031   4.393   1.790  12.906  1.0671  1.3993 -1.7034
  541MPD2    H1 8032   4.169   2.147  12.864  0.1850  2.0127  2.4221
  541MPD2    H2 8033   4.385   2.096  13.216 -3.5407 -1.4789  0.3394
  541MPD2    H3 8034   4.237   2.225  13.082  0.4741  0.0792 -0.1916
  541MPD2     N 8035   4.278   1.947  12.729 -0.3372 -0.1769  0.3199
  541MPD2    H5 8036   4.215   2.008  12.678  3.6181  0.1484 -4.2262
  541MPD2    N1 8037   4.460   1.845  13.174  0.2636  0.0596 -0.1352
  541MPD2    H7 8038   4.483   1.892  13.260 -0.0046 -3.1804  1.7088
  542TMC3    C1 8039   4.251   1.802  12.547  0.0244 -0.0560 -0.7355
  542TMC3    C2 8040   4.321   1.764  12.437  1.1656 -0.0767  0.7996
  542TMC3    C3 8041   4.252   1.709  12.334  0.1808 -0.3133  0.8436
  542TMC3    C4 8042   4.117   1.809  12.551 -0.0474 -1.0874  0.1837
  542TMC3    C5 8043   4.048   1.756  12.444 -0.1071 -0.8201 -0.2137
  542TMC3    C6 8044   4.117   1.714  12.330 -0.5358  0.2272 -0.1792
  542TMC3     C 8045   4.333   1.838  12.659  0.0076 -0.1208 -0.4267
  542TMC3     O 8046   4.450   1.796  12.669 -0.3986 -0.3826 -0.1288
  542TMC3     H 8047   4.429   1.761  12.435  1.1941  0.9790  0.9751
  542TMC3    H1 8048   4.063   1.837  12.641 -0.8351  0.2225 -0.7140
  542TMC3    H2 8049   4.067   1.674  12.242 -0.2935  4.0779 -2.0215
  542TMC3    C7 8050   3.909   1.767  12.444 -0.4841  0.2654 -0.0792
  542TMC3    C8 8051   4.315   1.653  12.209  0.0159  0.5627  0.1208
  542TMC3    O1 8052   3.849   1.692  12.366  0.2446  0.3580 -0.3504
  542TMC3    O2 8053   4.243   1.626  12.113 -0.2759 -0.0816  0.3439
  543TMC3    C1 8054   3.315   2.984  17.034  0.0976  0.9887 -0.1579
  543TMC3    C2 8055   3.334   2.875  17.105  0.2900 -0.4967 -0.0956
  543TMC3    C3 8056   3.224   2.818  17.179 -0.6744  0.2266  0.3750
  543TMC3    C4 8057   3.184   3.037  17.014  0.2904  0.6616  0.2257
  543TMC3    C5 8058   3.084   2.975  17.069  0.2815  0.7866  0.3930
  543TMC3    C6 8059   3.103   2.870  17.160  0.0653 -0.4613 -0.1253
  543TMC3     C 8060   3.429   3.035  16.954 -0.5632  0.6513  0.6946
  543TMC3     O 8061   3.536   2.972  16.955  0.3542 -0.1126 -0.0303
  543TMC3     H 8062   3.436   2.839  17.113  0.9249  1.7468  1.6600
  543TMC3    H1 8063   3.166   3.113  16.939  1.1059  0.0348 -0.6042
  543TMC3    H2 8064   3.019   2.815  17.199 -2.0958  1.9905 -1.3379
  543TMC3    C7 8065   2.955   3.014  17.033  0.2569 -0.3076 -0.1029
  543TMC3    C8 8066   3.247   2.709  17.269 -0.0078  0.1527  0.5930
  543TMC3    O1 8067   2.943   3.076  16.929 -0.3256  0.2193  0.3270
  543TMC3    O2 8068   3.351   2.649  17.263 -0.4995  0.5438 -0.1636
  544MPD2     C 8069   3.085   2.373  17.644  0.0928  0.3916 -0.0618
  544MPD2    C1 8070   3.198   2.377  17.569 -0.8716 -0.0774 -0.3402
  544MPD2    C2 8071   3.220   2.485  17.483 -0.5282  0.3593  0.5724
  544MPD2    C3 8072   3.125   2.580  17.454  0.3496 -0.7555 -0.1578
  544MPD2    C4 8073   3.004   2.568  17.525 -0.6176 -0.8450  0.2195
  544MPD2    C5 8074   2.992   2.474  17.622 -0.2445 -0.1044 -0.3103
  544MPD2     H 8075   3.314   2.487  17.428 -0.3043 -0.5323  0.9218
  544MPD2    H1 8076   2.917   2.630  17.506 -0.1896 -0.4662 -0.4811
  544MPD2    H2 8077   3.059   2.294   0.020 -1.7053  1.1587  0.1702
  544MPD2    H3 8078   2.898   2.463  17.676  0.1056  0.1136  0.3451
  544MPD2     N 8079   3.143   2.683  17.355  0.4807 -0.1740 -0.0716
  544MPD2    H5 8080   3.068   2.751  17.357 -1.6861 -2.5959  1.0226
  544MPD2    N1 8081   3.296   2.270  17.598 -0.0544 -0.1401  0.2842
  544MPD2    H7 8082   3.263   2.190  17.651 -1.6113 -0.2792 -0.9100
  545TMC3    C1 8083   3.478   2.118  17.581  1.0483 -0.4500 -0.1460
  545TMC3    C2 8084   3.587   2.077  17.512 -0.2435 -0.7488  0.0570
  545TMC3    C3 8085   3.661   1.962  17.551 -0.1670  0.3066  0.7998
  545TMC3    C4 8086   3.441   2.066   0.011 -0.1835  0.1633  0.3584
  545TMC3    C5 8087   3.513   1.948   0.037  0.2177  0.1161 -0.0489
  545TMC3    C6 8088   3.616   1.892  17.657  0.6880  0.4050 -0.5001
  545TMC3     C 8089   3.420   2.249  17.541  0.5398  0.2060  0.5591
  545TMC3     O 8090   3.471   2.318  17.452 -0.5907  0.2525  0.3631
  545TMC3     H 8091   3.613   2.154  17.440 -2.8038  0.0632  0.0107
  545TMC3    H1 8092   3.375   2.099   0.091  1.6790  0.1168  1.9365
  545TMC3    H2 8093   3.642   1.787  17.662  0.6526  0.4512  0.7848
  545TMC3    C7 8094   3.494   1.898   0.176  0.0708 -0.5942 -0.8201
  545TMC3    C8 8095   3.782   1.917  17.495  0.1641 -0.0233 -0.7625
  545TMC3    O1 8096   3.393   1.938   0.231 -0.3208 -0.1376  0.3329
  545TMC3    O2 8097   3.852   1.837  17.556  0.4414 -0.5041 -0.3323
  546MPD2     C 8098   0.371   2.940  17.567 -0.1293  0.6296  0.2536
  546MPD2    C1 8099   0.336   2.991  17.445 -0.2054 -0.1060 -0.5935
  546MPD2    C2 8100   0.370   3.118  17.408  0.5362 -0.3000 -0.0623
  546MPD2    C3 8101   0.451   3.192  17.490  0.2481 -0.3524 -0.2224
  546MPD2    C4 8102   0.489   3.140  17.609 -0.4153  0.7504  0.1229
  546MPD2    C5 8103   0.448   3.017  17.646 -0.1438  0.0769  0.5973
  546MPD2     H 8104   0.334   3.154  17.313 -0.5974  3.4049  1.7637
  546MPD2    H1 8105   0.551   3.194  17.680 -1.1523 -1.4358  2.4568
  546MPD2    H2 8106   0.328   2.843  17.591 -1.5047  1.0535 -0.4912
  546MPD2    H3 8107   0.476   2.988   0.054 -1.1600 -2.2392  0.2146
  546MPD2     N 8108   0.502   3.318  17.457  0.0040 -0.0122  0.0909
  546MPD2    H5 8109   0.533   3.383  17.528  0.3950  0.6992 -0.7340
  546MPD2    N1 8110   0.257   2.902  17.368 -0.5631 -0.3517  0.2744
  546MPD2    H7 8111   0.228   2.821  17.421 -0.0378 -1.2997 -0.9059
  547TMC3    C1 8112   0.109   2.837  17.187  0.4930  0.6612 -0.7862
  547TMC3    C2 8113   0.060   2.855  17.056 -0.5806  0.2767 -0.6869
  547TMC3    C3 8114   4.694   2.761  17.012  0.0153 -0.1627  0.1374
  547TMC3    C4 8115   0.066   2.736  17.265 -0.0534  0.0218 -0.2506
  547TMC3    C5 8116   4.694   2.653  17.217  0.1209 -0.0109  1.1081
  547TMC3    C6 8117   4.645   2.665  17.088 -0.3057  0.2693  1.1030
  547TMC3     C 8118   0.212   2.931  17.240 -0.2664  0.1780  0.8385
  547TMC3     O 8119   0.241   3.026  17.167  0.2294  0.1610 -0.3927
  547TMC3     H 8120   0.078   2.954  17.015  1.3744 -0.5905 -1.9259
  547TMC3    H1 8121   0.084   2.729  17.371 -1.3972 -0.7666 -0.0745
  547TMC3    H2 8122   4.576   2.592  17.047  0.2439 -0.5121  1.5929
  547TMC3    C7 8123   4.612   2.585  17.316 -0.0777  0.3377 -0.2009
  547TMC3    C8 8124   4.632   2.780  16.882  0.1096 -0.1030  0.3709
  547TMC3    O1 8125   4.619   2.615  17.433 -0.1271  0.2714 -0.0759
  547TMC3    O2 8126   4.629   2.894  16.847 -0.1003  0.6849 -0.1183
  548MPD2     C 8127   0.027   3.798  12.220  0.0825 -0.0763 -0.5216
  548MPD2    C1 8128   4.707   3.667  12.218 -0.7207  0.4536  0.0639
  548MPD2    C2 8129   0.054   3.566  12.153 -0.0694 -0.2753 -0.4426
  548MPD2    C3 8130   0.162   3.595  12.071 -0.9442  0.0573 -0.0941
  548MPD2    C4 8131   0.200   3.729  12.071 -0.3064 -0.6654 -0.0133
  548MPD2    C5 8132   0.135   3.825  12.148 -0.1259  0.0315  0.1040
  548MPD2     H 8133   0.027   3.461  12.164 -2.9852  0.7466  2.1404
  548MPD2    H1 8134   0.275   3.760  11.999 -1.2091  1.2713 -0.1236
  548MPD2    H2 8135   4.713   3.878  12.284 -1.6589 -0.8210 -0.5931
  548MPD2    H3 8136   0.178   3.925  12.139 -0.7125  0.1461 -1.5373
  548MPD2     N 8137   0.209   3.491  11.984 -0.4001 -0.3463  0.2002
  548MPD2    H5 8138   0.164   3.400  11.992 -2.4653  0.6320 -0.0338
  548MPD2    N1 8139   4.591   3.637  12.291 -0.1499  0.4328 -0.4734
  548MPD2    H7 8140   4.544   3.721  12.325 -1.4871  0.1670 -1.6670
  549TMC3    C1 8141   4.415   3.533  12.399 -0.5569 -0.4470  0.2815
  549TMC3    C2 8142   4.331   3.637  12.391  0.1526  0.4728 -0.0253
  549TMC3    C3 8143   4.208   3.634  12.461  0.2270  0.1639 -0.6347
  549TMC3    C4 8144   4.371   3.420  12.466  0.1290 -0.2367  0.2676
  549TMC3    C5 8145   4.260   3.429  12.549  0.0725 -0.0444 -0.3261
  549TMC3    C6 8146   4.176   3.533  12.545 -0.2383  0.7618 -0.0429
  549TMC3     C 8147   4.532   3.520  12.308  0.7248  0.4151  0.2277
  549TMC3     O 8148   4.561   3.411  12.261 -0.2083  0.1671  0.3834
  549TMC3     H 8149   4.350   3.711  12.314  1.8165 -1.0278 -1.0319
  549TMC3    H1 8150   4.447   3.344  12.470  2.1743  1.6944 -2.1442
  549TMC3    H2 8151   4.085   3.543  12.603  0.4213  0.7186  1.0032
  549TMC3    C7 8152   4.251   3.354  12.668 -0.0716 -0.8975  0.5441
  549TMC3    C8 8153   4.128   3.759  12.461  1.0967 -0.0904 -1.2254
  549TMC3    O1 8154   4.217   3.415  12.767  0.1408  0.0214  0.2805
  549TMC3    O2 8155   4.016   3.749  12.507  0.0775 -0.3700  0.0771
  550TMC3    C1 8156   2.929   1.415  12.161 -0.1354 -0.3641 -0.0998
  550TMC3    C2 8157   2.927   1.426  12.297 -0.4301 -0.4649 -0.2971
  550TMC3    C3 8158   3.006   1.515  12.359 -0.1123  0.2217  0.2457
  550TMC3    C4 8159   3.012   1.489  12.093 -0.0910  0.5504 -0.1629
  550TMC3    C5 8160   3.109   1.559  12.155  0.4274  0.1556 -0.1447
  550TMC3    C6 8161   3.099   1.577  12.288 -0.7846 -0.3277 -0.2975
  550TMC3     C 8162   2.795   1.386  12.100 -0.0814  0.3613 -0.2683
  550TMC3     O 8163   2.710   1.317  12.160 -0.1319  1.5224 -0.2960
  550TMC3     H 8164   2.839   1.382  12.343 -0.2447  1.2652  1.6986
  550TMC3    H1 8165   3.006   1.516  11.988 -1.3871 -1.6240 -0.6660
  550TMC3    H2 8166   3.177   1.634  12.339 -1.1149 -0.5040  0.4065
  550TMC3    C7 8167   3.139   1.689  12.097 -0.2185  0.6075 -0.4020
  550TMC3    C8 8168   2.967   1.584  12.483 -0.3432 -0.4881  0.3846
  550TMC3    O1 8169   3.257   1.724  12.079 -0.1014 -0.6245  0.3636
  550TMC3    O2 8170   3.020   1.694  12.500  0.0651  0.2418 -0.4093
  551TMC3    C1 8171   0.818   3.742  13.157 -0.3941 -0.5723 -0.5636
  551TMC3    C2 8172   0.938   3.761  13.105 -0.7589  1.3398  0.5519
  551TMC3    C3 8173   1.016   3.858  13.163  0.1534  0.1616 -0.4984
  551TMC3    C4 8174   0.786   3.815  13.268  0.0896  0.3946 -0.0471
  551TMC3    C5 8175   0.872   3.895  13.333 -0.2080  0.0893 -0.1402
  551TMC3    C6 8176   0.999   3.912  13.292  0.2496 -0.0084  0.1025
  551TMC3     C 8177   0.713   3.716  13.055  0.0518 -0.8341 -0.3561
  551TMC3     O 8178   0.765   3.706  12.945 -0.3944 -0.0310 -0.0514
  551TMC3     H 8179   0.973   3.718  13.012  0.9800  0.6968  1.4901
  551TMC3    H1 8180   0.684   3.808  13.304 -0.3741 -2.0302 -1.8219
  551TMC3    H2 8181   1.073   3.980  13.332 -0.5294  1.2393 -0.6017
  551TMC3    C7 8182   0.822   3.983  13.437 -0.1794 -0.2526  0.2586
  551TMC3    C8 8183   1.135   3.897  13.093 -0.9362 -0.6319  0.3925
  551TMC3    O1 8184   0.703   4.007  13.426  0.2614  0.1719  0.0499
  551TMC3    O2 8185   1.201   3.809  13.036 -0.3413  0.5247 -0.5353
  552MPD2     C 8186   2.712   0.806  14.224  0.1698  0.3397 -0.7845
  552MPD2    C1 8187   2.810   0.879  14.159 -0.7797  0.7778  0.6376
  552MPD2    C2 8188   2.914   0.943  14.229 -0.0678  0.6085 -0.2135
  552MPD2    C3 8189   2.930   0.927  14.365 -0.6896 -0.0740 -0.1900
  552MPD2    C4 8190   2.841   0.844  14.426 -0.4208 -0.1889  0.1031
  552MPD2    C5 8191   2.729   0.797  14.361 -0.2462  0.3473  0.5160
  552MPD2     H 8192   2.982   1.003  14.170 -0.7880  0.8587 -0.7826
  552MPD2    H1 8193   2.844   0.834  14.534 -1.0453  0.1077  0.1454
  552MPD2    H2 8194   2.634   0.752  14.173 -1.3952  0.9891  0.9213
  552MPD2    H3 8195   2.654   0.740  14.414 -0.0953 -0.7104 -0.4068
  552MPD2     N 8196   3.034   0.983  14.445 -0.4629  0.3676  0.1997
  552MPD2    H5 8197   3.042   0.959  14.543 -0.0641  0.7801  0.2660
  552MPD2    N1 8198   2.817   0.878  14.021  0.2860 -0.1090  0.2556
  552MPD2    H7 8199   2.910   0.908  13.993  1.3597 -2.2002  1.5201
  553TMC3    C1 8200   2.787   0.868  13.791  0.7251  0.0436  0.1171
  553TMC3    C2 8201   2.698   0.858  13.689 -0.6052  0.6118  0.0972
  553TMC3    C3 8202   2.745   0.868  13.566 -0.0152  0.0329  1.1510
  553TMC3    C4 8203   2.925   0.851  13.767 -0.0153 -0.1045 -0.3193
  553TMC3    C5 8204   2.971   0.865  13.639  0.1759 -0.1836  0.5613
  553TMC3    C6 8205   2.876   0.863  13.538 -1.1143  0.2122 -0.0400
  553TMC3     C 8206   2.726   0.846  13.927  0.1659 -0.1589  0.0187
  553TMC3     O 8207   2.609   0.816  13.936  0.4919  0.2982 -0.1294
  553TMC3     H 8208   2.592   0.873  13.709 -0.2736  2.4370  0.4563
  553TMC3    H1 8209   2.984   0.833  13.856 -2.4335 -1.7720  0.9671
  553TMC3    H2 8210   2.917   0.864  13.438 -0.0681 -0.9069  0.3811
  553TMC3    C7 8211   3.109   0.838  13.605  0.3777 -1.0762 -1.0080
  553TMC3    C8 8212   2.665   0.952  13.477 -0.2145 -0.2685  0.4446
  553TMC3    O1 8213   3.129   0.766  13.507 -0.1934  0.8851 -0.1124
  553TMC3    O2 8214   2.546   0.945  13.489 -0.2186 -0.0736  0.3362
  554TMC3    C1 8215   4.550   0.699  12.051  0.6710  0.2053  0.3515
  554TMC3    C2 8216   4.438   0.773  12.073  0.1879 -0.4741  0.4065
  554TMC3    C3 8217   4.395   0.849  11.962 -0.0671 -0.7236  1.1695
  554TMC3    C4 8218   4.626   0.693  11.935  0.0683 -0.1030 -1.5291
  554TMC3    C5 8219   4.576   0.773  11.831  0.0820 -0.3968  0.2214
  554TMC3    C6 8220   4.460   0.846  11.842 -1.2000  0.2436 -0.4962
  554TMC3     C 8221   4.609   0.635  12.172 -0.3228  0.4786 -0.4542
  554TMC3     O 8222   4.582   0.694  12.275 -0.1790  0.4229 -0.5521
  554TMC3     H 8223   4.385   0.779  12.168 -3.8244 -1.4104 -1.7672
  554TMC3    H1 8224   4.712   0.629  11.919  0.4419 -0.8371  3.5012
  554TMC3    H2 8225   4.421   0.905  11.759  1.5913 -0.8767 -2.5675
  554TMC3    C7 8226   4.601   0.727  11.693  0.0000 -0.6302  0.4055
  554TMC3    C8 8227   4.250   0.853  11.932  0.4623 -0.3251 -0.7594
  554TMC3    O1 8228   4.526   0.780  11.611 -0.4352  0.2334 -0.1276
  554TMC3    O2 8229   4.214   0.777  11.845 -0.0556  0.7641 -0.6034
  555TMC3    C1 8230   4.238   4.593  15.070  0.3533 -0.6972 -0.6142
  555TMC3    C2 8231   4.250   4.703  15.145 -0.5644  0.4922 -0.7812
  555TMC3    C3 8232   4.256   4.674  15.288  0.2183 -0.6537 -0.4820
  555TMC3    C4 8233   4.236   4.468  15.126  0.1362 -0.0122  0.0150
  555TMC3    C5 8234   4.246   4.447  15.262 -0.1266 -0.0636 -0.0558
  555TMC3    C6 8235   4.241   4.551  15.345 -0.0283 -0.8671  0.2200
  555TMC3     C 8236   4.247   4.604  14.925 -0.4645 -0.1868  0.1980
  555TMC3     O 8237   4.298   4.512  14.859  0.5898 -0.1446 -0.0214
  555TMC3     H 8238   4.277   0.074  15.100 -1.6574  2.7705  3.2380
  555TMC3    H1 8239   4.235   4.388  15.054 -2.4606 -1.3463  1.5473
  555TMC3    H2 8240   4.217   4.540  15.450  1.1389 -1.6787  0.4154
  555TMC3    C7 8241   4.229   4.318  15.319  0.3095 -0.3257 -0.3359
  555TMC3    C8 8242   4.302   0.063  15.371  0.0249  0.0847 -0.1547
  555TMC3    O1 8243   4.203   4.308  15.437  0.3260 -0.1787 -0.2496
  555TMC3    O2 8244   4.331   0.169  15.314 -0.0996 -0.2620 -0.1166
  556MPD2     C 8245   1.826   1.730  10.627 -0.4216 -0.5188 -0.0182
  556MPD2    C1 8246   1.829   1.618  10.703 -0.5781  0.0508 -0.1510
  556MPD2    C2 8247   1.787   1.499  10.649  0.1812 -0.2693  0.1023
  556MPD2    C3 8248   1.740   1.492  10.518 -0.7827 -0.4931  1.1675
  556MPD2    C4 8249   1.745   1.610  10.444  0.2509  0.6454 -0.6212
  556MPD2    C5 8250   1.779   1.722  10.500  0.1999  0.0933 -0.6726
  556MPD2     H 8251   1.792   1.413  10.715  0.0001 -1.0760 -0.9287
  556MPD2    H1 8252   1.722   1.610  10.338 -0.7784 -2.4366 -0.3742
  556MPD2    H2 8253   1.859   1.829  10.657 -0.3158 -0.3387 -0.7346
  556MPD2    H3 8254   1.777   1.811  10.439  2.4411  1.9492  1.9684
  556MPD2     N 8255   1.705   1.365  10.465 -0.1677  0.1177 -0.3692
  556MPD2    H5 8256   1.719   1.285  10.527 -0.4856 -1.4741 -2.3715
  556MPD2    N1 8257   1.883   1.607  10.832  0.1296 -0.0192 -0.0925
  556MPD2    H7 8258   1.865   1.521  10.883  0.3209 -0.4412 -0.7369
  557TMC3    C1 8259   1.638   1.202  10.310  0.0309 -0.6820 -0.1865
  557TMC3    C2 8260   1.649   1.171  10.175 -0.1955 -0.4785 -0.5796
  557TMC3    C3 8261   1.607   1.043  10.132 -0.5840  0.2580  0.1583
  557TMC3    C4 8262   1.596   1.109  10.402  0.4993  0.1636 -0.0437
  557TMC3    C5 8263   1.548   0.991  10.357  0.2622  0.3021 -0.7821
  557TMC3    C6 8264   1.567   0.954  10.229 -0.0259  0.0123  0.6545
  557TMC3     C 8265   1.645   1.345  10.341  0.3421  0.0803 -0.1375
  557TMC3     O 8266   1.598   1.423  10.259 -0.2452  0.1990 -0.0740
  557TMC3     H 8267   1.673   1.245  10.100  0.5438 -0.8262 -0.6879
  557TMC3    H1 8268   1.586   1.151  10.502  1.2402  0.1702  0.0284
  557TMC3    H2 8269   1.521   0.857  10.214 -0.0398  0.4706 -2.3083
  557TMC3    C7 8270   1.466   0.910  10.450 -0.0476  0.5780  0.0963
  557TMC3    C8 8271   1.531   1.040  10.007  0.7179 -0.7509  0.3916
  557TMC3    O1 8272   1.444   0.793  10.415  0.3016  0.4508  0.3259
  557TMC3    O2 8273   1.502   1.150   9.955  0.3490  0.0669  0.1624
  558TMC3    C1 8274   4.165   3.830   9.832  0.3295 -0.0781  0.2430
  558TMC3    C2 8275   4.129   3.941   9.905  0.7587  0.9355 -0.0043
  558TMC3    C3 8276   4.011   3.996   9.877 -0.1674 -0.4573 -0.0076
  558TMC3    C4 8277   4.082   3.773   9.750 -0.3339  0.3786  0.1347
  558TMC3    C5 8278   3.973   3.846   9.706 -0.6436  0.0578 -0.4621
  558TMC3    C6 8279   3.935   3.960   9.769  0.4809  0.7495 -0.8834
  558TMC3     C 8280   4.255   3.740   9.891 -0.4405  0.1925  1.0590
  558TMC3     O 8281   4.242   3.623   9.880 -0.5059  0.2376  0.3391
  558TMC3     H 8282   4.193   3.992   9.976  0.9416  0.3236  0.2735
  558TMC3    H1 8283   4.110   3.681   9.701 -1.2829  0.9670 -1.5380
  558TMC3    H2 8284   3.841   4.012   9.757  0.4684  0.7973 -0.5899
  558TMC3    C7 8285   3.914   3.820   9.570  0.3366  0.0743 -0.2345
  558TMC3    C8 8286   3.958   4.092   9.972  0.0097  0.3679  0.4394
  558TMC3    O1 8287   3.804   3.867   9.539  0.2282  0.3166 -0.4056
  558TMC3    O2 8288   3.866   4.161   9.930 -0.2023 -0.0815 -0.3255
  559MPD2     C 8289   3.791   0.473  11.464 -0.0021 -0.0811 -0.3606
  559MPD2    C1 8290   3.798   0.353  11.405 -0.1082 -0.5130  0.7344
  559MPD2    C2 8291   3.925   0.294  11.391 -0.5286 -0.2252 -0.8961
  559MPD2    C3 8292   4.039   0.353  11.444 -0.2712 -0.0205 -0.2569
  559MPD2    C4 8293   4.032   0.482  11.484 -0.4108  0.0093 -0.0515
  559MPD2    C5 8294   3.908   0.537  11.498 -0.6964 -0.0726 -0.0965
  559MPD2     H 8295   3.945   0.200  11.341  0.8475 -1.4199  1.9091
  559MPD2    H1 8296   4.108   0.555  11.510 -0.5387  0.2281 -0.2937
  559MPD2    H2 8297   3.699   0.531  11.467  1.3206  1.9114  0.9526
  559MPD2    H3 8298   3.895   0.639  11.531 -1.4071 -0.2840  0.2750
  559MPD2     N 8299   4.164   0.289  11.445 -0.2630 -0.1785 -0.0476
  559MPD2    H5 8300   4.166   0.188  11.438 -0.2373 -0.1398 -0.5909
  559MPD2    N1 8301   3.674   0.299  11.368  0.1188  0.0608  0.1042
  559MPD2    H7 8302   3.586   0.347  11.382  0.1462  0.0040  0.4576
  560TMC3    C1 8303   4.394   0.260  11.470 -0.2828 -1.0303  0.0232
  560TMC3    C2 8304   4.377   0.146  11.391 -0.0435  0.6675  0.4171
  560TMC3    C3 8305   4.471   0.052  11.406 -0.1728  0.1238  0.1716
  560TMC3    C4 8306   4.513   0.293  11.520  0.9067 -0.1959 -0.5316
  560TMC3    C5 8307   4.614   0.201  11.518  0.0138  0.3122 -0.0750
  560TMC3    C6 8308   4.591   0.078  11.466  0.4069 -0.3541 -0.9001
  560TMC3     C 8309   4.281   0.353  11.473 -0.0092  0.6069  0.7269
  560TMC3     O 8310   4.303   0.459  11.525 -0.4370 -0.3515  0.1693
  560TMC3     H 8311   4.305   0.123  11.313  3.5095 -2.2914 -1.9704
  560TMC3    H1 8312   4.522   0.394  11.561  2.5308 -1.0662  1.2507
  560TMC3    H2 8313   4.664   4.721  11.455 -0.1723 -1.1298  0.8748
  560TMC3    C7 8314   0.025   0.224  11.557 -0.0405 -0.7226  0.6662
  560TMC3    C8 8315   4.447   4.644  11.347  0.9950 -0.4673  0.5331
  560TMC3    O1 8316   0.036   0.278  11.666 -0.3880  0.2142  0.2148
  560TMC3    O2 8317   4.395   4.634  11.237 -0.0899 -0.0729  0.0281
  561TMC3    C1 8318   2.348   3.259  11.251 -0.1519  0.7908  0.2148
  561TMC3    C2 8319   2.327   3.221  11.381  0.0055 -0.1407  0.0239
  561TMC3    C3 8320   2.204   3.248  11.440  0.0675  0.6016  0.6941
  561TMC3    C4 8321   2.261   3.335  11.179  0.5163 -0.1049  0.0746
  561TMC3    C5 8322   2.146   3.375  11.249 -0.9744 -0.1264 -1.0453
  561TMC3    C6 8323   2.112   3.326  11.373  0.0098 -0.0338  0.2126
  561TMC3     C 8324   2.484   3.244  11.211  0.3303  0.2715 -0.1729
  561TMC3     O 8325   2.557   3.178  11.285 -0.5299 -0.3925  0.3140
  561TMC3     H 8326   2.393   3.148  11.427 -1.3432 -1.0858  0.4330
  561TMC3    H1 8327   2.290   3.354  11.076  1.6451 -0.3827  0.3443
  561TMC3    H2 8328   2.025   3.363  11.425  0.1320 -0.0069  0.3994
  561TMC3    C7 8329   2.064   3.477  11.193  0.0600 -0.8387 -0.1238
  561TMC3    C8 8330   2.175   3.189  11.569 -0.2651  0.3270 -0.0840
  561TMC3    O1 8331   1.946   3.476  11.228 -0.4034 -0.2623 -0.5070
  561TMC3    O2 8332   2.232   3.091  11.611 -0.1080  0.2672  0.2120
  562TMC3    C1 8333   3.746   0.461  16.481  0.0600 -0.5991  0.2556
  562TMC3    C2 8334   3.626   0.527  16.460 -0.0311  0.4968  0.1622
  562TMC3    C3 8335   3.587   0.547  16.334 -0.0722 -0.4102 -0.6614
  562TMC3    C4 8336   3.818   0.401  16.377 -0.6059  0.4605  0.3083
  562TMC3    C5 8337   3.784   0.440  16.253 -0.0828  0.3590  0.0742
  562TMC3    C6 8338   3.664   0.510  16.234  0.2681  1.1402 -0.4256
  562TMC3     C 8339   3.795   0.438  16.617  0.1019 -0.6928  0.3755
  562TMC3     O 8340   3.884   0.354  16.612  0.4634  0.9824 -0.3774
  562TMC3     H 8341   3.557   0.551  16.540 -0.5755 -3.7375  0.9865
  562TMC3    H1 8342   3.915   0.358  16.401  1.4063  3.6320 -2.1345
  562TMC3    H2 8343   3.646   0.548  16.134  0.1439 -0.8593 -1.1450
  562TMC3    C7 8344   3.818   0.336  16.144  0.3479  0.5262 -0.1326
  562TMC3    C8 8345   3.445   0.577  16.314 -0.1235  0.1576  0.1328
  562TMC3    O1 8346   3.781   0.374  16.034 -0.1592 -0.2355  0.7093
  562TMC3    O2 8347   3.379   0.626  16.406 -0.2859 -0.0937 -0.3818
  563MPD2     C 8348   1.465   1.114  15.451  0.2265 -0.1365 -0.5927
  563MPD2    C1 8349   1.432   1.214  15.536  0.0228 -0.2502  0.1169
  563MPD2    C2 8350   1.527   1.259  15.629 -0.2623  0.3867 -0.1163
  563MPD2    C3 8351   1.647   1.196  15.641 -0.0401  0.7424 -0.4357
  563MPD2    C4 8352   1.679   1.086  15.563  0.2112  0.9042  0.2628
  563MPD2    C5 8353   1.594   1.054  15.464  0.0533  0.2953  0.3918
  563MPD2     H 8354   1.507   1.347  15.690 -1.1363 -0.2287  0.4829
  563MPD2    H1 8355   1.778   1.041  15.568 -0.4664 -0.7525 -1.8419
  563MPD2    H2 8356   1.408   1.075  15.368 -0.2565  1.3820 -0.9805
  563MPD2    H3 8357   1.625   0.975  15.397  0.1895  1.0678 -0.4463
  563MPD2     N 8358   1.725   1.230  15.755 -0.1658  0.2067  0.6487
  563MPD2    H5 8359   1.679   1.292  15.821  0.8160  0.1946  1.3527
  563MPD2    N1 8360   1.302   1.270  15.533  0.0721  0.2380  0.1211
  563MPD2    H7 8361   1.298   1.355  15.589  2.0096 -1.1372  2.3184
  564TMC3    C1 8362   1.093   1.327  15.467 -0.3034 -0.2896 -0.3996
  564TMC3    C2 8363   0.982   1.275  15.514  0.1353 -0.8124 -0.1176
  564TMC3    C3 8364   0.912   1.337  15.615 -0.1034  0.2807 -0.2611
  564TMC3    C4 8365   1.139   1.446  15.515 -0.3644 -0.1392  0.1840
  564TMC3    C5 8366   1.072   1.502  15.626 -0.5678  0.3083 -1.0740
  564TMC3    C6 8367   0.949   1.460  15.663  0.5084  0.0086 -0.4951
  564TMC3     C 8368   1.195   1.228  15.457 -0.7858 -0.5909 -0.7999
  564TMC3     O 8369   1.176   1.121  15.391 -0.3187  0.1176  0.0687
  564TMC3     H 8370   0.963   1.173  15.485 -1.3392 -1.1087  1.8615
  564TMC3    H1 8371   1.229   1.499  15.486 -1.6807  1.8689 -0.1874
  564TMC3    H2 8372   0.893   1.495  15.749  2.0957 -0.5454  0.7633
  564TMC3    C7 8373   1.163   1.532  15.732  0.6136 -0.1891 -0.5029
  564TMC3    C8 8374   0.812   1.267  15.690 -0.9033 -0.0666  0.2484
  564TMC3    O1 8375   1.280   1.495  15.716 -0.7818 -0.2874 -0.1948
  564TMC3    O2 8376   0.802   1.296  15.808 -0.2169 -0.5977  0.3420
  565TMC3    C1 8377   1.473   2.640  10.104 -0.3598  0.4465  0.4208
  565TMC3    C2 8378   1.512   2.608  10.227  0.1753  0.3620 -0.1108
  565TMC3    C3 8379   1.470   2.489  10.277 -0.0873  0.4433 -0.4632
  565TMC3    C4 8380   1.386   2.564  10.031  0.2566  0.9672  0.1924
  565TMC3    C5 8381   1.353   2.445  10.082  0.0193 -0.6182 -0.4563
  565TMC3    C6 8382   1.400   2.392  10.202 -0.1993 -0.5563  0.0770
  565TMC3     C 8383   1.547   2.755  10.052  0.2456 -0.1270 -0.2068
  565TMC3     O 8384   1.624   2.803  10.129  0.0752  0.1545  0.3019
  565TMC3     H 8385   1.578   2.669  10.288  1.2996  0.7727 -1.7573
  565TMC3    H1 8386   1.347   2.603   9.938 -1.2920 -1.3759 -0.1235
  565TMC3    H2 8387   1.356   2.305  10.249  0.8292 -0.3435  1.4271
  565TMC3    C7 8388   1.248   2.368  10.022  0.1170  0.0670  0.0310
  565TMC3    C8 8389   1.509   2.442  10.414 -0.6308  0.5114  0.3438
  565TMC3    O1 8390   1.215   2.264  10.078 -0.1424 -0.4046 -0.5696
  565TMC3    O2 8391   1.488   2.326  10.452  0.0611  0.1581 -0.6117
  566MPD2     C 8392   3.230   4.615  14.490  0.2736 -0.5285  0.2504
  566MPD2    C1 8393   3.347   4.562  14.425  0.2131 -0.2420 -0.0138
  566MPD2    C2 8394   3.338   4.458  14.339  0.1362 -0.4534  0.2639
  566MPD2    C3 8395   3.215   4.411  14.291 -0.1807  0.8358 -0.8682
  566MPD2    C4 8396   3.100   4.468  14.348 -0.2108  0.2338 -0.0504
  566MPD2    C5 8397   3.107   4.570  14.443  0.4262  0.1078 -0.1778
  566MPD2     H 8398   3.436   4.415  14.321  0.2813 -0.2740  0.6267
  566MPD2    H1 8399   2.996   4.442  14.331 -0.3339  0.2721  0.6166
  566MPD2    H2 8400   3.232   4.694  14.564 -0.5683  0.8046 -1.1549
  566MPD2    H3 8401   3.022   4.622  14.485  1.8281  1.8548  0.5307
  566MPD2     N 8402   3.194   4.309  14.196  0.0052 -0.1891  0.1763
  566MPD2    H5 8403   3.100   4.290  14.164 -0.2125 -0.7821  1.1563
  566MPD2    N1 8404   3.481   4.598  14.448  0.5388 -0.2765 -0.5248
  566MPD2    H7 8405   3.553   4.561  14.387  0.2182  0.9179 -1.6404
  567TMC3    C1 8406   3.669   4.718  14.524  0.5689  0.0124  0.0575
  567TMC3    C2 8407   3.716   0.006  14.396 -0.3050  0.0591  0.1279
  567TMC3    C3 8408   3.837   4.676  14.362 -0.0505 -0.3499  0.0530
  567TMC3    C4 8409   3.731   4.635  14.614 -0.4410  0.1661 -0.8236
  567TMC3    C5 8410   3.855   4.582  14.576  0.3829 -0.5065 -0.0106
  567TMC3    C6 8411   3.906   4.599  14.451 -1.0342 -0.3363 -0.4568
  567TMC3     C 8412   3.529   4.697  14.535  0.0116 -0.3641  0.4570
  567TMC3     O 8413   3.483   0.013  14.642 -0.2002  0.4874  0.3961
  567TMC3     H 8414   3.659   0.072  14.332  2.4833  0.2760 -2.1233
  567TMC3    H1 8415   3.670   4.610  14.701  1.3205  1.0772  0.6858
  567TMC3    H2 8416   4.003   4.555  14.431 -0.9968  0.4788 -2.0357
  567TMC3    C7 8417   3.914   4.486  14.664  1.1956  0.3484 -0.1263
  567TMC3    C8 8418   3.889   4.719  14.238 -0.4032  0.0614  0.1308
  567TMC3    O1 8419   3.979   4.392  14.618  0.4045  0.1083 -0.2263
  567TMC3    O2 8420   3.853   0.103  14.198 -1.0144 -0.0160  0.6370
  568MPD2     C 8421   0.733   0.054  16.449  0.1480  0.4307 -0.4560
  568MPD2    C1 8422   0.771   0.132  16.553  0.7260 -0.3473 -0.0987
  568MPD2    C2 8423   0.757   0.271  16.543  0.4475  0.7170  0.0661
  568MPD2    C3 8424   0.711   0.326  16.426 -0.2971 -0.5028  0.7039
  568MPD2    C4 8425   0.667   0.244  16.325  0.4880  0.3319  0.5876
  568MPD2    C5 8426   0.680   0.110  16.337 -0.1068  0.0618  0.2260
  568MPD2     H 8427   0.786   0.334  16.626 -2.1146  0.0550  1.4327
  568MPD2    H1 8428   0.613   0.287  16.242 -1.1384 -0.9271  1.0038
  568MPD2    H2 8429   0.744   4.669  16.458 -0.1120  0.3901 -0.6138
  568MPD2    H3 8430   0.639   0.047  16.259  1.0941  0.8852 -1.0553
  568MPD2     N 8431   0.697   0.461  16.403  0.0687 -0.3842 -0.1479
  568MPD2    H5 8432   0.643   0.486  16.320  1.1787 -1.2918 -1.1463
  568MPD2    N1 8433   0.828   0.054  16.663  0.3855 -0.5112  0.0320
  568MPD2    H7 8434   0.829   4.676  16.654 -1.0456 -0.3329 -2.1403
  569TMC3    C1 8435   0.749   0.685  16.386 -0.2463  0.1135  0.8175
  569TMC3    C2 8436   0.842   0.783  16.415  0.2434 -0.4678 -0.1340
  569TMC3    C3 8437   0.832   0.899  16.336  0.4738 -0.0541  0.1322
  569TMC3    C4 8438   0.655   0.702  16.286 -0.5694 -0.1420 -0.8942
  569TMC3    C5 8439   0.647   0.818  16.223  0.2865 -0.0228 -0.5416
  569TMC3    C6 8440   0.735   0.922  16.246 -0.2341  0.6466  0.1221
  569TMC3     C 8441   0.764   0.564  16.465 -0.4405 -0.0501 -0.3003
  569TMC3     O 8442   0.857   0.547  16.541 -0.4158  0.5222  0.5036
  569TMC3     H 8443   0.913   0.777  16.496 -0.8051 -2.1597  0.6801
  569TMC3    H1 8444   0.594   0.620  16.250  0.3892 -1.3081  0.1361
  569TMC3    H2 8445   0.703   1.025  16.232  0.9685  1.2529  1.8233
  569TMC3    C7 8446   0.587   0.811  16.092 -0.0955 -0.0920 -0.5959
  569TMC3    C8 8447   0.933   1.003  16.339  0.5581  0.1228 -0.7076
  569TMC3    O1 8448   0.509   0.723  16.063 -0.2411  0.1402  0.4115
  569TMC3    O2 8449   0.903   1.094  16.261  0.0769  0.5071  0.4385
  570TMC3    C1 8450   0.575   3.824  16.133 -0.2622  0.0981  0.3868
  570TMC3    C2 8451   0.651   3.853  16.028  0.4170 -0.3739  0.8946
  570TMC3    C3 8452   0.667   3.984  15.995 -0.1934  0.1513  0.0645
  570TMC3    C4 8453   0.501   3.923  16.195 -0.2042  0.2919 -0.1173
  570TMC3    C5 8454   0.502   4.048  16.154 -0.3406 -0.4698  0.2110
  570TMC3    C6 8455   0.603   4.078  16.064 -0.4348  0.2929  0.6966
  570TMC3     C 8456   0.601   3.696  16.200  0.0786 -0.1456  0.0761
  570TMC3     O 8457   0.693   3.630  16.153  0.4699  0.0949 -0.0025
  570TMC3     H 8458   0.712   3.778  15.979  0.5117  0.0735  0.3204
  570TMC3    H1 8459   0.426   3.906  16.272  0.9026  1.8970  1.3378
  570TMC3    H2 8460   0.622   4.181  16.037 -2.6688  0.5218  0.0347
  570TMC3    C7 8461   0.455   4.155  16.244 -1.1286 -0.1960 -0.5338
  570TMC3    C8 8462   0.780   4.026  15.899 -0.3331  0.4519 -0.0726
  570TMC3    O1 8463   0.456   4.127  16.361 -0.8256  0.2613 -0.0293
  570TMC3    O2 8464   0.766   4.136  15.841 -0.1153 -0.3986 -0.2925
  571MPD2     C 8465   2.297   0.347   0.613 -0.5327 -0.1680  0.6041
  571MPD2    C1 8466   2.386   0.340   0.716 -0.1832 -0.4516  0.3782
  571MPD2    C2 8467   2.437   0.458   0.757 -0.2217 -0.2864  0.2913
  571MPD2    C3 8468   2.393   0.581   0.703  0.2013 -0.7210 -0.1792
  571MPD2    C4 8469   2.306   0.583   0.601 -0.8364 -0.6139 -0.6868
  571MPD2    C5 8470   2.269   0.464   0.544  0.0756 -0.1692 -0.0496
  571MPD2     H 8471   2.508   0.459   0.840  0.2773  1.2586 -0.1402
  571MPD2    H1 8472   2.267   0.679   0.568 -0.1722 -0.1100  0.0070
  571MPD2    H2 8473   2.235   0.262   0.587  1.8333 -2.1368  1.4091
  571MPD2    H3 8474   2.204   0.472   0.457 -0.8401  0.3098  0.6807
  571MPD2     N 8475   2.443   0.709   0.748 -0.5020  0.3220 -0.8272
  571MPD2    H5 8476   2.410   0.796   0.707 -0.1008  0.5773 -0.6019
  571MPD2    N1 8477   2.424   0.214   0.757 -0.4354 -0.5948  0.3006
  571MPD2    H7 8478   2.377   0.133   0.716  1.1547 -2.3608  1.9278
  572TMC3    C1 8479   2.515   0.867   0.904 -0.0933  0.5043  0.0761
  572TMC3    C2 8480   2.557   0.889   1.030 -0.2342  0.5498  0.5596
  572TMC3    C3 8481   2.635   1.000   1.053 -0.0470  0.9487  0.1918
  572TMC3    C4 8482   2.539   0.956   0.802  0.3257 -0.8200  0.4000
  572TMC3    C5 8483   2.608   1.071   0.828 -0.3926  0.1064  0.0664
  572TMC3    C6 8484   2.645   1.101   0.957 -0.4559  0.0167 -0.1176
  572TMC3     C 8485   2.497   0.727   0.870  0.5212 -0.0753 -0.1846
  572TMC3     O 8486   2.507   0.649   0.963 -0.0809  0.3338 -0.4582
  572TMC3     H 8487   2.540   0.815   1.107  0.4978 -1.1981 -0.9525
  572TMC3    H1 8488   2.504   0.944   0.700 -0.0548  0.1772  0.4162
  572TMC3    H2 8489   2.687   1.199   0.978 -1.6948  0.2841  1.0649
  572TMC3    C7 8490   2.663   1.135   0.715 -0.7675  0.3354  0.0190
  572TMC3    C8 8491   2.706   1.019   1.179  0.2470  1.0174 -0.9600
  572TMC3    O1 8492   2.604   1.129   0.606  0.0908 -0.1610  0.4590
  572TMC3    O2 8493   2.774   1.120   1.189 -0.3850  0.2586 -0.1027
  573MPD2     C 8494   4.547   1.721   1.368 -0.0047  0.0127 -0.5219
  573MPD2    C1 8495   4.441   1.802   1.331  0.2209  0.7360  0.2881
  573MPD2    C2 8496   4.375   1.777   1.217  0.4745 -0.4080  1.1934
  573MPD2    C3 8497   4.411   1.661   1.142 -0.5092 -0.1820  0.2932
  573MPD2    C4 8498   4.518   1.580   1.177 -0.0041 -0.2152  0.3246
  573MPD2    C5 8499   4.590   1.624   1.289  0.4371 -0.3292 -0.3077
  573MPD2     H 8500   4.304   1.852   1.183 -0.4686 -0.8186  2.2632
  573MPD2    H1 8501   4.547   1.498   1.112 -1.6322 -0.4285 -0.1513
  573MPD2    H2 8502   4.603   1.742   1.458 -1.2451 -0.6274  0.3996
  573MPD2    H3 8503   4.676   1.564   1.317  0.3124  0.3765  1.6165
  573MPD2     N 8504   4.344   1.620   1.022  0.3284 -0.0486  0.3462
  573MPD2    H5 8505   4.373   1.542   0.964 -3.1598 -0.6277 -0.5989
  573MPD2    N1 8506   4.393   1.904   1.424 -0.0437  0.3301 -0.3169
  573MPD2    H7 8507   4.444   1.922   1.511  0.4914  2.6570 -1.0962
  574TMC3    C1 8508   4.182   1.614   0.849  0.1667  0.4300 -0.0608
  574TMC3    C2 8509   4.047   1.590   0.847  0.2421 -0.1783 -0.1117
  574TMC3    C3 8510   4.003   1.545   0.726  0.0507  0.7113 -0.6678
  574TMC3    C4 8511   4.272   1.580   0.753 -0.4041  0.1281 -0.2869
  574TMC3    C5 8512   4.218   1.515   0.643  0.7227  0.1239  0.6613
  574TMC3    C6 8513   4.082   1.509   0.626  0.0532  0.5284 -0.2257
  574TMC3     C 8514   4.228   1.673   0.975  0.8318  0.1225  0.4311
  574TMC3     O 8515   4.151   1.742   1.042  0.0978 -0.1492 -0.1285
  574TMC3     H 8516   3.982   1.641   0.917  1.3021  2.3660 -0.9516
  574TMC3    H1 8517   4.380   1.590   0.764 -0.5264  0.9833  0.0876
  574TMC3    H2 8518   4.044   1.464   0.535 -0.9521 -0.5478  0.7255
  574TMC3    C7 8519   4.307   1.533   0.532  0.9543 -0.3394  0.1364
  574TMC3    C8 8520   3.864   1.571   0.705  0.2359 -0.5415  0.2054
  574TMC3    O1 8521   4.428   1.535   0.554 -0.4699 -0.0816  0.2853
  574TMC3    O2 8522   3.788   1.555   0.799  0.2244 -0.6047  0.4794
  575TMC3    C1 8523   1.670   2.002  11.182  0.6701  0.6642 -0.7709
  575TMC3    C2 8524   1.653   1.872  11.138 -0.2505  0.6836 -0.0715
  575TMC3    C3 8525   1.642   1.855  11.005 -0.5580 -0.1561  1.1113
  575TMC3    C4 8526   1.685   2.108  11.094  0.3509  0.3933 -0.2703
  575TMC3    C5 8527   1.670   2.081  10.958 -0.1740 -0.8667  0.3419
  575TMC3    C6 8528   1.655   1.947  10.910 -0.1564  0.4884 -0.0250
  575TMC3     C 8529   1.686   2.028  11.324 -1.0615 -0.3311  0.4385
  575TMC3     O 8530   1.730   1.935  11.394  0.9192 -0.3876 -0.1260
  575TMC3     H 8531   1.629   1.795  11.211 -0.7147  1.1725  0.2964
  575TMC3    H1 8532   1.698   2.207  11.137  0.9582  0.9243 -1.6757
  575TMC3    H2 8533   1.667   1.918  10.807 -0.0771 -1.1100  0.4355
  575TMC3    C7 8534   1.684   2.183  10.856 -0.8559 -0.6238 -0.1215
  575TMC3    C8 8535   1.593   1.721  10.974 -0.7313  1.1929  0.1444
  575TMC3    O1 8536   1.675   2.156  10.740 -0.4529 -0.2149  0.0427
  575TMC3    O2 8537   1.628   1.629  11.048  0.1597 -0.1076  0.5287
  576MPD2     C 8538   1.257   3.674  12.607 -0.8768 -0.1213 -0.5778
  576MPD2    C1 8539   1.295   3.775  12.522  0.1431  0.2442 -0.3349
  576MPD2    C2 8540   1.247   3.904  12.541 -0.1444 -0.0085  0.1357
  576MPD2    C3 8541   1.171   3.932  12.650  0.8619  0.9129 -0.8517
  576MPD2    C4 8542   1.128   3.829  12.730  0.3710  0.4914 -0.0682
  576MPD2    C5 8543   1.169   3.702  12.711 -0.6459  0.7869  0.4780
  576MPD2     H 8544   1.268   3.987  12.475 -0.9903  0.2125  0.1571
  576MPD2    H1 8545   1.062   3.842  12.816  0.1850 -2.1533  0.2057
  576MPD2    H2 8546   1.260   3.568  12.583  1.1676 -0.7782  2.5678
  576MPD2    H3 8547   1.132   3.624  12.777 -1.2694  0.3187 -0.4289
  576MPD2     N 8548   1.126   4.064  12.670  0.3450  0.0271  0.4556
  576MPD2    H5 8549   1.178   4.139  12.625 -1.3799 -0.4854 -2.3437
  576MPD2    N1 8550   1.377   3.745  12.407  0.1932 -0.2985  0.5543
  576MPD2    H7 8551   1.395   3.822  12.344  1.9704 -1.2565 -0.0917
  577TMC3    C1 8552   1.501   3.626  12.252 -0.6130 -0.2830  0.2991
  577TMC3    C2 8553   1.593   3.533  12.229  0.4614  1.3380  0.2890
  577TMC3    C3 8554   1.638   3.509  12.110 -1.4235 -0.3983 -0.2609
  577TMC3    C4 8555   1.435   3.684  12.146  0.5155 -0.5270 -0.7769
  577TMC3    C5 8556   1.477   3.650  12.024  0.2749  0.3533  0.1433
  577TMC3    C6 8557   1.580   3.563  12.002 -0.0814 -0.4988 -0.2011
  577TMC3     C 8558   1.448   3.631  12.391 -0.2928 -0.0259  0.2223
  577TMC3     O 8559   1.482   3.548  12.474 -0.8200 -0.2618 -0.2736
  577TMC3     H 8560   1.647   3.487  12.311 -1.5602 -3.6097 -1.1527
  577TMC3    H1 8561   1.375   3.774  12.162  1.3293  0.3558 -2.6873
  577TMC3    H2 8562   1.620   3.558  11.901  1.4323  3.1736  0.2314
  577TMC3    C7 8563   1.385   3.618  11.911 -0.2352  0.6032  0.0979
  577TMC3    C8 8564   1.725   3.391  12.107 -0.0439 -0.2883  0.4993
  577TMC3    O1 8565   1.408   3.518  11.844  0.7032 -0.0991 -0.1953
  577TMC3    O2 8566   1.732   3.317  12.199  0.1021 -0.3688 -0.3389
  578MPD2     C 8567   4.366   4.536   0.819  0.2274 -0.1350  0.0429
  578MPD2    C1 8568   4.386   4.413   0.760  0.1207 -0.1581 -0.1791
  578MPD2    C2 8569   4.434   4.310   0.832  0.4827 -0.6689 -0.3656
  578MPD2    C3 8570   4.443   4.321   0.969 -0.4527 -0.1480 -0.2663
  578MPD2    C4 8571   4.416   4.443   1.031  0.9559  0.9347  0.1316
  578MPD2    C5 8572   4.381   4.554   0.955 -0.3154 -0.2298 -0.0349
  578MPD2     H 8573   4.477   4.225   0.781 -2.8706 -2.1129 -0.7306
  578MPD2    H1 8574   4.440   4.458   1.135 -1.8299 -0.8798  1.0338
  578MPD2    H2 8575   4.345   4.627   0.764  0.1173 -0.5624 -0.6220
  578MPD2    H3 8576   4.373   4.651   1.002  0.0654 -0.6867  0.9735
  578MPD2     N 8577   4.482   4.205   1.044  0.4610  0.6116  0.0924
  578MPD2    H5 8578   4.501   4.122   0.990  0.2574  1.4635 -1.2834
  578MPD2    N1 8579   4.361   4.402   0.625  0.4392 -0.2671  0.2995
  578MPD2    H7 8580   4.332   4.487   0.577  1.0244  1.2820  2.6999
  579TMC3    C1 8581   4.598   4.089   1.212  0.4574  0.4530 -0.2388
  579TMC3    C2 8582   4.682   4.117   1.319 -1.4188 -0.5081  0.4459
  579TMC3    C3 8583   0.047   4.022   1.357  0.4326 -0.1179  0.4634
  579TMC3    C4 8584   4.582   3.962   1.162 -0.4145 -0.2105 -0.0931
  579TMC3    C5 8585   4.658   3.869   1.219  0.4757 -0.0069 -0.4793
  579TMC3    C6 8586   0.039   3.891   1.308  0.2202  0.0708 -0.4424
  579TMC3     C 8587   4.525   4.207   1.177 -0.1051 -0.2810 -0.1030
  579TMC3     O 8588   4.513   4.283   1.271 -0.3670  0.3626 -0.1184
  579TMC3     H 8589   4.683   4.215   1.366  2.3490 -0.1548 -0.3841
  579TMC3    H1 8590   4.505   3.947   1.088  0.5381 -1.7930 -0.7645
  579TMC3    H2 8591   0.107   3.811   1.331 -0.0654  0.2849  1.1065
  579TMC3    C7 8592   4.636   3.733   1.183 -0.6224 -0.1664  0.5477
  579TMC3    C8 8593   0.095   4.030   1.491 -0.1458  0.5716  0.3818
  579TMC3    O1 8594   4.721   3.654   1.225  0.2722  0.0176  0.7675
  579TMC3    O2 8595   0.044   4.112   1.562 -0.1085 -0.0810 -0.0891
  580TMC3    C1 8596   4.233   2.437  11.458 -0.2815  0.3155 -0.0874
  580TMC3    C2 8597   4.350   2.482  11.398 -0.5071  0.4289  0.3185
  580TMC3    C3 8598   4.458   2.496  11.485  0.3558  0.0026 -0.0845
  580TMC3    C4 8599   4.225   2.410  11.592 -0.7407 -0.0338  0.2102
  580TMC3    C5 8600   4.339   2.423  11.673 -0.5998 -0.1656  0.2318
  580TMC3    C6 8601   4.451   2.474  11.618 -0.3170 -0.4350  0.2429
  580TMC3     C 8602   4.114   2.504  11.389  0.0727  0.6871 -0.2632
  580TMC3     O 8603   4.119   2.531  11.271 -0.1076  0.6645 -0.9399
  580TMC3     H 8604   4.356   2.491  11.290 -0.8435  0.1177  0.2743
  580TMC3    H1 8605   4.124   2.379  11.616 -1.3367  1.6308 -0.1308
  580TMC3    H2 8606   4.542   2.490  11.676  1.2224 -4.1428 -1.1197
  580TMC3    C7 8607   4.340   2.389  11.818  0.0898  0.4503  0.4220
  580TMC3    C8 8608   4.589   2.540  11.431  0.4543  0.6467  0.3755
  580TMC3    O1 8609   4.431   2.440  11.884 -0.3995 -0.3407 -0.5000
  580TMC3    O2 8610   4.677   2.563  11.514 -0.2638 -0.2495  0.0248
  581MPD2     C 8611   2.141   2.650  14.745 -0.7391  0.6594  0.3709
  581MPD2    C1 8612   2.163   2.768  14.818  0.3270  0.0866  0.0556
  581MPD2    C2 8613   2.062   2.864  14.823 -0.3209 -0.7390  0.1704
  581MPD2    C3 8614   1.937   2.840  14.763  0.2208  0.0267  0.6425
  581MPD2    C4 8615   1.925   2.723  14.695 -0.1379  0.6348 -0.7775
  581MPD2    C5 8616   2.026   2.633  14.680  0.2347 -0.2205 -0.1957
  581MPD2     H 8617   2.076   2.961  14.869 -0.2072  0.8117 -3.0814
  581MPD2    H1 8618   1.832   2.706  14.642  0.3751 -3.2042 -0.3973
  581MPD2    H2 8619   2.204   2.562  14.747 -1.7782 -0.1642 -3.1754
  581MPD2    H3 8620   2.005   2.540  14.628 -1.0266  1.4541 -2.6434
  581MPD2     N 8621   1.827   2.934  14.766 -0.1382 -0.0440 -0.9251
  581MPD2    H5 8622   1.852   3.031  14.786 -0.5776 -0.6338  2.4756
  581MPD2    N1 8623   2.285   2.780  14.890  0.3745 -0.1553 -0.7586
  581MPD2    H7 8624   2.339   2.695  14.875  1.1313  0.0785  0.6459
  582TMC3    C1 8625   2.443   2.833  15.052  0.0307  0.2741 -0.0294
  582TMC3    C2 8626   2.448   2.856  15.188 -1.0084 -0.0737 -0.8278
  582TMC3    C3 8627   2.502   2.745  15.255 -0.5425  0.5239  0.3371
  582TMC3    C4 8628   2.517   2.736  14.990 -0.2832 -0.0694  0.3870
  582TMC3    C5 8629   2.553   2.628  15.065 -0.1466  0.2572 -0.1693
  582TMC3    C6 8630   2.562   2.636  15.200  0.0856 -0.2000  0.3516
  582TMC3     C 8631   2.321   2.874  14.986  0.1203 -0.5185 -0.0699
  582TMC3     O 8632   2.253   2.969  15.026  0.1078 -0.2982 -0.1430
  582TMC3     H 8633   2.396   2.934  15.242  0.3725 -0.3150  0.8521
  582TMC3    H1 8634   2.522   2.721  14.882  0.8549  0.8609  0.3165
  582TMC3    H2 8635   2.570   2.547  15.261 -3.0160 -1.0404 -0.4615
  582TMC3    C7 8636   2.457   2.528  15.031 -0.8251  0.1678  0.2544
  582TMC3    C8 8637   2.504   2.756  15.401 -0.6975  1.2965 -0.0027
  582TMC3    O1 8638   2.441   2.512  14.910  0.4106 -0.2803 -0.0891
  582TMC3    O2 8639   2.430   2.836  15.458 -0.4803  0.6248  0.5623
  583MPD2     C 8640   2.237   3.998  16.879 -0.1689  0.1528  0.0889
  583MPD2    C1 8641   2.232   4.122  16.811  0.0709 -0.2784 -0.1177
  583MPD2    C2 8642   2.176   4.231  16.877  0.4297 -0.2686 -0.6313
  583MPD2    C3 8643   2.134   4.222  17.005 -0.3608  0.1302 -0.1242
  583MPD2    C4 8644   2.139   4.099  17.069  0.1850  0.2855  0.4088
  583MPD2    C5 8645   2.192   3.987  17.005  0.0705  0.0806  0.6324
  583MPD2     H 8646   2.171   4.329  16.831  1.0198 -1.1120 -2.4944
  583MPD2    H1 8647   2.095   4.085  17.167  0.9885 -0.2419  0.6951
  583MPD2    H2 8648   2.279   3.902  16.853 -0.0815 -0.1610  1.3778
  583MPD2    H3 8649   2.187   3.886  17.046 -1.0688  0.2834  0.9878
  583MPD2     N 8650   2.079   4.337  17.069 -0.0870 -0.2133 -0.8593
  583MPD2    H5 8651   2.059   4.412  17.004 -1.3838 -1.9414 -2.4592
  583MPD2    N1 8652   2.295   4.144  16.685 -0.0932 -0.6756 -0.0235
  583MPD2    H7 8653   2.325   4.237  16.659  0.0335 -0.9932 -1.0110
  584TMC3    C1 8654   1.998   4.481  17.245 -0.1143  0.1411 -0.3999
  584TMC3    C2 8655   2.047   4.596  17.185  0.3399 -0.3537 -0.0987
  584TMC3    C3 8656   2.021   4.711  17.254  0.4925 -0.5516  0.5606
  584TMC3    C4 8657   1.931   4.482  17.367 -0.9074  0.8999  0.0433
  584TMC3    C5 8658   1.902   4.600  17.422  0.0608 -0.0766 -0.6237
  584TMC3    C6 8659   1.955   4.714  17.377  0.4118 -0.4150  0.0294
  584TMC3     C 8660   2.046   4.349  17.202 -0.7110 -0.6828 -0.0735
  584TMC3     O 8661   2.046   4.265  17.289  0.3499  0.0713  0.2631
  584TMC3     H 8662   2.097   4.601  17.089  0.0350  0.9099 -0.1942
  584TMC3    H1 8663   1.874   4.395  17.397  0.7363  0.2899  1.3291
  584TMC3    H2 8664   1.971   0.066  17.454 -1.3813  0.5273 -0.4952
  584TMC3    C7 8665   1.852   4.598  17.556 -0.0960  0.3752  0.2453
  584TMC3    C8 8666   2.047   0.108  17.180 -0.6722  0.6333  0.0249
  584TMC3    O1 8667   1.882   4.494  17.619  0.2238 -0.0510  0.0480
  584TMC3    O2 8668   2.066   0.094  17.058 -0.4915  0.3770  0.1168
  585MPD2     C 8669   1.373   3.420   0.969 -0.2554  0.5617 -0.0504
  585MPD2    C1 8670   1.444   3.482   0.871  0.1504  0.1261 -0.3336
  585MPD2    C2 8671   1.452   3.429   0.750  0.9357 -0.0283  0.1013
  585MPD2    C3 8672   1.377   3.314   0.719 -0.2879 -0.4954  0.5963
  585MPD2    C4 8673   1.304   3.255   0.814 -0.0259 -0.1401 -0.2103
  585MPD2    C5 8674   1.298   3.311   0.941  0.0965 -0.6738  0.5002
  585MPD2     H 8675   1.500   3.475   0.664  0.4470  2.4129  1.1306
  585MPD2    H1 8676   1.247   3.166   0.793 -2.8591  1.7996 -0.6342
  585MPD2    H2 8677   1.354   3.466   1.066 -1.1345  0.1579 -0.0350
  585MPD2    H3 8678   1.240   3.259   1.017  1.1966  0.4243  2.0866
  585MPD2     N 8679   1.377   3.268   0.592  0.0287 -1.1223 -0.2670
  585MPD2    H5 8680   1.416   3.332   0.524  0.2029  0.1839  1.0724
  585MPD2    N1 8681   1.501   3.608   0.902  0.1488  0.5053  0.2076
  585MPD2    H7 8682   1.479   3.662   0.985 -1.3205  0.8393 -0.3870
  586TMC3    C1 8683   1.271   3.171   0.402  0.4494 -0.1047  0.1605
  586TMC3    C2 8684   1.304   3.069   0.313 -1.1414  0.1139 -0.0309
  586TMC3    C3 8685   1.314   3.106   0.180 -0.0314 -0.6869 -0.2079
  586TMC3    C4 8686   1.236   3.293   0.356 -0.4375 -0.1538 -0.3245
  586TMC3    C5 8687   1.247   3.322   0.220 -0.4523  0.3792 -0.2399
  586TMC3    C6 8688   1.294   3.233   0.132  0.4809 -0.0788  0.0183
  586TMC3     C 8689   1.307   3.158   0.542  0.1026  0.0388  0.0510
  586TMC3     O 8690   1.268   3.056   0.598 -0.1790  0.3139  0.0742
  586TMC3     H 8691   1.309   2.966   0.347  1.1959  0.0618 -0.5531
  586TMC3    H1 8692   1.203   3.367   0.428 -1.1253 -1.3341  0.5671
  586TMC3    H2 8693   1.293   3.260   0.027 -1.9048  1.2566  0.4039
  586TMC3    C7 8694   1.119   3.379   0.172 -0.1198 -0.4833 -0.0013
  586TMC3    C8 8695   1.294   2.995   0.088 -0.4477  0.5998 -0.0506
  586TMC3    O1 8696   1.016   3.328   0.224  0.5065  0.3423  0.0413
  586TMC3    O2 8697   1.340   2.890   0.121  0.3132  0.4152  0.0464
  587TMC3    C1 8698   4.095   2.239  16.492 -0.2546 -0.1858  0.5566
  587TMC3    C2 8699   4.036   2.361  16.463 -0.1745  0.1287 -0.2519
  587TMC3    C3 8700   4.089   2.440  16.364  0.7194  0.1184 -0.2213
  587TMC3    C4 8701   4.216   2.200  16.429 -0.6140  0.2326  0.2262
  587TMC3    C5 8702   4.270   2.285  16.337  0.4229  0.4734  0.3097
  587TMC3    C6 8703   4.202   2.405  16.302 -0.0078 -1.0365 -0.4736
  587TMC3     C 8704   4.041   2.158  16.595  0.1838  0.0173 -0.0250
  587TMC3     O 8705   4.115   2.060  16.629 -0.0009  0.4715 -0.0631
  587TMC3     H 8706   3.953   2.404  16.517 -3.1028 -1.4790 -3.4594
  587TMC3    H1 8707   4.239   2.094  16.423 -0.1752  0.3827 -0.8566
  587TMC3    H2 8708   4.255   2.468  16.231  0.5526 -0.2517  0.6293
  587TMC3    C7 8709   4.395   2.256  16.266  1.3016  0.0899 -0.0284
  587TMC3    C8 8710   4.044   2.574  16.338  0.5073 -0.5287  0.5945
  587TMC3    O1 8711   4.419   2.326  16.167 -0.2541  0.5076  0.5431
  587TMC3    O2 8712   4.115   2.641  16.267  0.2127 -0.0967  0.9641
  588TMC3    C1 8713   0.320   4.237   9.324  0.1915 -0.0603  0.3777
  588TMC3    C2 8714   0.353   4.124   9.389 -0.0860 -0.1081  0.0894
  588TMC3    C3 8715   0.484   4.084   9.406 -0.1091 -0.3790 -0.3973
  588TMC3    C4 8716   0.419   4.315   9.265 -0.3843  0.5709  0.3987
  588TMC3    C5 8717   0.552   4.282   9.295 -0.2995  0.1141  0.2526
  588TMC3    C6 8718   0.581   4.171   9.369 -0.3442 -0.0527 -0.1634
  588TMC3     C 8719   0.216   4.312   9.393 -0.6111 -0.2574 -0.4685
  588TMC3     O 8720   0.124   4.256   9.450 -0.2642 -0.1040  0.1875
  588TMC3     H 8721   0.276   4.065   9.438  1.4903 -1.9377  0.3570
  588TMC3    H1 8722   0.396   4.402   9.204 -0.7826  1.6003  2.0450
  588TMC3    H2 8723   0.683   4.136   9.383 -0.1803  0.0678 -1.0772
  588TMC3    C7 8724   0.620   4.404   9.322 -0.3411  0.8062 -0.2104
  588TMC3    C8 8725   0.521   3.955   9.454  0.7206 -0.5050  0.0578
  588TMC3    O1 8726   0.562   4.504   9.286 -0.1886  0.0479 -0.4274
  588TMC3    O2 8727   0.432   3.870   9.447 -0.0234 -0.2062  0.0672
  589TMC3    C1 8728   4.657   2.855   1.681  0.6800 -0.0502 -0.2007
  589TMC3    C2 8729   0.049   2.881   1.746 -0.0110 -0.2359  0.0576
  589TMC3    C3 8730   0.168   2.816   1.708 -0.0585  0.8806  0.0575
  589TMC3    C4 8731   4.656   2.778   1.571 -0.4186 -0.0631  1.0513
  589TMC3    C5 8732   0.051   2.716   1.531  0.1378 -0.4458  0.7528
  589TMC3    C6 8733   0.173   2.737   1.591  0.0489  0.9795  0.3824
  589TMC3     C 8734   4.538   2.938   1.705 -0.1613  0.5395 -0.5649
  589TMC3     O 8735   4.469   2.953   1.607 -0.0699 -0.7524  0.0515
  589TMC3     H 8736   0.058   2.965   1.813  1.6738 -0.5492  0.2265
  589TMC3    H1 8737   4.565   2.751   1.518 -0.1356 -0.9221  1.0071
  589TMC3    H2 8738   0.265   2.697   1.552  0.6908  1.6308  1.2392
  589TMC3    C7 8739   0.056   2.629   1.409 -0.5843 -0.1057 -0.0724
  589TMC3    C8 8740   0.279   2.880   1.780 -0.6243 -0.0600 -0.1474
  589TMC3    O1 8741   0.164   2.585   1.372 -0.6163  0.7821  0.7742
  589TMC3    O2 8742   0.271   2.978   1.850 -0.2818 -0.3798  0.1968
  590MPD2     C 8743   4.671   0.812  16.928 -0.6909 -0.5637 -0.0469
  590MPD2    C1 8744   4.599   0.783  16.815  0.2940 -0.0617 -0.2812
  590MPD2    C2 8745   4.660   0.812  16.695 -0.1492  0.0986  0.4117
  590MPD2    C3 8746   0.070   0.859  16.691 -0.4118 -0.3519  0.1161
  590MPD2    C4 8747   0.137   0.879  16.809 -0.2817 -0.0466  0.4025
  590MPD2    C5 8748   0.080   0.850  16.929  0.8290  0.5396  0.3146
  590MPD2     H 8749   4.591   0.806  16.611  0.4379  0.9132 -0.1176
  590MPD2    H1 8750   0.239   0.915  16.813 -0.4238  0.2937  1.0282
  590MPD2    H2 8751   4.621   0.799  17.023  2.6786  0.7981  1.8793
  590MPD2    H3 8752   0.139   0.872  17.018  2.8205 -1.0919 -0.5861
  590MPD2     N 8753   0.129   0.892  16.571  0.3355  0.1549  0.4250
  590MPD2    H5 8754   0.068   0.894  16.490  0.9471 -1.0937 -0.0550
  590MPD2    N1 8755   4.476   0.717  16.829  0.7220  0.1286 -0.1737
  590MPD2    H7 8756   4.429   0.710  16.919  1.2024 -1.2474 -0.0339
  591TMC3    C1 8757   0.295   0.978  16.418 -0.2154  0.3042  0.7475
  591TMC3    C2 8758   0.235   0.918  16.310  0.4258 -0.1608  0.1644
  591TMC3    C3 8759   0.245   0.972  16.184  0.4610 -0.2349  0.6348
  591TMC3    C4 8760   0.370   1.091  16.394 -0.2338  0.3389 -0.7151
  591TMC3    C5 8761   0.378   1.143  16.262  0.8247 -0.5242 -0.0866
  591TMC3    C6 8762   0.316   1.084  16.158  1.1851  0.2971  0.3810
  591TMC3     C 8763   0.256   0.945  16.555 -0.3629 -0.0295  1.4139
  591TMC3     O 8764   0.336   0.989  16.630  0.4717 -0.4774 -0.2268
  591TMC3     H 8765   0.168   0.836  16.332  0.8017 -0.5779 -0.2477
  591TMC3    H1 8766   0.420   1.143  16.474  1.9119 -1.8449 -0.6744
  591TMC3    H2 8767   0.340   1.115  16.057 -0.9394  0.1933 -0.1683
  591TMC3    C7 8768   0.488   1.236  16.239 -0.2426  0.2526  0.1983
  591TMC3    C8 8769   0.193   0.881  16.082  0.0595  0.0302 -0.3996
  591TMC3    O1 8770   0.549   1.261  16.337  0.0132 -0.0895 -0.5175
  591TMC3    O2 8771   0.156   0.776  16.124 -0.0527  0.2023  0.6151
  592MPD2     C 8772   0.701   2.604  11.203 -0.7313 -0.6018  0.9110
  592MPD2    C1 8773   0.648   2.676  11.307 -0.0193 -0.1673 -0.2887
  592MPD2    C2 8774   0.562   2.615  11.392  0.6342 -0.7599 -0.0516
  592MPD2    C3 8775   0.529   2.481  11.389  0.3857  0.4122 -0.4007
  592MPD2    C4 8776   0.586   2.408  11.283 -0.1001 -0.2398 -0.2086
  592MPD2    C5 8777   0.663   2.467  11.194 -0.2391 -0.1980  0.1879
  592MPD2     H 8778   0.510   2.672  11.467  1.9055  0.9075 -0.4370
  592MPD2    H1 8779   0.579   2.300  11.277 -0.9391 -0.2065  0.1453
  592MPD2    H2 8780   0.745   2.648  11.114 -1.0338 -2.0053  0.0610
  592MPD2    H3 8781   0.707   2.406  11.116 -2.1813  0.7155 -1.6102
  592MPD2     N 8782   0.427   2.432  11.470  0.8995  0.4919  0.7436
  592MPD2    H5 8783   0.386   2.502  11.530 -0.7841 -0.0360  0.2178
  592MPD2    N1 8784   0.693   2.815  11.319  0.2705  0.0657  0.4235
  592MPD2    H7 8785   0.762   2.850  11.254 -0.3830 -0.2862 -0.4677
  593TMC3    C1 8786   0.734   3.032  11.407  0.5313 -0.5579  0.5991
  593TMC3    C2 8787   0.757   3.094  11.529 -0.2086  0.9233  0.2327
  593TMC3    C3 8788   0.841   3.200  11.527 -0.1234  0.1020 -0.0644
  593TMC3    C4 8789   0.766   3.088  11.286 -0.6817 -0.1027  0.0850
  593TMC3    C5 8790   0.835   3.203  11.288  0.0628  0.8131  0.5101
  593TMC3    C6 8791   0.877   3.257  11.406  0.0641 -0.0685 -0.1370
  593TMC3     C 8792   0.660   2.907  11.416  0.1924 -0.4024 -0.3917
  593TMC3     O 8793   0.591   2.893  11.513  0.3312 -0.1451  0.0572
  593TMC3     H 8794   0.723   3.042  11.617 -1.2013 -0.7323 -1.1123
  593TMC3    H1 8795   0.724   3.055  11.192  3.0991  0.6362 -1.8505
  593TMC3    H2 8796   0.938   3.347  11.409  1.1916 -0.8801  1.7025
  593TMC3    C7 8797   0.895   3.264  11.165  0.2677 -0.0822  0.2162
  593TMC3    C8 8798   0.906   3.225  11.651 -0.0727  0.0759  0.0422
  593TMC3    O1 8799   0.971   3.361  11.177  0.4161 -0.0870 -0.0742
  593TMC3    O2 8800   0.916   3.131  11.732  0.0763  0.3109 -0.0195
  594MPD2     C 8801   3.528   1.441  14.169  0.7961 -0.0574 -0.1255
  594MPD2    C1 8802   3.581   1.424  14.297  0.4028 -0.0574  0.1653
  594MPD2    C2 8803   3.694   1.489  14.329 -0.5976 -0.2961  0.3666
  594MPD2    C3 8804   3.751   1.567  14.231  0.2368 -0.6021 -0.4235
  594MPD2    C4 8805   3.709   1.560  14.101 -0.1214  0.3447 -0.2712
  594MPD2    C5 8806   3.597   1.490  14.065 -0.6515 -0.6374 -0.2184
  594MPD2     H 8807   3.743   1.480  14.425 -0.3701 -1.0288  0.1793
  594MPD2    H1 8808   3.752   1.616  14.019 -0.2630  0.4555 -0.2689
  594MPD2    H2 8809   3.439   1.387  14.141  0.6149  0.9091 -1.4254
  594MPD2    H3 8810   3.558   1.478  13.964 -0.2895 -0.1476 -0.4198
  594MPD2     N 8811   3.869   1.639  14.267  0.3388 -0.1050 -0.3702
  594MPD2    H5 8812   3.881   1.647  14.368  0.0156  1.6298 -0.4841
  594MPD2    N1 8813   3.500   1.335  14.380 -0.1704  0.5167  0.2069
  594MPD2    H7 8814   3.415   1.297  14.339 -0.3919  2.6407 -1.3151
  595TMC3    C1 8815   4.217   1.931  14.250 -0.3657  0.5260 -0.1564
  595TMC3    C2 8816   4.144   1.841  14.184  0.2747 -0.4823 -0.2627
  595TMC3    C3 8817   4.015   1.819  14.232  0.0515  0.8122  0.0536
  595TMC3    C4 8818   4.178   1.992  14.364 -0.6591 -0.6536  0.1577
  595TMC3    C5 8819   4.049   1.976  14.403 -0.4233 -0.0039 -0.1969
  595TMC3    C6 8820   3.967   1.885  14.337  0.0676 -0.0223 -0.4683
  595TMC3     C 8821   4.361   1.921  14.243  0.4443  1.1057  0.0262
  595TMC3     O 8822   4.416   1.952  14.349  0.0419  0.2712 -0.2928
  595TMC3     H 8823   4.184   1.780  14.104  1.3125 -1.6008  1.1087
  595TMC3    H1 8824   4.237   2.064  14.418 -2.1533  0.4317  0.3620
  595TMC3    H2 8825   3.864   1.869  14.365 -0.5587  1.0291 -2.2208
  595TMC3    C7 8826   4.013   2.038  14.531  1.1201  0.2335 -0.3678
  595TMC3    C8 8827   3.948   1.700  14.179  0.0684 -0.2540 -0.6451
  595TMC3    O1 8828   3.901   2.095  14.533  0.5564 -0.1109  0.4386
  595TMC3    O2 8829   3.975   1.670  14.062  0.1237  0.5481 -0.0177
  596MPD2     C 8830   2.929   4.045  16.842  0.3685  0.1992  0.5577
  596MPD2    C1 8831   2.936   4.163  16.777 -0.3424 -0.1256  0.2499
  596MPD2    C2 8832   2.938   4.172  16.641  0.8874 -0.6072  0.1722
  596MPD2    C3 8833   2.920   4.064  16.564 -0.1706 -0.5916 -1.2540
  596MPD2    C4 8834   2.913   3.941  16.629 -0.3184  0.4121 -0.0031
  596MPD2    C5 8835   2.926   3.934  16.766 -0.1505  0.8706  0.0291
  596MPD2     H 8836   2.939   4.276  16.609 -2.2407 -0.3447  0.8962
  596MPD2    H1 8837   2.902   3.850  16.570 -0.6478  0.5898 -0.2143
  596MPD2    H2 8838   2.916   4.039  16.949 -0.2390  2.3441  0.6118
  596MPD2    H3 8839   2.917   3.837  16.814  3.1857  1.4313  1.7515
  596MPD2     N 8840   2.908   4.068  16.424 -0.1587  0.3839  0.0263
  596MPD2    H5 8841   2.889   3.976  16.386 -2.7121  1.1091 -0.4744
  596MPD2    N1 8842   2.934   4.283  16.842  0.4954  0.2678  0.4079
  596MPD2    H7 8843   2.956   4.355  16.774  1.6155 -1.4652 -1.0718
  597TMC3    C1 8844   2.907   4.457  17.006  0.4039 -0.2837 -0.2060
  597TMC3    C2 8845   3.020   4.525  16.965 -0.1603  0.1118  0.2537
  597TMC3    C3 8846   3.031   4.653  17.023  0.5221 -0.5846  0.3053
  597TMC3    C4 8847   2.809   4.505  17.083  0.4079  0.0187 -0.2421
  597TMC3    C5 8848   2.820   4.633  17.125  0.3201 -0.7016 -0.1114
  597TMC3    C6 8849   2.932   4.707  17.101  0.3203  0.1584 -0.4303
  597TMC3     C 8850   2.896   4.315  16.969 -0.1484  0.4179 -0.5766
  597TMC3     O 8851   2.852   4.241  17.053  0.0031 -0.2250  0.1284
  597TMC3     H 8852   3.085   4.483  16.890  1.8614  1.6162  1.1403
  597TMC3    H1 8853   2.721   4.451  17.115 -0.1449  1.0356 -0.0755
  597TMC3    H2 8854   2.931   0.088  17.133 -0.9208 -0.2524  0.8716
  597TMC3    C7 8855   2.707   4.693  17.200  0.9671 -0.2553  0.4757
  597TMC3    C8 8856   3.147   0.017  17.010 -0.7292  0.2937  0.0785
  597TMC3    O1 8857   2.648   4.605  17.263 -0.0817 -0.1515  0.3996
  597TMC3    O2 8858   3.130   0.134  17.046 -0.6929  0.0557  0.2180
  598TMC3    C1 8859   1.130   1.074  14.736 -0.2592  0.1232 -0.6321
  598TMC3    C2 8860   1.206   1.060  14.624 -0.0977 -0.3576 -0.1507
  598TMC3    C3 8861   1.315   1.139  14.617 -0.1626 -0.4835 -0.6903
  598TMC3    C4 8862   1.145   1.171  14.826  0.0630 -1.2889  0.3574
  598TMC3    C5 8863   1.260   1.246  14.811  0.3873 -0.4662 -0.4277
  598TMC3    C6 8864   1.343   1.233  14.707 -0.3607  0.3964  0.0783
  598TMC3     C 8865   1.013   0.996  14.744 -0.7085 -0.3800  0.6221
  598TMC3     O 8866   0.960   0.960  14.641  0.3174 -0.0212  0.0544
  598TMC3     H 8867   1.175   0.982  14.554  0.1239  0.0232 -0.6664
  598TMC3    H1 8868   1.089   1.183  14.918  1.3030 -0.1142  0.9521
  598TMC3    H2 8869   1.433   1.293  14.706 -1.6742  2.3686  2.8709
  598TMC3    C7 8870   1.318   1.287  14.939  0.2447 -0.8505 -0.0834
  598TMC3    C8 8871   1.414   1.095  14.526 -0.0285 -0.1089  0.4745
  598TMC3    O1 8872   1.280   1.226  15.040 -0.2118  0.5001 -0.2268
  598TMC3    O2 8873   1.525   1.142  14.541  0.1667  0.0171  0.1856
  599MPD2     C 8874   1.496   3.782  15.971 -0.3267 -0.2188  0.8461
  599MPD2    C1 8875   1.480   3.645  15.989 -0.0641  0.0494 -0.4244
  599MPD2    C2 8876   1.361   3.595  16.039 -0.6751 -0.8005  0.1524
  599MPD2    C3 8877   1.264   3.685  16.077 -0.1348  0.2138  0.8236
  599MPD2    C4 8878   1.284   3.818  16.055  0.2230  0.1010 -0.5151
  599MPD2    C5 8879   1.403   3.864  16.007 -0.0296 -0.1529  0.0862
  599MPD2     H 8880   1.339   3.489  16.040 -0.4474 -0.8670 -2.4140
  599MPD2    H1 8881   1.209   3.885  16.095 -0.2932 -0.1714 -1.0134
  599MPD2    H2 8882   1.591   3.824  15.939 -2.0145  2.2664 -0.8673
  599MPD2    H3 8883   1.419   3.971  16.007 -0.8956 -0.0244 -2.9179
  599MPD2     N 8884   1.145   3.652  16.150 -0.0544 -0.1683  0.5157
  599MPD2    H5 8885   1.082   3.729  16.172  1.4175  0.3856  2.7635
  599MPD2    N1 8886   1.592   3.551  15.975  0.0719 -0.2040 -0.0257
  599MPD2    H7 8887   1.677   3.601  15.950 -1.8809  2.3092 -1.6348
  600TMC3    C1 8888   1.031   3.531  16.317 -0.2880  0.5567  0.0778
  600TMC3    C2 8889   1.003   3.410  16.377 -0.4355 -0.0364  0.7538
  600TMC3    C3 8890   0.950   3.408  16.503 -0.2815 -0.1333 -0.3663
  600TMC3    C4 8891   1.023   3.649  16.388  0.3592  0.2348  0.2496
  600TMC3    C5 8892   0.959   3.644  16.517  0.5451 -1.0813 -0.0562
  600TMC3    C6 8893   0.923   3.526  16.574 -0.5728 -0.1488 -0.3375
  600TMC3     C 8894   1.101   3.527  16.194  0.2586 -0.3508  0.4255
  600TMC3     O 8895   1.159   3.420  16.179  0.4114  0.1596 -0.3757
  600TMC3     H 8896   1.006   3.316  16.323 -0.9543  0.8601 -0.8347
  600TMC3    H1 8897   1.047   3.744  16.342  0.2026 -0.6703 -1.6889
  600TMC3    H2 8898   0.876   3.516  16.671  1.1486  2.5045  0.7650
  600TMC3    C7 8899   0.956   3.762  16.600  0.2916  0.7327  0.5273
  600TMC3    C8 8900   0.901   3.279  16.567 -0.6096 -0.5691  0.5847
  600TMC3    O1 8901   0.877   3.761  16.697  0.4562  0.0145  0.2723
  600TMC3    O2 8902   0.904   3.287  16.690 -0.0506 -0.3090  0.2506
  601MPD2     C 8903   3.036   1.437   0.541  1.0794 -0.4903 -1.0700
  601MPD2    C1 8904   2.910   1.416   0.493  0.2205 -0.4913  0.3224
  601MPD2    C2 8905   2.824   1.330   0.566 -0.2196 -0.2891  0.3147
  601MPD2    C3 8906   2.863   1.283   0.686  0.0720  0.6437 -0.4038
  601MPD2    C4 8907   2.978   1.334   0.748  0.0822 -0.1391  1.0848
  601MPD2    C5 8908   3.069   1.392   0.670 -0.9677 -0.0897 -0.5768
  601MPD2     H 8909   2.735   1.296   0.517 -0.5851  0.9013  0.1447
  601MPD2    H1 8910   2.997   1.321   0.854  1.2379 -1.4834  0.7135
  601MPD2    H2 8911   3.118   1.481   0.486  1.1911  0.8634  0.1633
  601MPD2    H3 8912   3.162   1.417   0.719 -0.4341 -0.8587 -1.1941
  601MPD2     N 8913   2.785   1.186   0.753 -0.1500 -0.1369 -0.4254
  601MPD2    H5 8914   2.820   1.179   0.848  2.0702 -3.1248 -1.4739
  601MPD2    N1 8915   2.859   1.472   0.372  0.2729 -0.5700 -0.2104
  601MPD2    H7 8916   2.764   1.443   0.353 -0.3342  1.1378  0.2402
  602TMC3    C1 8917   2.859   1.607   0.176  0.0608  1.0656 -0.4021
  602TMC3    C2 8918   2.916   1.725   0.124  0.3347 -0.3445 -0.2858
  602TMC3    C3 8919   2.826   1.789   0.039 -0.8045  0.0756 -0.3885
  602TMC3    C4 8920   2.726   1.573   0.145 -0.3597 -0.0948  0.5455
  602TMC3    C5 8921   2.656   1.635   0.051 -0.2774  0.5856  0.4183
  602TMC3    C6 8922   2.708   1.748  17.678 -0.4267 -0.7090  0.4028
  602TMC3     C 8923   2.932   1.552   0.289  0.2292 -0.3618  0.7182
  602TMC3     O 8924   3.043   1.601   0.304  0.2026  0.6667 -0.0551
  602TMC3     H 8925   2.999   1.781   0.164  0.1293 -0.1754 -0.0990
  602TMC3    H1 8926   2.680   1.481   0.181  0.8661 -0.4821  1.1349
  602TMC3    H2 8927   2.641   1.806  17.616  0.4984  0.9525  0.9752
  602TMC3    C7 8928   2.513   1.605   0.073 -0.3664 -0.2491  0.1322
  602TMC3    C8 8929   2.858   1.921   0.004  0.3543 -0.2715 -0.1607
  602TMC3    O1 8930   2.471   1.536   0.167  0.1806  0.0558  0.3620
  602TMC3    O2 8931   2.972   1.952  17.657 -0.0691  0.5213 -0.3319
  603TMC3    C1 8932   1.321   2.188  10.785  0.0456  0.2624 -0.1558
  603TMC3    C2 8933   1.327   2.177  10.921 -0.3862 -0.3756  0.9255
  603TMC3    C3 8934   1.311   2.290  10.996 -0.0741  0.1247 -0.3322
  603TMC3    C4 8935   1.318   2.306  10.727 -0.1269 -0.0988  0.3485
  603TMC3    C5 8936   1.290   2.417  10.803  0.0148 -0.1647  0.3079
  603TMC3    C6 8937   1.290   2.410  10.939  0.3627 -0.8390  0.6944
  603TMC3     C 8938   1.347   2.072  10.713  0.8245  0.9098 -0.0087
  603TMC3     O 8939   1.372   1.968  10.767 -0.2397 -0.4847  0.4357
  603TMC3     H 8940   1.341   2.086  10.978 -1.8959 -0.6681  0.8269
  603TMC3    H1 8941   1.335   2.318  10.621 -0.2954  0.6092  0.3998
  603TMC3    H2 8942   1.306   2.504  10.991 -0.4502  0.5200 -1.4730
  603TMC3    C7 8943   1.297   2.548  10.747  0.1934 -0.0887  0.8423
  603TMC3    C8 8944   1.313   2.272  11.141  0.3067  0.1114  0.0250
  603TMC3    O1 8945   1.335   2.640  10.816  0.3952  0.2829  0.1305
  603TMC3    O2 8946   1.392   2.192  11.183  0.0816  0.6123 -0.0295
  604MPD2     C 8947   1.709   0.469  16.137  0.1433  0.4339 -0.4551
  604MPD2    C1 8948   1.713   0.595  16.085 -0.6011  0.6406  0.2296
  604MPD2    C2 8949   1.799   0.616  15.972  0.0707 -0.2257  0.0397
  604MPD2    C3 8950   1.895   0.521  15.946  0.3457  0.6026 -0.1019
  604MPD2    C4 8951   1.888   0.405  16.010  0.1563  0.3890 -0.6718
  604MPD2    C5 8952   1.797   0.380  16.095  0.5721  0.3534 -0.0512
  604MPD2     H 8953   1.812   0.717  15.934  1.6615 -0.2345  0.5508
  604MPD2    H1 8954   1.948   0.317  15.989  0.8853  1.1345 -1.7426
  604MPD2    H2 8955   1.640   0.431  16.211  0.5209  2.2549  0.8394
  604MPD2    H3 8956   1.776   0.284  16.141  1.0218 -0.2940 -1.2066
  604MPD2     N 8957   1.990   0.534  15.838  0.4462  0.0235  0.1796
  604MPD2    H5 8958   1.980   0.624  15.793  0.4328 -0.0842 -0.0340
  604MPD2    N1 8959   1.627   0.696  16.136 -0.5292 -0.2849  0.2034
  604MPD2    H7 8960   1.569   0.665  16.213 -1.6192 -0.1283 -0.5564
  605TMC3    C1 8961   1.530   0.905  16.168  0.1338 -0.4505 -0.1440
  605TMC3    C2 8962   1.556   0.902  16.306  0.6032  0.6768 -0.3696
  605TMC3    C3 8963   1.513   1.013  16.377 -0.0041 -1.5998  0.3998
  605TMC3    C4 8964   1.476   1.021  16.100  0.4530 -0.2967  0.3431
  605TMC3    C5 8965   1.442   1.128  16.181 -0.2780  0.8154  0.5203
  605TMC3    C6 8966   1.452   1.120  16.322  0.2343  0.3425 -0.1219
  605TMC3     C 8967   1.611   0.825  16.081  0.1423  0.2141 -0.1895
  605TMC3     O 8968   1.650   0.872  15.974 -0.3383  0.0075 -0.5305
  605TMC3     H 8969   1.608   0.820  16.355  1.0395  0.2629 -1.5376
  605TMC3    H1 8970   1.462   1.024  15.993 -1.3749 -1.6554  0.5324
  605TMC3    H2 8971   1.425   1.202  16.388 -0.1224  0.7693 -0.8002
  605TMC3    C7 8972   1.413   1.254  16.108  0.3545 -0.0794 -0.6634
  605TMC3    C8 8973   1.605   1.040  16.494 -0.1003  0.5271  0.5374
  605TMC3    O1 8974   1.402   1.237  15.984  0.1834 -0.4525 -0.4462
  605TMC3    O2 8975   1.627   0.935  16.559 -0.3671  0.1643  0.0423
  606TMC3    C1 8976   3.346   3.490  17.452 -0.9001 -0.1197 -0.4732
  606TMC3    C2 8977   3.477   3.464  17.411 -0.4396 -0.3990  0.1741
  606TMC3    C3 8978   3.563   3.392  17.491  0.1988 -0.0971 -0.5020
  606TMC3    C4 8979   3.313   3.483  17.582 -0.1073 -0.5677 -0.0166
  606TMC3    C5 8980   3.404   3.425  17.665 -0.7694  0.0275 -0.6655
  606TMC3    C6 8981   3.532   3.388  17.628 -1.1902 -0.2288  0.1025
  606TMC3     C 8982   3.267   3.550  17.343 -0.5314  0.6226  0.3232
  606TMC3     O 8983   3.300   3.542  17.225  0.1916 -0.0826 -0.5614
  606TMC3     H 8984   3.509   3.459  17.307  0.4577  1.3841  0.3592
  606TMC3    H1 8985   3.212   3.502  17.616 -0.2334  2.3392 -2.0462
  606TMC3    H2 8986   3.601   3.344   0.007  0.1830  2.8762  0.6676
  606TMC3    C7 8987   3.382   3.416   0.109  0.1585  0.8172  0.4938
  606TMC3    C8 8988   3.702   3.407  17.461  0.0748  0.0700  0.6586
  606TMC3    O1 8989   3.445   3.332   0.178  0.3004 -0.2131 -0.1880
  606TMC3    O2 8990   3.731   3.476  17.365 -0.5368  0.1225  0.2050
  607MPD2     C 8991   0.651   2.117  11.638 -0.0275 -0.1064  0.3985
  607MPD2    C1 8992   0.659   2.218  11.732  0.4241  0.6443  0.2563
  607MPD2    C2 8993   0.580   2.215  11.842 -0.5051  0.2922 -0.0465
  607MPD2    C3 8994   0.486   2.122  11.865 -0.0524  0.5952 -0.0148
  607MPD2    C4 8995   0.476   2.015  11.782  0.2510 -0.6231 -0.0008
  607MPD2    C5 8996   0.559   2.010  11.664  0.2567  0.5860 -0.2982
  607MPD2     H 8997   0.599   2.298  11.909  1.3106  0.3548 -0.6626
  607MPD2    H1 8998   0.408   1.931  11.793 -0.3200  0.1141  1.9447
  607MPD2    H2 8999   0.713   2.102  11.550  1.0827  0.8216  1.0117
  607MPD2    H3 9000   0.554   1.930  11.591  2.2821  0.9372 -0.8357
  607MPD2     N 9001   0.412   2.130  11.984  0.0611 -0.2601  0.4855
  607MPD2    H5 9002   0.441   2.208  12.042  0.8253  0.5461 -0.9559
  607MPD2    N1 9003   0.748   2.335  11.719 -0.4772 -0.2099 -0.0867
  607MPD2    H7 9004   0.729   2.404  11.791  1.3862 -0.3951  0.5719
  608TMC3    C1 9005   0.912   2.477  11.654  0.8070  0.0030  0.1857
  608TMC3    C2 9006   0.945   2.494  11.786  0.7772 -0.3655  0.7239
  608TMC3    C3 9007   0.975   2.629  11.823 -0.1682 -0.5915 -0.5135
  608TMC3    C4 9008   0.927   2.576  11.558  0.2228 -0.0899 -0.2833
  608TMC3    C5 9009   0.964   2.700  11.596 -0.0439  0.2267  0.6361
  608TMC3    C6 9010   0.993   2.732  11.731 -0.2029  0.6133 -0.7192
  608TMC3     C 9011   0.838   2.359  11.621  0.3589  0.6035 -0.0648
  608TMC3     O 9012   0.853   2.299  11.513 -0.3642 -0.4205  0.0657
  608TMC3     H 9013   0.932   2.415  11.859  1.5936 -0.1777  1.0627
  608TMC3    H1 9014   0.872   2.561  11.466  0.2712  0.4826 -0.4090
  608TMC3    H2 9015   1.000   2.832  11.771 -0.3964 -0.1712  1.2881
  608TMC3    C7 9016   1.017   2.784  11.493 -0.0802 -0.3658  0.2206
  608TMC3    C8 9017   0.972   2.672  11.959 -0.2634  0.1830 -0.7056
  608TMC3    O1 9018   1.006   2.739  11.382  0.3806  0.8257 -0.1482
  608TMC3    O2 9019   1.022   2.776  11.999 -0.5405 -0.7968  0.7449
  609TMC3    C1 9020   3.076   0.358   9.804  0.8248 -1.1238  0.9131
  609TMC3    C2 9021   3.057   0.220   9.769 -0.4988 -0.3143 -0.6832
  609TMC3    C3 9022   3.165   0.140   9.807 -0.6499 -0.4293 -0.3963
  609TMC3    C4 9023   3.188   0.403   9.860  0.7200  0.5928  0.4510
  609TMC3    C5 9024   3.291   0.315   9.886 -0.0890 -0.4028 -0.3648
  609TMC3    C6 9025   3.281   0.180   9.873 -0.2058 -0.0631  0.3486
  609TMC3     C 9026   2.982   0.458   9.766 -0.1648  0.5028  0.6196
  609TMC3     O 9027   3.013   0.576   9.761 -0.0461  0.0793 -0.3133
  609TMC3     H 9028   2.963   0.175   9.738  0.2177  0.4563 -3.9669
  609TMC3    H1 9029   3.197   0.510   9.876 -1.4196  1.1810 -2.3699
  609TMC3    H2 9030   3.351   0.106   9.909  0.7490  1.0856  0.8457
  609TMC3    C7 9031   3.408   0.371   9.960  0.1761  0.9798 -0.1429
  609TMC3    C8 9032   3.146   4.717   9.778 -0.9259  0.4967 -1.0537
  609TMC3    O1 9033   3.375   0.480  10.006 -0.2308 -0.7728  0.2466
  609TMC3    O2 9034   3.046   4.682   9.719 -0.2135 -0.1612  0.7589
  610TMC3    C1 9035   0.806   2.003  12.644 -0.2305  0.2765 -0.0661
  610TMC3    C2 9036   0.893   2.034  12.542  0.1304  0.3704 -0.2156
  610TMC3    C3 9037   0.969   1.940  12.479  0.0479  0.7619  0.7733
  610TMC3    C4 9038   0.791   1.871  12.682  0.4246 -0.1300 -0.0462
  610TMC3    C5 9039   0.873   1.777  12.624  0.2083 -0.1880 -0.2218
  610TMC3    C6 9040   0.965   1.809  12.520  0.0840  0.5486 -0.6267
  610TMC3     C 9041   0.770   2.112  12.736 -0.0640  0.0761 -0.4740
  610TMC3     O 9042   0.708   2.074  12.836 -0.0996 -0.7259 -0.4814
  610TMC3     H 9043   0.922   2.137  12.522  1.8662 -0.3927 -1.5492
  610TMC3    H1 9044   0.719   1.833  12.754 -1.9916  1.9170 -1.3801
  610TMC3    H2 9045   1.032   1.734  12.480 -0.0380  0.5477 -0.8265
  610TMC3    C7 9046   0.908   1.645  12.685  0.3569  0.6856  0.2761
  610TMC3    C8 9047   1.092   1.973  12.402  0.0638 -0.2485  0.8271
  610TMC3    O1 9048   0.895   1.638  12.808 -0.7022  0.4813  0.0020
  610TMC3    O2 9049   1.181   1.891  12.397  0.2566  0.3275  0.1064
  611MPD2     C 9050   0.259   2.427   9.739 -0.7887  0.3086  0.3959
  611MPD2    C1 9051   0.346   2.384   9.831 -0.1583 -0.0060 -0.3588
  611MPD2    C2 9052   0.472   2.440   9.840 -1.1543 -0.4053 -0.1135
  611MPD2    C3 9053   0.506   2.553   9.767  0.4192 -0.8933 -0.5849
  611MPD2    C4 9054   0.416   2.597   9.684 -0.3413 -0.7327  0.3456
  611MPD2    C5 9055   0.294   2.534   9.657 -0.2749  0.4271  0.4136
  611MPD2     H 9056   0.547   2.399   9.906 -1.6937 -3.7645 -1.6052
  611MPD2    H1 9057   0.438   2.688   9.629 -2.7194  0.9996  2.2696
  611MPD2    H2 9058   0.162   2.381   9.728  0.3743 -1.8065 -1.1250
  611MPD2    H3 9059   0.228   2.568   9.578 -0.7827 -1.4453  0.0114
  611MPD2     N 9060   0.624   2.629   9.789  0.8550 -0.3288 -0.5425
  611MPD2    H5 9061   0.646   2.701   9.721 -2.0713 -0.6357 -1.7791
  611MPD2    N1 9062   0.304   2.262   9.894 -0.6596 -0.0388  0.0339
  611MPD2    H7 9063   0.206   2.236   9.885 -0.8560  0.5874  0.3556
  612TMC3    C1 9064   0.833   2.683   9.877 -0.6141  0.1168 -0.1620
  612TMC3    C2 9065   0.912   2.700   9.989  0.4821  0.9817 -0.0785
  612TMC3    C3 9066   1.045   2.731   9.966  0.2247  0.9483  0.5867
  612TMC3    C4 9067   0.875   2.716   9.749 -0.4288 -0.5168  0.6584
  612TMC3    C5 9068   1.008   2.745   9.745 -0.8268 -0.1969 -0.0991
  612TMC3    C6 9069   1.092   2.764   9.849 -0.6666 -0.4253  0.8147
  612TMC3     C 9070   0.711   2.613   9.895  0.2703  0.1002  0.3939
  612TMC3     O 9071   0.690   2.577  10.009  0.0743  0.0461 -0.3347
  612TMC3     H 9072   0.878   2.683  10.090  0.4619 -2.4921 -0.6622
  612TMC3    H1 9073   0.815   2.690   9.662  1.6052 -1.6180 -0.4160
  612TMC3    H2 9074   1.198   2.768   9.826 -0.7994  0.7256  0.4154
  612TMC3    C7 9075   1.066   2.778   9.609  0.4214  0.0347 -0.6940
  612TMC3    C8 9076   1.132   2.782  10.068  0.0189 -0.6259 -0.3027
  612TMC3    O1 9077   1.030   2.711   9.515  0.0991  0.1767 -0.0597
  612TMC3    O2 9078   1.200   2.882  10.043  0.5761 -0.4536 -0.3207
  613MPD2     C 9079   4.503   4.545  16.780 -0.0252 -0.2974 -1.1484
  613MPD2    C1 9080   4.437   4.587  16.662 -0.0288  0.4589  0.0274
  613MPD2    C2 9081   4.306   4.540  16.635  0.1883 -0.3643 -0.2621
  613MPD2    C3 9082   4.255   4.440  16.720  0.4639 -0.4363 -0.0349
  613MPD2    C4 9083   4.320   4.407  16.837 -0.0248 -0.4246 -0.0726
  613MPD2    C5 9084   4.440   4.465  16.871  0.7954  0.0335 -0.0983
  613MPD2     H 9085   4.267   4.560  16.536 -1.4254 -2.5907 -0.0840
  613MPD2    H1 9086   4.289   4.335  16.912  0.7679  1.1743  1.7790
  613MPD2    H2 9087   4.601   4.589  16.794 -0.7847  1.2226 -0.5804
  613MPD2    H3 9088   4.489   4.436  16.963 -0.3421 -1.8673 -0.1066
  613MPD2     N 9089   4.142   4.364  16.694 -0.3725 -0.2322  0.0290
  613MPD2    H5 9090   4.126   4.278  16.746 -1.7376  0.6325  1.0186
  613MPD2    N1 9091   4.513   4.671  16.571 -0.5348  0.1692 -0.3944
  613MPD2    H7 9092   4.610   4.686  16.596  0.0469 -1.7918 -1.4972
  614TMC3    C1 9093   4.577   0.014  16.350 -0.5036  0.5971  0.1266
  614TMC3    C2 9094   4.671   4.634  16.373  0.1888  0.4138 -0.2813
  614TMC3    C3 9095   4.714   4.549  16.275  0.0407 -0.1780 -0.3971
  614TMC3    C4 9096   4.538   0.036  16.221  0.2082 -0.2744  0.2415
  614TMC3    C5 9097   4.586   4.684  16.123  0.3613 -0.6560  0.0968
  614TMC3    C6 9098   4.665   4.578  16.150  0.9233 -0.1496  0.3538
  614TMC3     C 9099   4.471   4.721  16.447  0.0439 -0.3402 -0.2928
  614TMC3     O 9100   4.358   0.017  16.403  0.2857 -0.2924 -0.3094
  614TMC3     H 9101   4.708   4.606  16.471  1.4160  2.4376 -0.1654
  614TMC3    H1 9102   4.453   0.098  16.199  0.7562  0.5403  0.4331
  614TMC3    H2 9103   4.706   4.523  16.066  1.5105  0.8006  0.0075
  614TMC3    C7 9104   4.537   4.704  15.986 -0.3926 -0.1407  0.3449
  614TMC3    C8 9105   4.708   4.408  16.304  0.0169 -0.1216  0.3929
  614TMC3    O1 9106   4.552   4.614  15.905 -0.3998  0.3215  0.4960
  614TMC3    O2 9107   4.673   4.338  16.215 -0.7020  0.1281 -0.0824
  615MPD2     C 9108   3.835   0.877  16.304 -0.1358 -0.6032  0.1505
  615MPD2    C1 9109   3.713   0.937  16.342 -0.4502  0.0456 -0.1140
  615MPD2    C2 9110   3.605   0.928  16.261  0.5898 -0.8006  0.5011
  615MPD2    C3 9111   3.619   0.875  16.129  1.0166 -0.0541  0.4406
  615MPD2    C4 9112   3.739   0.819  16.098  0.9065 -0.1286 -1.1995
  615MPD2    C5 9113   3.844   0.806  16.183  0.5855  0.5893  0.5869
  615MPD2     H 9114   3.516   0.979  16.298 -0.7101 -3.8554  1.6347
  615MPD2    H1 9115   3.748   0.774  16.000  0.3602  2.3924 -2.4202
  615MPD2    H2 9116   3.928   0.881  16.360 -1.0344 -3.2239  1.8200
  615MPD2    H3 9117   3.937   0.766  16.146  0.0107  0.3523 -0.5902
  615MPD2     N 9118   3.520   0.883  16.032  0.1964 -0.2318 -0.2020
  615MPD2    H5 9119   3.542   0.841  15.942 -2.6015 -1.1023 -0.4589
  615MPD2    N1 9120   3.705   1.024  16.456  0.2136  0.3355 -0.0329
  615MPD2    H7 9121   3.617   1.072  16.470 -1.0165 -2.1529  0.7426
  616TMC3    C1 9122   3.770   1.174  16.632 -0.6817 -0.4174 -0.7545
  616TMC3    C2 9123   3.878   1.242  16.696 -0.1316  0.5944 -0.0030
  616TMC3    C3 9124   3.841   1.370  16.745 -0.0720 -0.8155 -0.6332
  616TMC3    C4 9125   3.634   1.204  16.646 -0.8389  0.1353  0.7969
  616TMC3    C5 9126   3.608   1.325  16.706 -0.3654  0.1000  0.0619
  616TMC3    C6 9127   3.708   1.412  16.746  0.2889 -0.4081 -0.6993
  616TMC3     C 9128   3.806   1.065  16.546 -0.4943 -0.2090  0.0925
  616TMC3     O 9129   3.927   1.054  16.528  0.1801 -0.2667  0.4013
  616TMC3     H 9130   3.979   1.202  16.688 -0.9533 -1.1546 -1.5787
  616TMC3    H1 9131   3.551   1.142  16.616 -0.5810 -0.1917  0.7556
  616TMC3    H2 9132   3.682   1.507  16.791  1.3569 -1.2574  1.6930
  616TMC3    C7 9133   3.471   1.361  16.729 -0.0708 -0.0130  0.5147
  616TMC3    C8 9134   3.949   1.460  16.782  0.4862 -0.0519 -0.8505
  616TMC3    O1 9135   3.454   1.453  16.806  0.7164  0.0234  0.3938
  616TMC3    O2 9136   3.919   1.574  16.820 -0.2324 -0.0260 -0.9169
  617MPD2     C 9137   1.877   3.960  13.410 -0.1269 -0.3323 -0.7102
  617MPD2    C1 9138   1.891   3.846  13.484 -0.0329  0.0559  0.5889
  617MPD2    C2 9139   1.790   3.806  13.566 -0.2249 -0.0453  0.1827
  617MPD2    C3 9140   1.674   3.884  13.575  0.1501  0.3688 -0.0357
  617MPD2    C4 9141   1.669   4.008  13.509  0.7443  0.1770  0.1554
  617MPD2    C5 9142   1.771   4.051  13.433 -0.3110  0.3754  0.5572
  617MPD2     H 9143   1.798   3.711  13.617 -0.7895  0.9585  2.1326
  617MPD2    H1 9144   1.576   4.063  13.508  1.4386  1.4618  4.1023
  617MPD2    H2 9145   1.948   3.975  13.329  1.2449  0.9361  0.7235
  617MPD2    H3 9146   1.764   4.141  13.372 -3.0582 -0.3779 -0.2760
  617MPD2     N 9147   1.567   3.849  13.659  0.4778 -0.5254  0.2187
  617MPD2    H5 9148   1.490   3.915  13.657 -1.1646 -2.4051  1.7636
  617MPD2    N1 9149   2.008   3.772  13.463 -0.1179 -0.8018 -0.7993
  617MPD2    H7 9150   2.085   3.810  13.410  0.6352  1.6700  2.0243
  618TMC3    C1 9151   2.156   3.599  13.478  1.0555 -0.3005 -0.4612
  618TMC3    C2 9152   2.263   3.682  13.457 -0.3657  0.1654  0.2329
  618TMC3    C3 9153   2.373   3.630  13.392 -0.0074 -0.0091  0.0577
  618TMC3    C4 9154   2.162   3.467  13.431  0.4005  0.5301  0.2193
  618TMC3    C5 9155   2.267   3.423  13.361  0.6129 -0.5717  0.0482
  618TMC3    C6 9156   2.375   3.506  13.337 -0.3074 -0.1960  0.0502
  618TMC3     C 9157   2.025   3.643  13.506  1.0784  0.2720 -0.3598
  618TMC3     O 9158   1.950   3.566  13.559 -0.4297 -0.2148  0.0127
  618TMC3     H 9159   2.252   3.783  13.494 -0.2826 -0.0212  0.7659
  618TMC3    H1 9160   2.076   3.404  13.448  0.0975  0.9347  0.1822
  618TMC3    H2 9161   2.461   3.460  13.290  1.0441  4.3083 -1.8848
  618TMC3    C7 9162   2.251   3.307  13.287 -0.1242 -0.6774 -0.2883
  618TMC3    C8 9163   2.485   3.708  13.393  0.1497  0.4768  0.0767
  618TMC3    O1 9164   2.201   3.214  13.340  0.6458  0.2966  0.1686
  618TMC3    O2 9165   2.483   3.802  13.472 -0.5956 -0.1832  0.6812
  619MPD2     C 9166   3.353   0.993  13.203  0.5023  0.1349  0.0816
  619MPD2    C1 9167   3.234   1.058  13.172 -0.0480  0.1312 -0.2245
  619MPD2    C2 9168   3.118   0.988  13.143  0.4644 -0.0727 -0.2943
  619MPD2    C3 9169   3.113   0.851  13.135 -0.6686 -0.8626  0.4794
  619MPD2    C4 9170   3.231   0.783  13.178 -0.0658 -0.3733 -0.9531
  619MPD2    C5 9171   3.350   0.853  13.203 -0.1133  0.0663 -0.3711
  619MPD2     H 9172   3.036   1.046  13.101  1.1875  0.2747 -1.2298
  619MPD2    H1 9173   3.236   0.674  13.184  0.3864 -0.1159  3.1689
  619MPD2    H2 9174   3.442   1.045  13.234 -0.2361  3.1460 -2.7994
  619MPD2    H3 9175   3.441   0.805  13.236 -1.8546 -1.5538  2.0036
  619MPD2     N 9176   2.996   0.776  13.124  0.8527  0.5007  0.8177
  619MPD2    H5 9177   3.004   0.676  13.140  0.0082  0.1777 -0.7828
  619MPD2    N1 9178   3.224   1.201  13.180  0.2479  0.0270 -0.9182
  619MPD2    H7 9179   3.137   1.234  13.139  1.2563  1.1519 -2.1646
  620TMC3    C1 9180   3.264   1.422  13.241  0.3382 -0.6036 -0.0450
  620TMC3    C2 9181   3.179   1.440  13.134 -0.3287  0.4499  0.3899
  620TMC3    C3 9182   3.069   1.518  13.150  0.4423 -0.3199 -0.3431
  620TMC3    C4 9183   3.226   1.454  13.370 -0.2504 -0.5040  0.2518
  620TMC3    C5 9184   3.120   1.541  13.373 -0.1714 -0.0498 -0.7007
  620TMC3    C6 9185   3.045   1.589  13.265 -0.7563  0.5042 -0.7639
  620TMC3     C 9186   3.309   1.284  13.248  0.0616 -0.4405 -0.6790
  620TMC3     O 9187   3.405   1.257  13.324 -0.0337  0.0089  0.3814
  620TMC3     H 9188   3.201   1.403  13.035  2.9748  0.4094  1.1463
  620TMC3    H1 9189   3.284   1.424  13.457  1.7963 -0.3852 -1.0955
  620TMC3    H2 9190   2.968   1.665  13.267  0.4877  1.7319  1.0798
  620TMC3    C7 9191   3.037   1.546  13.494  0.0672  0.0565 -0.2636
  620TMC3    C8 9192   2.959   1.426  13.135 -0.1383  0.6924  0.1959
  620TMC3    O1 9193   2.944   1.621  13.500  0.5053 -0.3477 -0.3495
  620TMC3    O2 9194   2.985   1.317  13.084  0.4427  0.8104 -0.6165
  621MPD2     C 9195   2.728   0.560  10.499 -0.4950 -0.3273  0.3689
  621MPD2    C1 9196   2.712   0.590  10.628  0.2658  0.3893 -0.3856
  621MPD2    C2 9197   2.740   0.722  10.661  0.7104  0.6140  0.2591
  621MPD2    C3 9198   2.781   0.813  10.568 -0.2635 -0.0563  0.1268
  621MPD2    C4 9199   2.811   0.769  10.438 -0.2836  1.2612 -0.2289
  621MPD2    C5 9200   2.773   0.652  10.405  0.6806  0.0763 -0.4225
  621MPD2     H 9201   2.729   0.764  10.761 -2.3967 -1.1039  0.6573
  621MPD2    H1 9202   2.849   0.829  10.356  1.0319  0.2466 -0.3656
  621MPD2    H2 9203   2.701   0.464  10.456 -0.5912 -0.0837 -0.1188
  621MPD2    H3 9204   2.790   0.635  10.299  0.7569  1.1688 -0.5949
  621MPD2     N 9205   2.792   0.948  10.608  0.2039 -0.0537 -0.1114
  621MPD2    H5 9206   2.768   0.968  10.705 -0.3841  0.9221 -0.4615
  621MPD2    N1 9207   2.661   0.504  10.729  0.4147  0.5439  0.5373
  621MPD2    H7 9208   2.657   0.549  10.820 -2.7687  1.5108 -0.0658
  622TMC3    C1 9209   2.543   0.320  10.822  0.3752 -1.0754 -0.3130
  622TMC3    C2 9210   2.523   0.395  10.934  0.6271  0.0615  0.2962
  622TMC3    C3 9211   2.405   0.379  10.997 -0.4698  0.5810  0.1036
  622TMC3    C4 9212   2.455   0.224  10.782  0.4641  0.0442 -0.5065
  622TMC3    C5 9213   2.331   0.218  10.843  0.5788 -0.8152 -0.6186
  622TMC3    C6 9214   2.302   0.296  10.949 -0.1240 -0.4051 -0.0373
  622TMC3     C 9215   2.614   0.375  10.705 -0.4412 -0.7817  0.0861
  622TMC3     O 9216   2.609   0.311  10.601  0.2093 -0.3369 -0.0407
  622TMC3     H 9217   2.604   0.455  10.974  2.5220 -3.1574  1.2151
  622TMC3    H1 9218   2.482   0.153  10.704 -0.0387  0.1315 -0.7619
  622TMC3    H2 9219   2.212   0.285  11.010  0.2542  2.4827  1.0522
  622TMC3    C7 9220   2.246   0.098  10.819  0.7602  0.2254 -0.3373
  622TMC3    C8 9221   2.361   0.515  11.047 -0.5174 -0.0326  0.1184
  622TMC3    O1 9222   2.185   0.062  10.918  0.7860  0.1376  0.1905
  622TMC3    O2 9223   2.363   0.530  11.169  0.3653  0.1807 -0.1340
  623MPD2     C 9224   2.144   0.669  16.119  0.6030  0.8791  0.3871
  623MPD2    C1 9225   2.056   0.755  16.187 -0.1343 -0.2123 -0.2268
  623MPD2    C2 9226   2.064   0.749  16.325 -0.1379 -0.0204 -0.7649
  623MPD2    C3 9227   2.143   0.653  16.390  0.8564  0.0693  0.7335
  623MPD2    C4 9228   2.213   0.556  16.319  0.1033 -0.1359  0.1412
  623MPD2    C5 9229   2.209   0.567  16.180 -0.4139 -0.4607 -0.2268
  623MPD2     H 9230   1.999   0.808  16.389  1.5170  1.9900 -0.9383
  623MPD2    H1 9231   2.272   0.473  16.355 -0.9760 -0.7862  0.4050
  623MPD2    H2 9232   2.161   0.688  16.014  1.0852 -0.4366  0.2195
  623MPD2    H3 9233   2.261   0.496  16.118 -1.7900 -0.7502 -1.0292
  623MPD2     N 9234   2.149   0.654  16.532  0.0298  0.3639  0.9814
  623MPD2    H5 9235   2.094   0.728  16.573 -0.9955 -0.2345  0.6920
  623MPD2    N1 9236   2.001   0.865  16.118 -0.0204 -0.0965  0.3573
  623MPD2    H7 9237   2.014   0.870  16.017 -1.9416 -0.7395  0.0815
  624TMC3    C1 9238   2.407   0.834  16.758 -0.1407 -0.3465 -0.2942
  624TMC3    C2 9239   2.303   0.915  16.796 -0.8324  0.0333  0.3809
  624TMC3    C3 9240   2.180   0.868  16.796  0.4366 -0.8322  0.2089
  624TMC3    C4 9241   2.396   0.702  16.740 -0.1344  0.2387 -0.6194
  624TMC3    C5 9242   2.264   0.654  16.736 -0.1299  0.2478 -0.4124
  624TMC3    C6 9243   2.154   0.734  16.764  0.0047 -0.1069  0.8238
  624TMC3     C 9244   2.539   0.895  16.769  0.1259 -0.5743  0.2616
  624TMC3     O 9245   2.553   1.004  16.827  0.3423 -0.1411  0.2707
  624TMC3     H 9246   2.325   1.017  16.824 -0.2714 -0.2367  0.9327
  624TMC3    H1 9247   2.481   0.637  16.725 -2.5099 -3.1719  0.7592
  624TMC3    H2 9248   2.054   0.694  16.765 -0.2758  0.6292  2.7848
  624TMC3    C7 9249   2.249   0.596  16.607 -0.3223  0.3274  0.3257
  624TMC3    C8 9250   2.083   0.944  16.726 -1.1819  0.2870  0.0574
  624TMC3    O1 9251   2.348   0.535  16.568  0.5568  0.2229  0.1113
  624TMC3    O2 9252   2.033   0.879  16.637  0.1179  0.7746  0.5277
  625MPD2     C 9253   2.489   2.042   0.695  0.1594 -0.0086 -1.0363
  625MPD2    C1 9254   2.567   2.155   0.675  0.2706  0.1967  0.2860
  625MPD2    C2 9255   2.694   2.157   0.730  0.2121  0.1405 -0.3086
  625MPD2    C3 9256   2.731   2.064   0.825  0.1725  0.3557  0.4287
  625MPD2    C4 9257   2.648   1.958   0.851  0.2265  0.3055  0.8391
  625MPD2    C5 9258   2.538   1.939   0.772  0.6942  0.2380 -0.0701
  625MPD2     H 9259   2.770   2.230   0.702 -0.8700  0.9335 -1.1508
  625MPD2    H1 9260   2.674   1.881   0.922  0.0460 -1.5267 -1.0960
  625MPD2    H2 9261   2.392   2.033   0.647  0.4033  3.2763 -2.1523
  625MPD2    H3 9262   2.467   1.859   0.793  0.8401  0.1042 -0.0880
  625MPD2     N 9263   2.861   2.087   0.876  0.0527 -0.2462  0.0802
  625MPD2    H5 9264   2.918   2.156   0.829  0.6812 -0.9135 -0.1263
  625MPD2    N1 9265   2.532   2.261   0.590 -0.3829 -0.5690  0.2106
  625MPD2    H7 9266   2.598   2.332   0.562 -1.0733  1.6252  4.1214
  626TMC3    C1 9267   2.412   2.430   0.481 -0.2971  0.0825  0.8182
  626TMC3    C2 9268   2.337   2.476   0.370 -0.3479 -0.4930 -0.4235
  626TMC3    C3 9269   2.362   2.602   0.331 -0.1837 -0.3574  0.6065
  626TMC3    C4 9270   2.497   2.518   0.546 -0.5457 -0.1986 -0.7727
  626TMC3    C5 9271   2.520   2.641   0.501  0.5870 -0.2035  0.3742
  626TMC3    C6 9272   2.444   2.686   0.396  0.2428 -1.0708 -0.3670
  626TMC3     C 9273   2.405   2.287   0.526 -0.3118 -0.2651 -0.2370
  626TMC3     O 9274   2.307   2.216   0.507 -0.1607  0.1869 -0.7630
  626TMC3     H 9275   2.282   2.402   0.313 -1.5192  0.5006 -0.5839
  626TMC3    H1 9276   2.547   2.487   0.637 -1.9105  1.0714  0.3994
  626TMC3    H2 9277   2.448   2.791   0.372  0.7654 -1.0964 -0.4087
  626TMC3    C7 9278   2.540   2.736   0.613 -0.5211  1.1924 -0.2427
  626TMC3    C8 9279   2.322   2.641   0.197 -0.6156 -0.2138 -0.2242
  626TMC3    O1 9280   2.647   2.721   0.674  0.0457  0.2333 -0.2425
  626TMC3    O2 9281   2.393   2.712   0.131 -0.6020  0.2045 -0.2675
  627MPD2     C 9282   1.000   2.874  14.501  0.2785  0.0001  0.4575
  627MPD2    C1 9283   1.102   2.810  14.573  0.3031  0.5574  0.0547
  627MPD2    C2 9284   1.082   2.674  14.601  0.2843 -0.3167 -0.6187
  627MPD2    C3 9285   0.978   2.600  14.542  0.5817 -0.7550  0.3205
  627MPD2    C4 9286   0.890   2.670  14.461 -0.5109  0.8935  0.1829
  627MPD2    C5 9287   0.897   2.802  14.446 -0.6525 -0.7797  0.2944
  627MPD2     H 9288   1.156   2.617  14.657  0.3419 -1.0866 -1.4871
  627MPD2    H1 9289   0.801   2.618  14.428  0.9540 -0.9738 -0.7976
  627MPD2    H2 9290   1.007   2.975  14.461 -2.1332 -0.6867 -1.6977
  627MPD2    H3 9291   0.824   2.851  14.382 -1.6553  0.5879  2.4395
  627MPD2     N 9292   0.973   2.457  14.562  0.0362 -0.1462  0.4087
  627MPD2    H5 9293   1.033   2.419  14.635  3.5818  3.3535 -0.7333
  627MPD2    N1 9294   1.217   2.872  14.630  0.0048  0.3755 -0.4812
  627MPD2    H7 9295   1.282   2.815  14.683  1.1747  0.6301 -1.6174
  628TMC3    C1 9296   1.370   3.062  14.682 -0.2276 -0.1629  0.1416
  628TMC3    C2 9297   1.464   2.966  14.709  0.0858  0.3647  0.1742
  628TMC3    C3 9298   1.596   3.003  14.727 -0.2551 -0.7555 -0.1404
  628TMC3    C4 9299   1.408   3.191  14.669  0.4956 -0.2662  0.3687
  628TMC3    C5 9300   1.534   3.229  14.698 -0.5148 -0.0673 -0.0648
  628TMC3    C6 9301   1.630   3.137  14.730 -0.5551  0.3932  0.9474
  628TMC3     C 9302   1.242   3.012  14.624 -0.5153 -0.0323  0.3412
  628TMC3     O 9303   1.176   3.108  14.582  0.1317  0.3194 -0.1390
  628TMC3     H 9304   1.447   2.859  14.697 -0.9648  0.4574  0.8569
  628TMC3    H1 9305   1.332   3.265  14.648  0.0118 -0.2599  2.1506
  628TMC3    H2 9306   1.733   3.170  14.735 -0.3932 -0.5685  3.9639
  628TMC3    C7 9307   1.569   3.370  14.680 -0.8119 -0.5320  0.2802
  628TMC3    C8 9308   1.694   2.896  14.749 -0.2295  0.9224  0.2451
  628TMC3    O1 9309   1.668   3.406  14.744  0.9576  0.3569  1.1123
  628TMC3    O2 9310   1.649   2.785  14.761 -0.2447 -0.3380 -0.4538
  629MPD2     C 9311   4.408   1.492  16.994  0.0282 -0.8377  0.1303
  629MPD2    C1 9312   4.414   1.409  16.882 -0.5316 -0.2039  0.8606
  629MPD2    C2 9313   4.305   1.386  16.802 -0.1403  0.2528  0.1494
  629MPD2    C3 9314   4.190   1.456  16.835  0.3437 -0.0331  0.4888
  629MPD2    C4 9315   4.179   1.542  16.945 -0.1009  0.1907 -0.2248
  629MPD2    C5 9316   4.289   1.553  17.022  0.5225 -0.6688  0.1062
  629MPD2     H 9317   4.300   1.303  16.733 -3.1767  0.9955 -0.5060
  629MPD2    H1 9318   4.089   1.593  16.977  0.2790  0.8627 -0.2438
  629MPD2    H2 9319   4.491   1.493  17.064 -0.1686  0.1776  0.3475
  629MPD2    H3 9320   4.279   1.603  17.118 -1.1315 -1.5839  0.4084
  629MPD2     N 9321   4.075   1.412  16.765  0.6878 -0.1817 -0.4673
  629MPD2    H5 9322   4.085   1.342  16.692 -1.9606 -0.0213 -1.0031
  629MPD2    N1 9323   4.536   1.353  16.855 -0.4930  0.2869 -0.2209
  629MPD2    H7 9324   4.617   1.389  16.904 -0.2051  0.4502 -0.8269
  630TMC3    C1 9325   4.704   1.243  16.742  0.3276  0.0294 -0.2582
  630TMC3    C2 9326   0.050   1.280  16.628  0.0546 -0.0376  0.4497
  630TMC3    C3 9327   0.187   1.296  16.629 -0.6876  0.3138 -0.2154
  630TMC3    C4 9328   0.048   1.239  16.864 -0.3974  0.0244  0.2207
  630TMC3    C5 9329   0.183   1.246  16.855 -0.9628  0.5129 -0.1485
  630TMC3    C6 9330   0.253   1.286  16.746 -0.2732 -0.0111  0.2445
  630TMC3     C 9331   4.563   1.283  16.742  0.1188 -0.1518 -0.8725
  630TMC3     O 9332   4.493   1.254  16.641 -0.0101  0.0052 -0.5571
  630TMC3     H 9333   4.716   1.326  16.547  0.2530  0.5667  0.6558
  630TMC3    H1 9334   4.721   1.193  16.949 -1.4677 -0.2457 -0.5515
  630TMC3    H2 9335   0.362   1.293  16.745 -0.2443 -0.2987  1.5285
  630TMC3    C7 9336   0.255   1.223  16.973 -0.2279  0.1961 -0.4439
  630TMC3    C8 9337   0.246   1.397  16.547 -0.9660  0.4036 -0.4815
  630TMC3    O1 9338   0.202   1.250  17.080 -0.4112 -0.2238 -0.5983
  630TMC3    O2 9339   0.336   1.463  16.598 -0.1772  0.3440  0.0391
  631MPD2     C 9340   2.552   1.321  15.892  0.6682  0.1280  0.8418
  631MPD2    C1 9341   2.636   1.343  15.783 -0.0147  0.0663 -0.0225
  631MPD2    C2 9342   2.744   1.258  15.750 -0.0338  0.5075 -0.8718
  631MPD2    C3 9343   2.776   1.148  15.834 -0.5652 -0.5868  0.8202
  631MPD2    C4 9344   2.688   1.126  15.943 -0.3902  0.3605  1.1710
  631MPD2    C5 9345   2.583   1.211  15.972 -0.6308  0.0608 -0.1215
  631MPD2     H 9346   2.805   1.292  15.667  1.1623  0.3486 -0.0613
  631MPD2    H1 9347   2.718   1.051  16.015 -0.0294 -0.3257  0.3080
  631MPD2    H2 9348   2.475   1.394  15.916  0.9032  0.3311  0.9713
  631MPD2    H3 9349   2.518   1.193  16.057 -0.3881  0.5472  0.1659
  631MPD2     N 9350   2.888   1.075  15.805 -0.2656  0.7105  0.1198
  631MPD2    H5 9351   2.951   1.091  15.727  1.1258  0.9685  1.3106
  631MPD2    N1 9352   2.610   1.463  15.713 -0.5616  0.5317 -0.1957
  631MPD2    H7 9353   2.560   1.529  15.771 -1.1410 -0.8187  0.8402
  632TMC3    C1 9354   2.652   1.646  15.568 -0.0303 -0.4549 -0.2583
  632TMC3    C2 9355   2.560   1.715  15.643 -0.8323  0.1835  0.5301
  632TMC3    C3 9356   2.562   1.853  15.631 -0.3102  0.7559 -0.0207
  632TMC3    C4 9357   2.745   1.709  15.492 -0.6406  0.2693 -0.0761
  632TMC3    C5 9358   2.736   1.838  15.480  0.4837 -1.2170 -0.2669
  632TMC3    C6 9359   2.648   1.920  15.544 -0.2952  1.5578  0.2912
  632TMC3     C 9360   2.674   1.505  15.598 -0.3674 -0.0422 -0.0981
  632TMC3     O 9361   2.750   1.447  15.520 -0.1638  0.3099  0.6074
  632TMC3     H 9362   2.490   1.670  15.713 -0.3836  1.1260  1.5865
  632TMC3    H1 9363   2.814   1.648  15.436 -2.2207 -1.9701  0.4305
  632TMC3    H2 9364   2.646   2.025  15.519 -1.3716  1.5858  0.4764
  632TMC3    C7 9365   2.819   1.897  15.373 -0.9895 -0.5129 -0.3856
  632TMC3    C8 9366   2.482   1.922  15.737  0.1566 -0.1137 -0.1203
  632TMC3    O1 9367   2.758   1.964  15.293  0.1830 -0.7226 -0.5374
  632TMC3    O2 9368   2.389   1.860  15.784 -0.8497 -0.1261  0.5817
  633MPD2     C 9369   2.518   4.495   0.023  0.0172  0.1462  0.4884
  633MPD2    C1 9370   2.483   4.371  17.674 -0.3050  0.0592 -0.5206
  633MPD2    C2 9371   2.493   4.265   0.073 -0.2237 -0.4181 -0.2235
  633MPD2    C3 9372   2.546   4.281   0.197 -0.6925  0.4032 -0.6675
  633MPD2    C4 9373   2.574   4.404   0.240  0.5922 -0.0827 -0.5479
  633MPD2    C5 9374   2.553   4.509   0.154  0.1452 -0.2546 -0.3663
  633MPD2     H 9375   2.465   4.165   0.041 -0.0092 -1.0931  1.6269
  633MPD2    H1 9376   2.607   4.420   0.342  0.7203 -0.1326 -0.5810
  633MPD2    H2 9377   2.534   4.579  17.650  1.9304  0.0734  0.8762
  633MPD2    H3 9378   2.585   4.608   0.182  0.5640 -0.5114  0.0600
  633MPD2     N 9379   2.563   4.175   0.290  0.6202  0.8129 -0.0630
  633MPD2    H5 9380   2.584   4.203   0.385 -0.5243 -0.5982  0.6137
  633MPD2    N1 9381   2.449   4.337  17.548 -1.4341  0.4078 -0.2910
  633MPD2    H7 9382   2.444   4.237  17.529  2.7755 -0.2364  2.0577
  634TMC3    C1 9383   2.418   4.368  17.320 -0.3781  0.6814  0.2464
  634TMC3    C2 9384   2.481   4.252  17.283 -0.2991 -0.0522 -0.3515
  634TMC3    C3 9385   2.514   4.225  17.155 -0.3118  0.1180  0.2413
  634TMC3    C4 9386   2.388   4.459  17.218  1.2677  0.7743  0.2867
  634TMC3    C5 9387   2.411   4.425  17.084  0.1262  0.1522 -0.1405
  634TMC3    C6 9388   2.471   4.302  17.053  1.0411  0.3641 -0.5110
  634TMC3     C 9389   2.414   4.425  17.448 -0.7956  0.3901  0.2311
  634TMC3     O 9390   2.394   4.545  17.465 -0.6677 -0.2440 -0.5323
  634TMC3     H 9391   2.507   4.183  17.363 -1.2989 -0.6353 -0.5292
  634TMC3    H1 9392   2.332   4.550  17.238  0.3668 -0.1939  2.2923
  634TMC3    H2 9393   2.495   4.285  16.949  0.0103  1.8627 -0.9946
  634TMC3    C7 9394   2.387   4.520  16.973  0.0509  0.2711 -0.6567
  634TMC3    C8 9395   2.567   4.086  17.139 -0.1086 -0.4229 -0.0628
  634TMC3    O1 9396   2.395   4.479  16.861 -0.0586  0.0639  0.3750
  634TMC3    O2 9397   2.591   4.020  17.237 -0.2494  0.7575 -0.1613
  635TMC3    C1 9398   2.577   0.058   0.864 -0.0307 -0.0367 -0.3374
  635TMC3    C2 9399   2.706   0.038   0.903 -0.3963 -0.8677  0.7356
  635TMC3    C3 9400   2.737   4.646   0.964  0.3566  0.4795  0.2503
  635TMC3    C4 9401   2.473   4.695   0.887  0.9705 -0.3749  0.6827
  635TMC3    C5 9402   2.504   4.583   0.954  0.1399  0.5264 -0.0472
  635TMC3    C6 9403   2.637   4.553   0.981 -0.2538  1.0100  0.9720
  635TMC3     C 9404   2.548   0.192   0.819  0.1836 -0.0738 -0.3284
  635TMC3     O 9405   2.641   0.272   0.832 -0.0172  0.5133 -0.3768
  635TMC3     H 9406   2.777   0.119   0.900  1.5091 -2.6196 -0.9664
  635TMC3    H1 9407   2.368   4.721   0.873  0.9066 -1.5039 -1.0106
  635TMC3    H2 9408   2.665   4.473   1.049  0.9076  1.4094  0.9613
  635TMC3    C7 9409   2.401   4.509   1.024  0.3019 -0.2400 -0.4174
  635TMC3    C8 9410   2.876   4.626   1.004 -0.4862 -0.1834 -0.3257
  635TMC3    O1 9411   2.292   4.565   1.026  0.2471 -0.3333 -0.3345
  635TMC3    O2 9412   2.945   0.005   1.027  0.4308  0.0692 -0.7016
  636MPD2     C 9413   3.907   0.097  15.990 -0.4457  0.2652  0.3531
  636MPD2    C1 9414   3.888   0.101  16.127 -0.3402 -0.1194  0.4150
  636MPD2    C2 9415   3.901   4.700  16.199  0.6715 -0.3877 -0.0669
  636MPD2    C3 9416   3.919   4.583  16.139 -0.7190  0.5375 -1.1698
  636MPD2    C4 9417   3.922   4.582  15.999  0.0270  0.8646  0.0133
  636MPD2    C5 9418   3.926   4.698  15.930  0.0100  0.0597 -0.3575
  636MPD2     H 9419   3.884   4.702  16.307  0.2136 -2.6138 -0.0950
  636MPD2    H1 9420   3.932   4.488  15.947 -2.6447  0.5075  0.1919
  636MPD2    H2 9421   3.891   0.188  15.932  1.2306  0.2020 -0.2313
  636MPD2    H3 9422   3.921   4.698  15.822 -2.1620 -0.0022 -0.2605
  636MPD2     N 9423   3.934   4.473  16.224  0.5238  0.6713  0.0251
  636MPD2    H5 9424   3.923   4.496  16.322 -0.3347 -2.8667  0.7810
  636MPD2    N1 9425   3.846   0.215  16.199 -0.2817 -0.0287  0.2460
  636MPD2    H7 9426   3.836   0.207  16.300  1.2824 -0.6713  0.3413
  637TMC3    C1 9427   3.968   4.252  16.306  0.0238 -0.0576  0.0183
  637TMC3    C2 9428   3.929   4.310  16.419  0.2459 -0.0963  0.8767
  637TMC3    C3 9429   3.996   4.281  16.533 -0.3304  0.3624 -0.5198
  637TMC3    C4 9430   4.068   4.159  16.295  0.8153  0.0810 -0.4146
  637TMC3    C5 9431   4.125   4.123  16.413  0.3601  1.0368  0.0303
  637TMC3    C6 9432   4.082   4.179  16.530 -0.1946  0.0110  0.2355
  637TMC3     C 9433   3.957   4.341  16.186 -0.2035  0.3214  0.2229
  637TMC3     O 9434   3.984   4.295  16.074 -0.2530 -1.4435  0.0181
  637TMC3     H 9435   3.841   4.374  16.418 -0.2623 -0.8252 -0.7793
  637TMC3    H1 9436   4.093   4.116  16.199  1.1685 -1.0935  0.2090
  637TMC3    H2 9437   4.109   4.122  16.619 -0.3930  1.3630  1.1611
  637TMC3    C7 9438   4.268   4.143  16.406 -0.9125 -0.2514 -0.1739
  637TMC3    C8 9439   4.052   4.399  16.594  0.4380 -0.3762  0.2086
  637TMC3    O1 9440   4.312   4.173  16.292 -0.4010 -0.3944  0.3605
  637TMC3    O2 9441   4.032   4.500  16.522 -0.6579 -0.2826 -0.1525
  638MPD2     C 9442   3.869   3.503  15.095  0.3271 -0.0647  0.0310
  638MPD2    C1 9443   3.841   3.387  15.026 -0.1584  0.2206  0.0064
  638MPD2    C2 9444   3.796   3.275  15.095 -0.4534  0.1055  0.3571
  638MPD2    C3 9445   3.766   3.280  15.232  0.6026  0.0969 -0.0309
  638MPD2    C4 9446   3.789   3.396  15.303 -0.1895  0.1128  0.2636
  638MPD2    C5 9447   3.834   3.506  15.228  0.3754  0.2374  0.0553
  638MPD2     H 9448   3.762   3.187  15.041 -0.2970  0.0794  0.3003
  638MPD2    H1 9449   3.763   3.400  15.408 -0.3642  1.7082  0.1642
  638MPD2    H2 9450   3.902   3.597  15.054 -1.6795  0.5923 -0.0503
  638MPD2    H3 9451   3.839   3.603  15.276 -1.1662 -0.3014  1.2741
  638MPD2     N 9452   3.705   3.168  15.288 -0.0231 -0.5749 -0.2564
  638MPD2    H5 9453   3.684   3.095  15.221 -0.8611 -0.6763  0.1192
  638MPD2    N1 9454   3.860   3.391  14.887  0.1768  0.1426 -0.1021
  638MPD2    H7 9455   3.916   3.468  14.850 -0.0131  0.8851  1.1841
  639TMC3    C1 9456   3.611   3.029  15.439 -0.1113  1.1167 -0.0014
  639TMC3    C2 9457   3.496   2.997  15.374 -0.5270 -0.2830  0.4914
  639TMC3    C3 9458   3.442   2.869  15.368 -0.5111  0.3219 -0.0822
  639TMC3    C4 9459   3.681   2.936  15.505 -0.6999  0.1083 -0.6563
  639TMC3    C5 9460   3.630   2.809  15.490  0.0010 -1.0133  0.9266
  639TMC3    C6 9461   3.508   2.771  15.437 -0.2702 -0.3400 -0.8181
  639TMC3     C 9462   3.674   3.153  15.420  0.3574 -0.1030  0.2669
  639TMC3     O 9463   3.691   3.230  15.515  0.1420  0.7207  1.3629
  639TMC3     H 9464   3.449   3.066  15.305  1.8439  0.2608 -0.5837
  639TMC3    H1 9465   3.777   2.963  15.546 -0.1507 -1.6379 -0.8031
  639TMC3    H2 9466   3.495   2.665  15.420 -3.5267 -0.4750  2.5159
  639TMC3    C7 9467   3.725   2.699  15.499 -0.0739  0.0546  0.1273
  639TMC3    C8 9468   3.365   2.822  15.252 -0.4343  0.1289 -0.4207
  639TMC3    O1 9469   3.681   2.604  15.566  0.0409 -0.1082 -0.1582
  639TMC3    O2 9470   3.387   2.703  15.221 -0.7210 -0.1956  0.4475
  640MPD2     C 9471   3.614   1.547   9.989 -0.6150 -0.0444 -0.3651
  640MPD2    C1 9472   3.488   1.593   9.963 -0.3299 -0.3027 -0.2530
  640MPD2    C2 9473   3.475   1.717   9.891 -0.4994  0.1265 -0.3953
  640MPD2    C3 9474   3.585   1.799   9.882  0.6115  0.3082  0.1724
  640MPD2    C4 9475   3.710   1.753   9.923  0.4778 -0.8354  0.2272
  640MPD2    C5 9476   3.724   1.625   9.972 -0.1257 -0.1555  0.0298
  640MPD2     H 9477   3.377   1.755   9.865 -0.6719  0.5784  0.9321
  640MPD2    H1 9478   3.799   1.814   9.918  0.3059 -0.7324 -1.8478
  640MPD2    H2 9479   3.624   1.446  10.026  2.0020  0.5776  0.5895
  640MPD2    H3 9480   3.823   1.597  10.008 -0.1801  0.1621  0.4234
  640MPD2     N 9481   3.576   1.930   9.843  0.6046 -0.0238 -0.2070
  640MPD2    H5 9482   3.663   1.982   9.852  0.6530 -0.2602  0.7171
  640MPD2    N1 9483   3.380   1.511  10.000  0.0496 -0.3470  0.3320
  640MPD2    H7 9484   3.403   1.420  10.039  0.3942 -1.9587 -3.6249
  641TMC3    C1 9485   3.164   1.421  10.015  0.0971 -0.5752  0.1640
  641TMC3    C2 9486   3.178   1.376  10.141  0.3507 -0.5744  0.4019
  641TMC3    C3 9487   3.114   1.261  10.178 -0.1311 -0.0088  0.0362
  641TMC3    C4 9488   3.104   1.343   9.915 -0.2262 -0.1961 -0.3689
  641TMC3    C5 9489   3.046   1.224   9.957  0.0047 -0.6645  0.4654
  641TMC3    C6 9490   3.048   1.187  10.089 -0.5405  0.6575  0.8030
  641TMC3     C 9491   3.250   1.525   9.965  0.4876  0.0246  0.3886
  641TMC3     O 9492   3.192   1.609   9.893  0.1691  0.1758 -0.0667
  641TMC3     H 9493   3.221   1.443  10.215  0.3371 -1.3649  1.1366
  641TMC3    H1 9494   3.130   1.380   9.816  1.3208 -1.9662 -0.6290
  641TMC3    H2 9495   2.999   1.096  10.124  0.5202 -0.1225  0.2770
  641TMC3    C7 9496   3.039   1.110   9.860 -0.2445 -0.0628 -0.5597
  641TMC3    C8 9497   3.172   1.181  10.284  0.1936 -0.0565  0.1348
  641TMC3    O1 9498   3.012   1.002   9.914  0.2421 -0.4327  0.8225
  641TMC3    O2 9499   3.191   1.061  10.269  0.2243 -0.4532 -0.0135
  642TMC3    C1 9500   0.334   3.387  11.813 -0.1620  0.0955  0.1023
  642TMC3    C2 9501   0.364   3.411  11.680 -0.2695 -0.6037  0.1216
  642TMC3    C3 9502   0.415   3.303  11.617  0.3721 -0.5892 -0.3088
  642TMC3    C4 9503   0.341   3.266  11.879  0.3768 -0.0727 -0.1667
  642TMC3    C5 9504   0.389   3.164  11.803 -0.5554  0.0883 -0.4152
  642TMC3    C6 9505   0.422   3.177  11.674 -0.2537 -0.3671  0.5594
  642TMC3     C 9506   0.302   3.511  11.886  0.1811 -0.4259 -0.0081
  642TMC3     O 9507   0.353   3.618  11.855 -0.1493 -0.5710 -0.0115
  642TMC3     H 9508   0.355   3.509  11.635 -1.9787 -0.2121  1.3156
  642TMC3    H1 9509   0.305   3.243  11.978  2.3118  1.7379  0.9530
  642TMC3    H2 9510   0.456   3.091  11.617  1.8399  0.2303  0.9277
  642TMC3    C7 9511   0.336   3.034  11.829 -0.6703 -0.0424 -0.3057
  642TMC3    C8 9512   0.445   3.308  11.474 -0.9114  0.4348 -0.3406
  642TMC3    O1 9513   0.286   2.978  11.732 -0.0118 -0.4733 -0.2824
  642TMC3    O2 9514   0.501   3.413  11.441  0.0558 -0.1811 -0.0862
  643TMC3    C1 9515   4.221   2.683   0.286  0.7479 -0.3475 -0.4980
  643TMC3    C2 9516   4.094   2.704   0.236  0.6262  0.6707 -0.9634
  643TMC3    C3 9517   4.032   2.616   0.151  0.2615 -0.4423  0.0003
  643TMC3    C4 9518   4.288   2.567   0.249  0.1326  0.6312  0.7235
  643TMC3    C5 9519   4.224   2.479   0.155 -0.2110 -0.5118  0.3029
  643TMC3    C6 9520   4.100   2.508   0.102  0.2235  0.4848 -0.5770
  643TMC3     C 9521   4.271   2.774   0.390 -0.8796 -0.5275  0.0549
  643TMC3     O 9522   4.226   2.888   0.387  0.3495  0.1837 -0.0690
  643TMC3     H 9523   4.033   2.785   0.275  1.3518  0.3258  0.8804
  643TMC3    H1 9524   4.390   2.546   0.277  1.2608 -0.7718 -4.4856
  643TMC3    H2 9525   4.049   2.440   0.034  1.0159  1.7463 -2.4501
  643TMC3    C7 9526   4.323   2.440   0.056 -0.0244  0.3463  0.2475
  643TMC3    C8 9527   3.957   2.674   0.047  0.3029  0.0009 -0.0659
  643TMC3    O1 9528   4.431   2.507   0.057  0.3939 -0.3474 -0.6682
  643TMC3    O2 9529   3.903   2.595  17.661  0.5690  0.5650  1.2412
  644MPD2     C 9530   3.092   1.869   9.331 -0.1224  0.0078  0.0034
  644MPD2    C1 9531   3.057   1.739   9.324  0.0434  0.4983  0.0666
  644MPD2    C2 9532   2.941   1.697   9.390 -0.3817  0.6699 -0.0911
  644MPD2    C3 9533   2.869   1.773   9.473  0.4511 -0.1379  0.7117
  644MPD2    C4 9534   2.902   1.905   9.482  0.4342 -0.2844 -0.9571
  644MPD2    C5 9535   3.010   1.949   9.410 -1.0296 -0.4946  0.0510
  644MPD2     H 9536   2.908   1.594   9.385  0.7166  0.5114 -4.1273
  644MPD2    H1 9537   2.854   1.976   9.549  0.6966 -1.1063  0.1154
  644MPD2    H2 9538   3.179   1.912   9.283 -0.6734 -0.6158 -1.5557
  644MPD2    H3 9539   3.033   2.055   9.414  0.9756 -0.8293 -2.4419
  644MPD2     N 9540   2.759   1.715   9.537  0.7240  0.1834 -0.0144
  644MPD2    H5 9541   2.751   1.614   9.537 -1.0474  0.3367 -1.1402
  644MPD2    N1 9542   3.152   1.649   9.263  0.1514 -0.0297 -0.5844
  644MPD2    H7 9543   3.247   1.681   9.250  0.5600 -0.6028  0.9695
  645TMC3    C1 9544   2.577   1.684   9.669 -0.0307  0.0726 -0.1652
  645TMC3    C2 9545   2.528   1.578   9.596 -0.6917 -0.3509 -0.0448
  645TMC3    C3 9546   2.439   1.494   9.649 -0.1348  0.1006 -1.0707
  645TMC3    C4 9547   2.530   1.711   9.795 -0.0065 -0.2097 -0.4133
  645TMC3    C5 9548   2.438   1.628   9.843 -0.1587  0.2619  0.4261
  645TMC3    C6 9549   2.407   1.510   9.784 -0.1511 -0.0808  0.1410
  645TMC3     C 9550   2.673   1.776   9.612  0.1869  0.4787 -0.5339
  645TMC3     O 9551   2.674   1.888   9.658  0.9400 -0.3975  0.0911
  645TMC3     H 9552   2.572   1.563   9.498 -2.2759  0.4220 -0.8708
  645TMC3    H1 9553   2.562   1.797   9.852  1.5379 -2.2240  1.7478
  645TMC3    H2 9554   2.358   1.432   9.841 -0.0416  0.8631  1.5122
  645TMC3    C7 9555   2.400   1.638   9.979 -0.0440  0.1751 -0.1766
  645TMC3    C8 9556   2.421   1.361   9.582  0.1718 -0.3258 -0.4105
  645TMC3    O1 9557   2.478   1.680  10.063  0.4570  0.4251 -0.5580
  645TMC3    O2 9558   2.428   1.265   9.655 -0.5203 -0.2289 -0.2095
  646MPD2     C 9559   3.662   2.018  14.892 -0.0548  0.1370 -0.2993
  646MPD2    C1 9560   3.570   2.020  14.996 -0.0067  0.4184  0.0118
  646MPD2    C2 9561   3.442   2.073  14.975 -0.0592 -0.1208  0.4892
  646MPD2    C3 9562   3.409   2.127  14.850  0.7786 -0.1229 -0.1136
  646MPD2    C4 9563   3.508   2.139  14.757  0.1527  0.7383 -1.1280
  646MPD2    C5 9564   3.630   2.091  14.781 -0.5244 -0.6669  0.1919
  646MPD2     H 9565   3.363   2.087  15.048  0.9994 -1.2660  1.8347
  646MPD2    H1 9566   3.501   2.191  14.663 -1.1132  1.1448 -0.7967
  646MPD2    H2 9567   3.760   1.972  14.898 -0.0182  0.0327 -1.5920
  646MPD2    H3 9568   3.704   2.108  14.703 -0.1696  0.2519  0.7356
  646MPD2     N 9569   3.276   2.169  14.831 -0.3822  0.2440 -0.0001
  646MPD2    H5 9570   3.214   2.169  14.912  0.1554 -2.0787  0.4117
  646MPD2    N1 9571   3.619   1.963  15.115  0.4261 -0.2971  0.9080
  646MPD2    H7 9572   3.703   1.908  15.100  1.9243  1.6631  2.1226
  647TMC3    C1 9573   3.617   1.884  15.331 -0.2468 -0.5582  0.2855
  647TMC3    C2 9574   3.544   1.783  15.393 -0.0205  0.1029  0.4051
  647TMC3    C3 9575   3.609   1.674  15.447 -0.1260 -0.0412  0.4820
  647TMC3    C4 9576   3.749   1.881  15.333  0.3593 -0.4497 -0.3596
  647TMC3    C5 9577   3.812   1.771  15.389 -0.0437  0.1789 -0.4524
  647TMC3    C6 9578   3.745   1.667  15.436  0.0587 -0.2073  0.0549
  647TMC3     C 9579   3.549   1.963  15.227 -0.7717  0.1556 -0.3732
  647TMC3     O 9580   3.434   2.004  15.252  0.1904  0.1773  0.0004
  647TMC3     H 9581   3.436   1.788  15.398  0.0860  1.6813  0.9330
  647TMC3    H1 9582   3.804   1.967  15.296 -1.6494  0.3603 -1.4663
  647TMC3    H2 9583   3.800   1.586  15.484 -1.4604 -0.1479  1.8915
  647TMC3    C7 9584   3.956   1.767  15.387  0.5527  0.0722 -0.1834
  647TMC3    C8 9585   3.546   1.587  15.536  0.2137 -0.6333  0.0974
  647TMC3    O1 9586   4.002   1.658  15.376 -0.3776 -0.1589 -0.1735
  647TMC3    O2 9587   3.466   1.631  15.614 -0.4320 -0.1264  0.0303
  648TMC3    C1 9588   2.940   4.144  16.195 -0.5361  0.4583  0.1709
  648TMC3    C2 9589   2.955   4.019  16.142  0.6142  0.3439  0.2399
  648TMC3    C3 9590   2.965   4.004  16.007  0.0441  0.4203 -0.4544
  648TMC3    C4 9591   2.934   4.254  16.100 -0.2142  0.2553 -0.0178
  648TMC3    C5 9592   2.937   4.227  15.962 -0.4954  0.8278 -0.1376
  648TMC3    C6 9593   2.955   4.102  15.913 -0.4160  0.1166 -0.1821
  648TMC3     C 9594   2.930   4.177  16.340 -0.1999 -0.0522  0.6798
  648TMC3     O 9595   2.976   4.283  16.368 -0.6747 -0.0545  0.2001
  648TMC3     H 9596   2.965   3.938  16.213 -3.0844  0.8997  1.4032
  648TMC3    H1 9597   2.925   4.351  16.149 -0.5021  0.0877  0.2576
  648TMC3    H2 9598   2.949   4.068  15.810  1.2197 -1.6896  0.3162
  648TMC3    C7 9599   2.866   4.315  15.875 -0.1952 -0.0913  0.5424
  648TMC3    C8 9600   3.007   3.875  15.956 -0.1630  0.1274 -0.2147
  648TMC3    O1 9601   2.892   4.307  15.757 -0.4447  0.1660  0.6215
  648TMC3    O2 9602   2.954   3.777  16.002 -0.3241  0.6119 -0.7307
  649TMC3    C1 9603   2.311   0.534  12.400 -0.0794  0.1866  1.0635
  649TMC3    C2 9604   2.447   0.541  12.397 -0.9076  0.6084 -0.3568
  649TMC3    C3 9605   2.524   0.491  12.503  0.0518  0.2340 -0.3328
  649TMC3    C4 9606   2.243   0.455  12.493 -0.5278  0.1574  0.0277
  649TMC3    C5 9607   2.319   0.400  12.595  0.4149 -0.1049 -0.5508
  649TMC3    C6 9608   2.458   0.427  12.607 -0.1538  0.5846 -0.0342
  649TMC3     C 9609   2.220   0.571  12.291 -0.2673  0.4859  0.4259
  649TMC3     O 9610   2.099   0.577  12.314  0.1071  0.6675  0.3868
  649TMC3     H 9611   2.495   0.608  12.326  0.2633  0.2801  0.1194
  649TMC3    H1 9612   2.136   0.464  12.507 -0.8082 -0.4479 -1.7532
  649TMC3    H2 9613   2.520   0.382  12.684  0.6310 -1.1352 -1.6674
  649TMC3    C7 9614   2.260   0.307  12.682  0.8123 -0.3121 -1.2802
  649TMC3    C8 9615   2.667   0.459  12.488 -0.4154 -0.3098 -0.5627
  649TMC3    O1 9616   2.325   0.290  12.786  0.0529 -0.3240  0.7116
  649TMC3    O2 9617   2.729   0.439  12.592 -0.1132 -0.1036 -0.4001
  650TMC3    C1 9618   4.440   2.380  12.786  0.7689 -0.1833 -0.1310
  650TMC3    C2 9619   4.413   2.512  12.775  0.5773  0.7814 -0.0456
  650TMC3    C3 9620   4.357   2.561  12.656  0.4995  0.1141 -0.8880
  650TMC3    C4 9621   4.422   2.297  12.675 -0.0562 -0.0816 -1.3513
  650TMC3    C5 9622   4.361   2.348  12.559 -0.2940 -0.2159  0.4571
  650TMC3    C6 9623   4.330   2.482  12.545 -1.1184 -0.3636 -0.6386
  650TMC3     C 9624   4.519   2.338  12.892 -0.2366  0.1391 -0.2202
  650TMC3     O 9625   4.545   2.419  12.981  0.8844  0.4294  0.4531
  650TMC3     H 9626   4.438   2.583  12.853 -0.5861  0.0813  0.9705
  650TMC3    H1 9627   4.424   2.189  12.685  1.1833  0.1250  0.5991
  650TMC3    H2 9628   4.288   2.528  12.456  1.0755  0.6451 -1.1501
  650TMC3    C7 9629   4.300   2.252  12.464  0.2866 -0.1584  0.4780
  650TMC3    C8 9630   4.316   2.706  12.646  0.2477 -0.0019  0.3636
  650TMC3    O1 9631   4.290   2.137  12.503  0.2946  0.7306 -0.2070
  650TMC3    O2 9632   4.313   2.757  12.533  0.1218  0.0975 -0.2474
  651MPD2     C 9633   3.053   4.277  10.907  0.1146  0.4960 -0.8498
  651MPD2    C1 9634   2.972   4.358  10.983 -0.0191 -0.0699 -0.3507
  651MPD2    C2 9635   3.025   4.470  11.056 -0.0703 -0.2273 -0.6561
  651MPD2    C3 9636   3.157   4.483  11.057  0.4761 -0.3045  0.6049
  651MPD2    C4 9637   3.239   4.399  10.978  0.1949  0.6836 -0.3634
  651MPD2    C5 9638   3.188   4.290  10.912 -0.3470  0.1232  0.7984
  651MPD2     H 9639   2.958   4.520  11.125  0.8802  0.9011 -0.5444
  651MPD2    H1 9640   3.347   4.406  10.967  0.1025  1.4007 -0.7921
  651MPD2    H2 9641   3.011   4.199  10.845  0.4392 -1.0484  0.8833
  651MPD2    H3 9642   3.251   4.221  10.857  0.0563  0.5994  0.6639
  651MPD2     N 9643   3.217   4.567  11.151 -0.0434 -0.4952 -0.3474
  651MPD2    H5 9644   3.171   4.654  11.176 -2.8342 -1.8584 -0.7164
  651MPD2    N1 9645   2.833   4.341  10.982 -0.2808  0.0057 -0.0844
  651MPD2    H7 9646   2.787   4.409  11.041 -0.1768  0.9757 -1.1223
  652TMC3    C1 9647   3.532   0.128  11.272  0.4753 -0.1837  0.0667
  652TMC3    C2 9648   3.513   4.716  11.263 -0.0355  0.4242 -0.2008
  652TMC3    C3 9649   3.379   4.686  11.265 -0.3208 -0.1111  0.6082
  652TMC3    C4 9650   3.430   0.218  11.278 -0.1098 -0.2074 -0.5322
  652TMC3    C5 9651   3.303   0.182  11.295  0.0406  0.1268 -0.2807
  652TMC3    C6 9652   3.279   0.052  11.289  0.5561 -0.1562 -0.0343
  652TMC3     C 9653   3.672   0.169  11.306 -0.2946  0.4530 -0.1992
  652TMC3     O 9654   3.768   0.093  11.280 -0.4295  0.5821 -0.1477
  652TMC3     H 9655   3.594   4.650  11.237  0.5527  0.9680  0.2244
  652TMC3    H1 9656   3.455   0.319  11.248  0.2950 -0.3448 -0.6575
  652TMC3    H2 9657   3.179   0.017  11.315  0.0652  2.1742  1.1630
  652TMC3    C7 9658   3.187   0.277  11.266 -0.0967 -0.2495 -0.5976
  652TMC3    C8 9659   3.346   4.563  11.197 -0.8109  0.3068 -0.8513
  652TMC3    O1 9660   3.087   0.225  11.222  0.0488  0.2090 -0.1053
  652TMC3    O2 9661   3.437   4.483  11.176 -0.0131 -0.3001  0.2077
  653MPD2     C 9662   2.200   4.169   0.134  0.0097  0.3666 -0.1139
  653MPD2    C1 9663   2.145   4.259   0.051  0.1056  0.3938 -0.3320
  653MPD2    C2 9664   2.086   4.218  17.626  0.2192 -0.4388  0.2279
  653MPD2    C3 9665   2.085   4.086  17.590 -0.6022 -0.2319 -0.1459
  653MPD2    C4 9666   2.144   3.994  17.677 -0.5097 -0.3787  0.3363
  653MPD2    C5 9667   2.205   4.034   0.103 -0.2248 -0.3292 -0.0674
  653MPD2     H 9668   2.051   4.292  17.554  1.5367  1.2062  1.2711
  653MPD2    H1 9669   2.160   3.891  17.646 -1.3379 -0.4243  0.0713
  653MPD2    H2 9670   2.248   4.201   0.226  2.3195 -2.5642 -0.2724
  653MPD2    H3 9671   2.246   3.960   0.170  0.7496 -0.8165 -1.1960
  653MPD2     N 9672   2.035   4.051  17.466 -0.3699  0.2014  0.0778
  653MPD2    H5 9673   2.016   4.130  17.405  0.0034  0.3785  0.1959
  653MPD2    N1 9674   2.149   4.400   0.076  1.0258  0.1425 -0.2802
  653MPD2    H7 9675   2.105   4.454   0.002 -0.0865 -1.7545 -1.0084
  654TMC3    C1 9676   1.912   3.923  17.308  0.7201 -0.3393  0.5313
  654TMC3    C2 9677   1.859   4.036  17.256 -1.0777  0.3466  0.1043
  654TMC3    C3 9678   1.821   4.036  17.127  0.1425 -0.4580  0.0457
  654TMC3    C4 9679   1.927   3.812  17.238 -0.2430 -0.5245  0.7601
  654TMC3    C5 9680   1.899   3.817  17.103  0.2790 -0.1313 -0.5015
  654TMC3    C6 9681   1.841   3.928  17.048 -0.4690 -0.2140  0.3751
  654TMC3     C 9682   1.983   3.926  17.433  0.5214 -0.1472  0.2972
  654TMC3     O 9683   1.988   3.827  17.501  0.2587  0.2103 -0.0583
  654TMC3     H 9684   1.835   4.120  17.320 -0.1424  1.3084 -0.8112
  654TMC3    H1 9685   1.992   3.735  17.279 -0.5889 -0.5759  1.2073
  654TMC3    H2 9686   1.821   3.934  16.942  2.7507  2.0189 -0.1297
  654TMC3    C7 9687   1.962   3.733  17.000 -0.1542  0.0853  0.1856
  654TMC3    C8 9688   1.734   4.145  17.078 -0.2046 -0.2602 -0.4446
  654TMC3    O1 9689   1.973   3.781  16.887  0.3965 -0.2200  0.0882
  654TMC3    O2 9690   1.692   4.215  17.174  0.3930  0.3710 -0.5815
  655MPD2     C 9691   3.494   4.653  16.203 -0.3152 -0.3100  0.0382
  655MPD2    C1 9692   3.429   0.006  16.103  0.0598 -0.2518  0.2475
  655MPD2    C2 9693   3.450   4.688  15.977  0.9502  0.7235 -0.0272
  655MPD2    C3 9694   3.532   4.583  15.941  0.3106 -0.0894  0.1540
  655MPD2    C4 9695   3.607   4.520  16.039  0.2539  0.0342  0.3585
  655MPD2    C5 9696   3.588   4.561  16.166 -0.6643  0.4571  0.1172
  655MPD2     H 9697   3.389   0.011  15.900  0.1962 -0.0629  0.0924
  655MPD2    H1 9698   3.679   4.441  16.021  0.8904  1.4757 -3.3806
  655MPD2    H2 9699   3.479   4.683  16.307 -0.6518  0.6450 -0.2882
  655MPD2    H3 9700   3.647   4.510  16.241  0.8271  0.3061 -1.1694
  655MPD2     N 9701   3.546   4.525  15.816 -0.4488 -0.1847  0.3256
  655MPD2    H5 9702   3.623   4.460  15.802 -1.0902 -1.1149  1.1388
  655MPD2    N1 9703   3.332   0.106  16.122 -0.0528 -0.3882 -0.9697
  655MPD2    H7 9704   3.276   0.116  16.038 -1.9001  1.8617  0.5273
  656TMC3    C1 9705   3.172   0.243  16.210 -1.0478 -0.7862  0.0751
  656TMC3    C2 9706   3.068   0.233  16.306  0.0201 -0.0703 -0.0248
  656TMC3    C3 9707   2.940   0.220  16.253  0.1846 -0.1662  0.5905
  656TMC3    C4 9708   3.140   0.253  16.075 -0.1118  0.2354  0.6170
  656TMC3    C5 9709   3.011   0.249  16.033 -0.2233  0.1351 -0.4696
  656TMC3    C6 9710   2.910   0.241  16.124 -0.0569 -0.1132  0.1319
  656TMC3     C 9711   3.288   0.168  16.236 -0.0236 -0.3854 -0.7192
  656TMC3     O 9712   3.336   0.142  16.342 -0.4785  0.2200 -0.2777
  656TMC3     H 9713   3.088   0.210  16.410 -2.2215 -0.8662  0.2232
  656TMC3    H1 9714   3.218   0.276  16.003  0.8895 -3.3240  0.5740
  656TMC3    H2 9715   2.806   0.226  16.098  0.5987 -1.9758 -1.3760
  656TMC3    C7 9716   2.988   0.258  15.892  0.3239  0.3316  0.0255
  656TMC3    C8 9717   2.851   0.127  16.309 -0.1327 -0.4900 -0.7209
  656TMC3    O1 9718   3.076   0.235  15.812  0.0142  0.1589 -0.4762
  656TMC3    O2 9719   2.784   0.060  16.237  0.0905 -0.0471  0.1885
  657TMC3    C1 9720   2.327   4.048  14.375 -0.1989  0.3708  0.0984
  657TMC3    C2 9721   2.406   4.122  14.458 -0.1882  0.7270  0.3789
  657TMC3    C3 9722   2.371   4.255  14.475 -0.2815  0.1252 -0.2871
  657TMC3    C4 9723   2.218   4.102  14.306  0.2902  0.1423 -0.2664
  657TMC3    C5 9724   2.187   4.231  14.332  0.1846  0.8218  0.2651
  657TMC3    C6 9725   2.261   4.309  14.420  0.4492  0.3347 -0.2931
  657TMC3     C 9726   2.354   3.906  14.340  0.3845  1.1411 -0.6503
  657TMC3     O 9727   2.289   3.854  14.253 -0.7171  0.0435 -0.2271
  657TMC3     H 9728   2.486   4.076  14.516  0.1032 -1.0318 -1.4148
  657TMC3    H1 9729   2.192   4.049  14.216  0.6866  1.2368 -1.0283
  657TMC3    H2 9730   2.235   4.414  14.422 -0.5389  0.1693 -3.4009
  657TMC3    C7 9731   2.090   4.307  14.241 -0.2588 -0.3207 -0.2812
  657TMC3    C8 9732   2.442   4.317  14.584  0.5113 -0.2586  0.3917
  657TMC3    O1 9733   2.100   4.427  14.235 -0.2365 -0.0106 -0.3641
  657TMC3    O2 9734   2.565   4.294  14.588  0.3056 -0.0691 -0.1679
  658MPD2     C 9735   3.947   4.300  15.144 -0.0367 -1.1602 -0.7146
  658MPD2    C1 9736   3.878   4.422  15.138  0.1446 -0.3672 -0.0181
  658MPD2    C2 9737   3.869   4.487  15.020  0.5076 -0.1596  0.8107
  658MPD2    C3 9738   3.920   4.445  14.904  0.1787 -0.2551 -0.2646
  658MPD2    C4 9739   4.002   4.340  14.914 -0.1506  0.3887  0.0017
  658MPD2    C5 9740   4.020   4.262  15.025  0.4164  0.0349  0.5126
  658MPD2     H 9741   3.803   4.573  15.013  2.1934  1.2173  1.8530
  658MPD2    H1 9742   4.064   4.315  14.829  0.9226  4.3246 -0.3851
  658MPD2    H2 9743   3.954   4.242  15.235  1.4698 -1.9768 -1.3606
  658MPD2    H3 9744   4.082   4.174  15.014  0.8375  0.5349 -1.1103
  658MPD2     N 9745   3.893   4.521  14.796 -0.1632  0.3530  0.1388
  658MPD2    H5 9746   3.847   4.610  14.809  0.7871  0.3087  3.7269
  658MPD2    N1 9747   3.786   4.464  15.238 -0.3833 -0.7289  0.4275
  658MPD2    H7 9748   3.727   4.545  15.221  1.4331  0.4151 -0.4978
  659TMC3    C1 9749   3.648   4.434  15.417  0.2479  0.4644  0.4678
  659TMC3    C2 9750   3.627   4.466  15.543  0.0310  0.1588 -0.3002
  659TMC3    C3 9751   3.503   4.486  15.582  0.0162  0.7013  0.0900
  659TMC3    C4 9752   3.555   4.385  15.335 -0.2379  0.3577  0.8907
  659TMC3    C5 9753   3.423   4.396  15.383 -0.3139  1.1357  0.5123
  659TMC3    C6 9754   3.403   4.460  15.499  0.3711 -0.7193 -0.6163
  659TMC3     C 9755   3.773   4.411  15.362 -0.4622 -0.1799  0.0408
  659TMC3     O 9756   3.851   4.347  15.429 -0.4224  0.5737 -0.2392
  659TMC3     H 9757   3.716   4.491  15.600 -0.6212  3.1866 -0.6027
  659TMC3    H1 9758   3.585   4.341  15.241 -2.3549  1.0052 -0.0837
  659TMC3    H2 9759   3.302   4.483  15.532  0.4147 -3.2168  1.2613
  659TMC3    C7 9760   3.313   4.399  15.287  0.2579 -0.0713  0.8053
  659TMC3    C8 9761   3.465   4.554  15.706  0.1098 -0.4088 -0.2749
  659TMC3    O1 9762   3.210   4.445  15.326  0.4334  0.1917 -0.1311
  659TMC3    O2 9763   3.376   4.637  15.697  0.1636  0.2667  0.2883
  660MPD2     C 9764   1.576   2.801  12.693  0.0396 -0.1134 -0.2584
  660MPD2    C1 9765   1.469   2.885  12.673  1.0636  0.3784 -0.8916
  660MPD2    C2 9766   1.363   2.867  12.762  0.8350  0.3136  0.1223
  660MPD2    C3 9767   1.363   2.778  12.874 -0.1414  0.3846  0.0365
  660MPD2    C4 9768   1.486   2.727  12.898  0.4487 -0.1351  0.0037
  660MPD2    C5 9769   1.584   2.734  12.810 -0.0256 -0.0744 -0.2210
  660MPD2     H 9770   1.281   2.933  12.737 -0.3639  0.0791  3.4110
  660MPD2    H1 9771   1.514   2.672  12.987  0.6802  0.7406  0.4749
  660MPD2    H2 9772   1.653   2.795  12.617 -0.0302 -1.6587 -0.2122
  660MPD2    H3 9773   1.672   2.673  12.827  0.3928 -0.0943 -2.4646
  660MPD2     N 9774   1.258   2.766  12.972 -0.1614  0.2338 -0.7235
  660MPD2    H5 9775   1.271   2.688  13.035 -0.5546  0.1918 -0.6907
  660MPD2    N1 9776   1.468   2.968  12.559  0.2679 -0.2395  0.3242
  660MPD2    H7 9777   1.551   2.961  12.501  0.8315 -2.5797  1.4289
  661TMC3    C1 9778   1.405   3.143  12.411 -0.6299  0.4206  0.4472
  661TMC3    C2 9779   1.481   3.084  12.315 -0.4420 -0.2982  1.0325
  661TMC3    C3 9780   1.489   3.144  12.190  0.5790 -0.3929  0.3275
  661TMC3    C4 9781   1.339   3.265  12.383 -0.1596 -0.8730 -0.5989
  661TMC3    C5 9782   1.334   3.307  12.256 -0.0305 -0.5330 -0.0012
  661TMC3    C6 9783   1.415   3.252  12.159 -0.1552 -0.0937 -0.0978
  661TMC3     C 9784   1.381   3.072  12.529  0.3749 -0.2369  0.1854
  661TMC3     O 9785   1.292   3.119  12.594 -0.1491 -0.9151  1.2864
  661TMC3     H 9786   1.518   2.983  12.332  0.6337 -0.2899 -1.3986
  661TMC3    H1 9787   1.270   3.300  12.459  2.1129 -0.4820  1.2722
  661TMC3    H2 9788   1.418   3.297  12.060 -2.9889 -2.0062 -1.0520
  661TMC3    C7 9789   1.212   3.375  12.214 -0.2444 -0.3333 -0.4896
  661TMC3    C8 9790   1.550   3.074  12.080  0.1816 -0.2196  0.3122
  661TMC3    O1 9791   1.158   3.454  12.291  0.0548 -0.3889  0.2885
  661TMC3    O2 9792   1.522   3.104  11.968 -0.5362 -0.2033  0.0067
  662MPD2     C 9793   1.130   2.788  17.338  0.5907  0.6870  0.7833
  662MPD2    C1 9794   1.187   2.727  17.447 -0.6950 -0.7057  0.0391
  662MPD2    C2 9795   1.211   2.800  17.562 -0.2379 -0.0043 -0.5771
  662MPD2    C3 9796   1.191   2.942  17.559 -0.4100  0.0656 -0.1652
  662MPD2    C4 9797   1.132   2.997  17.444  0.7999 -0.3428 -0.0292
  662MPD2    C5 9798   1.111   2.921  17.334 -0.1543 -0.2725  0.0197
  662MPD2     H 9799   1.256   2.750  17.647 -0.9758  2.9698  1.5813
  662MPD2    H1 9800   1.127   3.105  17.439  0.5212 -0.4551 -1.9257
  662MPD2    H2 9801   1.093   2.722  17.260  0.4242  0.0764  1.3740
  662MPD2    H3 9802   1.069   2.969  17.247 -3.1910  1.2629  2.3550
  662MPD2     N 9803   1.223   3.031  17.667  0.6414 -0.0293 -0.3059
  662MPD2    H5 9804   1.207   3.129  17.650  0.4024 -0.0958 -0.4635
  662MPD2    N1 9805   1.199   2.584  17.450 -0.5606  0.2767 -0.0035
  662MPD2    H7 9806   1.213   2.539  17.539 -0.1583 -2.5164 -1.4954
  663TMC3    C1 9807   1.240   2.369  17.392 -0.1946  1.2614  0.5866
  663TMC3    C2 9808   1.210   2.347  17.522 -0.0758 -0.6937  0.6434
  663TMC3    C3 9809   1.278   2.248  17.591  0.3836 -0.3467 -0.7517
  663TMC3    C4 9810   1.342   2.309  17.334  0.6127  0.2347 -0.4777
  663TMC3    C5 9811   1.403   2.207  17.400 -0.1358 -0.4974  0.2131
  663TMC3    C6 9812   1.367   2.171  17.528  0.0776  0.4550 -0.0765
  663TMC3     C 9813   1.209   2.504  17.341  0.5450 -0.1525 -0.1290
  663TMC3     O 9814   1.221   2.537  17.222 -0.1209  0.1476 -0.2460
  663TMC3     H 9815   1.116   2.385  17.560 -1.1826 -1.6321 -1.1634
  663TMC3    H1 9816   1.386   2.349  17.244  2.4668 -0.8422 -0.0568
  663TMC3    H2 9817   1.437   2.111  17.586  0.9797  0.9024 -0.6976
  663TMC3    C7 9818   1.513   2.139  17.336 -0.1716 -0.2800 -0.6525
  663TMC3    C8 9819   1.205   2.176  17.691  0.6326  0.4727  0.2865
  663TMC3    O1 9820   1.574   2.185  17.240  0.2556  0.1691  0.0728
  663TMC3    O2 9821   1.248   2.060   0.007  0.1213 -0.2879  0.2519
  664MPD2     C 9822   0.068   1.457  17.626  0.0735 -0.1943 -0.2374
  664MPD2    C1 9823   0.178   1.489   0.009 -0.3879 -0.1621  0.2776
  664MPD2    C2 9824   0.183   1.448   0.142 -0.0039  0.4976 -0.4009
  664MPD2    C3 9825   0.076   1.380   0.202  0.6855 -0.6479 -0.0481
  664MPD2    C4 9826   4.692   1.349   0.118  0.2908  0.4855  0.0928
  664MPD2    C5 9827   4.690   1.386  17.679 -0.0680  0.2161  0.7208
  664MPD2     H 9828   0.268   1.482   0.201  1.6612 -2.8546 -0.8456
  664MPD2    H1 9829   4.609   1.287   0.152  0.8156  0.0812  0.6380
  664MPD2    H2 9830   0.060   1.493  17.524 -0.7048 -3.4725 -1.3596
  664MPD2    H3 9831   4.607   1.358  17.615  0.6065 -1.4326  0.5668
  664MPD2     N 9832   0.064   1.358   0.341 -0.0746 -0.5055  0.7152
  664MPD2    H5 9833   0.138   1.394   0.400 -0.3074  1.0468  0.0804
  664MPD2    N1 9834   0.282   1.567  17.648  0.2082  0.3991 -0.4975
  664MPD2    H7 9835   0.354   1.601   0.019  1.0275 -2.1214 -0.0820
  665TMC3    C1 9836   4.676   1.346   0.538 -0.9812  0.0951  0.7212
  665TMC3    C2 9837   4.579   1.289   0.620 -0.6886 -0.0836  0.4488
  665TMC3    C3 9838   4.590   1.339   0.744  0.3700  0.3012 -0.9087
  665TMC3    C4 9839   0.008   1.465   0.565  0.8601  0.4804  0.2563
  665TMC3    C5 9840   0.003   1.512   0.694 -0.1323  0.9030  0.0363
  665TMC3    C6 9841   4.673   1.437   0.796  0.1951 -0.4006  0.5226
  665TMC3     C 9842   4.683   1.299   0.403 -0.2813 -0.2740 -0.2933
  665TMC3     O 9843   4.600   1.215   0.366 -0.3169  0.0886 -0.5593
  665TMC3     H 9844   4.542   1.192   0.589 -0.0217 -0.3143  0.3575
  665TMC3    H1 9845   0.043   1.534   0.490  1.9546  0.9975  1.2403
  665TMC3    H2 9846   4.669   1.476   0.897 -0.6687 -1.4145  0.8783
  665TMC3    C7 9847   0.023   1.652   0.702 -0.1509 -0.0242  0.3691
  665TMC3    C8 9848   4.476   1.304   0.832  0.2103  0.1691 -0.7099
  665TMC3    O1 9849   0.031   1.717   0.598  0.4165 -0.2189  0.2081
  665TMC3    O2 9850   4.483   1.362   0.939 -0.3956  0.2316 -0.1854
  666TMC3    C1 9851   2.826   1.185  10.600  0.2696  0.3806 -0.3839
  666TMC3    C2 9852   2.890   1.191  10.718 -0.7553  0.7965 -0.4002
  666TMC3    C3 9853   2.944   1.312  10.749  0.1247 -0.2735 -0.1017
  666TMC3    C4 9854   2.826   1.294  10.511  0.1931  1.2641  0.3078
  666TMC3    C5 9855   2.870   1.415  10.553 -0.1130 -0.4418  0.4050
  666TMC3    C6 9856   2.935   1.428  10.671  0.4340 -0.7141  1.1454
  666TMC3     C 9857   2.826   1.057  10.528 -0.7652  0.2032  0.1232
  666TMC3     O 9858   2.850   1.058  10.406  0.2304  0.2892  0.1411
  666TMC3     H 9859   2.889   1.103  10.781 -0.2845 -0.0926 -1.6237
  666TMC3    H1 9860   2.802   1.288  10.406  2.2100 -2.5234  0.0484
  666TMC3    H2 9861   2.990   1.519  10.696  2.3961 -1.1739 -1.5202
  666TMC3    C7 9862   2.930   1.496  10.457  0.6882 -0.2282  0.3075
  666TMC3    C8 9863   3.040   1.306  10.859 -0.2851 -0.4286  0.9536
  666TMC3    O1 9864   3.047   1.478  10.452  0.4716  0.5304 -0.2490
  666TMC3    O2 9865   3.037   1.208  10.932  0.0023  0.0114  0.0980
  667MPD2     C 9866   0.090   1.479  14.565  0.2558 -0.6762 -0.0035
  667MPD2    C1 9867   0.050   1.370  14.642  0.5320 -0.0419  0.8446
  667MPD2    C2 9868   4.637   1.333  14.654 -0.1717 -0.9419 -0.2865
  667MPD2    C3 9869   4.538   1.398  14.579 -0.2293  0.4454  0.3511
  667MPD2    C4 9870   4.584   1.489  14.486 -0.0708  0.1604 -0.5137
  667MPD2    C5 9871   4.720   1.530  14.479  0.0692  0.1853 -0.2136
  667MPD2     H 9872   4.612   1.255  14.724  0.1859 -2.9020 -2.3337
  667MPD2    H1 9873   4.512   1.534  14.419 -2.3383 -1.9622  0.5251
  667MPD2    H2 9874   0.191   1.516  14.548  0.7817 -2.2362 -0.3180
  667MPD2    H3 9875   0.028   1.603  14.405 -0.1041  0.0310 -0.4392
  667MPD2     N 9876   4.402   1.369  14.590 -0.2790  0.2425 -0.2741
  667MPD2    H5 9877   4.338   1.415  14.527  0.5018  1.8930  0.1540
  667MPD2    N1 9878   0.141   1.291  14.716 -0.1167  0.5487  0.6265
  667MPD2    H7 9879   0.102   1.225  14.783  1.0646 -0.2009  0.5712
  668TMC3    C1 9880   0.352   1.218  14.800 -0.0192  0.1236 -0.8875
  668TMC3    C2 9881   0.487   1.243  14.822  0.4174  0.0870 -0.5056
  668TMC3    C3 9882   0.568   1.149  14.890  0.0811  0.6214 -0.9655
  668TMC3    C4 9883   0.303   1.099  14.840 -0.4381  0.1233 -0.7098
  668TMC3    C5 9884   0.379   1.018  14.921  1.0907 -0.1379  0.0189
  668TMC3    C6 9885   0.507   1.042  14.947  0.4773 -0.0296 -0.4248
  668TMC3     C 9886   0.281   1.296  14.696 -0.2261 -0.1313 -0.5833
  668TMC3     O 9887   0.349   1.372  14.629 -0.0193 -0.4247 -0.3858
  668TMC3     H 9888   0.533   1.330  14.777 -1.4045  1.7367  0.8629
  668TMC3    H1 9889   0.211   1.059  14.801 -0.1902  0.7680 -1.9668
  668TMC3    H2 9890   0.567   0.974  15.006 -0.8530 -0.1992  0.7140
  668TMC3    C7 9891   0.347   0.874  14.936  0.2510  0.0510  0.2094
  668TMC3    C8 9892   0.698   1.190  14.943  0.3901 -0.8244  0.3804
  668TMC3    O1 9893   0.342   0.805  14.835 -0.2600  0.4576 -0.2822
  668TMC3    O2 9894   0.734   1.144  15.049 -0.4768 -0.6824  0.3346
  669TMC3    C1 9895   3.374   1.024  14.681 -0.1277  0.1360  0.5409
  669TMC3    C2 9896   3.256   1.011  14.613 -0.2845  0.7196 -0.4110
  669TMC3    C3 9897   3.226   1.101  14.513 -0.9270 -0.1652 -0.0498
  669TMC3    C4 9898   3.467   1.122  14.649 -0.0050  0.0364 -0.3264
  669TMC3    C5 9899   3.430   1.219  14.557  0.9814  0.1348  0.6859
  669TMC3    C6 9900   3.311   1.201  14.482 -0.2358 -0.8121 -0.3373
  669TMC3     C 9901   3.374   0.959  14.814  0.1870  0.4603  0.4423
  669TMC3     O 9902   3.264   0.936  14.861 -0.3150  0.2813 -0.1696
  669TMC3     H 9903   3.190   0.931  14.643 -0.0663  0.5005 -0.5132
  669TMC3    H1 9904   3.555   1.143  14.709 -0.0355 -0.5971 -0.0660
  669TMC3    H2 9905   3.276   1.267  14.404  2.1743 -1.9159 -2.3474
  669TMC3    C7 9906   3.531   1.301  14.511 -0.2589 -0.7805 -0.8558
  669TMC3    C8 9907   3.129   1.074  14.404 -0.1285  0.6659 -1.2501
  669TMC3    O1 9908   3.628   1.326  14.583 -0.0230 -0.2576  0.2514
  669TMC3    O2 9909   3.132   1.129  14.292  0.3694 -0.0247  0.1023
  670MPD2     C 9910   1.526   3.333  13.368 -0.1534 -0.2084  0.5955
  670MPD2    C1 9911   1.503   3.203  13.411  0.2899  0.4443 -0.6668
  670MPD2    C2 9912   1.469   3.185  13.545  0.3373 -0.0472  0.1277
  670MPD2    C3 9913   1.455   3.291  13.625  0.1696 -0.1070 -0.1672
  670MPD2    C4 9914   1.490   3.418  13.584  1.0769 -0.7513 -0.3738
  670MPD2    C5 9915   1.522   3.438  13.453 -0.0492  0.0311  0.1451
  670MPD2     H 9916   1.443   3.084  13.575  0.0651 -0.2328 -0.7246
  670MPD2    H1 9917   1.484   3.512  13.639 -0.4869 -2.5515  2.5036
  670MPD2    H2 9918   1.554   3.365  13.268  0.8536  1.4356  1.3997
  670MPD2    H3 9919   1.532   3.539  13.416 -0.7974 -0.5839 -1.7939
  670MPD2     N 9920   1.404   3.280  13.755 -0.4085  0.4023 -0.5030
  670MPD2    H5 9921   1.383   3.188  13.792  4.0130 -1.2470 -2.1754
  670MPD2    N1 9922   1.531   3.089  13.330  0.2118  0.0499 -0.3601
  670MPD2    H7 9923   1.535   2.996  13.371 -0.5488  0.6097  1.0062
  671TMC3    C1 9924   1.341   3.329  13.979 -0.0159  0.2308  0.2513
  671TMC3    C2 9925   1.408   3.330  14.099  0.3152 -0.7232 -0.3333
  671TMC3    C3 9926   1.360   3.256  14.198 -0.6914 -0.6723  0.7980
  671TMC3    C4 9927   1.228   3.264  13.966 -1.0766  0.0477  0.1365
  671TMC3    C5 9928   1.177   3.192  14.069  0.5296  0.3200  0.2131
  671TMC3    C6 9929   1.234   3.196  14.198  0.2213  0.2538 -0.2546
  671TMC3     C 9930   1.410   3.371  13.856 -0.1454  1.0295 -0.7531
  671TMC3     O 9931   1.500   3.452  13.865 -0.1868 -0.4518 -0.3331
  671TMC3     H 9932   1.512   3.361  14.108  0.0973  0.3226 -1.4396
  671TMC3    H1 9933   1.188   3.274  13.865 -1.2993 -1.6854  0.0437
  671TMC3    H2 9934   1.209   3.131  14.281  1.2042 -0.4418 -0.5069
  671TMC3    C7 9935   1.096   3.079  14.034  0.4895 -0.7148 -0.0631
  671TMC3    C8 9936   1.464   3.178  14.255  0.4400  0.2523  0.5189
  671TMC3    O1 9937   1.047   3.092  13.920 -0.1248  0.1163  0.2583
  671TMC3    O2 9938   1.431   3.065  14.285 -0.2851  0.1660 -0.1771
  672MPD2     C 9939   1.735   4.136   1.638  0.7887 -0.1323 -0.0373
  672MPD2    C1 9940   1.824   4.069   1.552  0.2864 -0.2010 -0.5390
  672MPD2    C2 9941   1.940   4.135   1.511 -0.9108  0.5347 -0.0912
  672MPD2    C3 9942   1.976   4.255   1.564  0.6532 -0.2475  0.4187
  672MPD2    C4 9943   1.886   4.317   1.650 -0.4822  0.0317  0.6216
  672MPD2    C5 9944   1.768   4.256   1.688  0.4632 -0.3802 -0.3718
  672MPD2     H 9945   2.006   4.075   1.450 -0.9426  1.3636 -0.9534
  672MPD2    H1 9946   1.905   4.417   1.687  1.8479  0.0444 -0.6593
  672MPD2    H2 9947   1.638   4.090   1.655 -0.3317  2.2111 -0.1529
  672MPD2    H3 9948   1.706   4.299   1.766 -0.3535 -1.1364 -0.5890
  672MPD2     N 9949   2.095   4.330   1.543 -0.1467 -0.1754 -0.9390
  672MPD2    H5 9950   2.101   4.428   1.566  1.8244 -0.7170  0.8731
  672MPD2    N1 9951   1.797   3.950   1.489  0.2220 -0.2710  0.2817
  672MPD2    H7 9952   1.860   3.923   1.414 -0.4345 -2.5383  0.5439
  673TMC3    C1 9953   1.716   3.746   1.441 -0.8496  0.3025  0.0955
  673TMC3    C2 9954   1.759   3.632   1.508 -0.8129  0.4682  0.2380
  673TMC3    C3 9955   1.826   3.536   1.441  0.0683  1.0602 -0.2813
  673TMC3    C4 9956   1.735   3.758   1.307  1.3257  0.2538 -0.1865
  673TMC3    C5 9957   1.803   3.660   1.240 -0.2564  0.4100  0.0406
  673TMC3    C6 9958   1.853   3.550   1.303 -0.2158  0.9307  0.6667
  673TMC3     C 9959   1.696   3.867   1.518 -0.7885  0.1766  0.5989
  673TMC3     O 9960   1.615   3.871   1.608 -0.2070 -0.1794 -0.5945
  673TMC3     H 9961   1.734   3.607   1.610  1.8265  3.7050  1.6742
  673TMC3    H1 9962   1.681   3.836   1.255 -0.4613  0.0402  1.3323
  673TMC3    H2 9963   1.920   3.483   1.251  0.0913  2.3555 -0.8101
  673TMC3    C7 9964   1.859   3.680   1.107  1.3474 -0.0285  0.8653
  673TMC3    C8 9965   1.931   3.463   1.515 -0.4820 -0.6707 -0.1726
  673TMC3    O1 9966   1.892   3.575   1.060  0.6305  0.1569 -0.0914
  673TMC3    O2 9967   2.023   3.420   1.446  0.4568  0.0448  0.3116
  674MPD2     C 9968   1.824   3.995   0.120  0.1671 -0.8679 -1.0900
  674MPD2    C1 9969   1.773   3.872   0.170  0.4748 -0.3703  0.9196
  674MPD2    C2 9970   1.728   3.877   0.303 -0.4818 -0.5077  0.7168
  674MPD2    C3 9971   1.735   3.990   0.385  0.1508 -0.2472 -0.1554
  674MPD2    C4 9972   1.777   4.114   0.332 -0.2538  0.2587 -0.5082
  674MPD2    C5 9973   1.823   4.110   0.201 -0.1455  1.0210  0.3507
  674MPD2     H 9974   1.695   3.783   0.347  0.0071 -0.5826  0.9202
  674MPD2    H1 9975   1.783   4.205   0.391 -1.9479 -1.6591  2.6333
  674MPD2    H2 9976   1.856   4.001   0.017 -2.6116 -1.1393 -1.9561
  674MPD2    H3 9977   1.871   4.200   0.164 -1.4183  1.5704  0.0675
  674MPD2     N 9978   1.686   3.982   0.522  0.2779  0.1765  0.1529
  674MPD2    H5 9979   1.667   3.889   0.556  1.1001  0.3289  1.0594
  674MPD2    N1 9980   1.771   3.765   0.083  0.2834  0.9274 -0.1297
  674MPD2    H7 9981   1.818   3.773  17.686  1.5798 -0.5434  0.4025
  675TMC3    C1 9982   1.745   3.543   0.022  0.3644 -0.2646 -0.2239
  675TMC3    C2 9983   1.685   3.421   0.047 -0.5846  0.3020 -0.3680
  675TMC3    C3 9984   1.749   3.307   0.005  0.0443 -0.2520  0.2780
  675TMC3    C4 9985   1.864   3.545  17.648 -0.0415  0.3940  0.4512
  675TMC3    C5 9986   1.921   3.427  17.603  0.0603  0.8498 -0.5678
  675TMC3    C6 9987   1.867   3.307  17.629 -0.3379 -0.1787 -0.0588
  675TMC3     C 9988   1.713   3.651   0.113 -0.4608  0.0422 -0.4541
  675TMC3     O 9989   1.644   3.614   0.209 -0.5808  0.5888 -0.9965
  675TMC3     H 9990   1.606   3.404   0.119  1.4413 -2.2697  1.2493
  675TMC3    H1 9991   1.917   3.635  17.620  1.7724 -0.8173 -0.0087
  675TMC3    H2 9992   1.911   3.215  17.593 -0.5692 -0.1693 -0.3703
  675TMC3    C7 9993   2.006   3.431  17.482 -0.7033 -0.1291  0.0004
  675TMC3    C8 9994   1.708   3.196   0.078 -1.0249 -0.3120 -0.1708
  675TMC3    O1 9995   2.014   3.331  17.407 -0.7004 -0.1013  0.1050
  675TMC3    O2 9996   1.675   3.090   0.025  0.0446  0.0889  0.3053
  676MPD2     C 9997   4.485   2.356  10.630  0.3514 -0.1063  0.5165
  676MPD2    C1 9998   4.490   2.288  10.749  0.6732 -0.2377 -0.2172
  676MPD2    C2 9999   4.602   2.309  10.827 -0.5513 -0.2358  0.3561
  676MPD2    C310000   4.693   2.414  10.809 -0.2422  0.1895 -0.3855
  676MPD2    C410001   4.689   2.471  10.687 -0.6836  0.5902  0.6978
  676MPD2    C510002   4.595   2.429  10.601 -0.4292  0.5663  0.4110
  676MPD2     H10003   4.623   2.241  10.909 -1.5069  0.4974  1.2186
  676MPD2    H110004   0.039   2.546  10.658 -0.0265  0.1882  1.3077
  676MPD2    H210005   4.407   2.343  10.556  0.5000 -0.0035  0.3423
  676MPD2    H310006   4.584   2.491  10.513  2.1385  0.6888  0.1839
  676MPD2     N10007   0.068   2.452  10.900 -0.5307 -0.2993 -0.0249
  676MPD2    H510008   0.149   2.497  10.858 -0.9033 -1.2580 -1.7747
  676MPD2    N110009   4.395   2.197  10.803 -0.1820  0.6831 -0.1863
  676MPD2    H710010   4.398   2.178  10.903  2.0313 -0.5843 -0.4983
  677TMC3    C110011   4.179   2.132  10.826 -0.3782  0.2990  0.1104
  677TMC3    C210012   4.229   2.107  10.951  0.7444  0.0063  0.3255
  677TMC3    C310013   4.165   2.162  11.052 -0.1390 -0.4897  0.0842
  677TMC3    C410014   4.076   2.217  10.800  0.1553 -0.2928  0.2765
  677TMC3    C510015   4.012   2.275  10.908 -0.1258  0.2955  0.5722
  677TMC3    C610016   4.057   2.247  11.034  0.3439 -0.1533  0.5949
  677TMC3     C10017   4.283   2.158  10.733 -0.5429  0.0757 -0.4288
  677TMC3     O10018   4.251   2.202  10.620 -0.4112 -0.2388  0.3900
  677TMC3     H10019   4.296   2.024  10.973  1.1165 -0.1062 -1.1863
  677TMC3    H110020   4.047   2.238  10.698 -0.5841 -1.0899  0.3290
  677TMC3    H210021   4.008   2.298  11.116 -1.3454 -0.7796 -0.0088
  677TMC3    C710022   3.946   2.405  10.894 -0.2129 -0.1673  0.8605
  677TMC3    C810023   4.247   2.179  11.170 -0.0359 -0.3401  0.3925
  677TMC3    O110024   3.876   2.450  10.982  0.2608 -0.4335 -0.1258
  677TMC3    O210025   4.363   2.213  11.149  0.0518 -0.4685  0.1371
  678MPD2     C10026   0.782   2.848   1.923 -0.6432  0.1506  0.4019
  678MPD2    C110027   0.755   2.760   1.820  0.0464 -0.3645 -0.0746
  678MPD2    C210028   0.626   2.746   1.779  0.1145  0.7033 -0.1335
  678MPD2    C310029   0.526   2.837   1.819 -0.0419 -0.4575  0.4746
  678MPD2    C410030   0.557   2.942   1.901 -0.2971  0.0056 -0.0245
  678MPD2    C510031   0.686   2.939   1.953  0.4392  0.1004 -1.1994
  678MPD2     H10032   0.618   2.679   1.694  1.3656 -0.1862  0.4535
  678MPD2    H110033   0.485   3.019   1.928 -0.3972 -0.1581  0.1760
  678MPD2    H210034   0.881   2.865   1.963 -0.9342  0.6952  0.8966
  678MPD2    H310035   0.716   3.006   2.033  0.7627 -3.0559  1.3220
  678MPD2     N10036   0.396   2.811   1.763 -0.3706 -0.1959 -0.6648
  678MPD2    H510037   0.386   2.720   1.721  1.9892  0.5659 -2.8466
  678MPD2    N110038   0.855   2.675   1.760 -0.1934 -0.2119 -0.1176
  678MPD2    H710039   0.829   2.617   1.681 -2.2685 -0.9439  1.1110
  679TMC3    C110040   1.202   2.386   1.737  0.3014  0.2185 -0.2367
  679TMC3    C210041   1.150   2.500   1.792  0.2706 -0.3728  0.8546
  679TMC3    C310042   1.059   2.556   1.718  0.2416 -0.7949  0.1857
  679TMC3    C410043   1.148   2.321   1.631  0.5287  0.0070  0.7164
  679TMC3    C510044   1.043   2.383   1.570  0.0524 -0.5846  0.7115
  679TMC3    C610045   1.000   2.506   1.611  0.6275  0.4636 -0.0147
  679TMC3     C10046   1.342   2.351   1.762  0.3022 -0.0898 -0.0239
  679TMC3     O10047   1.372   2.234   1.744  0.6773 -0.0088  0.4521
  679TMC3     H10048   1.187   2.535   1.888 -0.3900  1.1755  0.5423
  679TMC3    H110049   1.199   2.232   1.595 -1.4724 -2.3484  3.7053
  679TMC3    H210050   0.938   2.565   1.545 -1.9911  0.6585  2.6329
  679TMC3    C710051   0.973   2.329   1.450  0.0727  0.8944 -0.4439
  679TMC3    C810052   0.991   2.668   1.787  0.1100 -0.9056 -0.0875
  679TMC3    O110053   0.869   2.386   1.418  0.0528 -0.2066  0.6973
  679TMC3    O210054   1.059   2.743   1.854  0.0937  0.1063  0.0982
  680MPD2     C10055   2.311   0.449  13.607  0.0334  0.3496 -0.0575
  680MPD2    C110056   2.171   0.460  13.611  0.0635 -0.2020 -1.0586
  680MPD2    C210057   2.124   0.579  13.661  0.0646 -0.3927  0.8534
  680MPD2    C310058   2.209   0.672  13.727 -0.0010  0.2423  0.7617
  680MPD2    C410059   2.346   0.644  13.738  0.1447 -0.4834 -0.5743
  680MPD2    C510060   2.394   0.538  13.669  0.0729  0.7360 -0.0839
  680MPD2     H10061   2.016   0.590  13.657  0.3851  2.0405 -1.0301
  680MPD2    H110062   2.420   0.706  13.787  1.6676  0.1092 -3.6345
  680MPD2    H210063   2.358   0.362  13.564  1.5761  0.9259  0.4715
  680MPD2    H310064   2.501   0.518  13.669  0.9968  5.8867  1.9893
  680MPD2     N10065   2.168   0.795  13.778 -0.1048  0.6267  0.0027
  680MPD2    H510066   2.246   0.847  13.817  0.4575 -1.3176  1.5028
  680MPD2    N110067   2.082   0.361  13.563 -0.6557  0.4406  0.2132
  680MPD2    H710068   1.984   0.384  13.579 -1.0701 -0.8751 -0.4219
  681TMC3    C110069   2.008   0.165  13.451 -0.0073 -0.5808  0.3463
  681TMC3    C210070   1.897   0.158  13.525  0.6394 -0.9592  0.0936
  681TMC3    C310071   1.786   0.096  13.480 -0.1982 -0.9611  1.0847
  681TMC3    C410072   2.015   0.117  13.323  0.0612  0.2069  0.3483
  681TMC3    C510073   1.905   0.045  13.287 -0.0090  0.1251  0.1027
  681TMC3    C610074   1.792   0.030  13.357 -0.2072  0.1914 -0.5736
  681TMC3     C10075   2.121   0.252  13.491 -0.5998  0.8107 -0.2590
  681TMC3     O10076   2.229   0.236  13.437  0.2315  0.1515 -0.0374
  681TMC3     H10077   1.909   0.187  13.629  3.6030 -2.0211  0.0410
  681TMC3    H110078   2.111   0.114  13.274 -0.0882  0.1828  0.0597
  681TMC3    H210079   1.707   4.698  13.318 -1.7320  1.0213  1.5896
  681TMC3    C710080   1.890   0.015  13.147 -1.0684 -0.3209  0.5386
  681TMC3    C810081   1.672   0.078  13.570  0.4575  0.2504  0.1680
  681TMC3    O110082   1.795   4.665  13.118 -0.0525  0.4189 -0.2511
  681TMC3    O210083   1.600   4.705  13.538 -0.5499 -0.5522 -0.8280
  682MPD2     C10084   3.610   2.511  10.233  0.9595  0.9583 -0.7631
  682MPD2    C110085   3.527   2.420  10.291 -0.0449 -0.0164  0.2522
  682MPD2    C210086   3.437   2.459  10.387  0.1103 -0.2068 -0.2859
  682MPD2    C310087   3.421   2.594  10.414  0.3535 -0.0248 -0.1998
  682MPD2    C410088   3.506   2.686  10.361  0.3547  0.3296 -0.1729
  682MPD2    C510089   3.592   2.644  10.265 -0.2261  0.2078 -0.6599
  682MPD2     H10090   3.392   2.385  10.452  0.4456 -0.1002  0.0718
  682MPD2    H110091   3.502   2.793  10.382  0.0320  1.0146 -3.6834
  682MPD2    H210092   3.690   2.494  10.163 -0.3191 -0.3995 -1.8907
  682MPD2    H310093   3.656   2.714  10.211 -0.8436  3.0491  2.3060
  682MPD2     N10094   3.349   2.642  10.530  0.4308  0.2750  0.0141
  682MPD2    H510095   3.347   2.740  10.555 -3.8309  0.2919 -0.3813
  682MPD2    N110096   3.531   2.287  10.251 -0.7215  0.2004 -0.9582
  682MPD2    H710097   3.473   2.212  10.287  2.3828 -1.0299  1.5184
  683TMC3    C110098   3.324   2.751  10.919  0.4672 -0.1982  0.0306
  683TMC3    C210099   3.243   2.680  11.009 -0.6824 -0.1605  0.9694
  683TMC3    C310100   3.159   2.583  10.958 -0.2743  0.9752  1.1188
  683TMC3    C410101   3.313   2.725  10.780  0.4073 -0.2063  0.5333
  683TMC3    C510102   3.224   2.634  10.732 -1.0640  0.1257 -0.5522
  683TMC3    C610103   3.137   2.567  10.824 -0.2554 -0.2696 -0.0265
  683TMC3     C10104   3.444   2.810  10.974  0.2319  0.4567  0.1848
  683TMC3     O10105   3.541   2.813  10.893 -0.2142 -0.1610  0.4726
  683TMC3     H10106   3.256   2.677  11.117  0.5489  0.2660  0.8289
  683TMC3    H110107   3.389   2.774  10.720  0.8875 -1.4368  0.1373
  683TMC3    H210108   3.075   2.493  10.776 -0.7505 -0.2800  0.6197
  683TMC3    C710109   3.258   2.567  10.607 -0.5353 -0.7313  0.3539
  683TMC3    C810110   3.099   2.475  11.035 -0.2172  0.2374 -0.0669
  683TMC3    O110111   3.198   2.464  10.578  0.0299  0.4592  0.1396
  683TMC3    O210112   3.016   2.404  10.977  0.2126 -0.1623 -0.5243
  684MPD2     C10113   1.632   1.650  16.280  0.1381 -0.4260 -0.2379
  684MPD2    C110114   1.746   1.646  16.211  0.5872 -0.4738 -0.1580
  684MPD2    C210115   1.814   1.758  16.185 -0.7029 -0.2581  0.0257
  684MPD2    C310116   1.769   1.879  16.249 -0.0352 -0.6912  0.2223
  684MPD2    C410117   1.655   1.879  16.323  0.2464  0.3159  0.0732
  684MPD2    C510118   1.581   1.765  16.328 -0.1103 -0.4816 -0.7610
  684MPD2     H10119   1.905   1.747  16.126 -0.0196 -0.7881  1.1685
  684MPD2    H110120   1.617   1.972  16.362 -0.3486  0.0713  0.0744
  684MPD2    H210121   1.565   1.564  16.281 -1.3835  0.7357 -1.8885
  684MPD2    H310122   1.485   1.768  16.379  0.1861 -3.8788  0.0346
  684MPD2     N10123   1.838   2.001  16.234 -0.1748 -0.1740  0.8951
  684MPD2    H510124   1.798   2.082  16.281  0.8960  0.4785  0.6603
  684MPD2    N110125   1.806   1.523  16.166 -0.2442  0.1875  0.7833
  684MPD2    H710126   1.884   1.524  16.101  1.3635 -0.6899  2.7197
  685TMC3    C110127   1.823   1.295  16.121  0.1175 -0.4592 -0.1496
  685TMC3    C210128   1.853   1.320  15.991 -0.5892 -0.4833  0.3795
  685TMC3    C310129   1.904   1.211  15.918 -0.5039  0.9631 -0.1562
  685TMC3    C410130   1.836   1.173  16.183 -0.1686 -0.0595  0.5038
  685TMC3    C510131   1.885   1.073  16.109 -0.0729  0.1244 -0.0438
  685TMC3    C610132   1.921   1.092  15.981 -0.3768 -0.2312 -0.1718
  685TMC3     C10133   1.757   1.402  16.199 -0.2040 -0.3953  0.4028
  685TMC3     O10134   1.680   1.364  16.287  0.1236  0.2880 -0.1920
  685TMC3     H10135   1.836   1.417  15.946 -0.6052 -0.0632  1.2810
  685TMC3    H110136   1.808   1.167  16.288 -0.5159 -0.7353  0.3737
  685TMC3    H210137   1.946   1.003  15.924 -3.2989 -1.1357  0.0037
  685TMC3    C710138   1.916   0.954  16.184  0.3387  0.7045 -0.3388
  685TMC3    C810139   1.856   1.187  15.784  0.3696  0.3293 -0.1704
  685TMC3    O110140   1.882   0.956  16.297 -0.2140  0.1407 -0.3163
  685TMC3    O210141   1.929   1.116  15.714 -0.1638 -0.5783  0.8635
  686MPD2     C10142   3.036   1.482  15.679  0.2215  0.9843  0.0039
  686MPD2    C110143   3.078   1.398  15.775 -0.3405  0.0320 -0.5053
  686MPD2    C210144   3.170   1.293  15.741 -0.2536 -0.3750  0.1349
  686MPD2    C310145   3.211   1.273  15.610  0.3259 -0.1719  0.4283
  686MPD2    C410146   3.180   1.375  15.525 -0.1754 -0.6283  0.2628
  686MPD2    C510147   3.098   1.473  15.559 -0.2730  0.3412 -0.7485
  686MPD2     H10148   3.209   1.223  15.814  1.1698  0.8503  0.5318
  686MPD2    H110149   3.227   1.380  15.427 -0.1551  1.4106  0.3791
  686MPD2    H210150   2.968   1.563  15.704  0.0023  0.9430 -0.4448
  686MPD2    H310151   3.073   1.548  15.484 -1.4681  2.4822  1.7743
  686MPD2     N10152   3.300   1.171  15.560  1.0088 -0.1656 -0.2864
  686MPD2    H510153   3.335   1.189  15.466  1.4430 -2.1425 -0.4915
  686MPD2    N110154   3.030   1.421  15.902  0.1966 -0.1960  0.7843
  686MPD2    H710155   2.965   1.499  15.909  0.9359  0.3675  1.4497
  687TMC3    C110156   3.270   1.000  15.720 -0.1316  0.7402 -0.0367
  687TMC3    C210157   3.132   0.993  15.727 -0.7766  0.2073  0.1247
  687TMC3    C310158   3.084   0.949  15.846 -0.6424  0.0164 -0.2679
  687TMC3    C410159   3.351   0.953  15.823  0.3604  0.0654 -0.3603
  687TMC3    C510160   3.301   0.912  15.937 -0.1636  0.0348  0.4148
  687TMC3    C610161   3.168   0.929  15.957 -0.6489 -0.5991 -0.3480
  687TMC3     C10162   3.334   1.045  15.600 -0.1441 -0.3791  0.3906
  687TMC3     O10163   3.427   0.982  15.555  0.0368  0.0397 -0.0467
  687TMC3     H10164   3.065   1.020  15.647  1.2132 -1.6014 -2.1524
  687TMC3    H110165   3.458   0.964  15.812  0.4964 -1.5929 -0.6950
  687TMC3    H210166   3.122   0.902  16.051  0.3185 -4.0387 -0.8711
  687TMC3    C710167   3.387   0.910  16.056 -0.6187 -0.8671 -0.0573
  687TMC3    C810168   2.944   0.979  15.878  0.1613  0.8596 -0.6745
  687TMC3    O110169   3.334   0.928  16.160  0.2830 -0.1605 -0.4664
  687TMC3    O210170   2.896   0.920  15.974 -0.0618  0.3619  0.2262
  688MPD2     C10171   2.391   0.316  17.425  0.0462 -0.1755 -0.0626
  688MPD2    C110172   2.421   0.185  17.462  0.2053  0.2105  0.1557
  688MPD2    C210173   2.528   0.117  17.401  0.3788 -0.0226  0.3948
  688MPD2    C310174   2.613   0.176  17.302 -0.4458 -0.3031 -0.0743
  688MPD2    C410175   2.594   0.310  17.282  0.4700 -0.9193 -0.4032
  688MPD2    C510176   2.490   0.376  17.349 -0.4336 -0.0732 -0.1325
  688MPD2     H10177   2.548   0.013  17.424  0.8269 -0.2919 -1.2297
  688MPD2    H110178   2.663   0.369  17.224 -0.3561  0.2616 -0.1908
  688MPD2    H210179   2.308   0.373  17.466  1.4319 -0.0220  2.5501
  688MPD2    H310180   2.484   0.484  17.342  0.6877 -0.0709 -1.0088
  688MPD2     N10181   2.698   0.109  17.211 -0.2967  0.1126  0.0656
  688MPD2    H510182   2.739   0.164  17.136 -1.0776 -1.4287 -1.4902
  688MPD2    N110183   2.341   0.105  17.547  0.2922 -0.8579  0.5389
  688MPD2    H710184   2.375   0.010  17.555 -0.3907 -1.2720 -1.5800
  689TMC3    C110185   2.181   0.073   0.029 -0.0725  0.2337 -0.5130
  689TMC3    C210186   2.117   0.146   0.133  0.7457  1.1858 -1.0364
  689TMC3    C310187   2.110   0.089   0.256 -0.1640 -0.7433  0.3944
  689TMC3    C410188   2.207   4.659   0.047  0.5024  0.2794  0.7199
  689TMC3    C510189   2.188   4.604   0.172 -0.5637  0.7631  0.2594
  689TMC3    C610190   2.141   4.681   0.279 -0.1926  0.4562 -0.5273
  689TMC3     C10191   2.228   0.150  17.610 -0.0268 -1.0321  0.4809
  689TMC3     O10192   2.154   0.245  17.578  0.0674  0.4720  0.2090
  689TMC3     H10193   2.104   0.253   0.124 -0.4586  1.1923  0.8589
  689TMC3    H110194   2.259   4.613  17.656 -1.8557 -1.1209  0.0308
  689TMC3    H210195   2.110   4.625   0.366 -0.2444 -0.9566 -1.4643
  689TMC3    C710196   2.208   4.466   0.186 -0.2894  0.3930  0.0030
  689TMC3    C810197   2.036   0.143   0.364  0.3142  0.3434  0.2935
  689TMC3    O110198   2.241   4.425   0.296  0.0910  0.3537 -0.6185
  689TMC3    O210199   2.079   0.117   0.475  0.4100 -0.6474  0.2782
  690MPD2     C10200   4.621   2.222  15.668 -0.5001 -0.5751  0.1858
  690MPD2    C110201   4.670   2.094  15.696 -0.0817  1.1120  0.6006
  690MPD2    C210202   0.076   2.063  15.667 -0.6862  0.3754  0.7976
  690MPD2    C310203   0.149   2.150  15.591 -0.1035 -0.2097 -0.0559
  690MPD2    C410204   0.099   2.272  15.554 -0.7686 -0.6871 -0.1251
  690MPD2    C510205   4.699   2.309  15.600  0.3454 -0.5756 -0.5773
  690MPD2     H10206   0.126   1.977  15.711  0.7223  0.8405  0.1129
  690MPD2    H110207   0.151   2.346  15.496 -0.8376 -1.1832 -0.8123
  690MPD2    H210208   4.521   2.260  15.686 -0.4476  0.3989 -1.5584
  690MPD2    H310209   4.667   2.410  15.580 -1.0819 -0.5067  1.9970
  690MPD2     N10210   0.284   2.121  15.556  0.2014  0.0002  0.0552
  690MPD2    H510211   0.311   2.025  15.576  2.0019  0.4165 -0.3683
  690MPD2    N110212   4.589   2.007  15.775  0.3239  0.3168  0.1530
  690MPD2    H710213   4.618   1.913  15.799 -0.2767 -0.3148 -1.6090
  691TMC3    C110214   4.417   1.927  15.921  0.0174 -0.6988  0.3292
  691TMC3    C210215   4.331   1.962  16.028  0.5292  0.7604 -0.3973
  691TMC3    C310216   4.301   1.862  16.120  0.0971 -0.1817 -0.2293
  691TMC3    C410217   4.452   1.801  15.904 -0.6312  0.3588  0.3799
  691TMC3    C510218   4.399   1.700  15.971  0.7621 -0.2817 -0.3915
  691TMC3    C610219   4.333   1.731  16.087 -0.8266 -0.6201  0.4188
  691TMC3     C10220   4.475   2.037  15.848  0.9395 -0.5192  0.1962
  691TMC3     O10221   4.414   2.146  15.868 -0.5100 -0.1307  0.0460
  691TMC3     H10222   4.316   2.065  16.058 -2.9212  0.1834 -0.1520
  691TMC3    H110223   4.494   1.776  15.807  0.2233  3.0072  0.0573
  691TMC3    H210224   4.305   1.651  16.155 -1.9436  0.6217  1.4333
  691TMC3    C710225   4.412   1.562  15.938  0.3476  0.2068  0.1553
  691TMC3    C810226   4.181   1.885  16.206  0.4212 -0.4804  0.1361
  691TMC3    O110227   4.346   1.485  16.002  0.2906 -0.2824 -0.5319
  691TMC3    O210228   4.147   1.800  16.287  0.2466 -0.3135  0.5629
  692TMC3    C110229   1.715   3.353  15.934 -0.3522  0.0502 -0.0424
  692TMC3    C210230   1.816   3.383  16.016  0.0325 -0.2489 -0.2344
  692TMC3    C310231   1.927   3.303  16.022  0.0329 -0.1027 -0.4512
  692TMC3    C410232   1.727   3.258  15.834  1.2763 -0.6305  0.0954
  692TMC3    C510233   1.844   3.179  15.837 -0.0190 -0.5227  0.9852
  692TMC3    C610234   1.942   3.205  15.932 -0.2815  0.6273 -0.2123
  692TMC3     C10235   1.588   3.412  15.966  0.2579 -0.2756 -0.1762
  692TMC3     O10236   1.492   3.336  15.972 -0.1563 -0.1526  0.0753
  692TMC3     H10237   1.791   3.452  16.096  3.0394  1.0562 -0.4321
  692TMC3    H110238   1.659   3.253  15.750  0.9083  0.0739  0.3500
  692TMC3    H210239   2.040   3.160  15.922 -1.3791 -1.0965 -3.0170
  692TMC3    C710240   1.831   3.039  15.812  0.5694  0.1352 -0.3666
  692TMC3    C810241   1.961   3.258  16.154 -0.3778 -0.2172 -0.1895
  692TMC3    O110242   1.755   3.005  15.718 -0.0169 -0.7255 -0.7627
  692TMC3    O210243   1.960   3.140  16.168  0.2377 -0.1783  0.3197
  693MPD2     C10244   4.708   0.883  10.344  0.2138 -0.0784  0.0938
  693MPD2    C110245   0.040   0.810  10.448  0.3084  0.9374  0.6555
  693MPD2    C210246   0.175   0.775  10.444 -0.4297  0.2834 -0.8137
  693MPD2    C310247   0.248   0.803  10.329 -0.6942  0.0805 -0.4892
  693MPD2    C410248   0.198   0.886  10.231  0.6124  0.0506 -0.0790
  693MPD2    C510249   0.063   0.909  10.237  0.0383  0.3498 -0.7753
  693MPD2     H10250   0.211   0.692  10.504 -0.6466  0.6112 -0.2312
  693MPD2    H110251   0.245   0.910  10.136 -0.3919  1.7038 -0.1751
  693MPD2    H210252   4.606   0.920  10.347  0.5112  0.8194 -1.0502
  693MPD2    H310253   0.020   0.973  10.161  1.7778  2.0804 -0.2828
  693MPD2     N10254   0.380   0.762  10.313 -0.0300 -0.0840 -0.5072
  693MPD2    H510255   0.439   0.818  10.252  1.2850 -2.1346 -1.0935
  693MPD2    N110256   4.674   0.770  10.549 -0.3785  0.0965 -0.7360
  693MPD2    H710257   4.577   0.795  10.536 -1.1154 -1.7938  0.9897
  694TMC3    C110258   4.611   0.657  10.756  0.0016  0.1191  0.8356
  694TMC3    C210259   4.500   0.736  10.770 -0.6458 -0.0855  0.4339
  694TMC3    C310260   4.422   0.710  10.877  0.3513 -0.0179  0.0776
  694TMC3    C410261   4.652   0.570  10.854 -0.5422  0.2717  0.3309
  694TMC3    C510262   4.572   0.552  10.966 -0.2219 -0.5655  0.3572
  694TMC3    C610263   4.455   0.625  10.981 -0.3750 -0.0968  0.4935
  694TMC3     C10264   4.714   0.701  10.662  0.3258  0.2281 -0.0667
  694TMC3     O10265   0.105   0.682  10.698  0.0730 -0.8181 -0.2869
  694TMC3     H10266   4.486   0.817  10.699  1.0263  0.2130  0.4454
  694TMC3    H110267   0.022   0.514  10.842 -1.2114 -0.3779 -1.7527
  694TMC3    H210268   4.390   0.607  11.065  0.2058 -0.8318  0.7809
  694TMC3    C710269   4.632   0.485  11.080 -0.3129  0.0459  0.5906
  694TMC3    C810270   4.304   0.791  10.900  0.1553 -0.3295  0.0433
  694TMC3    O110271   4.712   0.394  11.043 -0.2026  0.0502 -0.2521
  694TMC3    O210272   4.242   0.771  11.004  0.8202 -0.1937  0.1969
  695MPD2     C10273   1.788   2.550  13.711  1.1702 -0.0613  0.2753
  695MPD2    C110274   1.729   2.578  13.834 -0.4702  0.3451 -0.3076
  695MPD2    C210275   1.599   2.628  13.836  0.0569  0.0894  0.9805
  695MPD2    C310276   1.536   2.654  13.717  0.1778  0.4394 -0.0220
  695MPD2    C410277   1.596   2.625  13.600  0.5997 -0.0039 -0.2612
  695MPD2    C510278   1.721   2.567  13.596 -0.3273 -0.1557 -0.2765
  695MPD2     H10279   1.544   2.624  13.929 -1.5785  0.2599  0.0367
  695MPD2    H110280   1.553   2.632  13.501 -0.5923  0.3526  0.2858
  695MPD2    H210281   1.890   2.514  13.697  1.3235 -0.0736  1.4087
  695MPD2    H310282   1.773   2.544  13.503  0.2555 -0.9864  0.2548
  695MPD2     N10283   1.415   2.717  13.725  0.1043 -0.3392  0.1114
  695MPD2    H510284   1.362   2.706  13.811 -0.1987  0.7079  0.0624
  695MPD2    N110285   1.786   2.577  13.963  0.2211 -0.8892  0.2779
  695MPD2    H710286   1.732   2.607  14.043  1.6779 -0.5486  1.1211
  696TMC3    C110287   1.225   2.832  13.638 -0.7377 -0.2212 -0.1580
  696TMC3    C210288   1.134   2.750  13.703  0.1778 -0.1205 -0.0549
  696TMC3    C310289   1.006   2.789  13.689  0.0782 -0.0095 -1.0492
  696TMC3    C410290   1.186   2.935  13.561  1.0480  0.2651  0.0366
  696TMC3    C510291   1.055   2.976  13.562  0.2463 -0.9718 -0.2652
  696TMC3    C610292   0.958   2.899  13.621  0.0551  0.6505 -0.2555
  696TMC3     C10293   1.362   2.792  13.619  1.0915  0.6210 -0.3129
  696TMC3     O10294   1.416   2.828  13.515 -0.6529 -0.0441 -0.4675
  696TMC3     H10295   1.171   2.660  13.751 -2.1225 -0.9223  0.2140
  696TMC3    H110296   1.256   2.987  13.497  0.3877  0.4836 -0.4975
  696TMC3    H210297   0.853   2.926  13.615 -0.1072 -0.5875 -3.1886
  696TMC3    C710298   1.022   3.081  13.474  0.4231  0.3546 -0.5639
  696TMC3    C810299   0.893   2.700  13.729 -0.6480 -0.8053 -0.5566
  696TMC3    O110300   1.054   3.065  13.354 -0.7124 -0.0972  0.0256
  696TMC3    O210301   0.799   2.695  13.653  0.0051  0.0118  0.1386
  697MPD2     C10302   1.142   0.151  15.412  0.3083 -0.3045  0.0892
  697MPD2    C110303   1.116   0.085  15.291 -0.2288  0.4691 -0.4257
  697MPD2    C210304   1.180   0.135  15.177  1.0220  0.4263  0.0433
  697MPD2    C310305   1.260   0.248  15.176  0.2501 -1.1330  0.3203
  697MPD2    C410306   1.268   0.321  15.293  0.4898  0.8902  0.1720
  697MPD2    C510307   1.211   0.271  15.411 -0.4979  0.1201 -0.1971
  697MPD2     H10308   1.175   0.087  15.080  1.7167  3.6135 -1.5818
  697MPD2    H110309   1.310   0.420  15.308  0.4054  1.0313 -0.5627
  697MPD2    H210310   1.080   0.120  15.495 -3.1356  1.1035 -1.9462
  697MPD2    H310311   1.228   0.326  15.503 -2.6331  0.0640  0.2319
  697MPD2     N10312   1.334   0.281  15.063  0.2469  0.4932 -0.0664
  697MPD2    H510313   1.301   0.238  14.977  1.1523 -1.4728  0.5760
  697MPD2    N110314   1.053   4.679  15.292 -0.0350 -0.4419  0.3806
  697MPD2    H710315   1.047   4.633  15.382 -2.9114 -0.8552 -0.0477
  698TMC3    C110316   1.504   0.371  14.935 -0.1242 -0.7679 -0.0231
  698TMC3    C210317   1.641   0.399  14.943  0.0858  0.3038  0.1406
  698TMC3    C310318   1.723   0.345  14.849 -0.0526 -0.0903 -0.3907
  698TMC3    C410319   1.449   0.324  14.819  0.2252 -0.1370  0.4485
  698TMC3    C510320   1.542   0.276  14.724  0.5391 -0.5935 -0.3054
  698TMC3    C610321   1.674   0.269  14.741  0.2952  0.7895  0.1776
  698TMC3     C10322   1.436   0.372  15.065 -0.0817 -0.1913 -0.1860
  698TMC3     O10323   1.495   0.418  15.160 -0.1609 -0.0826 -0.2882
  698TMC3     H10324   1.685   0.450  15.028  0.5293 -0.7116  0.5280
  698TMC3    H110325   1.342   0.309  14.809  0.4463 -1.3394 -0.1050
  698TMC3    H210326   1.743   0.217  14.676 -0.0579 -0.1935  0.5910
  698TMC3    C710327   1.474   0.203  14.614 -0.4535  0.1690  0.2766
  698TMC3    C810328   1.865   0.363  14.873 -0.1331  0.9286 -0.4320
  698TMC3    O110329   1.352   0.190  14.623  0.0297 -0.6062 -0.4243
  698TMC3    O210330   1.942   0.278  14.847  0.4989 -0.4591 -0.0374
  699TMC3    C110331   1.048   2.825  13.092 -0.1802  0.0763 -0.2383
  699TMC3    C210332   1.056   2.716  13.174  0.1912 -0.1857 -0.1524
  699TMC3    C310333   0.965   2.696  13.263  0.0222  0.1363 -0.5866
  699TMC3    C410334   0.952   2.923  13.107  0.8632  0.3455  0.7102
  699TMC3    C510335   0.858   2.902  13.205 -0.4277 -0.1847 -0.6569
  699TMC3    C610336   0.865   2.786  13.281 -0.0433  0.0228 -0.2976
  699TMC3     C10337   1.150   2.857  12.990  0.8243 -0.0718  0.3144
  699TMC3     O10338   1.125   2.958  12.925 -0.0592 -0.1317 -0.2815
  699TMC3     H10339   1.135   2.645  13.153 -0.0256  0.5887 -3.7068
  699TMC3    H110340   0.943   3.004  13.036  0.8361  0.4977  0.8888
  699TMC3    H210341   0.795   2.768  13.362 -1.5869 -0.3277 -1.7015
  699TMC3    C710342   0.749   2.988  13.233 -0.1439 -0.1695 -0.5383
  699TMC3    C810343   0.953   2.571  13.340  0.5847  0.0786 -0.0810
  699TMC3    O110344   0.661   2.943  13.303  0.4300 -0.0476  0.6340
  699TMC3    O210345   0.846   2.515  13.343 -0.0667 -0.2670 -0.1151
  700TMC3    C110346   0.317   0.503  17.337  0.1743  0.4729 -0.2953
  700TMC3    C210347   0.355   0.374  17.359 -0.4780  0.2054  0.7433
  700TMC3    C310348   0.433   0.350  17.470 -0.3153  0.0887 -0.9093
  700TMC3    C410349   0.344   0.599  17.426  0.3942 -0.6140  0.1022
  700TMC3    C510350   0.416   0.578  17.544 -0.9040  0.8017 -0.6075
  700TMC3    C610351   0.474   0.454  17.553  0.1755 -0.3630 -0.1488
  700TMC3     C10352   0.313   0.534  17.192  0.0505  0.8035  0.4729
  700TMC3     O10353   0.214   0.510  17.119 -0.3208  0.1553  0.9313
  700TMC3     H10354   0.330   0.292  17.292 -0.0037 -1.7103  2.9300
  700TMC3    H110355   0.312   0.701  17.407  0.8090  0.1801  3.6580
  700TMC3    H210356   0.530   0.430  17.642  0.8036  3.4326  0.4890
  700TMC3    C710357   0.466   0.683  17.624 -0.5774  0.2524 -0.7130
  700TMC3    C810358   0.508   0.233  17.481 -0.2534  0.5194  0.8610
  700TMC3    O110359   0.590   0.684  17.641  0.4544 -0.1083 -0.0719
  700TMC3    O210360   0.609   0.241  17.548  0.4488  0.6237 -0.2638
  701TMC3    C110361   0.714   3.970  15.516 -0.3495  0.1075 -0.4018
  701TMC3    C210362   0.751   3.945  15.388  0.8539  0.1139  0.4742
  701TMC3    C310363   0.762   4.049  15.300  0.3784  0.7806 -0.1399
  701TMC3    C410364   0.675   4.095  15.555 -0.1253 -0.0949  0.0533
  701TMC3    C510365   0.684   4.192  15.459  0.1708  0.0343 -0.0909
  701TMC3    C610366   0.724   4.180  15.333  0.2318  0.3329 -0.5700
  701TMC3     C10367   0.668   3.853  15.602  0.7200 -1.0027 -0.6132
  701TMC3     O10368   0.586   3.880  15.689  0.0215 -0.3478  0.3898
  701TMC3     H10369   0.772   3.844  15.354 -0.1649  0.3222 -0.7899
  701TMC3    H110370   0.633   4.100  15.655  1.6628 -1.3399  0.8474
  701TMC3    H210371   0.709   4.251  15.253 -0.3067  2.0892  1.0699
  701TMC3    C710372   0.669   4.328  15.511  0.4192  0.4272  0.2950
  701TMC3    C810373   0.780   4.020  15.158  0.3754  0.2304  0.7805
  701TMC3    O110374   0.663   4.417  15.424 -0.3671 -0.3653 -0.0094
  701TMC3    O210375   0.843   4.100  15.099  0.2305  0.4713 -0.3874
  702MPD2     C10376   0.657   2.162  10.717 -0.2035 -0.1249 -0.1618
  702MPD2    C110377   0.521   2.127  10.718  0.6998 -0.1418 -0.1891
  702MPD2    C210378   0.462   2.069  10.612  0.2836 -0.0532  0.1876
  702MPD2    C310379   0.537   2.047  10.498  0.4241 -0.7405 -0.8594
  702MPD2    C410380   0.666   2.070  10.504  0.5460  0.5226  0.1531
  702MPD2    C510381   0.729   2.133  10.607  0.5247  0.0497  0.9096
  702MPD2     H10382   0.355   2.051  10.621 -0.0891  0.3815 -3.5305
  702MPD2    H110383   0.722   2.047  10.414  0.0709  0.7108 -0.1908
  702MPD2    H210384   0.710   2.206  10.802 -1.8653 -0.3609  0.9972
  702MPD2    H310385   0.832   2.166  10.598  0.7193 -0.2359  2.1059
  702MPD2     N10386   0.479   1.989  10.387 -0.0104  0.3061  0.3311
  702MPD2    H510387   0.540   1.951  10.315  0.2118  0.2836  0.5347
  702MPD2    N110388   0.449   2.150  10.832  0.3119  0.2291  0.1914
  702MPD2    H710389   0.364   2.095  10.844  0.2852  0.3501  0.5352
  703TMC3    C110390   0.317   1.946  10.228 -1.0645  0.1481  0.9949
  703TMC3    C210391   0.184   1.927  10.205  0.1925  0.3699  0.2478
  703TMC3    C310392   0.126   1.977  10.086 -0.2361 -0.4347  0.4517
  703TMC3    C410393   0.387   2.023  10.140  0.4291  0.4622 -0.4465
  703TMC3    C510394   0.323   2.074  10.027 -0.1616 -0.5689 -0.1671
  703TMC3    C610395   0.196   2.046   9.995 -1.2972 -0.0683  0.0596
  703TMC3     C10396   0.343   1.987  10.364  0.1212  1.0648 -0.6168
  703TMC3     O10397   0.252   2.052  10.421  0.5244 -0.0987  0.0821
  703TMC3     H10398   0.128   1.871  10.279  0.3346  0.2713  0.2799
  703TMC3    H110399   0.487   2.058  10.164 -0.7223  2.7494  1.0165
  703TMC3    H210400   0.150   2.085   9.905 -1.6116  2.5047  1.3046
  703TMC3    C710401   0.392   2.184   9.961  0.0563  0.6813 -0.3498
  703TMC3    C810402   4.717   1.935  10.045  0.5084  0.8636  0.3629
  703TMC3    O110403   0.513   2.196   9.975 -0.2043 -0.1247 -0.1017
  703TMC3    O210404   4.707   1.912   9.922 -0.0386  0.8111  0.1066
  704TMC3    C110405   1.941   4.541  12.392 -0.4140 -0.5234  0.1951
  704TMC3    C210406   2.064   4.575  12.344  0.0956  0.8311  0.0767
  704TMC3    C310407   2.165   4.520  12.416  1.0170  0.2149 -0.3272
  704TMC3    C410408   1.918   4.454  12.489  0.1172  0.2009 -0.1100
  704TMC3    C510409   2.018   4.397  12.556  0.1359 -0.1820 -0.1466
  704TMC3    C610410   2.145   4.443  12.529  0.0235 -0.2840  0.0067
  704TMC3     C10411   1.828   4.576  12.309  0.1524 -0.8365  0.2834
  704TMC3     O10412   1.723   4.587  12.376 -0.5623 -0.3455  0.5727
  704TMC3     H10413   2.076   4.649  12.266  0.1754  1.3387  0.5761
  704TMC3    H110414   1.820   4.408  12.491  1.0556 -1.7780 -0.3183
  704TMC3    H210415   2.232   4.400  12.578  0.4071  0.7145  0.2000
  704TMC3    C710416   2.020   4.259  12.537 -0.8128 -0.6016  0.5136
  704TMC3    C810417   2.301   4.515  12.356 -0.5208  0.4488 -0.4186
  704TMC3    O110418   2.113   4.208  12.480 -0.2750 -0.3132 -0.6258
  704TMC3    O210419   2.311   4.541  12.235 -0.2967 -0.9660 -0.2628
  705MPD2     C10420   2.058   2.735  16.708 -0.4244 -0.0612  0.5228
  705MPD2    C110421   2.007   2.790  16.582 -0.0093 -0.3964 -0.2109
  705MPD2    C210422   1.885   2.847  16.590 -0.1496  0.2376  0.3850
  705MPD2    C310423   1.800   2.854  16.704 -0.1967 -0.1127 -0.3160
  705MPD2    C410424   1.854   2.805  16.816 -0.5144 -0.9161  0.3733
  705MPD2    C510425   1.970   2.733  16.814 -0.0554  0.1508  0.0796
  705MPD2     H10426   1.834   2.899  16.510  1.0180 -1.6572 -1.6040
  705MPD2    H110427   1.792   2.818  16.904  2.2318 -0.5977  2.2498
  705MPD2    H210428   2.153   2.687  16.724 -0.2574 -0.1624 -0.7892
  705MPD2    H310429   2.006   2.689  16.906 -2.3071 -0.7323  0.5226
  705MPD2     N10430   1.680   2.926  16.686 -0.3488 -0.9745  0.1022
  705MPD2    H510431   1.657   2.935  16.588 -1.9407 -1.4515  0.4192
  705MPD2    N110432   2.084   2.818  16.471  0.7004  1.1795  0.0582
  705MPD2    H710433   2.030   2.857  16.394 -1.0595 -0.6930  0.3457
  706TMC3    C110434   2.393   2.787  16.138  0.4950 -0.9862  0.1588
  706TMC3    C210435   2.401   2.922  16.120 -0.1793  0.3951 -0.4922
  706TMC3    C310436   2.324   3.011  16.193 -0.0675 -0.1631  0.3274
  706TMC3    C410437   2.346   2.741  16.259 -0.2594  0.0708  0.1254
  706TMC3    C510438   2.264   2.825  16.323  0.5396  0.1542  0.6614
  706TMC3    C610439   2.252   2.960  16.299  0.1315 -0.0785  0.1313
  706TMC3     C10440   2.497   2.711  16.073  0.3046  0.1496  0.0271
  706TMC3     O10441   2.551   2.614  16.128  0.3603 -0.1062 -0.9231
  706TMC3     H10442   2.475   2.967  16.055 -0.7453  0.2632 -1.2331
  706TMC3    H110443   2.369   2.642  16.295 -3.2198 -0.1626  1.3520
  706TMC3    H210444   2.199   3.020  16.373 -1.0932 -1.1575  0.1314
  706TMC3    C710445   2.221   2.800  16.460 -0.3723 -0.4937  0.2029
  706TMC3    C810446   2.312   3.154  16.162  1.2308  0.0355  0.2989
  706TMC3    O110447   2.306   2.764  16.538 -0.1098 -0.6810 -0.2305
  706TMC3    O210448   2.326   3.178  16.045  0.2156  0.3098  0.2443
  707TMC3    C110449   3.286   2.250   1.483  0.3844  0.2870 -0.9686
  707TMC3    C210450   3.272   2.121   1.527  0.0236 -0.0288  0.0514
  707TMC3    C310451   3.156   2.050   1.498 -0.0022  0.6786 -0.1126
  707TMC3    C410452   3.185   2.308   1.412 -0.2317  0.2770  0.2289
  707TMC3    C510453   3.062   2.242   1.398 -0.2642 -0.0421  0.4526
  707TMC3    C610454   3.045   2.107   1.441 -0.2711 -0.0689  0.6447
  707TMC3     C10455   3.422   2.299   1.488  0.0272  0.9431 -0.4268
  707TMC3     O10456   3.484   2.271   1.591 -0.4117 -0.1699 -0.3992
  707TMC3     H10457   3.361   2.083   1.575 -0.8685 -0.1670  1.5803
  707TMC3    H110458   3.191   2.408   1.371 -1.0270  0.2708  0.0876
  707TMC3    H210459   2.957   2.054   1.407  0.5915 -1.2747  0.2612
  707TMC3    C710460   2.956   2.313   1.311  0.3102  1.6313 -0.9499
  707TMC3    C810461   3.166   1.906   1.508  0.6890  0.2981 -0.4755
  707TMC3    O110462   2.874   2.237   1.262  0.1062 -0.3887  0.6121
  707TMC3    O210463   3.068   1.835   1.483 -0.3160 -0.0570  0.0105
  708MPD2     C10464   0.453   0.470  13.868  0.2520 -0.3863  0.4953
  708MPD2    C110465   0.468   0.602  13.888  0.1591 -0.9291  0.2981
  708MPD2    C210466   0.545   0.648  13.988  0.6099  0.2126 -0.4436
  708MPD2    C310467   0.609   0.563  14.076 -0.1767 -0.1169 -0.7419
  708MPD2    C410468   0.616   0.426  14.041 -0.1326 -0.2833  0.6060
  708MPD2    C510469   0.535   0.385  13.940 -0.1246 -0.0223 -0.4108
  708MPD2     H10470   0.532   0.753  14.013 -2.5507 -0.7501  1.9498
  708MPD2    H110471   0.672   0.357  14.103  1.4807  0.4244 -0.0722
  708MPD2    H210472   0.397   0.423  13.788 -2.0845  2.6827  0.3348
  708MPD2    H310473   0.521   0.280  13.918  1.0647  0.0366 -1.4466
  708MPD2     N10474   0.663   0.605  14.197  0.3833 -0.2608  0.0781
  708MPD2    H510475   0.701   0.536  14.261  0.5465 -0.7684 -0.5684
  708MPD2    N110476   0.375   0.681  13.824 -0.1759 -0.1941  0.0236
  708MPD2    H710477   0.298   0.635  13.776  0.7132 -0.7506 -0.8799
  709TMC3    C110478   0.226   0.864  13.847 -0.0177  0.5063 -0.0055
  709TMC3    C210479   0.211   0.995  13.821  0.0868 -0.2654  0.3235
  709TMC3    C310480   0.110   1.068  13.876 -0.3893  0.0424  0.5802
  709TMC3    C410481   0.148   0.793  13.933  0.9863 -0.8389 -0.3814
  709TMC3    C510482   0.042   0.861  13.981  0.1897  0.1413  0.0265
  709TMC3    C610483   0.021   0.996  13.957  0.4208 -0.1212  0.0662
  709TMC3     C10484   0.365   0.817  13.830  0.0474  0.0893  0.3609
  709TMC3     O10485   0.462   0.896  13.827  0.3496  0.0569 -0.7689
  709TMC3     H10486   0.284   1.042  13.756  0.8983 -0.4952  1.0724
  709TMC3    H110487   0.170   0.691  13.961  0.2212 -1.4416 -1.9521
  709TMC3    H210488   4.652   1.046  13.987 -0.3436 -0.9240 -0.9439
  709TMC3    C710489   0.005   0.808  14.113  0.2489 -0.2838  0.3043
  709TMC3    C810490   0.071   1.200  13.834  0.4189  0.1477  0.3217
  709TMC3    O110491   0.063   0.705  14.144  0.7501 -0.3593 -0.6905
  709TMC3    O210492   0.029   1.271  13.929  0.1665  0.0462 -0.2437
  710TMC3    C110493   0.676   2.621   0.704  0.4527  0.9502  0.4046
  710TMC3    C210494   0.707   2.563   0.584 -0.3675  0.5219  0.6428
  710TMC3    C310495   0.787   2.453   0.591 -0.5996 -0.0129 -0.4290
  710TMC3    C410496   0.706   2.569   0.826  0.0218 -0.0226 -0.3479
  710TMC3    C510497   0.774   2.447   0.821 -0.1171 -0.2130  0.2090
  710TMC3    C610498   0.814   2.387   0.705  0.3817 -0.0880  0.3508
  710TMC3     C10499   0.574   2.734   0.697 -0.6256 -0.4621  0.3270
  710TMC3     O10500   0.509   2.738   0.594  0.1558  0.1073  0.6812
  710TMC3     H10501   0.690   2.613   0.490 -1.4899 -0.0747  0.5405
  710TMC3    H110502   0.686   2.618   0.920  3.1231  1.6660 -0.5831
  710TMC3    H210503   0.880   2.300   0.708 -2.1114 -1.9811 -0.2487
  710TMC3    C710504   0.835   2.398   0.942 -0.2997  1.2660  0.5482
  710TMC3    C810505   0.834   2.409   0.469  0.0648  0.0792 -0.3838
  710TMC3    O110506   0.834   2.477   1.033  0.0813  0.1333 -0.0338
  710TMC3    O210507   0.843   2.491   0.382  0.2104  0.3332 -0.2655
  711TMC3    C110508   1.158   3.801  14.953 -0.5565  0.5721  0.1312
  711TMC3    C210509   1.173   3.845  15.082  0.5636 -0.1092  0.0610
  711TMC3    C310510   1.303   3.851  15.116  1.1274  1.0681  0.3931
  711TMC3    C410511   1.262   3.774  14.868  0.2477 -0.0581  0.4591
  711TMC3    C510512   1.387   3.766  14.913  0.5411 -0.6391  0.4174
  711TMC3    C610513   1.409   3.818  15.036 -0.0029 -1.1091 -0.2249
  711TMC3     C10514   1.050   3.708  14.933  0.6159 -0.7353 -0.4289
  711TMC3     O10515   1.033   3.652  14.822  0.2573  0.0933  0.3158
  711TMC3     H10516   1.087   3.869  15.144  0.2087  1.1801 -0.9264
  711TMC3    H110517   1.235   3.750  14.766 -0.9116  2.2985  0.1988
  711TMC3    H210518   1.509   3.820  15.077  1.2799  2.6953 -3.5341
  711TMC3    C710519   1.431   3.625  14.907 -0.9180 -0.3916 -0.2300
  711TMC3    C810520   1.314   3.831  15.258  0.2244  0.1200  0.3567
  711TMC3    O110521   1.539   3.611  14.955  0.0266  0.3803 -0.2591
  711TMC3    O210522   1.203   3.813  15.306  0.1472 -0.4267  0.0645
  712MPD2     C10523   3.052   0.268  13.792  0.0308 -0.0789  0.0611
  712MPD2    C110524   2.922   0.233  13.750  0.4883  0.4209  0.6430
  712MPD2    C210525   2.855   0.304  13.649  0.3213  0.2048  0.1538
  712MPD2    C310526   2.910   0.422  13.597 -0.4464 -0.2558  0.1469
  712MPD2    C410527   3.032   0.461  13.642 -0.0968  0.4004 -1.1944
  712MPD2    C510528   3.093   0.394  13.744 -0.2998 -0.2241 -0.6484
  712MPD2     H10529   2.756   0.263  13.628  0.0196  1.5484 -1.0066
  712MPD2    H110530   3.076   0.557  13.623  0.2452  0.4676 -0.0825
  712MPD2    H210531   3.107   0.229  13.876  1.1966  1.2499 -0.0808
  712MPD2    H310532   3.193   0.422  13.773 -0.8676  1.7744 -0.6451
  712MPD2     N10533   2.841   0.504  13.501 -0.0724  0.3038 -0.4536
  712MPD2    H510534   2.890   0.589  13.474  0.5174 -0.3351 -1.4030
  712MPD2    N110535   2.859   0.119  13.802  0.3747  0.1672  0.7988
  712MPD2    H710536   2.776   0.092  13.751 -0.0288 -1.8515  2.4833
  713TMC3    C110537   2.696   0.585  13.332 -0.3380  0.8074 -0.0819
  713TMC3    C210538   2.796   0.643  13.260 -0.2629  0.4690  0.2044
  713TMC3    C310539   2.771   0.731  13.161 -0.7495  1.3499 -1.0965
  713TMC3    C410540   2.563   0.608  13.308 -0.3568 -0.8622 -0.3713
  713TMC3    C510541   2.541   0.704  13.210  0.1798  0.1448  0.2527
  713TMC3    C610542   2.642   0.766  13.139  0.4268 -0.0312 -0.3854
  713TMC3     C10543   2.729   0.476  13.429 -0.5600 -0.0663 -0.1303
  713TMC3     O10544   2.653   0.384  13.443 -0.2093  0.3758  0.0087
  713TMC3     H10545   2.898   0.622  13.292 -0.4970 -0.3114  0.4441
  713TMC3    H110546   2.488   0.556  13.366 -1.5006 -0.3572 -1.4001
  713TMC3    H210547   2.623   0.844  13.066  2.3196 -0.0800 -0.9327
  713TMC3    C710548   2.405   0.712  13.154  0.2630 -0.3897  0.6716
  713TMC3    C810549   2.871   0.830  13.116  0.6252 -0.0743 -0.4477
  713TMC3    O110550   2.312   0.680  13.226  0.1486  0.0955 -0.1214
  713TMC3    O210551   2.843   0.944  13.084  0.3932 -0.7600 -0.5095
  714MPD2     C10552   4.430   3.873   1.535  0.6775 -0.0234  0.1907
  714MPD2    C110553   4.401   3.761   1.462  0.3353 -0.2226 -0.3701
  714MPD2    C210554   4.322   3.770   1.353 -0.2331  0.6335 -0.2665
  714MPD2    C310555   4.266   3.885   1.314  0.2152 -0.1434 -0.3423
  714MPD2    C410556   4.299   3.995   1.387  0.2097  0.3304 -0.2330
  714MPD2    C510557   4.387   3.992   1.491 -0.6056 -0.0935 -0.1551
  714MPD2     H10558   4.283   3.681   1.304  2.1403 -0.8035  0.4688
  714MPD2    H110559   4.248   4.091   1.385 -0.1589  0.1345 -0.1962
  714MPD2    H210560   4.487   3.873   1.627  2.4417 -1.2463 -0.9099
  714MPD2    H310561   4.403   4.088   1.540 -0.5420  1.4424 -3.2147
  714MPD2     N10562   4.173   3.892   1.203 -0.4043 -0.2703  0.3170
  714MPD2    H510563   4.143   3.804   1.163 -0.3006  0.6897 -1.8783
  714MPD2    N110564   4.433   3.637   1.524  0.1684  0.1470  0.0614
  714MPD2    H710565   4.492   3.647   1.605 -1.7314 -0.0063  1.4548
  715TMC3    C110566   4.485   3.414   1.568  0.3450 -0.6754  0.4493
  715TMC3    C210567   4.528   3.300   1.492  0.6915  0.0109  0.7952
  715TMC3    C310568   4.639   3.235   1.545  0.4792 -0.0891 -0.5044
  715TMC3    C410569   4.541   3.447   1.687 -0.4663  0.6779  0.6122
  715TMC3    C510570   4.629   3.362   1.737 -0.4815  0.3321  0.0570
  715TMC3    C610571   4.692   3.262   1.667  0.0189  0.1761 -0.3847
  715TMC3     C10572   4.405   3.511   1.493  1.0346  0.9658 -0.1198
  715TMC3     O10573   4.333   3.477   1.396 -0.8354  0.7950 -0.7188
  715TMC3     H10574   4.480   3.280   1.397 -0.7813  0.9664  1.3391
  715TMC3    H110575   4.499   3.529   1.744  1.0536  1.1050  1.1294
  715TMC3    H210576   0.046   3.207   1.719 -1.6453 -3.3848 -1.6171
  715TMC3    C710577   4.670   3.384   1.874 -0.0306 -0.3152  0.0900
  715TMC3    C810578   4.722   3.169   1.447 -0.6714 -0.6028  0.4391
  715TMC3    O110579   0.045   3.323   1.904 -0.7038  0.4756 -0.0572
  715TMC3    O210580   4.667   3.134   1.345 -0.0631  0.0043 -0.7428
  716MPD2     C10581   3.302   1.328  10.598 -0.5621  0.1804 -0.1554
  716MPD2    C110582   3.277   1.227  10.502 -0.5575 -0.6765  0.4445
  716MPD2    C210583   3.335   1.101  10.523 -0.3999  0.1035 -1.0999
  716MPD2    C310584   3.418   1.079  10.630 -0.6291 -0.1502 -0.0183
  716MPD2    C410585   3.441   1.178  10.720  0.1288 -0.2655  0.3997
  716MPD2    C510586   3.387   1.304  10.704  0.0740  0.0475 -0.0970
  716MPD2     H10587   3.320   1.020  10.452  0.9190 -0.8046 -0.3425
  716MPD2    H110588   3.499   1.171  10.812  0.5425 -1.5512  0.0531
  716MPD2    H210589   3.260   1.427  10.587 -4.0884 -1.2084  0.8518
  716MPD2    H310590   3.411   1.388  10.768 -3.4034  1.7218 -0.9635
  716MPD2     N10591   3.473   0.950  10.638  0.4860 -0.6173  0.0728
  716MPD2    H510592   3.437   0.878  10.577  0.5356  0.7759 -1.5978
  716MPD2    N110593   3.201   1.265  10.387 -0.1813  0.4178 -0.1792
  716MPD2    H710594   3.161   1.359  10.386  0.0783  0.5530  1.5956
  717TMC3    C110595   3.616   0.777  10.715 -0.1513 -0.1241  0.3533
  717TMC3    C210596   3.604   0.709  10.591  0.2868 -0.4693  0.0053
  717TMC3    C310597   3.690   0.614  10.551 -0.2199  0.3979 -0.1334
  717TMC3    C410598   3.722   0.747  10.794  0.1651 -0.2385  0.6348
  717TMC3    C510599   3.808   0.650  10.753  0.2901  0.3880 -0.1362
  717TMC3    C610600   3.792   0.585  10.634  0.4129  0.4063 -0.2610
  717TMC3     C10601   3.557   0.908  10.737  0.1583 -0.5895 -0.3702
  717TMC3     O10602   3.605   0.970  10.828  0.8007  0.3680 -0.2232
  717TMC3     H10603   3.531   0.747  10.521  1.2590  0.0997 -0.6879
  717TMC3    H110604   3.726   0.799  10.890 -2.2717 -1.6012  1.4613
  717TMC3    H210605   3.870   0.523  10.593 -0.4587  0.0260 -1.3305
  717TMC3    C710606   3.915   0.612  10.836 -0.3294  0.2651 -0.6106
  717TMC3    C810607   3.675   0.553  10.416 -0.7753  0.4142  0.6893
  717TMC3    O110608   3.936   0.676  10.939 -0.0302  0.3010 -0.4750
  717TMC3    O210609   3.603   0.616  10.341  0.0431  0.1198 -0.3127
  718MPD2     C10610   4.175   0.996  13.239  0.4539  0.2085  0.1235
  718MPD2    C110611   4.175   0.958  13.106  0.5362  0.1900 -0.2172
  718MPD2    C210612   4.226   0.834  13.070 -0.5413  0.8481 -0.8347
  718MPD2    C310613   4.255   0.739  13.170  0.1789  0.2384 -0.2862
  718MPD2    C410614   4.249   0.780  13.305 -0.0263  0.3833  0.3483
  718MPD2    C510615   4.207   0.909  13.334  0.1939 -0.4389  1.1226
  718MPD2     H10616   4.231   0.791  12.970  1.3996 -0.8805  0.0079
  718MPD2    H110617   4.285   0.725  13.391  0.6410 -0.8345 -0.7009
  718MPD2    H210618   4.127   1.091  13.261 -1.9155 -0.8769 -0.4217
  718MPD2    H310619   4.188   0.940  13.436 -3.3695  0.1195  0.2977
  718MPD2     N10620   4.291   0.612  13.128 -0.5977 -0.1585  0.7664
  718MPD2    H510621   4.306   0.602  13.028  2.5851  2.7206  0.9617
  718MPD2    N110622   4.112   1.043  13.012  0.0621  0.2765  0.4504
  718MPD2    H710623   4.082   1.135  13.039 -0.9507 -0.0315  0.3858
  719TMC3    C110624   4.004   1.096  12.807 -0.3049  0.0284 -0.1725
  719TMC3    C210625   3.919   1.026  12.724 -0.4835  0.3132  0.1446
  719TMC3    C310626   3.935   1.040  12.589 -0.6480  0.5440  0.2025
  719TMC3    C410627   4.095   1.181  12.756 -0.3025 -0.3073 -0.3434
  719TMC3    C510628   4.106   1.197  12.619 -0.6210  0.3540 -0.0961
  719TMC3    C610629   4.023   1.130  12.535 -0.3061 -0.4009  0.1478
  719TMC3     C10630   4.066   0.998  12.891  1.1950  0.2267 -0.4106
  719TMC3     O10631   4.066   0.886  12.846  0.3754  0.1782  0.0661
  719TMC3     H10632   3.844   0.966  12.773  0.5602 -2.1838 -1.3535
  719TMC3    H110633   4.175   1.222  12.817 -3.7449  1.2000  3.1109
  719TMC3    H210634   4.040   1.140  12.428 -1.7484 -2.2303 -0.2580
  719TMC3    C710635   4.231   1.227  12.553 -0.1879 -0.8499  0.7009
  719TMC3    C810636   3.933   0.908  12.522 -0.3383 -0.2560  0.2381
  719TMC3    O110637   4.261   1.154  12.460 -0.5009  0.2145 -0.0854
  719TMC3    O210638   3.927   0.904  12.400  0.0848  0.3269 -0.1534
  720MPD2     C10639   2.152   1.857  14.374 -0.1759  0.0320 -0.4378
  720MPD2    C110640   2.241   1.842  14.266  0.4981 -0.5746 -0.4517
  720MPD2    C210641   2.371   1.811  14.302 -0.0492 -0.2909 -0.4129
  720MPD2    C310642   2.413   1.789  14.430  0.7555 -0.1456 -0.2433
  720MPD2    C410643   2.322   1.795  14.534  0.7449  0.2567 -0.3404
  720MPD2    C510644   2.200   1.851  14.500  1.0005 -0.5458  0.1117
  720MPD2     H10645   2.444   1.793  14.224 -0.4033  0.3900 -0.9126
  720MPD2    H110646   2.350   1.785  14.638  1.5343  3.1265 -0.2615
  720MPD2    H210647   2.052   1.897  14.358 -1.1481 -1.5388  1.7623
  720MPD2    H310648   2.140   1.877  14.586 -0.1520  0.8361 -1.1122
  720MPD2     N10649   2.549   1.774  14.452 -0.2911  0.2347  0.0382
  720MPD2    H510650   2.608   1.780  14.370 -1.5094 -2.2078 -1.0135
  720MPD2    N110651   2.207   1.881  14.135  0.3399 -0.6499  0.7408
  720MPD2    H710652   2.269   1.888  14.055 -0.2872 -2.9551  0.0426
  721TMC3    C110653   2.756   1.793  14.547  0.2637  0.0072  0.1250
  721TMC3    C210654   2.836   1.777  14.660 -0.3697 -0.0449 -0.0269
  721TMC3    C310655   2.965   1.812  14.638 -0.7160  0.1283 -0.0562
  721TMC3    C410656   2.798   1.822  14.416  0.4270 -0.1598  0.0405
  721TMC3    C510657   2.932   1.840  14.407 -0.0900 -0.4294 -0.0488
  721TMC3    C610658   3.011   1.842  14.515  0.2345 -0.1254 -0.1857
  721TMC3     C10659   2.613   1.765  14.571  0.0117 -0.3238  0.0133
  721TMC3     O10660   2.581   1.737  14.689 -0.6339  0.3314  0.2886
  721TMC3     H10661   2.803   1.740  14.757  1.9891  1.5503  1.3680
  721TMC3    H110662   2.738   1.835  14.327  2.0315  0.0251 -0.9994
  721TMC3    H210663   3.115   1.871  14.513  0.1825  0.0050 -0.9245
  721TMC3    C710664   2.993   1.860  14.279  0.1188  0.3120 -0.2342
  721TMC3    C810665   3.059   1.820  14.752  0.4649  0.6680 -0.2995
  721TMC3    O110666   3.095   1.928  14.278 -0.3723 -0.7279 -0.5587
  721TMC3    O210667   3.179   1.847  14.728  0.3855  1.0937  0.0155
  722MPD2     C10668   1.443   0.342  13.401  0.0367 -0.0871  1.2538
  722MPD2    C110669   1.387   0.357  13.274  0.5661  0.1625  0.5368
  722MPD2    C210670   1.248   0.368  13.256  0.8116  0.1580 -0.0897
  722MPD2    C310671   1.163   0.353  13.369 -0.5717  0.0788 -0.4611
  722MPD2    C410672   1.217   0.344  13.493 -1.0849 -0.1874 -0.8717
  722MPD2    C510673   1.356   0.341  13.508 -0.6728 -0.1992  0.5283
  722MPD2     H10674   1.197   0.382  13.161  0.0876  1.5313  0.4900
  722MPD2    H110675   1.166   0.340  13.589  0.4321  0.0650 -0.0566
  722MPD2    H210676   1.548   0.356  13.421 -0.0917  3.2065 -0.3303
  722MPD2    H310677   1.389   0.330  13.611  2.0179  1.7367 -0.1288
  722MPD2     N10678   1.026   0.354  13.347 -0.4817  0.5354 -0.3476
  722MPD2    H510679   0.999   0.360  13.249  5.9642  1.1817 -2.0941
  722MPD2    N110680   1.462   0.355  13.153 -0.0360 -0.2322 -0.1744
  722MPD2    H710681   1.413   0.367  13.065 -0.1281 -0.4036 -0.1457
  723TMC3    C110682   0.793   0.326  13.367 -0.1007  0.5427 -0.1565
  723TMC3    C210683   0.727   0.206  13.377  0.0538  0.6243 -0.1996
  723TMC3    C310684   0.640   0.169  13.276 -0.4199 -0.2374  0.3422
  723TMC3    C410685   0.777   0.410  13.256  0.2976 -0.5889  0.2962
  723TMC3    C510686   0.695   0.367  13.159  0.1974  0.1504 -1.1825
  723TMC3    C610687   0.634   0.241  13.161  0.0043  0.5886 -0.0300
  723TMC3     C10688   0.920   0.325  13.436  0.6910 -0.1325 -0.3909
  723TMC3     O10689   0.925   0.288  13.554  0.2451  0.2007  0.3091
  723TMC3     H10690   0.748   0.154  13.470  0.4122 -0.0583 -0.6629
  723TMC3    H110691   0.846   0.492  13.234 -0.2755 -0.5963 -1.5332
  723TMC3    H210692   0.562   0.219  13.082  0.0358  2.0238 -0.4713
  723TMC3    C710693   0.686   0.440  13.041 -0.5419  0.6766 -0.3183
  723TMC3    C810694   0.583   0.040  13.300 -0.2585  0.2564  0.0300
  723TMC3    O110695   0.655   0.374  12.943  0.0381 -0.6058 -0.6914
  723TMC3    O210696   0.564   0.003  13.413 -0.1382  0.2464 -0.4452
  724TMC3    C110697   0.281   4.260   8.721  0.4120  0.4093 -0.2938
  724TMC3    C210698   0.264   4.396   8.707  0.7777  0.2417  0.2553
  724TMC3    C310699   0.351   4.477   8.767 -0.7033 -0.0964  0.1511
  724TMC3    C410700   0.367   4.206   8.806 -0.4610 -0.1967 -0.2702
  724TMC3    C510701   0.452   4.287   8.873 -0.2651  0.0718 -0.2312
  724TMC3    C610702   0.458   4.421   8.848  0.1302  0.3644  0.4528
  724TMC3     C10703   0.186   4.181   8.663  0.4961 -0.3864 -0.0751
  724TMC3     O10704   0.074   4.226   8.674  0.2718  0.8195  0.1351
  724TMC3     H10705   0.197   4.437   8.633 -1.4340 -2.4503  0.7396
  724TMC3    H110706   0.393   4.101   8.795 -0.1450  0.1109 -2.5622
  724TMC3    H210707   0.524   4.481   8.910 -0.4631  0.5932  0.8632
  724TMC3    C710708   0.552   4.223   8.961  0.7593 -0.3420 -0.0787
  724TMC3    C810709   0.368   4.606   8.720 -0.0055 -0.6187 -0.0854
  724TMC3    O110710   0.646   4.293   8.996 -0.4156 -0.0436  0.1816
  724TMC3    O210711   0.278   4.657   8.654  0.0020  0.0536 -0.3884
  725TMC3    C110712   2.866   2.268  12.982  0.4113  0.0836 -0.3356
  725TMC3    C210713   2.878   2.307  12.852 -0.2084 -0.3815  0.3538
  725TMC3    C310714   2.822   2.227  12.755 -0.3340  0.6920  0.5034
  725TMC3    C410715   2.797   2.159  13.019 -0.4326  0.3554 -1.2095
  725TMC3    C510716   2.747   2.082  12.921  0.3939 -0.5900 -0.6193
  725TMC3    C610717   2.759   2.112  12.788 -0.1455 -0.5033  1.3413
  725TMC3     C10718   2.913   2.364  13.080 -0.9708  0.1595  0.5213
  725TMC3     O10719   2.933   2.477  13.037 -0.0600 -0.0397  0.1642
  725TMC3     H10720   2.949   2.384  12.827 -0.7003 -0.5393 -1.5124
  725TMC3    H110721   2.770   2.133  13.121  2.6066 -1.1597 -0.8077
  725TMC3    H210722   2.714   2.061  12.703 -1.5225  0.4143  1.5201
  725TMC3    C710723   2.746   1.939  12.955 -0.1307  0.1553 -0.0698
  725TMC3    C810724   2.790   2.282  12.619  0.6423  0.2347 -0.6637
  725TMC3    O110725   2.741   1.896  13.070 -0.3456 -0.4121  0.3649
  725TMC3    O210726   2.741   2.209  12.534  0.7464  0.2187  0.3516
  726MPD2     C10727   0.487   4.039   9.795  0.2066  1.1091 -0.2972
  726MPD2    C110728   0.353   4.079   9.759 -0.0671  0.0565  0.2620
  726MPD2    C210729   0.254   3.981   9.766 -0.3156  0.0682 -0.4480
  726MPD2    C310730   0.284   3.854   9.797  0.3169  0.7754 -0.9074
  726MPD2    C410731   0.409   3.824   9.837 -0.0083  0.7838  0.4496
  726MPD2    C510732   0.512   3.913   9.827  0.3963  0.5004  0.4830
  726MPD2     H10733   0.152   4.013   9.750 -0.6045  0.0460  1.3712
  726MPD2    H110734   0.423   3.723   9.873  1.2594  0.6470 -0.4495
  726MPD2    H210735   0.561   4.116   9.806 -0.3301  1.6503 -0.4582
  726MPD2    H310736   0.610   3.896   9.871  0.6258  0.8436  0.1152
  726MPD2     N10737   0.188   3.753   9.807 -0.3172 -0.1189 -0.0447
  726MPD2    H510738   0.214   3.670   9.858 -1.3518  0.0886  0.8333
  726MPD2    N110739   0.315   4.219   9.757 -0.0868 -0.6337 -0.1485
  726MPD2    H710740   0.217   4.245   9.761 -0.0707 -0.4495 -1.0749
  727TMC3    C110741   0.358   4.454   9.779 -0.7151  0.3720  0.0757
  727TMC3    C210742   0.447   4.548   9.805 -0.2792  0.0569  0.2603
  727TMC3    C310743   0.410   4.665   9.861 -0.6465 -0.4818  0.2909
  727TMC3    C410744   0.233   4.466   9.837  0.3394 -0.2968 -0.0239
  727TMC3    C510745   0.200   4.586   9.907  1.0994 -0.7321  0.4084
  727TMC3    C610746   0.286   4.690   9.915  0.6547 -0.0006  1.0925
  727TMC3     C10747   0.406   4.325   9.737 -0.0972 -0.2338  0.9562
  727TMC3     O10748   0.520   4.322   9.698 -0.3091 -0.3027  0.5244
  727TMC3     H10749   0.546   4.528   9.764 -0.9094 -0.7494 -0.8567
  727TMC3    H110750   0.152   4.402   9.803  0.1324  0.9194 -1.8205
  727TMC3    H210751   0.262   0.072   9.934 -0.6696  0.2921 -2.0862
  727TMC3    C710752   0.060   4.610   9.936  0.6118 -0.3196 -0.1721
  727TMC3    C810753   0.520   0.034   9.891 -0.2861  0.0045  1.0924
  727TMC3    O110754   4.693   4.538   9.888 -0.0014 -0.0005  0.3852
  727TMC3    O210755   0.627   0.008   9.830  0.3276  0.4269  0.1080
  728TMC3    C110756   0.492   2.151  15.446  0.2495 -0.0099  1.0677
  728TMC3    C210757   0.589   2.122  15.541 -0.7530  0.1938 -0.0725
  728TMC3    C310758   0.714   2.167  15.508  0.1767  0.6193 -0.1048
  728TMC3    C410759   0.520   2.194  15.321 -0.1703 -0.2418 -0.2631
  728TMC3    C510760   0.647   2.227  15.292 -0.3218 -0.1867  0.2574
  728TMC3    C610761   0.743   2.227  15.390  0.3971  0.0537  0.0471
  728TMC3     C10762   0.372   2.210  15.492  0.3731 -0.0215  0.0269
  728TMC3     O10763   0.360   2.330  15.468  0.4467 -0.3200  0.6702
  728TMC3     H10764   0.558   2.068  15.629  0.2220 -0.3299 -0.0537
  728TMC3    H110765   0.433   2.218  15.261  0.2001 -0.4404 -0.8713
  728TMC3    H210766   0.842   2.266  15.368  1.0858 -0.7785  1.6965
  728TMC3    C710767   0.664   2.306  15.173  1.0028  0.0725  0.3407
  728TMC3    C810768   0.828   2.122  15.589 -0.3963  0.6468 -0.4442
  728TMC3    O110769   0.719   2.417  15.171  0.6478  0.3613 -0.0124
  728TMC3    O210770   0.810   2.124  15.711 -0.5614  0.0597  0.3481
  729MPD2     C10771   2.356   3.284  17.692 -0.7288 -0.4129  0.2005
  729MPD2    C110772   2.489   3.313   0.000 -0.3382 -0.3158  0.4099
  729MPD2    C210773   2.538   3.387   0.107  0.3511  0.5005 -0.9582
  729MPD2    C310774   2.460   3.439   0.201 -1.0754 -0.0542 -0.9231
  729MPD2    C410775   2.328   3.409   0.200 -0.3575 -0.2201  0.2702
  729MPD2    C510776   2.277   3.333   0.099 -0.0892 -0.1091 -0.0917
  729MPD2     H10777   2.640   3.422   0.110  0.3053  0.4295  1.3619
  729MPD2    H110778   2.262   3.447   0.277 -0.5337  2.6870 -1.2943
  729MPD2    H210779   2.301   3.236  17.613  1.5713 -1.4910 -0.7487
  729MPD2    H310780   2.172   3.312   0.115 -0.6080  2.6214  0.0617
  729MPD2     N10781   2.520   3.531   0.293  0.2370 -0.3027  0.1916
  729MPD2    H510782   2.620   3.546   0.292  0.2223 -0.2346 -0.3574
  729MPD2    N110783   2.564   3.287  17.578 -0.1450 -0.4388 -0.0799
  729MPD2    H710784   2.515   3.256  17.495  0.4398 -0.0090 -0.5867
  730TMC3    C110785   2.538   3.740   0.405 -0.5075  0.2526 -0.1690
  730TMC3    C210786   2.673   3.717   0.441  0.3203  0.3226  0.0395
  730TMC3    C310787   2.764   3.817   0.430 -0.3798 -0.3290 -0.0335
  730TMC3    C410788   2.497   3.860   0.378 -0.1986 -0.8609  0.2384
  730TMC3    C510789   2.592   3.958   0.369  0.2682 -0.9115 -0.0362
  730TMC3    C610790   2.722   3.941   0.389  0.0526  0.1994  0.4451
  730TMC3     C10791   2.450   3.627   0.362  0.2408 -0.1494 -0.1626
  730TMC3     O10792   2.332   3.648   0.351 -0.5255 -0.1264 -0.1707
  730TMC3     H10793   2.695   3.612   0.457  1.5946  0.5501 -0.2643
  730TMC3    H110794   2.395   3.872   0.341  0.0738 -1.1215 -0.5942
  730TMC3    H210795   2.795   4.018   0.369 -0.5677  0.5341 -0.5338
  730TMC3    C710796   2.554   4.045   0.261  1.0931  0.5989  0.2797
  730TMC3    C810797   2.893   3.767   0.391  0.4957  0.0265  0.1141
  730TMC3    O110798   2.514   3.979   0.163 -0.2134  0.3917  0.4205
  730TMC3    O210799   2.957   3.823   0.308 -0.3934  0.2192 -0.0491
  731MPD2     C10800   1.970   2.012  12.104 -0.3466 -0.3570  0.7013
  731MPD2    C110801   2.101   2.008  12.102 -0.7959  0.7671  0.4876
  731MPD2    C210802   2.172   1.954  12.211  0.1543  0.4052 -0.2303
  731MPD2    C310803   2.100   1.888  12.312  0.3837  0.7492 -0.2907
  731MPD2    C410804   1.963   1.881  12.296 -0.0823 -0.2813 -0.2942
  731MPD2    C510805   1.898   1.932  12.189 -0.0553  0.1734  0.0115
  731MPD2     H10806   2.280   1.946  12.207  0.2329  2.0075 -1.0592
  731MPD2    H110807   1.893   1.827  12.358 -0.6918  0.5468 -0.2557
  731MPD2    H210808   1.915   2.060  12.024  2.1040  2.3645  0.6552
  731MPD2    H310809   1.790   1.933  12.181 -0.0889 -0.3801  0.4039
  731MPD2     N10810   2.163   1.807  12.410  0.1472  0.2750 -0.4717
  731MPD2    H510811   2.264   1.800  12.411  0.2927  2.2331 -0.5795
  731MPD2    N110812   2.155   2.068  11.990  0.8342  0.2854 -0.2029
  731MPD2    H710813   2.082   2.086  11.922  0.1730 -0.7713  0.2326
  732TMC3    C110814   2.313   2.070  11.823  0.2166  0.0764  0.2104
  732TMC3    C210815   2.248   1.970  11.751 -0.1671 -0.0783 -0.4659
  732TMC3    C310816   2.319   1.909  11.649  0.1910 -0.3228  0.0979
  732TMC3    C410817   2.442   2.110  11.789  0.2346 -0.1421 -0.6706
  732TMC3    C510818   2.503   2.048  11.684  0.0470  0.6447 -0.3694
  732TMC3    C610819   2.445   1.950  11.606 -0.1739  0.2843  0.0377
  732TMC3     C10820   2.288   2.083  11.961 -0.8933 -0.4132 -0.7295
  732TMC3     O10821   2.388   2.087  12.036 -0.4416 -0.8287  0.2904
  732TMC3     H10822   2.144   1.952  11.774  0.5528 -1.1710  1.9223
  732TMC3    H110823   2.490   2.181  11.856  1.1637 -0.7874 -0.6562
  732TMC3    H210824   2.494   1.921  11.514 -0.2939 -0.8573  0.3313
  732TMC3    C710825   2.652   2.053  11.676 -0.5729 -0.4969 -0.4594
  732TMC3    C810826   2.263   1.787  11.598 -0.5563 -0.2559  0.2880
  732TMC3    O110827   2.705   2.093  11.575  0.3657 -1.0089 -0.0751
  732TMC3    O210828   2.328   1.735  11.509  0.0936 -0.7882  0.0128
  733TMC3    C110829   4.261   0.144  13.114 -0.2818  0.4253  0.8681
  733TMC3    C210830   4.300   0.246  13.199  0.0519  0.2584 -0.0049
  733TMC3    C310831   4.315   0.371  13.128 -0.1419 -0.3817 -0.3359
  733TMC3    C410832   4.274   0.141  12.980 -0.5715  0.6167 -0.1301
  733TMC3    C510833   4.307   0.263  12.916 -0.0569 -0.1072  0.0935
  733TMC3    C610834   4.321   0.374  12.992 -0.2409  0.4503  1.0985
  733TMC3     C10835   4.156   0.048  13.152 -0.3426 -0.6541  0.4937
  733TMC3     O10836   4.067   0.036  13.071 -0.0081  0.1908  0.1647
  733TMC3     H10837   4.304   0.245  13.307 -2.6032  0.8300  0.1124
  733TMC3    H110838   4.257   0.055  12.916  0.0435  0.0335  0.5016
  733TMC3    H210839   4.364   0.462  12.945 -2.4067  1.6264  1.2960
  733TMC3    C710840   4.228   0.285  12.786 -0.9471  0.6573 -1.3369
  733TMC3    C810841   4.321   0.498  13.205 -0.3206  0.4448 -0.3083
  733TMC3    O110842   4.218   0.202  12.699  0.1770  0.1160  0.5772
  733TMC3    O210843   4.323   0.490  13.327 -0.3267  0.1155  0.5640
  734MPD2     C10844   0.707   2.604  12.393  0.5487  0.5253 -0.3972
  734MPD2    C110845   0.659   2.520  12.296 -0.1346  0.4966  0.9531
  734MPD2    C210846   0.722   2.520  12.174  0.3518  0.1719  0.1788
  734MPD2    C310847   0.827   2.602  12.151 -0.2543 -0.0304  0.5544
  734MPD2    C410848   0.878   2.685  12.252 -0.6380  0.4250 -0.2421
  734MPD2    C510849   0.817   2.680  12.377  0.7343  0.3483 -0.4423
  734MPD2     H10850   0.692   2.453  12.094  0.9981 -0.3885  0.4114
  734MPD2    H110851   0.963   2.752  12.240  0.8966 -1.8071 -1.7631
  734MPD2    H210852   0.664   2.598  12.492  0.8471 -1.7485 -0.4156
  734MPD2    H310853   0.860   2.744  12.453  0.1143  1.2523 -0.8569
  734MPD2     N10854   0.873   2.591  12.017  0.4863 -0.8277 -1.3298
  734MPD2    H510855   0.819   2.539  11.949 -0.6775 -0.5614 -0.6037
  734MPD2    N110856   0.546   2.443  12.324  0.2217  0.9398  0.3005
  734MPD2    H710857   0.509   2.441  12.418  1.0442  0.5092  0.6092
  735TMC3    C110858   0.385   2.275  12.286 -0.6698  0.6440 -0.2856
  735TMC3    C210859   0.309   2.224  12.180 -0.2847 -0.2862  0.1161
  735TMC3    C310860   0.289   2.093  12.176 -0.2054 -0.2571 -0.0146
  735TMC3    C410861   0.437   2.190  12.386 -0.7656  0.0405  0.4305
  735TMC3    C510862   0.416   2.053  12.376  0.2174  0.0284  0.3352
  735TMC3    C610863   0.330   2.009  12.280  0.6255 -0.1877  0.4663
  735TMC3     C10864   0.480   2.362  12.236  0.1074  0.1918  0.8892
  735TMC3     O10865   0.483   2.379  12.111  0.3640 -0.1228 -0.2422
  735TMC3     H10866   0.278   2.292  12.102  1.0197 -1.5263 -1.4835
  735TMC3    H110867   0.507   2.228  12.460 -2.0256  1.6466  0.7709
  735TMC3    H210868   0.311   1.903  12.264 -0.8404  0.3451 -1.2926
  735TMC3    C710869   0.541   1.992  12.374  0.0110 -0.4839  0.0542
  735TMC3    C810870   0.332   2.042  12.046 -0.1623 -0.6710  0.0001
  735TMC3    O110871   0.632   2.074  12.357  0.3175  0.1077  0.2719
  735TMC3    O210872   0.303   1.930  12.006 -0.0740 -0.0597  0.4686
  736MPD2     C10873   0.624   1.632  12.334  0.0036  0.8539  0.8580
  736MPD2    C110874   0.639   1.770  12.316  0.4137  0.5355 -0.4406
  736MPD2    C210875   0.743   1.823  12.242 -0.5761 -0.1324  0.5174
  736MPD2    C310876   0.838   1.741  12.188 -0.1595 -0.3076  0.1886
  736MPD2    C410877   0.828   1.604  12.210  0.1791 -0.1537  0.1930
  736MPD2    C510878   0.723   1.553  12.285 -0.0000  0.1234 -0.1077
  736MPD2     H10879   0.740   1.929  12.220  1.2849  0.1693  1.7365
  736MPD2    H110880   0.897   1.536  12.162  0.4619  0.6927 -0.6148
  736MPD2    H210881   0.542   1.596  12.395 -0.1729  0.2648  0.2665
  736MPD2    H310882   0.709   1.447  12.301 -1.6109  0.1060 -1.5644
  736MPD2     N10883   0.943   1.789  12.101  0.6239 -0.1209 -0.4900
  736MPD2    H510884   1.001   1.722  12.052 -0.5806 -1.2422 -0.3894
  736MPD2    N110885   0.537   1.852  12.371 -0.2065  0.5275 -0.4734
  736MPD2    H710886   0.454   1.811  12.412  1.0523 -2.2462 -0.7229
  737TMC3    C110887   1.100   1.959  12.002  0.3254 -0.3471  0.0340
  737TMC3    C210888   1.123   2.078  11.937  0.4635 -0.1117  0.3186
  737TMC3    C310889   1.230   2.091  11.850  0.0180  0.4446  0.0030
  737TMC3    C410890   1.191   1.857  11.982  0.1467  0.3097 -0.1730
  737TMC3    C510891   1.283   1.872  11.888  0.2292 -0.1412 -0.0377
  737TMC3    C610892   1.306   1.986  11.816  0.3916 -0.3776  0.4567
  737TMC3     C10893   0.974   1.926  12.074 -0.1219  0.2662 -0.2907
  737TMC3     O10894   0.896   2.019  12.078 -0.1288 -0.5468  0.0186
  737TMC3     H10895   1.065   2.169  11.952 -1.1143 -0.8549 -1.3670
  737TMC3    H110896   1.192   1.761  12.032 -0.6884  0.2242 -0.3249
  737TMC3    H210897   1.374   1.989  11.731 -0.8494 -1.9247 -0.5821
  737TMC3    C710898   1.382   1.762  11.871 -0.0977 -0.0452  0.2069
  737TMC3    C810899   1.229   2.220  11.777 -0.4632 -0.6013 -0.9398
  737TMC3    O110900   1.379   1.675  11.956 -0.4958 -0.0183 -0.6320
  737TMC3    O210901   1.190   2.315  11.838  0.1742  0.2691  0.0843
  738MPD2     C10902   2.111   0.419  15.013 -0.3427  0.1654  0.0098
  738MPD2    C110903   2.023   0.518  14.974 -0.3861 -0.2508 -0.3139
  738MPD2    C210904   2.065   0.648  14.970  0.3690 -0.5531  0.2774
  738MPD2    C310905   2.186   0.690  15.007  0.1111  0.0786  0.2260
  738MPD2    C410906   2.268   0.600  15.063  0.1225  0.0409 -0.7579
  738MPD2    C510907   2.237   0.466  15.056  0.9026  0.3273  0.1312
  738MPD2     H10908   2.004   0.724  14.923  1.9367  0.2663 -0.4496
  738MPD2    H110909   2.351   0.629  15.127 -2.0599  2.1002  1.1045
  738MPD2    H210910   2.081   0.315  15.012  0.0582  0.0420  0.4964
  738MPD2    H310911   2.306   0.396  15.103 -1.1512 -0.8335  1.4072
  738MPD2     N10912   2.227   0.827  15.011 -0.5272 -0.5188 -0.4707
  738MPD2    H510913   2.320   0.829  15.052  0.2976 -1.6918 -2.2689
  738MPD2    N110914   1.899   0.488  14.915  0.0814 -0.1239 -0.4110
  738MPD2    H710915   1.835   0.565  14.899  0.6868  0.6102  0.6615
  739TMC3    C110916   2.235   1.058  14.962 -0.1375  0.7825 -0.0731
  739TMC3    C210917   2.207   1.126  14.845  0.5904  0.5894 -0.0085
  739TMC3    C310918   2.310   1.184  14.773 -0.6151  0.4437  0.1832
  739TMC3    C410919   2.366   1.056  15.008  0.8605 -0.0521  0.1056
  739TMC3    C510920   2.462   1.123  14.939  0.0709 -0.4179  0.4146
  739TMC3    C610921   2.438   1.180  14.819 -0.1164 -0.7065 -0.4231
  739TMC3     C10922   2.160   0.936  14.975  0.5954 -0.5618 -0.3487
  739TMC3     O10923   2.046   0.951  14.939  0.4566  0.6772  0.6400
  739TMC3     H10924   2.103   1.132  14.818  0.9201 -0.6111 -1.5360
  739TMC3    H110925   2.397   1.006  15.100 -0.3327 -0.7570  0.1255
  739TMC3    H210926   2.518   1.229  14.766 -0.6334  1.3760  0.7275
  739TMC3    C710927   2.592   1.139  15.002 -0.0070 -0.0176 -0.6036
  739TMC3    C810928   2.295   1.200  14.629 -0.5693 -0.7410 -0.0028
  739TMC3    O110929   2.610   1.074  15.103 -0.4161 -0.5838  0.4665
  739TMC3    O210930   2.178   1.215  14.586  0.1706  0.0409  0.5742
  740TMC3    C110931   2.289   2.214  14.400  0.2560 -0.1560 -0.5781
  740TMC3    C210932   2.351   2.204  14.521 -0.2655  0.2886  0.2852
  740TMC3    C310933   2.469   2.136  14.531  0.1847 -0.3828  0.3941
  740TMC3    C410934   2.352   2.170  14.284 -0.0583  0.1401 -0.6896
  740TMC3    C510935   2.476   2.113  14.296 -0.0380  0.6937 -0.1690
  740TMC3    C610936   2.538   2.094  14.417  0.1695  1.1039 -0.3836
  740TMC3     C10937   2.146   2.242  14.398  0.5551 -0.5584  0.1068
  740TMC3     O10938   2.097   2.258  14.287  0.2564 -0.1069  0.0069
  740TMC3     H10939   2.301   2.234  14.613  2.2163  1.3411  1.2911
  740TMC3    H110940   2.287   2.157  14.198 -1.0040  0.2541  0.0075
  740TMC3    H210941   2.621   2.024  14.423  0.4209  1.3568 -0.9742
  740TMC3    C710942   2.553   2.077  14.181 -0.1021 -0.3029 -0.2659
  740TMC3    C810943   2.549   2.140  14.649 -0.2292 -0.6119 -0.2335
  740TMC3    O110944   2.644   1.996  14.199 -1.0289 -0.3723 -0.2011
  740TMC3    O210945   2.669   2.113  14.643 -0.3391  0.1799  0.3155
  741TMC3    C110946   2.079   1.524  14.277  0.0172 -0.2571  0.1883
  741TMC3    C210947   1.966   1.570  14.213  0.3912  0.1562 -0.2809
  741TMC3    C310948   1.867   1.606  14.298 -0.2330 -0.2382  0.3953
  741TMC3    C410949   2.083   1.501  14.413  0.7408  0.1335 -0.8404
  741TMC3    C510950   1.971   1.529  14.489 -0.0937 -0.0336  0.1912
  741TMC3    C610951   1.867   1.594  14.437  0.8807 -0.2180 -0.0217
  741TMC3     C10952   2.210   1.502  14.205 -0.2758 -0.4870  0.2009
  741TMC3     O10953   2.303   1.459  14.277  0.2331 -0.0831  0.5221
  741TMC3     H10954   1.951   1.557  14.107  2.2058  0.8447 -0.6331
  741TMC3    H110955   2.178   1.466  14.453  0.7855 -1.4306 -2.3501
  741TMC3    H210956   1.793   1.642  14.500  1.5027  1.5243 -0.6182
  741TMC3    C710957   1.978   1.527  14.630 -0.0147 -0.3472 -0.2191
  741TMC3    C810958   1.734   1.648  14.232 -0.3218  0.4184 -0.1658
  741TMC3    O110959   1.872   1.552  14.686 -0.7552 -0.0824 -0.4508
  741TMC3    O210960   1.631   1.646  14.300  0.4953  0.4778  0.7750
  742TMC3    C110961   1.602   0.094  15.232  0.9618 -0.2750  0.3609
  742TMC3    C210962   1.552   0.021  15.127 -0.5279  0.0483  0.0165
  742TMC3    C310963   1.638   4.699  15.023 -0.7444 -0.0112  0.5525
  742TMC3    C410964   1.739   0.116  15.227 -0.8477  0.2765 -0.5180
  742TMC3    C510965   1.822   0.069  15.132  0.1302  0.1313  0.0814
  742TMC3    C610966   1.776   4.718  15.025 -0.6552 -0.1281 -0.0075
  742TMC3     C10967   1.536   0.077  15.366  0.2869  0.8993 -0.4991
  742TMC3     O10968   1.462   4.707  15.392  0.8168  0.3425  0.4700
  742TMC3     H10969   1.447   0.041  15.113 -1.2159 -1.8759  2.3993
  742TMC3    H110970   1.792   0.165  15.307 -1.0560 -0.9999  0.4023
  742TMC3    H210971   1.843   4.676  14.952  1.3065 -0.1753  1.8194
  742TMC3    C710972   1.964   0.049  15.153 -0.2516 -0.4105 -0.3296
  742TMC3    C810973   1.582   4.661  14.895  0.2316 -0.2026  0.5722
  742TMC3    O110974   2.014   4.694  15.070 -1.1066  0.0276 -0.1688
  742TMC3    O210975   1.651   4.673  14.792 -0.0289  0.2374  0.2923
  743MPD2     C10976   4.220   1.850   1.927  0.0898  0.1814  0.1205
  743MPD2    C110977   4.269   1.785   1.814 -0.7321  0.9753  0.4467
  743MPD2    C210978   4.409   1.791   1.796 -0.3489 -0.3550 -0.4352
  743MPD2    C310979   4.486   1.832   1.898  0.4510  0.7069 -0.2566
  743MPD2    C410980   4.433   1.885   2.018  0.3332 -0.2061  0.4486
  743MPD2    C510981   4.302   1.894   2.030  0.2120  0.2984 -0.0801
  743MPD2     H10982   4.454   1.767   1.701 -0.6592 -2.0676 -0.1539
  743MPD2    H110983   4.488   1.923   2.103  0.1746  1.5766 -0.2313
  743MPD2    H210984   4.115   1.861   1.950 -0.2795 -3.1568 -0.0510
  743MPD2    H310985   4.262   1.938   2.121 -0.6263  0.7303 -0.6580
  743MPD2     N10986   4.627   1.819   1.877  0.0343 -0.4169  0.0645
  743MPD2    H510987   4.659   1.770   1.795  1.0709  0.0886  0.1646
  743MPD2    N110988   4.189   1.718   1.715 -0.0094 -0.4748 -0.1032
  743MPD2    H710989   4.090   1.720   1.739 -0.0244 -0.8989 -0.1331
  744TMC3    C110990   4.132   1.585   1.529  0.1040 -0.3428 -0.4782
  744TMC3    C210991   4.002   1.616   1.540 -0.7165 -0.0042  0.3374
  744TMC3    C310992   3.908   1.561   1.456 -0.4776  0.2139  0.4115
  744TMC3    C410993   4.170   1.500   1.426 -0.1957 -0.3750 -0.8749
  744TMC3    C510994   4.074   1.443   1.344  0.2420  0.2765 -0.1092
  744TMC3    C610995   3.943   1.481   1.354  0.1210  0.1287 -0.2530
  744TMC3     C10996   4.232   1.632   1.620  0.5828  0.5190  0.5973
  744TMC3     O10997   4.334   1.564   1.629 -0.3106 -0.8799 -0.1183
  744TMC3     H10998   3.965   1.676   1.622 -0.1893  0.5850  0.1439
  744TMC3    H110999   4.273   1.467   1.421  0.0487  0.3066 -0.2969
  744TMC3    H211000   3.865   1.444   1.289  0.4103  0.3295 -0.7082
  744TMC3    C711001   4.133   1.364   1.239 -0.1048  0.1235  0.2736
  744TMC3    C811002   3.783   1.625   1.465  0.3672  0.3443 -0.2807
  744TMC3    O111003   4.250   1.329   1.236 -0.0851  0.0014  0.2526
  744TMC3    O211004   3.772   1.732   1.526  0.4846 -0.0180  0.2029
  745TMC3    C111005   2.865   4.655  13.949  0.9019  0.3479 -0.1145
  745TMC3    C211006   2.781   4.630  14.057  0.6160 -0.1570 -0.0839
  745TMC3    C311007   2.692   4.530  14.053  0.2689  0.6129 -0.3288
  745TMC3    C411008   2.867   4.574  13.841  0.1234 -0.0702 -0.1148
  745TMC3    C511009   2.786   4.465  13.843 -0.2033  0.5423  0.2176
  745TMC3    C611010   2.698   4.450  13.941 -0.1925  0.7771  0.2425
  745TMC3     C11011   2.897   0.074  13.929 -0.4615  0.8209  0.3123
  745TMC3     O11012   2.943   0.143  14.018 -0.6958  0.3436  0.5992
  745TMC3     H11013   2.767   4.713  14.126  3.3269 -0.2403  0.5428
  745TMC3    H111014   2.929   4.589  13.753  0.3653 -0.5853 -0.0283
  745TMC3    H211015   2.619   4.376  13.943  2.0202 -1.4515  3.5485
  745TMC3    C711016   2.767   4.397  13.719  0.0548 -0.0586 -0.4144
  745TMC3    C811017   2.567   4.546  14.118  0.0942 -0.5505  0.6072
  745TMC3    O111018   2.660   4.340  13.699  0.1668 -0.1536  0.2277
  745TMC3    O211019   2.468   4.507  14.057 -0.2453 -0.4327  0.1783
  746TMC3    C111020   0.183   2.375  11.098  0.0772 -0.4727  0.2654
  746TMC3    C211021   0.294   2.377  11.017 -0.7117 -0.0170  0.1928
  746TMC3    C311022   0.381   2.272  11.017  0.0585  0.4907 -0.4008
  746TMC3    C411023   0.168   2.261  11.173  0.2853 -0.3844 -0.4473
  746TMC3    C511024   0.240   2.151  11.149 -0.2754 -0.8241  0.1592
  746TMC3    C611025   0.355   2.152  11.077 -0.0954 -0.1314  0.7613
  746TMC3     C11026   0.058   2.420  11.032 -0.0164  0.1994  0.3725
  746TMC3     O11027   4.677   2.381  11.083  0.2502 -0.4259 -0.5812
  746TMC3     H11028   0.314   2.454  10.943  1.6128 -0.9953 -0.2008
  746TMC3    H111029   0.081   2.252  11.236  1.0147  1.8248  0.8553
  746TMC3    H211030   0.413   2.064  11.055  2.6312  1.6915  0.6053
  746TMC3    C711031   0.161   2.040  11.088  0.0786 -0.1383  0.0219
  746TMC3    C811032   0.476   2.260  10.911 -0.0783  0.7775 -0.5255
  746TMC3    O111033   0.195   2.013  10.976 -0.2141 -0.6391 -0.2988
  746TMC3    O211034   0.539   2.365  10.881  0.0127  0.2444 -0.4772
  747TMC3    C111035   1.992   1.695  11.029  0.6064 -0.0449 -0.5332
  747TMC3    C211036   1.918   1.609  11.109 -0.1857  0.1550 -0.2319
  747TMC3    C311037   1.918   1.639  11.243 -0.4659 -0.3541 -0.0370
  747TMC3    C411038   2.084   1.782  11.086  0.0560  1.1338 -0.5920
  747TMC3    C511039   2.088   1.798  11.221 -0.6432  0.4946 -0.1409
  747TMC3    C611040   1.997   1.735  11.303 -0.5904 -0.5712  0.0148
  747TMC3     C11041   1.953   1.712  10.895 -0.5808 -0.6775 -0.0301
  747TMC3     O11042   1.989   1.816  10.851  0.1051  0.4060 -0.8252
  747TMC3     H11043   1.845   1.538  11.072  1.2786  0.0483 -2.8996
  747TMC3    H111044   2.146   1.846  11.024  1.4315 -0.4898 -0.9057
  747TMC3    H211045   2.003   1.746  11.410  3.3686 -0.4099 -0.2430
  747TMC3    C711046   2.167   1.903  11.282 -0.3195  0.5069  1.3147
  747TMC3    C811047   1.839   1.564  11.336  0.0737 -0.3935  0.0717
  747TMC3    O111048   2.134   1.941  11.393  0.8182 -0.0275  0.6019
  747TMC3    O211049   1.830   1.442  11.324  0.5913 -0.4216  0.0147
  748MPD2     C11050   3.098   2.585   1.763 -0.3561 -0.1348  0.2551
  748MPD2    C111051   3.183   2.478   1.789  0.3476  0.3769  0.7906
  748MPD2    C211052   3.322   2.493   1.772 -0.4714 -0.2444  0.2294
  748MPD2    C311053   3.364   2.610   1.718  0.0559 -0.0178  0.8754
  748MPD2    C411054   3.285   2.723   1.709 -0.2778  0.0322  0.6144
  748MPD2    C511055   3.149   2.710   1.726 -0.2847 -0.0071 -0.2656
  748MPD2     H11056   3.392   2.411   1.784 -1.2794 -0.9451  0.1131
  748MPD2    H111057   3.328   2.820   1.687  0.6364 -0.0958  1.8523
  748MPD2    H211058   2.990   2.581   1.763 -0.3896  0.5982  1.2169
  748MPD2    H311059   3.083   2.795   1.711 -2.8751 -1.9446  0.0483
  748MPD2     N11060   3.502   2.621   1.676  0.1642  0.2986 -0.5593
  748MPD2    H511061   3.558   2.539   1.695 -0.6425 -0.0345  0.3876
  748MPD2    N111062   3.112   2.359   1.818 -0.1939  0.0448  0.4093
  748MPD2    H711063   3.011   2.353   1.830 -0.5044  2.2421 -1.0182
  749TMC3    C111064   3.681   2.688   1.535  0.0786  0.8368  0.3248
  749TMC3    C211065   3.779   2.681   1.627  0.8320  0.6726  0.3514
  749TMC3    C311066   3.905   2.703   1.592  0.2113 -0.6102  0.0179
  749TMC3    C411067   3.705   2.725   1.401  0.4548  0.2632  0.8595
  749TMC3    C511068   3.840   2.745   1.370 -0.2136 -0.2073 -0.6332
  749TMC3    C611069   3.940   2.741   1.465 -0.0906  0.3260 -0.1904
  749TMC3     C11070   3.547   2.707   1.578 -0.8752  0.5939  0.3245
  749TMC3     O11071   3.483   2.789   1.512  0.4878  0.1031 -0.5347
  749TMC3     H11072   3.759   2.650   1.729 -0.7302 -1.2302 -0.5300
  749TMC3    H111073   3.624   2.738   1.330  0.3886 -1.0624  0.6865
  749TMC3    H211074   4.037   2.784   1.441 -0.0135  1.2460  1.7530
  749TMC3    C711075   3.873   2.798   1.241  0.7015 -0.4148 -0.5088
  749TMC3    C811076   4.011   2.655   1.689 -0.3499  0.1591 -0.2772
  749TMC3    O111077   3.954   2.892   1.238  0.0897  0.3328  0.2371
  749TMC3    O211078   3.975   2.615   1.800 -0.2527 -0.0399 -0.0589
  750MPD2     C11079   4.545   3.247  10.710  0.2879  1.0934 -0.2027
  750MPD2    C111080   4.414   3.220  10.743 -0.4998  0.2589  0.1156
  750MPD2    C211081   4.323   3.178  10.644 -0.1884 -0.2025  0.0795
  750MPD2    C311082   4.368   3.151  10.513  0.6638  0.6261  0.5825
  750MPD2    C411083   4.504   3.177  10.483  0.0662  0.2471  0.1963
  750MPD2    C511084   4.590   3.226  10.579  0.2866 -0.2139  0.3424
  750MPD2     H11085   4.218   3.168  10.669  0.0341 -0.0865  1.0415
  750MPD2    H111086   4.541   3.161  10.383  1.5857 -2.0825  1.1415
  750MPD2    H211087   4.617   3.280  10.784 -0.7723  1.9164  0.4479
  750MPD2    H311088   4.691   3.251  10.550 -0.3571  0.2203 -1.5018
  750MPD2     N11089   4.286   3.098  10.407 -0.0157 -0.0323  0.1959
  750MPD2    H511090   4.332   3.057  10.326  1.3729 -0.0500  0.9864
  750MPD2    N111091   4.380   3.241  10.880  0.5617  0.1832  0.1937
  750MPD2    H711092   4.446   3.290  10.940  1.8665 -0.8052 -0.4621
  751TMC3    C111093   4.101   2.990  10.310  0.1397  0.7375 -0.5706
  751TMC3    C211094   4.012   2.895  10.357  0.6873 -0.3053  0.0415
  751TMC3    C311095   4.000   2.778  10.285 -0.3662  0.5387 -1.0558
  751TMC3    C411096   4.185   2.967  10.203 -0.1489  0.6500  0.8923
  751TMC3    C511097   4.177   2.846  10.148 -0.6777 -0.1567 -0.3030
  751TMC3    C611098   4.083   2.755  10.176 -0.5429  0.1271  0.0393
  751TMC3     C11099   4.151   3.076  10.414  0.6108  0.0763 -0.2373
  751TMC3     O11100   4.070   3.127  10.491  0.3104  0.6220 -0.2571
  751TMC3     H11101   3.957   2.914  10.449 -1.3507  2.0811 -1.6921
  751TMC3    H111102   4.266   3.033  10.175 -0.1308  1.2432  2.3070
  751TMC3    H211103   4.079   2.656  10.131 -1.2713 -0.3262  1.0906
  751TMC3    C711104   4.310   2.797  10.101  0.7149 -0.4503 -0.8350
  751TMC3    C811105   3.929   2.657  10.331 -0.1096 -0.2413  0.0568
  751TMC3    O111106   4.400   2.880  10.089  0.3861 -0.0431 -0.1354
  751TMC3    O211107   3.964   2.551  10.283  0.4994  0.2981 -0.0892
  752TMC3    C111108   3.637   2.988   0.157  0.3686  0.2172 -0.0192
  752TMC3    C211109   3.552   2.885   0.213  0.7500 -0.3566 -0.3971
  752TMC3    C311110   3.598   2.821   0.330  0.0764  0.1777 -0.2523
  752TMC3    C411111   3.744   3.036   0.222  0.0560 -0.2965  0.2472
  752TMC3    C511112   3.780   2.970   0.342 -0.3417  0.1554  0.4576
  752TMC3    C611113   3.705   2.868   0.400  0.5103 -0.0774 -0.5970
  752TMC3     C11114   3.626   3.029   0.018  0.0289 -0.7214  0.2519
  752TMC3     O11115   3.723   3.085  17.662  0.0177 -0.1176  0.7747
  752TMC3     H11116   3.470   2.838   0.162 -0.9768  2.5014 -0.2671
  752TMC3    H111117   3.819   3.105   0.184  0.9162 -1.3462  0.0183
  752TMC3    H211118   3.730   2.836   0.501  0.4491 -1.0869 -0.9030
  752TMC3    C711119   3.890   3.023   0.420  0.0419  0.4410  0.3339
  752TMC3    C811120   3.523   2.708   0.385 -1.1665 -0.3967 -0.5934
  752TMC3    O111121   3.940   2.953   0.511  0.2001 -0.1427  0.9776
  752TMC3    O211122   3.409   2.686   0.349  0.4876  0.1470  0.1705
  753TMC3    C111123   0.220   0.063  13.213 -0.1339  0.5659 -0.3744
  753TMC3    C211124   0.230   0.047  13.344  0.2167  0.4205  0.5422
  753TMC3    C311125   0.158   4.663  13.391  0.5710  0.4747  0.2225
  753TMC3    C411126   0.160   4.700  13.128 -0.7759 -0.8674 -0.2631
  753TMC3    C511127   0.100   4.588  13.181  0.1635  0.7676 -0.7674
  753TMC3    C611128   0.090   4.571  13.316 -0.0102  0.1057 -0.1221
  753TMC3     C11129   0.288   0.174  13.155 -0.3451  0.2456  0.0047
  753TMC3     O11130   0.339   0.150  13.044 -0.0020  0.4520 -0.4521
  753TMC3     H11131   0.291   0.109  13.408 -0.2542 -0.0223  1.4245
  753TMC3    H111132   0.182   4.703  13.022 -2.1418 -0.3939 -0.5341
  753TMC3    H211133   0.028   4.493  13.358 -1.8569  2.2717  1.1510
  753TMC3    C711134   0.079   4.470  13.098 -0.2131 -0.6701 -0.3785
  753TMC3    C811135   0.178   4.619  13.528 -0.0038  0.0865  0.5081
  753TMC3    O111136   0.092   4.478  12.977 -0.5119  0.3928 -0.5646
  753TMC3    O211137   0.091   4.553  13.572  0.2046 -0.0139 -0.3087
  754MPD2     C11138   3.920   3.197  12.671  0.1799  0.4361 -0.0297
  754MPD2    C111139   3.860   3.072  12.667 -0.0464 -0.1339 -0.5050
  754MPD2    C211140   3.754   3.047  12.760 -0.5381 -0.6180 -0.2929
  754MPD2    C311141   3.719   3.142  12.854  0.2138 -0.0077  0.2622
  754MPD2    C411142   3.773   3.266  12.851 -0.3817  0.0292  0.6341
  754MPD2    C511143   3.873   3.300  12.761 -0.2771 -0.0197  0.1515
  754MPD2     H11144   3.704   2.951  12.765 -0.6194 -0.5246  0.5787
  754MPD2    H111145   3.733   3.330  12.928  0.6061  0.6958  0.6025
  754MPD2    H211146   4.008   3.225  12.614 -0.6011  2.2589 -0.3209
  754MPD2    H311147   3.919   3.399  12.759  0.5241 -0.3517  2.1463
  754MPD2     N11148   3.627   3.116  12.953 -0.0507 -0.6121  0.5617
  754MPD2    H511149   3.622   3.189  13.024 -2.5730  0.7266 -0.9983
  754MPD2    N111150   3.917   2.977  12.571  0.4998 -0.4509 -0.7096
  754MPD2    H711151   3.959   3.018  12.489  3.9023 -0.3150  1.0986
  755MPD2     C11152   3.499   3.447  13.797 -0.1398 -0.3446  0.0537
  755MPD2    C111153   3.432   3.487  13.684  0.2671 -0.6240  1.0239
  755MPD2    C211154   3.398   3.392  13.585  0.4795 -0.4117 -1.2017
  755MPD2    C311155   3.446   3.261  13.601 -0.1944  0.1249 -0.1324
  755MPD2    C411156   3.506   3.223  13.717 -0.4503 -0.1294  0.1486
  755MPD2    C511157   3.537   3.316  13.810  0.2650 -0.6575  0.4286
  755MPD2     H11158   3.344   3.433  13.500 -0.2169  0.8642 -0.1324
  755MPD2    H111159   3.539   3.122  13.735 -0.2217  0.0789  0.9106
  755MPD2    H211160   3.534   3.514  13.875 -1.4534  0.3318  0.0449
  755MPD2    H311161   3.594   3.288  13.898  1.7709 -1.3796 -0.7532
  755MPD2     N11162   3.427   3.155  13.506  0.3822  0.1273  0.6550
  755MPD2    H511163   3.432   3.061  13.542 -0.0194  0.0463  0.5010
  755MPD2    N111164   3.381   3.620  13.672 -0.6037  0.1530  0.3495
  755MPD2    H711165   3.332   3.642  13.586  1.1372  1.6038 -0.2852
  756MPD2     C11166   3.846   3.663   9.334  0.0035 -1.1117  0.8147
  756MPD2    C111167   3.973   3.685   9.377  1.0252  0.5067  0.4253
  756MPD2    C211168   4.078   3.633   9.315 -0.2242 -0.4337 -0.2559
  756MPD2    C311169   4.053   3.555   9.199  0.7636  0.1302  0.0121
  756MPD2    C411170   3.932   3.540   9.150  0.4217 -0.6144 -0.3456
  756MPD2    C511171   3.830   3.597   9.218 -0.2716 -0.5032 -0.0339
  756MPD2     H11172   4.176   3.637   9.361 -1.2474  1.7608  1.7407
  756MPD2    H111173   3.908   3.490   9.057  1.9574 -2.8297  0.4551
  756MPD2    H211174   3.757   3.699   9.384  0.1272  1.0224 -0.4977
  756MPD2    H311175   3.732   3.595   9.172 -0.0293 -0.3792 -0.5578
  756MPD2     N11176   4.166   3.485   9.145 -0.3354  0.2192  0.5078
  756MPD2    H511177   4.257   3.508   9.184 -0.4907  0.7068  0.5858
  756MPD2    N111178   4.006   3.750   9.497 -0.5630  0.0866  0.1436
  756MPD2    H711179   4.103   3.752   9.526 -0.3874 -0.2096 -0.4281
  757MPD2     C11180   4.100   2.510   8.994 -0.0005 -0.6734 -0.7568
  757MPD2    C111181   4.005   2.613   9.003 -0.2303 -0.6441 -0.1594
  757MPD2    C211182   4.046   2.746   9.010 -0.8072 -0.1031 -0.0209
  757MPD2    C311183   4.181   2.769   9.021  0.8273 -0.2608 -0.6746
  757MPD2    C411184   4.272   2.667   9.011 -0.0088  0.2083  0.0827
  757MPD2    C511185   4.233   2.534   8.994  0.3390 -0.0341 -0.7617
  757MPD2     H11186   3.976   2.825   9.032 -0.6569  0.3993 -1.3278
  757MPD2    H111187   4.380   2.671   9.015 -0.1165 -1.6958  4.9955
  757MPD2    H211188   4.075   2.405   9.000 -0.9635 -0.4262 -0.5277
  757MPD2    H311189   4.315   2.466   8.980  1.1069  0.4009  1.4881
  757MPD2     N11190   4.212   2.907   9.024 -0.6348 -0.7262  0.7325
  757MPD2    H511191   4.146   2.984   9.030 -0.0985 -0.0460 -1.8909
  757MPD2    N111192   3.869   2.580   9.001  0.6020  0.5461 -0.2443
  757MPD2    H711193   3.850   2.483   9.022 -0.9188  0.6717 -1.0422
  758MPD2     C11194   4.410   3.186  15.690 -0.4350 -0.7378  0.0885
  758MPD2    C111195   4.425   3.070  15.761 -0.1859  0.2539  0.3498
  758MPD2    C211196   4.363   3.059  15.883 -0.3358 -0.6437  0.2534
  758MPD2    C311197   4.285   3.155  15.940  0.1627  0.4584  0.3034
  758MPD2    C411198   4.274   3.277  15.873  0.0187  0.5845  0.6503
  758MPD2    C511199   4.347   3.282  15.752 -0.3412  0.1674 -0.5539
  758MPD2     H11200   4.369   2.975  15.950 -0.0960 -0.7957  0.0419
  758MPD2    H111201   4.209   3.357  15.909 -1.4358 -0.5326  0.4842
  758MPD2    H211202   4.441   3.204  15.587 -0.4773 -1.1716  0.0013
  758MPD2    H311203   4.345   3.378  15.700  0.7348  1.2440  1.4066
  758MPD2     N11204   4.208   3.118  16.047  0.1916 -0.5800 -0.4260
  758MPD2    H511205   4.224   3.025  16.084  3.1525 -0.4003 -1.2135
  758MPD2    N111206   4.513   2.968  15.716 -0.1780 -0.2763 -0.0306
  758MPD2    H711207   4.575   2.985  15.638  0.6805 -1.2143  0.4514
  759MPD2     C11208   2.716   1.460  10.071 -0.2022  0.2752 -0.0560
  759MPD2    C111209   2.647   1.347  10.039 -0.0214  0.2160 -0.2044
  759MPD2    C211210   2.658   1.293   9.911  0.1003 -0.3244  0.6608
  759MPD2    C311211   2.735   1.348   9.817  0.0010 -0.4199 -0.2380
  759MPD2    C411212   2.812   1.464   9.842 -0.0168 -0.1781 -0.3523
  759MPD2    C511213   2.792   1.517   9.970 -0.6414  0.2667  0.5254
  759MPD2     H11214   2.595   1.209   9.884 -1.6497  0.8676  1.0018
  759MPD2    H111215   2.881   1.500   9.768  1.0846  0.8324  1.1726
  759MPD2    H211216   2.700   1.512  10.165  0.5147  0.1460  0.1375
  759MPD2    H311217   2.861   1.596   9.996  0.1510  0.3891 -1.9889
  759MPD2     N11218   2.743   1.275   9.695 -0.5333 -0.2421 -0.1041
  759MPD2    H511219   2.688   1.189   9.697 -1.4597  0.4789  5.0834
  759MPD2    N111220   2.539   1.293  10.124  0.2840 -0.0457  0.6947
  759MPD2    H711221   2.474   1.224  10.087 -0.6209  0.1219  1.9840
  760MPD2     C11222   2.382   3.544  11.758  0.0517 -0.2203  0.0669
  760MPD2    C111223   2.517   3.561  11.789  0.1456 -0.4383  0.4055
  760MPD2    C211224   2.563   3.500  11.903 -0.0025  0.0046 -0.1773
  760MPD2    C311225   2.490   3.407  11.984 -0.7732 -0.5548  0.3975
  760MPD2    C411226   2.365   3.378  11.935  0.3643  0.8160 -0.1876
  760MPD2    C511227   2.312   3.447  11.828  0.0085  0.9800  0.7082
  760MPD2     H11228   2.670   3.501  11.920 -0.4445  1.0557  2.5009
  760MPD2    H111229   2.306   3.296  11.975  0.7399  0.9541  0.6521
  760MPD2    H211230   2.338   3.582  11.667 -0.9281 -1.3998  0.0619
  760MPD2    H311231   2.214   3.412  11.797  1.4979 -3.5970  1.1032
  760MPD2     N11232   2.547   3.344  12.097  0.4983 -0.1797 -0.0660
  760MPD2    H511233   2.493   3.270  12.142 -1.0841 -0.0703 -1.7946
  760MPD2    N111234   2.611   3.629  11.710 -0.5200  0.4882  0.5147
  760MPD2    H711235   2.705   3.624  11.750  0.2093 -3.4856 -1.6890
  761MPD2     C11236   3.678   2.403  10.714 -0.1528 -0.6302  0.5178
  761MPD2    C111237   3.750   2.356  10.607  0.2725  0.3272  0.1570
  761MPD2    C211238   3.824   2.442  10.521  0.0888 -0.2707 -0.2239
  761MPD2    C311239   3.799   2.576  10.524 -0.2382  0.7139 -0.8529
  761MPD2    C411240   3.707   2.617  10.613  0.4958 -0.2559 -0.5624
  761MPD2    C511241   3.649   2.538  10.712 -0.2309 -0.2010  0.7317
  761MPD2     H11242   3.894   2.407  10.446  0.3800 -0.0568 -0.0530
  761MPD2    H111243   3.691   2.724  10.618 -0.2799 -0.4665  1.7816
  761MPD2    H211244   3.634   2.343  10.793  1.0147  0.1488  1.7629
  761MPD2    H311245   3.587   2.570  10.795  1.0400  1.1820  1.1337
  761MPD2     N11246   3.846   2.677  10.436 -0.5666 -0.0167  0.7111
  761MPD2    H511247   3.818   2.772  10.455 -0.3061  0.6522 -2.1923
  761MPD2    N111248   3.776   2.215  10.608  0.2766  0.3591 -0.2658
  761MPD2    H711249   3.729   2.160  10.679 -1.4565  3.4490  1.0067
  762MPD2     C11250   4.231   1.768  10.106 -0.1550  0.1411 -0.2758
  762MPD2    C111251   4.273   1.829  10.225 -0.8067  0.0321 -0.4962
  762MPD2    C211252   4.405   1.865  10.231  0.1061  0.2539  0.2347
  762MPD2    C311253   4.492   1.863  10.128 -0.6437  0.1251  0.3662
  762MPD2    C411254   4.448   1.801  10.010 -0.7587 -0.4506 -0.0448
  762MPD2    C511255   4.320   1.758  10.002  0.9035  0.8189  0.1532
  762MPD2     H11256   4.441   1.922  10.316  4.2914 -0.4545 -1.1022
  762MPD2    H111257   4.522   1.793   9.931 -0.6948  1.1190 -0.1321
  762MPD2    H211258   4.136   1.716  10.106 -0.2546  0.3198 -1.2647
  762MPD2    H311259   4.296   1.700   9.914  3.6753 -0.1355  0.0032
  762MPD2     N11260   4.621   1.928  10.140  0.0692 -0.3691 -0.5715
  762MPD2    H511261   4.645   1.974  10.227 -1.5333  0.1208 -0.3917
  762MPD2    N111262   4.181   1.841  10.330 -0.0056 -0.3181  0.4755
  762MPD2    H711263   4.087   1.823  10.298  0.6335 -0.3573 -1.4195
  763MPD2     C11264   1.594   3.239  16.460 -0.4713 -0.0881  0.8660
  763MPD2    C111265   1.539   3.261  16.335 -0.1131 -0.1577 -0.4986
  763MPD2    C211266   1.462   3.373  16.314  0.6622 -0.4465  0.0291
  763MPD2    C311267   1.449   3.470  16.409  1.1512 -0.4841  1.1274
  763MPD2    C411268   1.495   3.428  16.537 -0.0511  0.1123 -0.1468
  763MPD2    C511269   1.574   3.322  16.560 -0.4975 -0.6496 -0.1986
  763MPD2     H11270   1.419   3.386  16.216 -0.1629  1.6162  0.6620
  763MPD2    H111271   1.464   3.483  16.625 -0.6238 -0.4990  0.0318
  763MPD2    H211272   1.639   3.142  16.478 -0.2472 -0.4619 -1.7815
  763MPD2    H311273   1.602   3.284  16.658 -2.0559 -0.8084  0.1889
  763MPD2     N11274   1.381   3.588  16.379  0.3366  0.2170 -0.3983
  763MPD2    H511275   1.337   3.590  16.288 -0.9309  1.0929  0.2172
  763MPD2    N111276   1.538   3.170  16.222  0.0441 -0.4760  0.5608
  763MPD2    H711277   1.492   3.202  16.137  0.6321 -2.0653 -0.3457
  764MPD2     C11278   3.801   4.382  16.858 -0.2108  0.0327  0.4664
  764MPD2    C111279   3.774   4.247  16.853 -0.7238  0.1901 -1.3401
  764MPD2    C211280   3.811   4.167  16.962  0.3016  0.5210 -0.4533
  764MPD2    C311281   3.873   4.225  17.077 -0.2213 -0.0629  0.0333
  764MPD2    C411282   3.896   4.358  17.074  0.5444 -0.6602  0.1208
  764MPD2    C511283   3.865   4.441  16.968 -0.6178 -0.6908  0.2582
  764MPD2     H11284   3.777   4.064  16.962  0.4844  0.4610 -0.5694
  764MPD2    H111285   3.952   4.403  17.155  1.7672  3.5846 -3.0583
  764MPD2    H211286   3.778   4.448  16.775 -0.4730  1.2101  1.4805
  764MPD2    H311287   3.898   4.543  16.959  0.2594 -1.1481 -1.6156
  764MPD2     N11288   3.912   4.144  17.180  0.0947 -0.4594  0.4169
  764MPD2    H511289   3.905   4.043  17.172 -2.1287 -0.1465 -1.7712
  764MPD2    N111290   3.712   4.191  16.743 -0.6210  0.1407  0.6365
  764MPD2    H711291   3.695   4.091  16.749  0.0730  0.1507  2.8725
  765MPD2     C11292   3.731   2.127  16.296 -0.3658 -0.5106  0.1146
  765MPD2    C111293   3.811   2.206  16.215  0.0555 -0.1317 -0.6012
  765MPD2    C211294   3.938   2.163  16.174  0.0208  0.5159  0.0280
  765MPD2    C311295   3.989   2.041  16.210  0.2555 -0.1879  0.3797
  765MPD2    C411296   3.905   1.959  16.291  0.6478  1.0510  0.0934
  765MPD2    C511297   3.775   1.999  16.326  0.6581 -0.4993  0.6409
  765MPD2     H11298   4.004   2.221  16.110  0.8042  0.2100  0.5585
  765MPD2    H111299   3.919   1.854  16.315  0.7413  1.1197  0.3481
  765MPD2    H211300   3.634   2.165  16.328 -0.5520 -0.7604 -0.1554
  765MPD2    H311301   3.703   1.928  16.365  0.0208  0.5979  1.4666
  765MPD2     N11302   4.110   1.994  16.159 -0.1301  0.1533 -0.7959
  765MPD2    H511303   4.138   2.037  16.071 -0.2533  0.8199 -0.5076
  765MPD2    N111304   3.759   2.336  16.180 -0.2314 -0.2655 -0.1759
  765MPD2    H711305   3.669   2.364  16.217  0.5195  1.2974  0.4428
  766MPD2     C11306   3.205   2.692  15.661 -0.0049 -0.6345  0.3930
  766MPD2    C111307   3.285   2.585  15.692  0.1134  0.1653 -0.5058
  766MPD2    C211308   3.324   2.495  15.600 -0.2819 -0.2449 -0.2658
  766MPD2    C311309   3.272   2.508  15.470  0.3317  0.7137 -1.2026
  766MPD2    C411310   3.193   2.613  15.441 -0.3584 -0.4655 -0.5792
  766MPD2    C511311   3.150   2.702  15.538 -0.3097  0.0433 -0.2980
  766MPD2     H11312   3.392   2.412  15.619  0.1780  0.0845 -0.4760
  766MPD2    H111313   3.152   2.625  15.341  1.5890  0.1973 -1.3109
  766MPD2    H211314   3.166   2.759  15.737  1.4370 -0.6789  1.1678
  766MPD2    H311315   3.071   2.772  15.511 -1.3026 -2.3058 -3.4628
  766MPD2     N11316   3.313   2.435  15.357  0.1539 -0.7681 -0.5234
  766MPD2    H511317   3.280   2.467  15.267 -2.5475  1.1186  1.1575
  766MPD2    N111318   3.360   2.600  15.810  0.0363 -0.0319 -0.1594
  766MPD2    H711319   3.342   2.685  15.863  1.2317 -1.3494  2.3785
  767MPD2     C11320   3.212   2.993  14.972  0.1688  0.1073  0.4320
  767MPD2    C111321   3.237   2.894  15.062  0.1328 -0.3789 -0.0742
  767MPD2    C211322   3.174   2.771  15.045 -0.0037 -0.7927  0.1436
  767MPD2    C311323   3.090   2.748  14.936 -0.3338  0.3510  0.0941
  767MPD2    C411324   3.065   2.850  14.842 -0.1959  0.2919 -0.6815
  767MPD2    C511325   3.125   2.973  14.871  0.5783  0.5752 -0.2539
  767MPD2     H11326   3.195   2.695  15.119 -1.5699 -0.5940  0.7810
  767MPD2    H111327   2.995   2.845  14.759 -1.9655 -1.2033  0.9047
  767MPD2    H211328   3.267   3.086  14.979 -2.5141  1.7423 -0.4594
  767MPD2    H311329   3.103   3.053  14.801  2.4040  2.4295  1.3141
  767MPD2     N11330   3.039   2.618  14.920  0.4300  0.0662  0.7416
  767MPD2    H511331   3.087   2.547  14.975 -1.1525 -0.8345  0.9390
  767MPD2    N111332   3.314   2.923  15.175 -0.3514 -0.1095 -0.3040
  767MPD2    H711333   3.337   3.022  15.183  1.1731 -0.4748 -0.1288
  768MPD2     C11334   4.303   1.064  11.155  0.5114 -0.1176  0.0129
  768MPD2    C111335   4.399   1.088  11.059 -0.2683  0.3760 -0.3199
  768MPD2    C211336   4.518   1.014  11.058 -0.7644  1.1165  0.4969
  768MPD2    C311337   4.549   0.929  11.162  0.1608  0.0036  0.1341
  768MPD2    C411338   4.454   0.907  11.254  0.6402  0.5492  0.1676
  768MPD2    C511339   4.335   0.974  11.250 -0.1525 -0.1602  0.6095
  768MPD2     H11340   4.594   1.040  10.985  1.0553  2.4431  2.8679
  768MPD2    H111341   4.473   0.849  11.344  0.9948 -0.1012 -0.3315
  768MPD2    H211342   4.223   1.133  11.178  0.5765  0.3338 -1.1563
  768MPD2    H311343   4.258   0.953  11.324  0.2304 -0.4463  0.9271
  768MPD2     N11344   4.672   0.868  11.185 -0.3093  0.3049  0.5130
  768MPD2    H511345   4.689   0.824  11.275  0.7866 -0.6262 -0.1479
  768MPD2    N111346   4.381   1.183  10.950  0.0551  0.2416 -0.2971
  768MPD2    H711347   4.457   1.194  10.883  0.5081  2.5673  0.6146
  769MPD2     C11348   0.730   3.791  14.711  0.4041 -1.5326  0.8119
  769MPD2    C111349   0.659   3.716  14.800 -0.1200 -0.1210  0.5083
  769MPD2    C211350   0.659   3.760  14.938 -0.6134 -0.1701 -0.8192
  769MPD2    C311351   0.720   3.873  14.976 -0.0614 -0.1488 -0.1838
  769MPD2    C411352   0.799   3.938  14.886 -0.0772  0.2069 -0.7397
  769MPD2    C511353   0.802   3.899  14.755  0.2232  0.4387 -0.0370
  769MPD2     H11354   0.587   3.714  15.004  0.4433 -2.1599 -1.0212
  769MPD2    H111355   0.879   4.008  14.904 -1.8516  2.0670 -0.0644
  769MPD2    H211356   0.722   3.780  14.603  0.0622 -0.5740  0.7439
  769MPD2    H311357   0.872   3.949  14.689  1.3835  1.8488  2.2352
  769MPD2     N11358   0.719   3.909  15.112  0.1085 -0.1474 -0.5093
  769MPD2    H511359   0.660   3.862  15.179 -0.6667 -0.9502 -1.7483
  769MPD2    N111360   0.568   3.624  14.751 -0.0107 -0.3965 -0.2325
  769MPD2    H711361   0.576   3.615  14.651 -0.6733 -0.8901 -0.2427
  770MPD2     C11362   0.158   2.613  14.824  0.2997  0.0837 -0.2949
  770MPD2    C111363   0.037   2.676  14.798  0.2595 -0.0891  0.9178
  770MPD2    C211364   0.042   2.817  14.775  0.7140  0.3993  0.0748
  770MPD2    C311365   0.170   2.885  14.794 -0.7190  0.0456  0.4938
  770MPD2    C411366   0.280   2.810  14.817 -0.3348  0.1759 -0.1021
  770MPD2    C511367   0.272   2.674  14.830 -0.1450  0.2604 -0.8092
  770MPD2     H11368   4.682   2.881  14.749 -0.8003 -2.0639 -1.1642
  770MPD2    H111369   0.382   2.845  14.810 -0.4009  0.9970  3.0914
  770MPD2    H211370   0.162   2.505  14.836  1.3098  0.1171 -0.3744
  770MPD2    H311371   0.355   2.605  14.840 -0.1711  0.3228 -0.1585
  770MPD2     N11372   0.182   3.024  14.788 -0.5880  0.1624  0.1855
  770MPD2    H511373   0.101   3.082  14.768 -0.5721  0.1731  0.1522
  770MPD2    N111374   4.644   2.595  14.787 -0.1882 -0.0292 -0.2371
  770MPD2    H711375   4.644   2.501  14.824 -2.3075  0.7168  1.6622
  771MPD2     C11376   0.496   1.641  13.723  0.0299 -0.0069 -0.1371
  771MPD2    C111377   0.586   1.721  13.657 -0.0051  0.7158 -0.7969
  771MPD2    C211378   0.644   1.673  13.538  0.1667  0.3742 -0.1282
  771MPD2    C311379   0.603   1.545  13.493  0.5833 -0.9026  0.1310
  771MPD2    C411380   0.519   1.467  13.565  0.0546  0.0171 -0.2236
  771MPD2    C511381   0.469   1.516  13.684  0.7312 -0.6535  0.2522
  771MPD2     H11382   0.706   1.738  13.478  2.4220 -1.1046  0.6150
  771MPD2    H111383   0.485   1.372  13.528  0.5966 -0.9310  1.6965
  771MPD2    H211384   0.435   1.681  13.803  1.6983  1.9400  0.1956
  771MPD2    H311385   0.405   1.455  13.747 -0.3362  0.6896  0.4777
  771MPD2     N11386   0.663   1.502  13.369 -0.1865  0.0537 -0.1815
  771MPD2    H511387   0.711   1.574  13.317  0.6757 -0.3346  0.0830
  771MPD2    N111388   0.617   1.848  13.705  0.5479  0.2770 -0.1037
  771MPD2    H711389   0.699   1.892  13.663  1.0463 -1.9694 -1.5080
  772MPD2     C11390   0.335   2.210  14.393  0.1828  0.3562 -0.5252
  772MPD2    C111391   0.296   2.213  14.270  0.6338 -0.1745  0.5706
  772MPD2    C211392   0.164   2.230  14.231 -0.1108 -0.1266 -0.1896
  772MPD2    C311393   0.063   2.233  14.327 -0.3020  0.1758 -0.4021
  772MPD2    C411394   0.107   2.217  14.455 -0.3499  0.7807 -0.6663
  772MPD2    C511395   0.241   2.219  14.489 -0.3930 -0.5088 -0.0344
  772MPD2     H11396   0.138   2.213  14.127  0.3740 -0.4669 -0.2562
  772MPD2    H111397   0.030   2.198  14.530 -0.6273  0.7786 -0.9498
  772MPD2    H211398   0.439   2.196  14.420  0.5644  3.1874 -0.5290
  772MPD2    H311399   0.279   2.200  14.589 -0.7181 -0.2874  0.1319
  772MPD2     N11400   4.649   2.248  14.294 -0.4013  0.2917 -0.0805
  772MPD2    H511401   4.582   2.215  14.362 -0.3160  1.2026  0.4457
  772MPD2    N111402   0.383   2.211  14.161  0.0993  0.7071  0.1669
  772MPD2    H711403   0.338   2.233  14.073  2.1783 -2.2354 -1.5688
  773MPD2     C11404   4.579   3.379   0.225 -0.0691 -0.1783  0.9285
  773MPD2    C111405   4.566   3.273   0.133  0.3097  0.7809 -0.1033
  773MPD2    C211406   4.596   3.148   0.184  0.4097  0.5558 -0.6449
  773MPD2    C311407   4.625   3.123   0.316 -0.1383 -0.7534 -0.1955
  773MPD2    C411408   4.640   3.233   0.399  1.1683  0.5214 -0.0208
  773MPD2    C511409   4.625   3.356   0.349 -0.1213  0.9568  1.0242
  773MPD2     H11410   4.588   3.059   0.123  0.7481  0.3028 -0.3174
  773MPD2    H111411   4.676   3.219   0.500 -0.5131  3.7694  1.0206
  773MPD2    H211412   4.547   3.481   0.205  0.2527 -0.1394  0.6141
  773MPD2    H311413   4.635   3.439   0.419  0.5616  0.5919  1.3642
  773MPD2     N11414   4.660   2.993   0.357 -0.0811  0.1385  0.2986
  773MPD2    H511415   4.621   2.915   0.305  0.5906 -0.2555  0.3915
  773MPD2    N111416   4.525   3.293   0.002  0.5336 -0.4002 -0.2991
  773MPD2    H711417   4.516   3.209  17.639 -2.1991 -2.1199  2.7452
  774MPD2     C11418   3.253   2.289  13.017 -0.3147 -0.0557  1.1633
  774MPD2    C111419   3.347   2.314  13.114 -0.3119  0.4320 -0.2010
  774MPD2    C211420   3.455   2.383  13.066  0.6817 -0.3097  0.0990
  774MPD2    C311421   3.468   2.433  12.941 -0.7018  0.1911 -0.1087
  774MPD2    C411422   3.371   2.406  12.843 -1.3386 -0.2880  0.2764
  774MPD2    C511423   3.267   2.332  12.885 -0.1118 -0.1717  0.5507
  774MPD2     H11424   3.537   2.406  13.134 -0.2304 -0.0754  1.1207
  774MPD2    H111425   3.392   2.428  12.739 -0.1947  0.8837  0.7489
  774MPD2    H211426   3.168   2.226  13.043  0.0408 -1.4590 -1.0180
  774MPD2    H311427   3.190   2.298  12.817 -1.6197  2.3763  1.0038
  774MPD2     N11428   3.586   2.509  12.916  0.3556  0.1955  0.2731
  774MPD2    H511429   3.645   2.548  12.988  0.9702  0.6444 -0.4836
  774MPD2    N111430   3.328   2.257  13.239  0.3870 -0.7908 -0.1101
  774MPD2    H711431   3.240   2.220  13.274 -0.3391  0.5823 -0.4721
  775MPD2     C11432   1.071   3.833  15.805 -1.0954 -0.2202 -0.2943
  775MPD2    C111433   0.980   3.933  15.787  0.4508  0.1614  0.2547
  775MPD2    C211434   0.995   4.020  15.679  0.3628  0.4438 -0.1059
  775MPD2    C311435   1.119   4.019  15.609 -0.6483  0.2626 -0.7348
  775MPD2    C411436   1.214   3.926  15.640 -0.1691 -0.5948 -0.4057
  775MPD2    C511437   1.194   3.830  15.735  0.4827 -0.0480  0.0167
  775MPD2     H11438   0.915   4.086  15.648  0.1767  1.4796  2.5798
  775MPD2    H111439   1.305   3.915  15.583 -0.1500 -0.2442 -0.4478
  775MPD2    H211440   1.061   3.762  15.886 -2.3994 -0.4898 -0.6755
  775MPD2    H311441   1.272   3.757  15.755 -2.6873 -2.5622  3.2368
  775MPD2     N11442   1.144   4.111  15.501  0.5243  0.0977  0.3036
  775MPD2    H511443   1.231   4.101  15.451  0.5182 -1.3903  0.5882
  775MPD2    N111444   0.874   3.935  15.885 -0.6730  0.2330 -0.3768
  775MPD2    H711445   0.862   3.868  15.960 -3.1500 -0.7872 -1.6783
  776MPD2     C11446   4.437   3.606  11.616  0.7558 -0.0373 -0.5815
  776MPD2    C111447   4.398   3.636  11.486 -0.1717 -0.0608 -0.1853
  776MPD2    C211448   4.349   3.757  11.447 -0.3991  0.0612  0.0579
  776MPD2    C311449   4.340   3.854  11.541  0.7208  0.5083 -1.1024
  776MPD2    C411450   4.376   3.829  11.670  0.2150 -0.2517 -0.2910
  776MPD2    C511451   4.429   3.705  11.714 -0.3128 -0.0244 -0.5211
  776MPD2     H11452   4.305   3.775  11.350 -0.0041  0.9232  0.0325
  776MPD2    H111453   4.359   3.909  11.741 -0.9567 -0.7510 -0.0107
  776MPD2    H211454   4.478   3.508  11.637 -1.9188 -1.0924 -0.1408
  776MPD2    H311455   4.466   3.689  11.815 -2.5527 -1.0905  0.1235
  776MPD2     N11456   4.273   3.978  11.515  0.2100 -0.8278 -0.0696
  776MPD2    H511457   4.252   4.045  11.589  0.1883 -1.7381  0.7439
  776MPD2    N111458   4.396   3.526  11.404  0.2809  0.6397 -0.3374
  776MPD2    H711459   4.438   3.444  11.447  0.5178 -0.2071 -2.1667
  777MPD2     C11460   4.550   2.063   0.920 -0.2778 -0.9964 -0.7134
  777MPD2    C111461   4.613   1.981   1.017  0.5370  0.1165 -0.6681
  777MPD2    C211462   4.668   1.864   0.981 -0.0405 -0.4329 -0.7074
  777MPD2    C311463   4.655   1.818   0.854 -0.2510 -0.5438 -0.2610
  777MPD2    C411464   4.587   1.893   0.762 -0.2817 -0.2877  0.1881
  777MPD2    C511465   4.539   2.017   0.793  0.7959  0.4743 -0.9247
  777MPD2     H11466   0.009   1.801   1.042 -1.9677 -1.5690  0.1222
  777MPD2    H111467   4.580   1.859   0.659 -0.9990  1.1204 -0.2365
  777MPD2    H211468   4.509   2.162   0.934 -0.8075 -1.1284 -1.3386
  777MPD2    H311469   4.490   2.073   0.715 -0.5908  1.4438  0.6438
  777MPD2     N11470   0.000   1.701   0.826  0.3652 -0.4311  0.6866
  777MPD2    H511471   0.025   1.646   0.907  0.3051 -1.6426 -0.1117
  777MPD2    N111472   4.625   2.044   1.145  0.1690  0.4698  0.6104
  777MPD2    H711473   4.587   2.137   1.155 -2.6127 -0.6431  0.5179
  778MPD2     C11474   0.918   1.370  15.029  0.4215  0.6315 -0.0083
  778MPD2    C111475   0.862   1.374  14.907  0.6552  0.0620  0.0868
  778MPD2    C211476   0.917   1.473  14.821 -0.6891  0.0596 -0.0911
  778MPD2    C311477   1.029   1.547  14.858 -0.0508  0.2469  0.1619
  778MPD2    C411478   1.067   1.546  14.995 -0.0011 -0.2883 -0.7135
  778MPD2    C511479   1.010   1.458  15.082 -0.2478 -0.1400 -0.7867
  778MPD2     H11480   0.879   1.489  14.721  0.2332 -0.9809 -0.5997
  778MPD2    H111481   1.143   1.618  15.025 -1.8622  0.6134  1.8122
  778MPD2    H211482   0.879   1.297  15.099  2.7287 -0.9630 -0.3832
  778MPD2    H311483   1.045   1.449  15.184  2.5938 -0.0577 -1.7389
  778MPD2     N11484   1.074   1.636  14.760 -0.2861 -0.0354 -0.1127
  778MPD2    H511485   1.037   1.621  14.666  0.0326 -1.2728 -0.0438
  778MPD2    N111486   0.758   1.288  14.864  0.6677 -0.0200  0.3314
  778MPD2    H711487   0.716   1.313  14.775  1.0882  0.3624  0.2350
  779MPD2     C11488   0.992   0.556  14.380 -0.3719  0.0077 -0.3179
  779MPD2    C111489   0.971   0.560  14.243  0.3265  0.2018 -0.3709
  779MPD2    C211490   0.979   0.677  14.167  0.0338 -0.7276 -0.8023
  779MPD2    C311491   0.994   0.795  14.238  0.2695 -0.2496  0.1008
  779MPD2    C411492   1.008   0.790  14.376 -0.1319  0.2612  0.1647
  779MPD2    C511493   1.004   0.675  14.449  0.1281  0.7840  0.1299
  779MPD2     H11494   0.982   0.677  14.058 -0.3128 -0.0474 -0.8064
  779MPD2    H111495   1.035   0.879  14.433 -1.6858  1.2182 -0.5897
  779MPD2    H211496   1.011   0.459  14.425  2.8806  0.7762 -0.0526
  779MPD2    H311497   1.028   0.673  14.554  1.1800  1.8502 -0.0903
  779MPD2     N11498   0.998   0.914  14.166  0.2214  0.2508  0.2902
  779MPD2    H511499   0.989   0.899  14.066  2.5937 -1.3579  0.3094
  779MPD2    N111500   0.972   0.431  14.176  0.0988 -0.6091  0.1286
  779MPD2    H711501   0.969   0.350  14.238  1.1890  0.6927  1.8702
  780MPD2     C11502   4.606   1.013   0.935  0.1618  0.2520 -0.2156
  780MPD2    C111503   4.582   0.940   0.822  0.7366  0.4934 -0.1932
  780MPD2    C211504   4.674   0.943   0.717 -0.2432 -0.4978  0.5509
  780MPD2    C311505   0.064   1.020   0.727 -0.4003 -0.2816 -0.6105
  780MPD2    C411506   0.098   1.085   0.843  0.6720  0.0837  0.0957
  780MPD2    C511507   0.003   1.087   0.941 -0.2525 -0.0569 -0.2286
  780MPD2     H11508   4.664   0.883   0.627 -0.2423 -1.9100  1.4877
  780MPD2    H111509   0.190   1.136   0.871  0.1747  1.6732 -1.1188
  780MPD2    H211510   4.536   1.022   1.017 -0.2491  4.0954 -0.9692
  780MPD2    H311511   0.024   1.147   1.028  0.0722 -1.6263  0.7805
  780MPD2     N11512   0.143   1.021   0.617  0.5320  0.1545 -0.0597
  780MPD2    H511513   0.118   0.958   0.542 -1.3208  0.4938  0.2718
  780MPD2    N111514   4.471   0.861   0.827  0.9950  0.1023 -0.0701
  780MPD2    H711515   4.420   0.867   0.914  0.9786 -1.3670  0.0236
  781MPD2     C11516   1.867   2.364  12.053 -0.7664  0.2019 -0.0962
  781MPD2    C111517   1.974   2.358  12.140  0.0609  0.7072  0.6812
  781MPD2    C211518   2.096   2.398  12.088 -0.1729  0.2167  0.3414
  781MPD2    C311519   2.108   2.433  11.958 -0.2393  0.6063 -0.6423
  781MPD2    C411520   2.004   2.429  11.870  0.4951 -0.0853 -0.3986
  781MPD2    C511521   1.885   2.391  11.916 -0.9783 -0.0159  0.4781
  781MPD2     H11522   2.181   2.369  12.147 -0.2230 -2.0139 -0.6817
  781MPD2    H111523   2.012   2.452  11.764 -3.4244  0.5172 -0.5907
  781MPD2    H211524   1.767   2.339  12.086 -0.9073  0.6343 -0.1883
  781MPD2    H311525   1.805   2.384  11.843 -1.8880 -2.5802  1.6995
  781MPD2     N11526   2.230   2.452  11.892 -0.9235 -0.3108  0.1880
  781MPD2    H511527   2.224   2.480  11.794  1.7015  2.6379  0.8664
  781MPD2    N111528   1.971   2.313  12.274 -0.3995 -0.0582  0.3403
  781MPD2    H711529   2.056   2.310  12.329  1.0091  0.7644 -1.7783
  782MPD2     C11530   0.134   2.908   9.500  0.5421  0.4473 -0.6030
  782MPD2    C111531   0.184   2.973   9.613 -0.2009  0.7613  0.4431
  782MPD2    C211532   0.166   3.112   9.636 -0.9391 -0.9720  0.7598
  782MPD2    C311533   0.091   3.187   9.542  0.4056  0.4274  0.4757
  782MPD2    C411534   0.039   3.120   9.432  0.4463 -0.3692 -0.0313
  782MPD2    C511535   0.056   2.981   9.411  0.8219  0.1700  0.8616
  782MPD2     H11536   0.201   3.157   9.728  2.1885  3.0777 -2.4736
  782MPD2    H111537   4.700   3.180   9.367  1.3116  1.3273  0.7160
  782MPD2    H211538   0.149   2.801   9.487 -0.9287  0.0216  1.1403
  782MPD2    H311539   0.001   2.930   9.333  1.2852  1.5799 -0.3884
  782MPD2     N11540   0.048   3.314   9.583 -0.0315 -0.5062  0.2093
  782MPD2    H511541   0.095   3.349   9.666 -1.0276 -1.2823  1.0968
  782MPD2    N111542   0.251   2.893   9.715 -0.4584 -0.8266 -0.5137
  782MPD2    H711543   0.229   2.794   9.715  0.2206 -0.9777  1.9001
  783MPD2     C11544   4.430   2.456  10.169 -0.0622 -0.4689  1.1001
  783MPD2    C111545   4.437   2.582  10.112  0.4538 -0.3546  0.2264
  783MPD2    C211546   4.558   2.627  10.077  0.6767 -0.9722 -0.1657
  783MPD2    C311547   4.673   2.557  10.104 -0.4321 -0.1822  0.3218
  783MPD2    C411548   4.662   2.425  10.149 -0.5775  0.3675  1.0464
  783MPD2    C511549   4.541   2.379  10.183 -0.2961 -0.3523  0.4735
  783MPD2     H11550   4.574   2.727  10.040  2.7174 -1.8116 -1.5396
  783MPD2    H111551   0.027   2.371  10.183 -0.0223  0.7868  0.2640
  783MPD2    H211552   4.337   2.409  10.198 -1.2059  0.9277 -0.3401
  783MPD2    H311553   4.538   2.282  10.231  2.0047 -0.6310  0.0243
  783MPD2     N11554   0.074   2.619  10.070  0.5397 -0.1257  0.5204
  783MPD2    H511555   0.078   2.718  10.047  1.1944 -0.2559  0.0839
  783MPD2    N111556   4.319   2.662  10.110 -0.1822  0.1150 -0.8044
  783MPD2    H711557   4.234   2.614  10.140 -0.3340  1.7685  1.3670
  784MPD2     C11558   2.207   3.251   1.887  0.3310 -0.4010 -0.2433
  784MPD2    C111559   2.244   3.321   1.777  0.1674 -0.6945 -0.9465
  784MPD2    C211560   2.151   3.375   1.688 -0.7633  0.0327 -0.5520
  784MPD2    C311561   2.013   3.374   1.726  0.3102 -0.7408 -0.2508
  784MPD2    C411562   1.979   3.319   1.847  0.4357 -0.6723  0.0010
  784MPD2    C511563   2.074   3.261   1.930 -0.4725  0.0416  0.1163
  784MPD2     H11564   2.188   3.428   1.602 -0.4863 -0.1041 -0.5147
  784MPD2    H111565   1.873   3.311   1.871  0.8455 -0.8858  1.7555
  784MPD2    H211566   2.285   3.204   1.945 -0.3697 -0.2986  0.7771
  784MPD2    H311567   2.041   3.229   2.028  0.7443  0.0276  0.5146
  784MPD2     N11568   1.908   3.428   1.647  0.5059  0.1931  0.4458
  784MPD2    H511569   1.814   3.431   1.687  0.5730 -2.8923  0.8278
  784MPD2    N111570   2.383   3.333   1.736  0.0802  0.1558 -0.1216
  784MPD2    H711571   2.385   3.369   1.641 -1.0122  1.6402  0.4101
  785MPD2     C11572   2.597   2.004  10.407 -0.5772  0.0249  0.2626
  785MPD2    C111573   2.559   2.087  10.515 -0.2482 -0.8728 -0.5814
  785MPD2    C211574   2.426   2.117  10.536 -0.0009 -0.1415 -0.5281
  785MPD2    C311575   2.335   2.044  10.461  0.1407  0.2871 -0.4124
  785MPD2    C411576   2.372   1.948  10.364 -0.8048 -0.8973  0.0650
  785MPD2    C511577   2.499   1.931  10.339 -0.4400 -0.3998  0.8095
  785MPD2     H11578   2.393   2.193  10.607 -1.3851 -0.3020 -1.0079
  785MPD2    H111579   2.300   1.904  10.297 -1.5249  0.4564 -0.0352
  785MPD2    H211580   2.699   1.970  10.393 -0.2841  1.4812 -1.1463
  785MPD2    H311581   2.524   1.866  10.256 -0.7218 -0.0053  0.4098
  785MPD2     N11582   2.194   2.076  10.487  0.3806  0.0619 -0.1860
  785MPD2    H511583   2.163   2.146  10.553 -1.8589  0.3129 -1.4861
  785MPD2    N111584   2.656   2.142  10.604 -0.1259  0.2792  0.5801
  785MPD2    H711585   2.619   2.207  10.673 -1.2655  0.4306 -0.1717
  786MPD2     C11586   1.188   4.470  14.627  0.6112 -0.1413  0.6482
  786MPD2    C111587   1.317   4.492  14.584  0.4856  0.0511  0.0574
  786MPD2    C211588   1.409   4.537  14.681 -0.3780 -0.6536 -0.7047
  786MPD2    C311589   1.365   4.572  14.806  0.0177  0.1809  0.5182
  786MPD2    C411590   1.235   4.555  14.847 -0.0596 -0.3496  0.7964
  786MPD2    C511591   1.150   4.499  14.756  0.0832  0.3316  1.2695
  786MPD2     H11592   1.516   4.524  14.664 -0.4083 -0.3189 -1.1361
  786MPD2    H111593   1.209   4.589  14.947 -1.3768  0.3201  0.2226
  786MPD2    H211594   1.109   4.428  14.566 -0.3017  0.2167  1.5902
  786MPD2    H311595   1.051   4.467  14.786  0.8060 -2.0249  1.1546
  786MPD2     N11596   1.448   4.613  14.913  1.0393  0.6743 -0.3564
  786MPD2    H511597   1.405   4.614  15.005  1.9769 -1.9839  0.1059
  786MPD2    N111598   1.354   4.453  14.455  0.1018  0.1073  0.0615
  786MPD2    H711599   1.453   4.466  14.435 -0.4154  2.7993 -0.7058
  787MPD2     C11600   1.851   4.137  14.445  0.2199  0.0366  0.2460
  787MPD2    C111601   1.782   4.080  14.334 -0.1527 -0.0029  0.1077
  787MPD2    C211602   1.820   3.961  14.284  0.5668  0.5558  0.2449
  787MPD2    C311603   1.917   3.886  14.346 -1.0503 -0.0320  0.1269
  787MPD2    C411604   1.987   3.940  14.451 -0.2712 -0.8728  0.4176
  787MPD2    C511605   1.951   4.064  14.499  0.1464  0.7977  0.2355
  787MPD2     H11606   1.785   3.928  14.186  4.6311 -0.6116 -0.8190
  787MPD2    H111607   2.069   3.899  14.509 -0.5422 -0.1046  1.3331
  787MPD2    H211608   1.834   4.240  14.475  0.0915  1.2279 -4.0146
  787MPD2    H311609   2.014   4.104  14.577  1.1633 -1.3498  0.5379
  787MPD2     N11610   1.956   3.760  14.288 -0.1723 -0.0181  0.1013
  787MPD2    H511611   1.904   3.737  14.204 -1.8816  2.3958  0.5024
  787MPD2    N111612   1.676   4.158  14.276 -0.2706 -0.6597  0.5944
  787MPD2    H711613   1.660   4.255  14.298 -0.2493 -0.3870 -0.6001
  788MPD2     C11614   3.307   2.640   0.950 -0.1736 -0.3711 -0.2350
  788MPD2    C111615   3.212   2.558   0.892 -0.0761 -0.2837 -0.1780
  788MPD2    C211616   3.152   2.597   0.775 -0.4813  0.4902 -0.5459
  788MPD2    C311617   3.176   2.719   0.717  0.3517  0.0897  0.0036
  788MPD2    C411618   3.253   2.806   0.797  0.5270 -0.0761  0.2649
  788MPD2    C511619   3.321   2.769   0.912 -0.0818  0.3586 -0.4615
  788MPD2     H11620   3.095   2.528   0.714  0.9232 -0.5033 -0.7360
  788MPD2    H111621   3.280   2.904   0.760 -0.8274  0.7330  1.3975
  788MPD2    H211622   3.374   2.614   1.031 -0.2439  0.4215  0.0796
  788MPD2    H311623   3.396   2.837   0.951 -0.7833  0.4274  0.7713
  788MPD2     N11624   3.136   2.766   0.592  0.3032  1.1070  0.2507
  788MPD2    H511625   3.169   2.856   0.560 -0.5942  2.3201  2.7547
  788MPD2    N111626   3.176   2.426   0.932 -0.3509  0.2294  0.5799
  788MPD2    H711627   3.125   2.364   0.869 -0.3288  1.2758 -0.4614
  789MPD2     C11628   3.899   2.835  16.297  0.7737 -0.2886  0.0604
  789MPD2    C111629   3.860   2.732  16.385 -0.8882 -0.4644  0.7075
  789MPD2    C211630   3.742   2.747  16.453  0.3730 -0.6515  0.9948
  789MPD2    C311631   3.658   2.855  16.441  0.5447  0.1691  0.1685
  789MPD2    C411632   3.687   2.942  16.339 -0.6709 -0.3671  0.6894
  789MPD2    C511633   3.809   2.929  16.266 -0.1241 -0.2534 -1.1628
  789MPD2     H11634   3.724   2.670  16.528 -1.5197 -0.5494  0.6493
  789MPD2    H111635   3.628   3.027  16.306 -1.5812 -1.5571 -0.6996
  789MPD2    H211636   3.980   2.835  16.225 -0.6189 -0.7872 -1.5013
  789MPD2    H311637   3.822   2.984  16.173 -0.7546 -1.5939 -2.0463
  789MPD2     N11638   3.540   2.877  16.507  0.2964 -0.0020  0.1153
  789MPD2    H511639   3.492   2.964  16.485 -0.7629 -0.5970  0.0692
  789MPD2    N111640   3.930   2.612  16.407  0.6177 -0.3923  0.4275
  789MPD2    H711641   3.891   2.555  16.481 -0.8433 -1.3178 -1.0713
  790MPD2     C11642   4.512   4.596  13.395  0.0327 -0.8238  0.0489
  790MPD2    C111643   4.464   4.473  13.427 -0.4025 -0.2671  0.4189
  790MPD2    C211644   4.413   4.395  13.322  0.8451 -0.1038  0.4171
  790MPD2    C311645   4.400   4.442  13.196 -0.0327  0.2785  0.5871
  790MPD2    C411646   4.449   4.561  13.164 -0.2165 -0.2658 -0.3058
  790MPD2    C511647   4.506   4.642  13.264 -0.2223 -0.2854  0.0647
  790MPD2     H11648   4.372   4.295  13.328 -0.0333  0.1063 -1.8163
  790MPD2    H111649   4.452   4.611  13.068 -0.7855  0.0606 -0.1524
  790MPD2    H211650   4.545   4.664  13.474  0.3270 -0.8339 -0.0666
  790MPD2    H311651   4.523   0.022  13.235 -1.3010 -0.4592 -1.1884
  790MPD2     N11652   4.350   4.355  13.097  0.2410  1.0430  0.2073
  790MPD2    H511653   4.337   4.258  13.123 -1.8094  1.2644  0.0279
  790MPD2    N111654   4.482   4.434  13.560  0.1424  0.2651  0.3881
  790MPD2    H711655   4.524   4.493  13.631  1.0393  2.4833 -1.9601
  791MPD2     C11656   3.695   4.262  12.559 -0.4502 -0.1686  0.3802
  791MPD2    C111657   3.725   4.155  12.644 -0.4515  0.5877  0.1918
  791MPD2    C211658   3.628   4.067  12.679 -0.2613  0.7401 -0.3900
  791MPD2    C311659   3.499   4.079  12.635 -0.0440  0.3253  0.1653
  791MPD2    C411660   3.475   4.179  12.545  0.1698  0.4106 -0.1432
  791MPD2    C511661   3.571   4.271  12.515 -0.0446 -0.0172  0.2934
  791MPD2     H11662   3.657   3.996  12.755 -0.5719 -1.7833 -2.6215
  791MPD2    H111663   3.384   4.181  12.486 -0.0826  4.0178  0.3904
  791MPD2    H211664   3.773   4.332  12.533 -2.2812  1.7122 -0.0430
  791MPD2    H311665   3.544   4.357  12.455 -1.2987 -0.7716 -0.2268
  791MPD2     N11666   3.402   3.981  12.672  0.5525  0.3220 -0.0133
  791MPD2    H511667   3.421   3.909  12.741  0.9504  1.4191  1.0034
  791MPD2    N111668   3.852   4.131  12.702 -0.0028 -0.1542 -0.1252
  791MPD2    H711669   3.868   4.050  12.761 -0.1801 -0.7577 -0.9032
  792MPD2     C11670   4.604   4.322  11.435 -0.1482  0.6615 -0.6200
  792MPD2    C111671   4.516   4.406  11.382 -0.2368 -0.3074  0.1551
  792MPD2    C211672   4.432   4.354  11.286  0.2065  0.1013 -0.4306
  792MPD2    C311673   4.433   4.225  11.246  0.9051  0.0261 -0.2772
  792MPD2    C411674   4.519   4.140  11.315 -0.1483  0.6488 -1.0525
  792MPD2    C511675   4.600   4.189  11.413  0.2730 -0.1773  0.0696
  792MPD2     H11676   4.364   4.418  11.232  0.1708 -0.0976 -0.6164
  792MPD2    H111677   4.521   4.033  11.299  1.7898  0.2926  1.5264
  792MPD2    H211678   4.680   4.358  11.505 -0.2973  1.5867 -0.9327
  792MPD2    H311679   4.675   4.122  11.453  1.4429 -0.4268 -2.5650
  792MPD2     N11680   4.342   4.164  11.152  0.1891  1.0202 -1.2496
  792MPD2    H511681   4.350   4.066  11.124  0.9705  0.6196  0.4016
  792MPD2    N111682   4.513   4.544  11.412  0.1021 -0.0832 -0.3147
  792MPD2    H711683   4.563   4.564  11.498 -0.5135 -0.3386  0.1012
  793MPD2     C11684   3.884   4.271  10.202 -0.6602 -0.3112  0.7292
  793MPD2    C111685   3.969   4.158  10.211  0.0153  0.0172  0.1474
  793MPD2    C211686   4.029   4.134  10.335 -0.2339  0.6421 -0.2987
  793MPD2    C311687   3.995   4.209  10.441  0.1257  1.2367  0.2390
  793MPD2    C411688   3.910   4.315  10.432 -0.2063 -0.3953  0.2421
  793MPD2    C511689   3.855   4.349  10.312  0.8903  0.3968  0.0927
  793MPD2     H11690   4.107   4.060  10.346 -2.2635 -1.8905 -3.0316
  793MPD2    H111691   3.885   4.379  10.517  0.7400 -1.3883  1.2598
  793MPD2    H211692   3.832   4.305  10.113  0.1375  0.3838  0.5223
  793MPD2    H311693   3.799   4.442  10.304 -2.6010 -1.6024  1.6505
  793MPD2     N11694   4.061   4.188  10.563 -0.3226  0.1981  0.1576
  793MPD2    H511695   4.131   4.115  10.563 -1.7192 -1.1467  1.0216
  793MPD2    N111696   4.011   4.080  10.099 -0.0301 -0.0159  0.0791
  793MPD2    H711697   4.066   3.996  10.110  1.5601  0.8057 -1.6091
  794MPD2     C11698   4.654   3.618  16.978  0.0717  0.3232 -0.1726
  794MPD2    C111699   4.557   3.523  16.977 -0.3041  0.1005 -0.7618
  794MPD2    C211700   4.539   3.441  16.869 -0.7472 -0.1911  0.0017
  794MPD2    C311701   4.611   3.453  16.750 -0.5684 -0.0257 -0.2496
  794MPD2    C411702   4.712   3.543  16.751  0.1851 -0.1106  0.6141
  794MPD2    C511703   0.011   3.625  16.861  0.1406 -0.3432  0.6252
  794MPD2     H11704   4.453   3.376  16.874  1.2299 -3.0392 -2.7969
  794MPD2    H111705   0.048   3.546  16.660 -2.7789  3.4689 -1.1921
  794MPD2    H211706   4.676   3.700  17.046  2.3859 -1.1338  0.8626
  794MPD2    H311707   0.088   3.700  16.873  0.2071 -0.2022 -0.6771
  794MPD2     N11708   4.577   3.396  16.621 -0.1213  0.0305  0.5599
  794MPD2    H511709   4.635   3.426  16.543  0.0246 -1.0388  0.2577
  794MPD2    N111710   4.476   3.500  17.090  0.2603  0.0265 -0.3887
  794MPD2    H711711   4.440   3.405  17.100 -2.4641  1.2446  1.3136
  795MPD2     C11712   2.122   0.692  12.729  0.0440 -0.5019  0.0348
  795MPD2    C111713   2.103   0.624  12.850 -0.0145  0.4780  0.0054
  795MPD2    C211714   2.190   0.649  12.951  0.4827 -0.2289  0.6788
  795MPD2    C311715   2.301   0.722  12.922 -0.2302 -0.1672  0.1207
  795MPD2    C411716   2.320   0.791  12.809  0.0634 -0.1176  0.1251
  795MPD2    C511717   2.237   0.763  12.709 -0.3747 -0.4754 -0.6127
  795MPD2     H11718   2.178   0.589  13.040 -1.1318  0.6723  1.0694
  795MPD2    H111719   2.417   0.836  12.792 -0.4236  0.4608 -1.1060
  795MPD2    H211720   2.067   0.680  12.637  1.6443  1.1161 -1.1560
  795MPD2    H311721   2.260   0.788  12.606 -0.1807  0.4957 -0.3281
  795MPD2     N11722   2.411   0.739  13.018 -0.0277 -0.3282  0.6531
  795MPD2    H511723   2.494   0.787  12.983 -0.9039  1.1230  0.5585
  795MPD2    N111724   1.999   0.531  12.872 -0.5678  0.9080 -0.1651
  795MPD2    H711725   2.000   0.485  12.963 -0.6381  0.0518 -0.6000
  796MPD2     C11726   2.069   2.599  15.801  0.1816  1.4425  0.3292
  796MPD2    C111727   2.053   2.632  15.937  0.5113  0.4906 -0.1368
  796MPD2    C211728   2.002   2.752  15.978 -0.1573 -0.1808 -0.2813
  796MPD2    C311729   1.946   2.833  15.871 -0.2389  0.2487  0.7466
  796MPD2    C411730   1.944   2.792  15.743 -0.0507 -0.0185 -0.4192
  796MPD2    C511731   2.008   2.673  15.705 -0.5726 -0.3302  1.2695
  796MPD2     H11732   1.995   2.781  16.082  0.3592  2.8174 -1.0676
  796MPD2    H111733   1.905   2.856  15.665  1.7092  3.4336  1.5223
  796MPD2    H211734   2.117   2.509  15.762 -3.4297  0.0137 -0.8122
  796MPD2    H311735   2.025   2.647  15.602  0.1942  0.5402  1.1760
  796MPD2     N11736   1.896   2.964  15.907  0.2567  0.0186 -0.3729
  796MPD2    H511737   1.919   3.003  15.998  2.9916  0.9897 -1.4571
  796MPD2    N111738   2.078   2.539  16.045 -0.2277  0.5756  0.3269
  796MPD2    H711739   2.035   2.555  16.136 -0.7570 -1.2630  0.4073
  797MPD2     C11740   2.205   1.611   0.037 -0.5935 -1.1971  0.4082
  797MPD2    C111741   2.291   1.686  17.660  0.6159 -0.0228  1.0386
  797MPD2    C211742   2.249   1.782  17.576 -0.1272  0.1018 -0.5102
  797MPD2    C311743   2.115   1.812  17.559 -1.0039  0.0827 -0.0721
  797MPD2    C411744   2.021   1.735  17.625  0.5263  0.2268  0.6672
  797MPD2    C511745   2.073   1.638   0.018  0.6263  0.2477  0.1803
  797MPD2     H11746   2.323   1.843  17.526  0.4360 -0.2363 -0.0960
  797MPD2    H111747   1.915   1.746  17.605  0.2777 -0.7840  1.4742
  797MPD2    H211748   2.240   1.520   0.085 -0.8814 -1.7458 -0.4220
  797MPD2    H311749   2.007   1.568   0.068  1.9136 -0.3561  1.0191
  797MPD2     N11750   2.071   1.927  17.488  0.3120  0.1605 -0.4727
  797MPD2    H511751   1.976   1.959  17.506 -0.3000  0.1923 -3.7674
  797MPD2    N111752   2.432   1.676  17.673  0.5953  0.2094 -0.1056
  797MPD2    H711753   2.492   1.707  17.597  0.1256  0.1978 -0.4746
  798MPD2     C11754   2.634   2.273  17.408  0.0392 -0.2663 -0.4291
  798MPD2    C111755   2.537   2.236  17.495 -0.0796 -0.2853 -0.3321
  798MPD2    C211756   2.579   2.146  17.594 -0.2917  0.1100 -0.3415
  798MPD2    C311757   2.715   2.110  17.607 -0.4320 -0.7967  0.5601
  798MPD2    C411758   2.809   2.168  17.529  0.1345 -0.1484  0.1235
  798MPD2    C511759   2.767   2.243  17.423  0.5209 -0.6185  0.0418
  798MPD2     H11760   2.508   2.124  17.673  0.3573  1.0924  0.5159
  798MPD2    H111761   2.916   2.156  17.543  0.4817  3.3828  0.5361
  798MPD2    H211762   2.613   2.353  17.338  2.0120  1.2879  0.7605
  798MPD2    H311763   2.838   2.288  17.355  0.7206  0.7522  1.1803
  798MPD2     N11764   2.741   2.001   0.005  0.2196 -0.4059 -0.0840
  798MPD2    H511765   2.662   1.970   0.062  0.4347  1.5917  1.2753
  798MPD2    N111766   2.407   2.291  17.470  0.1755  0.2151 -0.6579
  798MPD2    H711767   2.388   2.337  17.382 -0.5306  1.7168  0.2672
  799MPD2     C11768   1.608   3.650  14.601  0.5742 -0.3301 -0.6641
  799MPD2    C111769   1.526   3.559  14.528 -0.4747  0.5949  0.0781
  799MPD2    C211770   1.460   3.597  14.416  0.0895  0.4666  0.6413
  799MPD2    C311771   1.488   3.725  14.373  0.2043  0.3039  0.0555
  799MPD2    C411772   1.586   3.802  14.431 -0.2810 -0.3133 -1.4311
  799MPD2    C511773   1.652   3.764  14.544  0.0090  0.2434  0.3738
  799MPD2     H11774   1.378   3.537  14.380  0.4577 -0.2432  0.9787
  799MPD2    H111775   1.601   3.905  14.400  2.6145 -0.2175  0.2646
  799MPD2    H211776   1.659   3.622  14.692 -0.6471  1.3426  0.5380
  799MPD2    H311777   1.725   3.832  14.587  1.0986 -1.4098  1.1708
  799MPD2     N11778   1.435   3.779  14.254  0.1442 -0.2541 -0.2608
  799MPD2    H511779   1.476   3.863  14.216 -0.2983  0.0458 -0.0722
  799MPD2    N111780   1.501   3.431  14.581  0.3421 -0.7729  0.1810
  799MPD2    H711781   1.416   3.387  14.547 -0.0661  0.0522  0.1392
  800MPD2     C11782   2.265   0.075  14.438  0.1171  0.6644  0.4585
  800MPD2    C111783   2.396   0.086  14.489  0.0513  0.0947 -0.4129
  800MPD2    C211784   2.498   0.010  14.425 -0.3223  0.4437  0.3107
  800MPD2    C311785   2.466   4.663  14.312  0.2655 -0.1262 -0.4146
  800MPD2    C411786   2.333   4.644  14.283  0.0222 -0.5714 -0.2195
  800MPD2    C511787   2.229   4.701  14.348  0.0960  0.9248  0.3687
  800MPD2     H11788   2.599   0.011  14.465 -0.3906 -4.0261  0.4955
  800MPD2    H111789   2.307   4.588  14.194  1.1036 -0.0156 -0.8875
  800MPD2    H211790   2.182   0.135  14.473 -0.8814 -0.8037  0.6397
  800MPD2    H311791   2.129   4.675  14.317  0.3465 -2.2643  2.2518
  800MPD2     N11792   2.575   4.613  14.241 -0.1004  0.1968 -0.7307
  800MPD2    H511793   2.664   4.651  14.273  0.6773 -2.4193  0.2240
  800MPD2    N111794   2.421   0.175  14.596 -0.0250  0.1309 -0.8146
  800MPD2    H711795   2.334   0.214  14.631 -0.2146 -0.1940 -0.9214
  801MPD2     C11796   2.190   0.822  14.643  0.4259  0.5433  0.5353
  801MPD2    C111797   2.190   0.685  14.601  0.1919 -0.2439 -0.9667
  801MPD2    C211798   2.072   0.633  14.551 -0.1187 -1.0367 -0.2560
  801MPD2    C311799   1.960   0.717  14.534  0.3237 -0.2255  0.3546
  801MPD2    C411800   1.966   0.849  14.566  0.9900 -0.2819 -0.1122
  801MPD2    C511801   2.080   0.898  14.612 -0.1132 -0.4692  0.3165
  801MPD2     H11802   2.065   0.530  14.519  0.9137 -1.3471  0.5086
  801MPD2    H111803   1.881   0.915  14.554  0.0972 -1.5619 -0.8082
  801MPD2    H211804   2.268   0.868  14.702  0.2257 -0.9162  1.9121
  801MPD2    H311805   2.073   1.006  14.620  0.4038 -0.4594  0.6620
  801MPD2     N11806   1.832   0.671  14.496  0.2584  0.4906  0.0680
  801MPD2    H511807   1.758   0.739  14.513  1.1209  1.2268  0.8614
  801MPD2    N111808   2.293   0.598  14.626  0.2783  0.2969 -0.3598
  801MPD2    H711809   2.265   0.503  14.601 -1.2828  1.1466 -1.8206
  802MPD2     C11810   1.337   0.116  17.645  0.0212  0.6203  0.0535
  802MPD2    C111811   1.400   0.220  17.583  0.5426 -0.0889  0.3196
  802MPD2    C211812   1.474   0.197  17.467 -0.7487 -0.5688  0.3002
  802MPD2    C311813   1.487   0.069  17.415  0.9541  0.2404  0.2526
  802MPD2    C411814   1.417   4.690  17.470  0.0286  0.4110  0.0081
  802MPD2    C511815   1.340   4.714  17.579 -0.3828  0.1495  1.0858
  802MPD2     H11816   1.520   0.278  17.412  2.0618 -2.2201  0.2111
  802MPD2    H111817   1.426   4.585  17.442  0.3058  0.1559  1.0397
  802MPD2    H211818   1.275   0.128   0.040 -1.5222 -0.6911 -0.8548
  802MPD2    H311819   1.296   4.625  17.622 -1.2507 -0.0296 -0.1299
  802MPD2     N11820   1.559   0.065  17.296 -0.0686 -0.0895  0.7352
  802MPD2    H511821   1.593   0.155  17.264  2.4486 -1.9722 -1.9316
  802MPD2    N111822   1.399   0.346  17.643  0.4279 -0.6121  0.6247
  802MPD2    H711823   1.339   0.362   0.030  1.1452 -0.8336  1.2029
  803MPD2     C11824   2.476   4.051  11.677  0.2683  0.2129 -0.4411
  803MPD2    C111825   2.533   4.034  11.803 -0.0940 -0.1844  0.9260
  803MPD2    C211826   2.469   3.957  11.895 -0.1346 -0.0853  0.0984
  803MPD2    C311827   2.352   3.893  11.871 -0.4843 -0.0339  0.2690
  803MPD2    C411828   2.295   3.912  11.749  0.2083 -0.3018  0.6945
  803MPD2    C511829   2.355   3.991  11.655 -0.4304  0.1146 -0.0723
  803MPD2     H11830   2.503   3.960  11.998  1.6629 -0.9547 -0.4563
  803MPD2    H111831   2.199   3.870  11.719  0.5829  1.2392 -2.6452
  803MPD2    H211832   2.511   4.107  11.591  1.1590 -0.0584 -0.2459
  803MPD2    H311833   2.304   4.017  11.563  0.9753  1.6629 -0.4367
  803MPD2     N11834   2.283   3.802  11.960  0.9563 -0.6500 -0.3397
  803MPD2    H511835   2.200   3.748  11.937 -0.2203  1.7798 -1.8112
  803MPD2    N111836   2.656   4.106  11.839 -0.6821 -0.2341  0.5613
  803MPD2    H711837   2.670   4.101  11.940  1.1995 -1.5260  0.2496
  804MPD2     C11838   2.016   0.388  17.069  0.3349 -0.3452 -0.6650
  804MPD2    C111839   2.061   0.355  17.195  0.6134  0.2314 -0.4720
  804MPD2    C211840   2.107   0.455  17.275 -0.3241 -0.4286 -0.1908
  804MPD2    C311841   2.118   0.585  17.234 -0.9091 -0.8294 -0.5535
  804MPD2    C411842   2.089   0.611  17.102 -0.3725 -0.6309 -0.2925
  804MPD2    C511843   2.032   0.515  17.025  0.0732  0.4654  0.4749
  804MPD2     H11844   2.142   0.431  17.375  0.6231 -0.4219 -0.5148
  804MPD2    H111845   2.109   0.705  17.052  0.0020 -1.0983 -1.0086
  804MPD2    H211846   1.971   0.314  17.004 -1.1935 -1.7561  1.9912
  804MPD2    H311847   2.013   0.528  16.919  1.5179 -1.2686 -0.0003
  804MPD2     N11848   2.168   0.686  17.319 -0.0531  0.1215 -0.0575
  804MPD2    H511849   2.193   0.773  17.274  1.2331 -0.3990 -0.3476
  804MPD2    N111850   2.057   0.224  17.253  0.5382  0.2799 -0.1392
  804MPD2    H711851   2.071   0.215  17.353 -0.4904  1.4096  0.1042
  805MPD2     C11852   1.409   3.693  15.509  0.2399 -0.2886  0.0895
  805MPD2    C111853   1.481   3.789  15.440 -0.7199  0.5840  0.0506
  805MPD2    C211854   1.609   3.814  15.493  0.5547 -0.1986 -0.0507
  805MPD2    C311855   1.664   3.742  15.599  0.9034  0.5500 -0.2581
  805MPD2    C411856   1.588   3.643  15.652 -0.4092 -0.0610  0.3083
  805MPD2    C511857   1.458   3.631  15.616 -0.0577  0.8200 -0.2846
  805MPD2     H11858   1.675   3.889  15.450 -0.5757  0.5063 -0.5334
  805MPD2    H111859   1.631   3.578  15.727  1.1381  0.2982 -0.2810
  805MPD2    H211860   1.314   3.658  15.469 -0.4016  1.0725  0.4173
  805MPD2    H311861   1.407   3.549  15.664  0.5610  1.1367  0.9124
  805MPD2     N11862   1.789   3.787  15.655 -0.2873  0.1125  0.7461
  805MPD2    H511863   1.841   3.861  15.608  0.3238 -0.5517  0.3819
  805MPD2    N111864   1.439   3.836  15.315 -0.3606 -0.2692  0.1086
  805MPD2    H711865   1.503   3.899  15.268 -2.0315  0.1053 -1.6512
  806MPD2     C11866   1.633   3.011   0.562 -0.6453  0.2124  0.4283
  806MPD2    C111867   1.702   3.129   0.570 -1.0672 -0.1510 -0.4885
  806MPD2    C211868   1.731   3.192   0.449 -0.5899  0.1879  0.6030
  806MPD2    C311869   1.690   3.148   0.321 -0.5726 -1.2802  0.5084
  806MPD2    C411870   1.607   3.032   0.316 -0.6399 -0.2569 -0.2401
  806MPD2    C511871   1.581   2.964   0.438  0.3484 -0.0879 -0.1818
  806MPD2     H11872   1.792   3.282   0.451 -1.3727  0.6687  2.0765
  806MPD2    H111873   1.572   2.985   0.225  1.4991 -1.9984 -0.1483
  806MPD2    H211874   1.610   2.948   0.647 -1.2397 -1.8184 -1.2561
  806MPD2    H311875   1.524   2.872   0.431 -2.4288  1.5264  1.4517
  806MPD2     N11876   1.739   3.219   0.209  0.5924  0.0292  0.1462
  806MPD2    H511877   1.792   3.304   0.226 -3.1795  2.3281  0.3780
  806MPD2    N111878   1.735   3.198   0.690  0.3988 -0.8454 -0.2389
  806MPD2    H711879   1.794   3.280   0.686  1.1693 -1.4527 -1.5046
  807MPD2     C11880   1.601   3.219   1.563 -0.0999 -0.4110 -0.3371
  807MPD2    C111881   1.720   3.161   1.523 -0.0292 -0.2940  0.6659
  807MPD2    C211882   1.798   3.100   1.621 -0.7095 -0.2671 -0.0474
  807MPD2    C311883   1.764   3.096   1.750  0.2223  0.3891 -0.0313
  807MPD2    C411884   1.650   3.167   1.785 -1.1035  0.4976 -0.9095
  807MPD2    C511885   1.566   3.226   1.697  0.0756 -0.2765 -0.8000
  807MPD2     H11886   1.894   3.052   1.601  0.5197  3.1275 -2.2345
  807MPD2    H111887   1.615   3.166   1.888  3.4030  2.3434  0.6379
  807MPD2    H211888   1.533   3.266   1.494 -0.9188 -0.1158  0.6776
  807MPD2    H311889   1.471   3.264   1.734 -0.2512 -0.3916 -1.5259
  807MPD2     N11890   1.840   3.021   1.844 -0.5571 -0.7814 -0.6924
  807MPD2    H511891   1.929   2.985   1.811  0.0392  0.4404 -0.4486
  807MPD2    N111892   1.768   3.154   1.391  0.0334  0.8506 -0.0472
  807MPD2    H711893   1.857   3.106   1.378 -0.6905  0.0832 -2.1934
  808MPD2     C11894   1.270   0.753   9.175  0.1982 -0.1931  0.1891
  808MPD2    C111895   1.335   0.633   9.162  0.9337  0.4134  0.4171
  808MPD2    C211896   1.442   0.610   9.241  0.3861  0.4836  0.1255
  808MPD2    C311897   1.488   0.699   9.335 -0.5665  0.4268 -0.0434
  808MPD2    C411898   1.420   0.817   9.349  0.0528  0.6111  0.0882
  808MPD2    C511899   1.319   0.847   9.265 -0.1403 -0.0284 -0.2821
  808MPD2     H11900   1.488   0.512   9.228 -1.5531 -0.4477  0.2517
  808MPD2    H111901   1.456   0.899   9.411  1.1746  0.1363  0.0545
  808MPD2    H211902   1.184   0.789   9.120 -0.2857  0.4342  1.3405
  808MPD2    H311903   1.278   0.946   9.278  0.3592 -0.1755  2.5846
  808MPD2     N11904   1.598   0.680   9.414 -0.4357  0.0465 -0.1420
  808MPD2    H511905   1.625   0.755   9.476  1.0300 -0.2516 -0.4219
  808MPD2    N111906   1.308   0.533   9.065  0.3612 -0.5324  0.3864
  808MPD2    H711907   1.372   0.456   9.046  0.5986 -0.0703 -0.6634
  809MPD2     C11908   2.296   4.644   9.547 -0.1114  0.0464  0.7000
  809MPD2    C111909   2.230   4.665   9.666  0.6805 -0.5368 -0.2372
  809MPD2    C211910   2.135   0.036   9.665 -0.3335 -0.2951  0.4647
  809MPD2    C311911   2.121   0.126   9.558  0.3997  0.7450 -0.5121
  809MPD2    C411912   2.194   0.108   9.443  0.5263 -0.0322  0.2005
  809MPD2    C511913   2.274   4.717   9.440  0.3233 -0.0889  0.1218
  809MPD2     H11914   2.081   0.060   9.756  0.4367  0.5752  0.6955
  809MPD2    H111915   2.208   0.178   9.362  1.0228 -0.5772 -0.1888
  809MPD2    H211916   2.369   4.565   9.532 -0.7879 -0.2823 -0.8088
  809MPD2    H311917   2.332   4.692   9.352 -0.3228  2.2547 -0.9785
  809MPD2     N11918   2.048   0.251   9.561 -0.9611 -0.2582 -0.4447
  809MPD2    H511919   2.054   0.306   9.476  0.0158  0.0889 -0.1522
  809MPD2    N111920   2.251   4.578   9.774 -0.0591 -0.0361  0.6264
  809MPD2    H711921   2.222   4.609   9.866 -0.8625  1.7845 -0.2307
  810MPD2     C11922   1.527   4.308  10.398 -0.1819  0.4554  0.0938
  810MPD2    C111923   1.446   4.302  10.287  0.0788  0.0089  0.2936
  810MPD2    C211924   1.408   4.426  10.236 -0.2786  0.0641 -0.3041
  810MPD2    C311925   1.447   4.549  10.296  0.0854 -0.8575  0.0225
  810MPD2    C411926   1.524   4.544  10.413  0.1111 -0.0370  0.8737
  810MPD2    C511927   1.555   4.421  10.470  0.2717 -0.9072  0.3884
  810MPD2     H11928   1.350   4.431  10.145  0.0562 -2.9645 -0.7068
  810MPD2    H111929   1.549   4.638  10.462 -3.3803 -0.9000  4.2943
  810MPD2    H211930   1.561   4.214  10.440  1.0623  0.9676  0.2528
  810MPD2    H311931   1.614   4.415  10.561  1.8752 -2.1182 -0.7200
  810MPD2     N11932   1.416   4.676  10.245 -0.8970 -0.1225 -0.0987
  810MPD2    H511933   1.461   0.031  10.291 -0.2132  0.0982 -1.1255
  810MPD2    N111934   1.398   4.175  10.243 -0.4559 -0.1147  0.2383
  810MPD2    H711935   1.438   4.090  10.282  0.6429  0.9684  1.4815
  811MPD2     C11936   0.822   3.652   9.737 -0.3414 -0.6306  0.1431
  811MPD2    C111937   0.882   3.775   9.728 -0.2604  0.8367 -0.0811
  811MPD2    C211938   0.814   3.873   9.651 -0.0777  0.0788 -0.6299
  811MPD2    C311939   0.699   3.842   9.581  0.0979  0.2231  0.1543
  811MPD2    C411940   0.646   3.718   9.587  0.1725  0.2245 -0.1162
  811MPD2    C511941   0.714   3.625   9.658  0.2594  0.1731 -0.6593
  811MPD2     H11942   0.839   3.979   9.645  0.1045 -0.0533 -2.1876
  811MPD2    H111943   0.555   3.686   9.538  0.7071 -0.5865 -0.5846
  811MPD2    H211944   0.861   3.564   9.787  0.0113 -1.9065 -2.4088
  811MPD2    H311945   0.676   3.524   9.657  1.6342 -0.3576  0.7810
  811MPD2     N11946   0.643   3.952   9.520  0.3073  0.1301  0.0846
  811MPD2    H511947   0.686   4.041   9.541  0.5410  0.4627 -1.8296
  811MPD2    N111948   0.996   3.788   9.812 -0.5196 -0.1069  0.6201
  811MPD2    H711949   1.019   3.705   9.865 -0.5771  1.3264  2.8965
  812MPD2     C11950   0.592   4.085  11.897  0.1438  0.1613 -0.2065
  812MPD2    C111951   0.514   4.104  12.008  0.5473  0.5092  0.3296
  812MPD2    C211952   0.504   4.003  12.105  0.1525 -0.1609 -0.1453
  812MPD2    C311953   0.565   3.883  12.091  0.6623  0.2080  0.1097
  812MPD2    C411954   0.648   3.857  11.979 -0.6363  0.4931 -0.6215
  812MPD2    C511955   0.661   3.967  11.886  0.3177 -0.4886 -0.4689
  812MPD2     H11956   0.441   4.017  12.192  0.8348  1.5398  0.0719
  812MPD2    H111957   0.700   3.765  11.959 -1.2697  0.0117 -0.0424
  812MPD2    H211958   0.600   4.152  11.811 -0.8899  0.1582 -0.2982
  812MPD2    H311959   0.720   3.943  11.799  0.5445  0.5918 -0.6140
  812MPD2     N11960   0.542   3.783  12.187  0.3776 -0.2707  0.0188
  812MPD2    H511961   0.482   3.802  12.267 -0.2798 -1.0497 -0.2835
  812MPD2    N111962   0.425   4.221  12.011  0.8505 -0.0346 -0.1601
  812MPD2    H711963   0.426   4.269  11.922 -2.7270  0.5144  0.1092
  813MPD2     C11964   0.255   1.028  13.019  0.6563 -0.1369  0.1702
  813MPD2    C111965   0.206   1.135  12.943 -0.2271 -0.4180  0.3223
  813MPD2    C211966   0.098   1.204  12.990  0.4969  0.0462  0.1808
  813MPD2    C311967   0.057   1.179  13.119 -1.2684  0.7162 -0.1060
  813MPD2    C411968   0.099   1.071  13.188 -0.4306  0.7843  0.8123
  813MPD2    C511969   0.195   0.993  13.139  0.1425  0.2626  0.6602
  813MPD2     H11970   0.062   1.290  12.934 -0.7002 -0.7017 -0.2132
  813MPD2    H111971   0.067   1.052  13.290  2.1488  0.1230  1.4892
  813MPD2    H211972   0.344   0.973  12.990  0.5593 -0.9060  1.3398
  813MPD2    H311973   0.220   0.909  13.203 -0.5901 -0.6799 -0.2953
  813MPD2     N11974   4.701   1.287  13.178  0.1562 -0.6281  0.5600
  813MPD2    H511975   4.650   1.342  13.110  0.0629 -1.5951 -0.1542
  813MPD2    N111976   0.274   1.191  12.835 -0.2850  0.0849  0.9869
  813MPD2    H711977   0.313   1.123  12.770 -1.1901  1.1452 -0.6733
  814MPD2     C11978   0.232   2.615  12.092 -0.1150  0.5013 -0.1471
  814MPD2    C111979   0.235   2.646  11.959  0.4094  0.5837  0.0362
  814MPD2    C211980   0.278   2.768  11.907 -0.0050 -0.6892 -0.4685
  814MPD2    C311981   0.308   2.868  12.004 -0.4645 -0.4073  0.1683
  814MPD2    C411982   0.272   2.845  12.131  0.1800 -0.2657  0.3623
  814MPD2    C511983   0.238   2.726  12.179  0.2908 -0.4149 -0.2504
  814MPD2     H11984   0.282   2.774  11.799 -0.2427 -2.3250 -0.5704
  814MPD2    H111985   0.272   2.936  12.188 -0.2153  0.9565 -1.5881
  814MPD2    H211986   0.230   2.515  12.134  4.8709  0.8709  0.9178
  814MPD2    H311987   0.238   2.726  12.287 -0.7606  0.5353 -0.2441
  814MPD2     N11988   0.338   2.997  11.962 -0.4061 -0.2799 -0.5114
  814MPD2    H511989   0.376   3.065  12.027 -0.2053  1.3070 -2.3028
  814MPD2    N111990   0.215   2.544  11.862 -0.2223 -0.1462 -0.0406
  814MPD2    H711991   0.253   2.572  11.773  1.7956 -2.0856  0.1954
  815MPD2     C11992   0.781   1.255  11.666  0.6473  0.2428  1.4281
  815MPD2    C111993   0.753   1.124  11.705  0.3274 -1.0661  0.0877
  815MPD2    C211994   0.684   1.091  11.821 -0.2442  0.1259  0.5082
  815MPD2    C311995   0.648   1.202  11.902 -0.1435  0.0503 -0.4899
  815MPD2    C411996   0.676   1.334  11.863  0.2401 -0.6886 -0.0192
  815MPD2    C511997   0.732   1.356  11.741 -0.5418 -0.1339 -0.4493
  815MPD2     H11998   0.647   0.995  11.853 -0.1978  0.1049  0.4999
  815MPD2    H111999   0.645   1.422  11.919  1.4849 -0.3074  0.0561
  815MPD2    H212000   0.837   1.278  11.576 -0.0637 -0.3204  0.8337
  815MPD2    H312001   0.755   1.457  11.709  0.4770 -0.3127 -0.2538
  815MPD2     N12002   0.576   1.170  12.016  0.2856 -0.0999  0.1247
  815MPD2    H512003   0.555   1.074  12.039  0.3363 -0.0326  0.4595
  815MPD2    N112004   0.786   1.022  11.608  0.1314 -0.1843 -0.2259
  815MPD2    H712005   0.815   1.048  11.514 -0.3113  0.3807 -0.2096
  816MPD2     C12006   0.431   4.605  17.409  0.0408 -0.3944  0.6471
  816MPD2    C112007   0.508   0.004  17.409 -0.2491 -0.2427  0.1792
  816MPD2    C212008   0.637   0.008  17.356 -0.8375 -0.0482  0.5272
  816MPD2    C312009   0.686   4.615  17.292 -0.2530  0.3269  0.2324
  816MPD2    C412010   0.615   4.493  17.302 -0.4938 -0.2013 -0.1920
  816MPD2    C512011   0.485   4.489  17.358 -0.0593 -1.0702 -0.3349
  816MPD2     H12012   0.699   0.096  17.351  0.5823 -0.9439  2.1570
  816MPD2    H112013   0.649   4.405  17.249  1.4393 -0.5840  1.6437
  816MPD2    H212014   0.330   4.597  17.449 -0.2110  2.6515  0.6712
  816MPD2    H312015   0.420   4.402  17.359 -2.1002  0.4421 -2.2092
  816MPD2     N12016   0.808   4.629  17.219 -0.4840 -0.0866  0.0994
  816MPD2    H512017   0.838   0.003  17.210 -0.3319 -0.1452 -0.0257
  816MPD2    N112018   0.442   0.127  17.434 -0.1131 -0.4871  0.3405
  816MPD2    H712019   0.342   0.135  17.424 -0.2762  0.4751  2.7100
  817MPD2     C12020   3.771   1.201   9.796 -0.0750  0.1157 -0.3804
  817MPD2    C112021   3.715   1.094   9.723 -0.4199  0.2080  0.3307
  817MPD2    C212022   3.632   1.128   9.619  1.0952 -0.8694 -0.3915
  817MPD2    C312023   3.633   1.250   9.555  1.0077  0.3401 -0.7473
  817MPD2    C412024   3.706   1.351   9.616 -0.4158 -0.8271 -0.5099
  817MPD2    C512025   3.764   1.327   9.739 -0.8047 -0.9073  0.0516
  817MPD2     H12026   3.576   1.052   9.565 -0.3386 -0.1715  0.1031
  817MPD2    H112027   3.719   1.446   9.565  0.1232  0.0821  1.3027
  817MPD2    H212028   3.828   1.192   9.888  0.8878 -1.4965 -1.1311
  817MPD2    H312029   3.805   1.416   9.786  2.4981 -0.6771 -3.2138
  817MPD2     N12030   3.560   1.262   9.436  0.1682  0.2517  0.0570
  817MPD2    H512031   3.522   1.174   9.402  2.8475 -0.1695 -1.9379
  817MPD2    N112032   3.717   0.955   9.769  0.1989 -0.5475 -0.0201
  817MPD2    H712033   3.674   0.887   9.707 -1.6136  1.0213 -0.4725
  818MPD2     C12034   2.965   1.897  10.145 -0.8183  0.2488 -0.0719
  818MPD2    C112035   3.061   1.820  10.202 -0.1921  0.3687 -0.2994
  818MPD2    C212036   3.022   1.704  10.269 -0.1719 -0.8256 -0.5516
  818MPD2    C312037   2.885   1.681  10.303  0.6641  0.4294 -0.3428
  818MPD2    C412038   2.793   1.757  10.235 -0.8475 -0.6033  0.5569
  818MPD2    C512039   2.833   1.861  10.156 -0.0438  0.3644  0.0248
  818MPD2     H12040   3.099   1.637  10.307  1.2997  2.3776  2.0505
  818MPD2    H112041   2.687   1.734  10.232 -0.4629 -2.0510 -1.7166
  818MPD2    H212042   2.988   1.980  10.079  1.2969  0.2064  0.6164
  818MPD2    H312043   2.770   1.908  10.082  0.3505  1.9221  0.6778
  818MPD2     N12044   2.847   1.575  10.385  0.4722 -0.2500 -0.5000
  818MPD2    H512045   2.747   1.560  10.389  0.4944 -0.8634 -2.0077
  818MPD2    N112046   3.200   1.847  10.195  0.4015 -0.0982  0.6525
  818MPD2    H712047   3.262   1.797  10.258  2.7969  0.2989 -1.3959
  819MPD2     C12048   2.000   3.461  15.551 -0.6345 -0.0443  0.4142
  819MPD2    C112049   2.024   3.327  15.558 -0.1204 -0.7293 -0.5661
  819MPD2    C212050   2.141   3.272  15.610  0.4784  0.1713  0.7279
  819MPD2    C312051   2.229   3.356  15.674  0.1661 -0.5937  0.7282
  819MPD2    C412052   2.205   3.486  15.682 -0.9716 -0.1433  0.5327
  819MPD2    C512053   2.088   3.537  15.621 -0.4770 -0.5992 -0.0897
  819MPD2     H12054   2.151   3.164  15.621  4.0887  0.5981  1.7516
  819MPD2    H112055   2.274   3.555  15.729  1.9759 -1.4657 -1.8509
  819MPD2    H212056   1.909   3.511  15.518 -0.0229  0.1795 -0.9528
  819MPD2    H312057   2.074   3.644  15.617  0.7672 -0.4151  0.4160
  819MPD2     N12058   2.345   3.309  15.737 -0.2317 -0.0408  0.0855
  819MPD2    H512059   2.365   3.210  15.730 -1.8878 -0.4083  0.4748
  819MPD2    N112060   1.926   3.241  15.486 -0.3918  0.3667  0.4286
  819MPD2    H712061   1.832   3.269  15.462 -0.0917  1.3416  0.4077
  820MPD2     C12062   1.183   3.347  14.902  0.0628 -0.0226 -0.2982
  820MPD2    C112063   1.310   3.406  14.922  0.1521  0.5397 -0.3008
  820MPD2    C212064   1.416   3.332  14.967  0.8265  0.5744 -0.2427
  820MPD2    C312065   1.399   3.199  15.005  0.6105  0.2082  0.1110
  820MPD2    C412066   1.266   3.144  14.993 -0.1848 -0.0955 -0.1549
  820MPD2    C512067   1.162   3.213  14.936 -0.4169  0.6598 -0.3739
  820MPD2     H12068   1.511   3.374  14.998 -0.2750  2.3314  0.7462
  820MPD2    H112069   1.252   3.039  15.013  1.2727  0.3050  2.8954
  820MPD2    H212070   1.102   3.407  14.863 -0.7277 -0.1673  1.0945
  820MPD2    H312071   1.065   3.167  14.920 -1.0095  1.0147  2.2445
  820MPD2     N12072   1.502   3.120  15.061  0.1038 -0.3855  0.2679
  820MPD2    H512073   1.471   3.034  15.103  0.5034 -1.3266 -1.3552
  820MPD2    N112074   1.321   3.541  14.892  0.5729  0.5032 -0.1519
  820MPD2    H712075   1.231   3.582  14.868 -0.2600 -0.4251  1.4001
  821MPD2     C12076   2.792   4.251  13.464  0.4329 -0.3456 -0.3342
  821MPD2    C112077   2.901   4.317  13.527  0.2452 -0.0906 -0.2407
  821MPD2    C212078   3.023   4.324  13.463 -0.7361 -0.1348 -0.6212
  821MPD2    C312079   3.033   4.252  13.337 -0.8931 -0.3282 -0.2356
  821MPD2    C412080   2.922   4.196  13.276  0.4004 -0.0504 -0.2201
  821MPD2    C512081   2.802   4.197  13.341 -0.5617 -0.0074 -0.1976
  821MPD2     H12082   3.102   4.389  13.499 -1.8232  0.8036  0.0620
  821MPD2    H112083   2.920   4.148  13.178 -0.0791  0.2930 -0.3805
  821MPD2    H212084   2.693   4.231  13.503 -0.0940  1.4441 -0.7477
  821MPD2    H312085   2.715   4.149  13.298 -0.3095  1.1017 -1.9823
  821MPD2     N12086   3.150   4.276  13.259 -0.0447 -0.1045  0.0990
  821MPD2    H512087   3.149   4.244  13.162  2.7040  0.2860 -0.0358
  821MPD2    N112088   2.882   4.390  13.644 -0.0130  0.0698  0.3875
  821MPD2    H712089   2.961   4.437  13.687  1.2889 -0.4425 -1.4381
  822MPD2     C12090   2.783   4.582  15.779  0.6030 -0.0520  0.1089
  822MPD2    C112091   2.742   4.526  15.901  0.0938  0.2061  0.9524
  822MPD2    C212092   2.664   4.605  15.980  0.5179  0.0361  0.0587
  822MPD2    C312093   2.617   0.011  15.945  0.1001 -0.0816  0.5115
  822MPD2    C412094   2.631   0.051  15.817 -0.5202 -0.0041 -0.6527
  822MPD2    C512095   2.730   4.704  15.743 -0.9696  0.6037  0.1049
  822MPD2     H12096   2.650   4.570  16.082 -0.9069 -0.7992 -0.4191
  822MPD2    H112097   2.589   0.144  15.781  2.0435  1.6687  0.6499
  822MPD2    H212098   2.847   4.539  15.702 -3.0180  2.1019 -4.1488
  822MPD2    H312099   2.753   0.020  15.644 -1.2499 -0.5919 -0.4175
  822MPD2     N12100   2.553   0.085  16.051  0.2762  0.5996  0.0057
  822MPD2    H512101   2.561   0.047  16.145 -0.8345 -0.9559 -0.5328
  822MPD2    N112102   2.789   4.403  15.943  0.3872 -0.1555  0.2842
  822MPD2    H712103   2.756   4.380  16.036  0.7474  0.6549  0.6108
  823MPD2     C12104   2.390   0.308  16.846  0.0386 -0.3221 -0.1489
  823MPD2    C112105   2.414   0.204  16.761 -0.0961  0.4354  0.1081
  823MPD2    C212106   2.396   0.071  16.810  0.1072 -0.1109  0.0099
  823MPD2    C312107   2.377   0.049  16.952 -0.0736  0.0904  0.0465
  823MPD2    C412108   2.365   0.156  17.030 -0.3706  0.3625 -0.2698
  823MPD2    C512109   2.386   0.283  16.981  0.2461  0.3552 -0.1274
  823MPD2     H12110   2.399   4.712  16.739  0.0392 -0.6053  0.5781
  823MPD2    H112111   2.338   0.152  17.135  0.4344 -0.0432 -0.0793
  823MPD2    H212112   2.382   0.411  16.812 -0.1076 -0.4759 -0.5730
  823MPD2    H312113   2.373   0.364  17.053 -3.0211  1.8199 -2.3821
  823MPD2     N12114   2.382   4.646  17.024  0.2732  0.3722 -0.6139
  823MPD2    H512115   2.388   4.639  17.125 -0.2808 -2.1001 -0.7624
  823MPD2    N112116   2.436   0.247  16.626  0.2966  0.0727  0.0967
  823MPD2    H712117   2.432   0.346  16.605 -1.5017  0.4621  2.1980
  824MPD2     C12118   3.101   3.697  15.742  0.4935  0.7039  0.2862
  824MPD2    C112119   3.184   3.791  15.798  0.2455 -0.1890 -0.3013
  824MPD2    C212120   3.322   3.797  15.759  0.2078 -0.0812 -0.1818
  824MPD2    C312121   3.369   3.693  15.683  0.0687 -0.0252 -0.0604
  824MPD2    C412122   3.288   3.592  15.642 -0.0983  0.4419  0.0673
  824MPD2    C512123   3.157   3.589  15.682  0.6742  0.1036 -0.3001
  824MPD2     H12124   3.389   3.879  15.783  1.4630 -1.4637  1.0095
  824MPD2    H112125   3.312   3.515  15.569  0.0998  1.2238 -0.6928
  824MPD2    H212126   2.994   3.698  15.761  0.6699 -0.1816  1.4014
  824MPD2    H312127   3.095   3.508  15.647 -1.9951  1.8156  0.4440
  824MPD2     N12128   3.507   3.691  15.645 -0.1132 -0.3106  0.2122
  824MPD2    H512129   3.562   3.772  15.670 -2.6686  1.7710 -0.8873
  824MPD2    N112130   3.123   3.886  15.882 -0.6822 -0.0986 -0.4297
  824MPD2    H712131   3.173   3.974  15.891  1.8418 -1.6776  1.0924
  825MPD2     C12132   4.223   3.809  15.233  0.8443  0.1629 -0.3799
  825MPD2    C112133   4.158   3.872  15.330 -0.6588  0.1712  0.1025
  825MPD2    C212134   4.177   4.010  15.344  0.7870 -0.7103 -0.2428
  825MPD2    C312135   4.249   4.074  15.244  0.0794 -0.2475  0.2334
  825MPD2    C412136   4.297   4.011  15.133 -0.7663  0.0544 -0.6628
  825MPD2    C512137   4.294   3.878  15.131  0.8237  0.1717  0.3217
  825MPD2     H12138   4.118   4.066  15.415  0.9851  1.2458 -1.6289
  825MPD2    H112139   4.343   4.061  15.048  1.0080 -0.2178  0.1280
  825MPD2    H212140   4.209   3.704  15.215 -1.0572  0.8594 -2.9518
  825MPD2    H312141   4.328   3.830  15.039  1.2323 -0.4833  0.8113
  825MPD2     N12142   4.259   4.215  15.234 -0.3043 -0.4893  0.0257
  825MPD2    H512143   4.308   4.241  15.149 -1.2586 -0.1282 -0.4129
  825MPD2    N112144   4.083   3.799  15.422  0.0568  0.2931 -0.2182
  825MPD2    H712145   4.099   3.699  15.435 -0.7215 -0.0450 -1.8872
  826MPD2     C12146   3.910   3.732  13.749  0.6683  0.3364 -0.3815
  826MPD2    C112147   3.837   3.795  13.648  0.0951  0.6841 -0.0017
  826MPD2    C212148   3.737   3.882  13.684  0.2692 -0.1224 -0.7020
  826MPD2    C312149   3.700   3.898  13.814 -0.3409  0.6953 -0.5533
  826MPD2    C412150   3.771   3.836  13.913 -0.1146  0.0624 -0.3869
  826MPD2    C512151   3.881   3.762  13.881 -0.4160 -0.0985  0.4208
  826MPD2     H12152   3.703   3.944  13.601  0.4971 -0.1597 -0.8244
  826MPD2    H112153   3.746   3.836  14.019  0.7061  0.8300 -0.1969
  826MPD2    H212154   3.993   3.664  13.735 -0.1766 -0.5990 -0.8382
  826MPD2    H312155   3.938   3.709  13.957  0.9218  2.6093  1.3277
  826MPD2     N12156   3.595   3.984  13.853  0.1592 -0.9129  0.4039
  826MPD2    H512157   3.575   3.981  13.952 -1.6279  1.5969  0.1323
  826MPD2    N112158   3.885   3.768  13.519  0.3000  0.4264 -0.2566
  826MPD2    H712159   3.962   3.702  13.514  1.0336  1.1752  1.2670
  827MPD2     C12160   3.230   0.925  10.917  0.6905  0.0521  0.7397
  827MPD2    C112161   3.271   0.863  11.029  0.2220 -0.0391  0.0857
  827MPD2    C212162   3.226   0.735  11.056 -0.6593  0.2136  0.0656
  827MPD2    C312163   3.129   0.671  10.973 -0.1020  0.0036  0.0919
  827MPD2    C412164   3.088   0.738  10.854  0.3623  0.6329 -0.7407
  827MPD2    C512165   3.140   0.869  10.831  0.0165  0.0374  0.9825
  827MPD2     H12166   3.274   0.675  11.132 -0.2713  2.1669  1.3519
  827MPD2    H112167   3.027   0.690  10.778  1.4704 -0.8864 -0.6708
  827MPD2    H212168   3.270   1.023  10.892  3.2281 -1.4044 -0.9639
  827MPD2    H312169   3.125   0.923  10.738  1.5054  1.2163  1.4270
  827MPD2     N12170   3.112   0.528  10.991  0.0251 -0.9794 -0.7424
  827MPD2    H512171   3.182   0.476  11.042 -1.4988 -1.7538  0.5702
  827MPD2    N112172   3.374   0.927  11.097  0.5345 -0.0452 -0.9710
  827MPD2    H712173   3.422   1.011  11.066  1.8721 -0.3746  0.1898
  828MPD2     C12174   2.346   0.154  12.348 -1.1754  0.5390 -0.5038
  828MPD2    C112175   2.331   0.231  12.236  0.5604 -0.2937 -0.6285
  828MPD2    C212176   2.448   0.250  12.163 -0.3056  0.6889 -0.0970
  828MPD2    C312177   2.573   0.224  12.213 -0.3455 -0.1296 -0.0156
  828MPD2    C412178   2.585   0.169  12.336 -0.1829 -0.4760  1.0400
  828MPD2    C512179   2.473   0.128  12.403  0.1522  0.1747  0.2361
  828MPD2     H12180   2.441   0.287  12.061  0.7497 -1.8953 -1.1153
  828MPD2    H112181   2.683   0.156  12.381  0.3186  1.8946  0.6730
  828MPD2    H212182   2.262   0.100  12.390 -0.9011 -0.9386 -1.8861
  828MPD2    H312183   2.470   0.081  12.501  1.2792  2.3802  1.3355
  828MPD2     N12184   2.696   0.224  12.133 -0.7348 -0.0316 -0.6767
  828MPD2    H512185   2.773   0.170  12.171 -0.6466  0.1266 -0.6302
  828MPD2    N112186   2.203   0.257  12.174 -0.5362 -0.4398 -0.3353
  828MPD2    H712187   2.209   0.297  12.080  0.0643  0.3575  0.0416
  829MPD2     C12188   1.891   0.354  11.322 -0.2917 -0.6516  0.1354
  829MPD2    C112189   1.783   0.312  11.397 -0.8276 -0.0165  0.0257
  829MPD2    C212190   1.790   0.299  11.527  0.7876 -0.5124 -0.5882
  829MPD2    C312191   1.912   0.311  11.597 -0.7371  0.2339 -0.3057
  829MPD2    C412192   2.022   0.344  11.528  1.1874 -0.2897 -0.1982
  829MPD2    C512193   2.014   0.371  11.389 -0.1770 -0.1093  0.5828
  829MPD2     H12194   1.694   0.277  11.573  1.3491 -1.5247  0.0909
  829MPD2    H112195   2.117   0.359  11.578  0.0199  1.6046  1.4211
  829MPD2    H212196   1.890   0.371  11.214 -0.6372 -1.0571  0.0761
  829MPD2    H312197   2.096   0.407  11.329 -0.5704  1.0823  0.7621
  829MPD2     N12198   1.931   0.300  11.735  0.1009  0.5378 -0.0232
  829MPD2    H512199   2.030   0.296  11.757  0.0676 -3.2103 -0.5288
  829MPD2    N112200   1.654   0.289  11.336 -0.0238  0.3150 -0.9406
  829MPD2    H712201   1.579   0.265  11.401  0.4031 -1.1213 -0.9735
  830MPD2     C12202   2.828   2.900  15.388 -0.1492  0.2843  0.1343
  830MPD2    C112203   2.785   3.031  15.405  0.2842  0.2817  0.5545
  830MPD2    C212204   2.783   3.118  15.295  0.6555  0.1249  0.5667
  830MPD2    C312205   2.836   3.084  15.171  0.0055  0.6709 -0.5571
  830MPD2    C412206   2.881   2.958  15.153 -0.0056  0.5238 -0.6396
  830MPD2    C512207   2.889   2.878  15.265 -0.3533  0.1328 -0.4577
  830MPD2     H12208   2.752   3.221  15.310  0.5573 -0.3041  3.3502
  830MPD2    H112209   2.925   2.921  15.062  0.0168 -0.9723 -0.0286
  830MPD2    H212210   2.830   2.827  15.469 -0.4777  0.2658  0.1251
  830MPD2    H312211   2.935   2.780  15.257  1.2299  0.8509 -0.3235
  830MPD2     N12212   2.846   3.183  15.069  0.0507 -0.2965  0.3385
  830MPD2    H512213   2.830   3.277  15.105 -0.7102 -0.2726 -0.0668
  830MPD2    N112214   2.742   3.084  15.531  0.4849  0.7952  0.1222
  830MPD2    H712215   2.704   3.178  15.519 -0.9736  0.0236 -1.3516
  831MPD2     C12216   2.785   0.066  16.667  0.3073  0.0151 -0.2149
  831MPD2    C112217   2.791   0.046  16.533  0.1814  0.0505 -0.1383
  831MPD2    C212218   2.745   4.645  16.489  0.0516  0.1142 -0.3180
  831MPD2    C312219   2.692   4.550  16.569  0.1498 -0.6648  0.6819
  831MPD2    C412220   2.681   4.574  16.702 -0.3006  0.0771 -0.1614
  831MPD2    C512221   2.728   4.698  16.744  0.8144 -0.0694 -0.0539
  831MPD2     H12222   2.751   4.615  16.385 -0.4263  0.0534 -0.3275
  831MPD2    H112223   2.633   4.509  16.774 -4.0276  1.8716 -1.0144
  831MPD2    H212224   2.818   0.160  16.711 -0.0818  0.0451  0.0169
  831MPD2    H312225   2.723   4.717  16.850 -0.0716  0.9835 -0.2831
  831MPD2     N12226   2.635   4.423  16.530  0.1805  0.3074  0.0881
  831MPD2    H512227   2.597   4.363  16.602  1.3643  0.9646  1.2531
  831MPD2    N112228   2.845   0.144  16.445 -0.1471  0.4357  0.3949
  831MPD2    H712229   2.878   0.229  16.488  1.6673 -0.7842  1.4445
  832MPD2     C12230   1.484   0.771  17.401 -0.5230 -0.0762 -0.1932
  832MPD2    C112231   1.477   0.906  17.371 -0.1189  0.0292  0.4158
  832MPD2    C212232   1.382   0.946  17.284  0.0411 -0.0558 -0.5142
  832MPD2    C312233   1.306   0.860  17.209 -0.1907  0.5147  0.1696
  832MPD2    C412234   1.332   0.731  17.226 -0.2294 -0.0110  0.3032
  832MPD2    C512235   1.415   0.677  17.320  0.4041  0.4842  0.6803
  832MPD2     H12236   1.374   1.049  17.251  1.9831  0.5629  0.8911
  832MPD2    H112237   1.272   0.660  17.170  1.2329  1.9169 -3.7107
  832MPD2    H212238   1.547   0.726  17.476  0.6102  3.5826  1.0655
  832MPD2    H312239   1.411   0.572  17.343 -1.1753  0.7919  1.7962
  832MPD2     N12240   1.200   0.898  17.122  0.7196  0.0276 -0.2945
  832MPD2    H512241   1.163   0.827  17.059 -2.0836  0.0992  1.2577
  832MPD2    N112242   1.555   0.996  17.458  0.4905 -0.8739 -0.2849
  832MPD2    H712243   1.624   0.967  17.526 -0.1757 -3.5607 -0.7386
  833MPD2     C12244   3.082   2.679  12.207 -0.3233 -0.5009 -0.1790
  833MPD2    C112245   3.131   2.798  12.260  0.6784  0.1756 -0.1567
  833MPD2    C212246   3.178   2.895  12.171 -0.7479  0.5716  0.4701
  833MPD2    C312247   3.168   2.875  12.036  0.1524 -0.5340 -0.3208
  833MPD2    C412248   3.116   2.755  11.986  0.3809  0.3436 -0.5983
  833MPD2    C512249   3.074   2.661  12.072  0.6157 -0.7305 -0.6248
  833MPD2     H12250   3.219   2.991  12.201  1.7748 -0.0414 -1.0775
  833MPD2    H112251   3.123   2.728  11.881 -2.9440  2.0625 -1.2935
  833MPD2    H212252   3.045   2.590  12.258 -2.1462 -0.5133 -1.5232
  833MPD2    H312253   3.041   2.564  12.036  0.1990 -0.3815 -1.1835
  833MPD2     N12254   3.205   2.968  11.933  0.5992  0.6162 -0.0401
  833MPD2    H512255   3.195   2.933  11.838  0.8172 -1.2730  0.6276
  833MPD2    N112256   3.149   2.813  12.401  0.4123 -0.1270 -0.2039
  833MPD2    H712257   3.115   2.742  12.466 -0.9839  0.7572  0.0105
  834MPD2     C12258   3.642   2.961  11.130  1.3131  0.2020 -0.3535
  834MPD2    C112259   3.509   2.950  11.165  0.1781 -0.7349 -0.0605
  834MPD2    C212260   3.474   2.981  11.298 -0.5254  0.8402 -0.5777
  834MPD2    C312261   3.567   3.036  11.387 -0.1905  0.3219 -0.1042
  834MPD2    C412262   3.691   3.063  11.339 -0.0243 -0.0852 -0.2895
  834MPD2    C512263   3.725   3.026  11.217  0.3153 -0.9925 -0.5262
  834MPD2     H12264   3.373   2.968  11.334 -0.0935 -2.3707 -0.5536
  834MPD2    H112265   3.763   3.115  11.402  2.0849 -0.8068 -2.1104
  834MPD2    H212266   3.677   2.933  11.032  0.3122 -2.0330 -0.0710
  834MPD2    H312267   3.828   3.047  11.191  0.3907  1.5676  1.8451
  834MPD2     N12268   3.513   3.081  11.513 -0.5278 -0.3618  0.0977
  834MPD2    H512269   3.413   3.069  11.521 -0.6830  2.3183  2.4457
  834MPD2    N112270   3.415   2.877  11.090 -0.2700  0.0975  0.1469
  834MPD2    H712271   3.324   2.852  11.129 -0.7821  2.2354  0.3018
  835MPD2     C12272   3.350   0.185  11.636 -0.0879 -0.2436 -0.4781
  835MPD2    C112273   3.309   0.318  11.655 -0.4919 -0.0757  0.8439
  835MPD2    C212274   3.408   0.415  11.689 -0.0816 -0.3030 -0.1748
  835MPD2    C312275   3.539   0.385  11.708  0.2946  0.1013 -0.5448
  835MPD2    C412276   3.579   0.252  11.697  0.0877 -0.4155  0.1656
  835MPD2    C512277   3.489   0.161  11.649  0.6252 -0.3483 -0.2828
  835MPD2     H12278   3.380   0.520  11.690  0.1038 -0.2419 -2.3458
  835MPD2    H112279   3.685   0.230  11.706 -0.0836 -0.8136  1.1133
  835MPD2    H212280   3.285   0.107  11.598  1.4177 -0.2004 -3.1621
  835MPD2    H312281   3.524   0.060  11.630 -0.4397 -1.0253  1.3673
  835MPD2     N12282   3.637   0.480  11.749  0.6623 -0.3784 -0.8586
  835MPD2    H512283   3.703   0.430  11.808  0.3694  0.1437 -0.0912
  835MPD2    N112284   3.171   0.357  11.650 -0.0653  0.6706 -0.0915
  835MPD2    H712285   3.145   0.455  11.660 -0.9848  0.4812 -0.5958
  836MPD2     C12286   3.644   1.057  12.420  0.2731  0.2585  0.1944
  836MPD2    C112287   3.575   0.968  12.339  0.6879  0.0500  0.6998
  836MPD2    C212288   3.452   0.921  12.378 -0.3187  0.2036 -0.0843
  836MPD2    C312289   3.399   0.948  12.504 -0.5676  0.4000 -0.6968
  836MPD2    C412290   3.466   1.039  12.585  0.3656 -0.3889 -0.2058
  836MPD2    C512291   3.586   1.092  12.543 -0.5210 -0.7921  0.2295
  836MPD2     H12292   3.407   0.849  12.311 -0.1947 -1.0810  1.2028
  836MPD2    H112293   3.441   1.042  12.691 -1.3643 -0.3885 -0.6155
  836MPD2    H212294   3.740   1.079  12.376  2.2620 -4.0463  2.3527
  836MPD2    H312295   3.633   1.154  12.618 -1.1428 -1.1167  0.8835
  836MPD2     N12296   3.284   0.875  12.540 -0.2101 -0.3035 -0.0636
  836MPD2    H512297   3.261   0.791  12.487  0.2213 -0.3819 -0.1252
  836MPD2    N112298   3.647   0.932  12.221  0.1515  0.3408  0.5457
  836MPD2    H712299   3.747   0.952  12.220  0.0321  1.0017  1.9419
  837MPD2     C12300   0.942   4.472   9.483  0.7561 -0.3662  0.3377
  837MPD2    C112301   0.817   4.499   9.442  0.3656 -0.0181  0.6926
  837MPD2    C212302   0.775   4.627   9.444 -0.1008  1.0468  0.2344
  837MPD2    C312303   0.850   0.012   9.480  0.3535  0.3126 -0.0973
  837MPD2    C412304   0.972   4.710   9.538  0.0535 -0.6166 -0.2580
  837MPD2    C512305   1.013   4.580   9.534  0.2475  0.1648  0.2991
  837MPD2     H12306   0.675   4.649   9.407  0.1267  2.6373  0.5694
  837MPD2    H112307   1.041   0.063   9.571 -1.6682  0.6548  0.4144
  837MPD2    H212308   0.987   4.374   9.492 -2.2447 -1.9139 -1.5788
  837MPD2    H312309   1.112   4.557   9.570  0.9784  3.7635  0.6005
  837MPD2     N12310   0.782   0.135   9.485 -0.3267 -0.5927  1.2109
  837MPD2    H512311   0.700   0.147   9.427 -0.7002 -0.4963  1.7620
  837MPD2    N112312   0.742   4.392   9.385 -0.3640  0.1078 -0.6630
  837MPD2    H712313   0.779   4.298   9.398  1.1532  0.6543 -1.0784
  838MPD2     C12314   0.137   2.779  11.059  0.2533 -0.5479  0.3313
  838MPD2    C112315   0.006   2.781  11.021 -0.1750  0.3232  0.4193
  838MPD2    C212316   4.642   2.726  11.112 -0.1000  0.0751  0.8927
  838MPD2    C312317   4.681   2.656  11.221  0.4317  0.5056  0.0561
  838MPD2    C412318   0.088   2.659  11.260 -0.5713 -0.7925 -0.3727
  838MPD2    C512319   0.179   2.730  11.178 -0.1847 -0.0817  0.4132
  838MPD2     H12320   4.539   2.725  11.078  0.7663  0.8590 -1.7963
  838MPD2    H112321   0.119   2.603  11.347  1.0708  1.8086  0.6828
  838MPD2    H212322   0.213   2.813  10.989 -0.3609  2.3939  1.1254
  838MPD2    H312323   0.284   2.731  11.204 -0.3879 -0.3528  1.2460
  838MPD2     N12324   4.583   2.586  11.300 -0.9731  0.2978  0.3017
  838MPD2    H512325   4.487   2.579  11.267  0.0305  0.1542 -2.5708
  838MPD2    N112326   4.680   2.825  10.898 -0.0733 -0.0313  0.0330
  838MPD2    H712327   4.582   2.819  10.871 -0.1404  1.7792 -0.1521
  839MPD2     C12328   3.935   2.692  10.827  0.1815 -1.3571  0.0169
  839MPD2    C112329   4.034   2.606  10.782  0.1377  0.2054 -0.5457
  839MPD2    C212330   4.144   2.648  10.706 -0.3294 -0.2640  0.2217
  839MPD2    C312331   4.162   2.783  10.689 -0.0117 -1.0394  0.2399
  839MPD2    C412332   4.068   2.878  10.737  0.5314 -0.2444 -0.0203
  839MPD2    C512333   3.950   2.827  10.803 -0.2568  0.4627 -0.0921
  839MPD2     H12334   4.221   2.581  10.671  1.3847  3.1962 -2.5702
  839MPD2    H112335   4.076   2.986  10.725 -1.5741 -0.1481 -0.4620
  839MPD2    H212336   3.839   2.662  10.867  0.0084  0.0394  0.6836
  839MPD2    H312337   3.881   2.904  10.837 -0.8490  0.3788 -1.1011
  839MPD2     N12338   4.277   2.835  10.631  0.1671  0.3080 -0.5732
  839MPD2    H512339   4.299   2.933  10.646  0.2115 -0.2058  2.6864
  839MPD2    N112340   4.024   2.468  10.805 -0.1772 -0.4486 -0.2427
  839MPD2    H712341   4.102   2.414  10.768  0.6062  0.9397 -0.6306
  840MPD2     C12342   3.894   1.065  10.777 -0.2176  0.0928 -0.7639
  840MPD2    C112343   3.933   1.020  10.902 -0.4279 -0.1000  0.6839
  840MPD2    C212344   4.052   0.960  10.905  0.3404 -0.2289  0.2424
  840MPD2    C312345   4.131   0.937  10.792  0.5566  0.3893 -0.7640
  840MPD2    C412346   4.093   0.994  10.670 -0.2018 -0.1854  0.1085
  840MPD2    C512347   3.972   1.055  10.666  0.3072 -0.1070 -0.2446
  840MPD2     H12348   4.075   0.915  11.000 -0.4822  1.3654  1.1971
  840MPD2    H112349   4.147   0.996  10.576  0.5700 -1.5551  0.5277
  840MPD2    H212350   3.800   1.117  10.776 -1.0219 -1.2181  3.2420
  840MPD2    H312351   3.937   1.099  10.574  1.3680 -0.7312 -0.9539
  840MPD2     N12352   4.258   0.867  10.793  0.7396 -0.3764 -0.2142
  840MPD2    H512353   4.308   0.861  10.705 -0.9565 -0.6252 -1.1542
  840MPD2    N112354   3.841   1.040  11.015  0.6614  1.1693  1.0153
  840MPD2    H712355   3.750   1.079  10.996  0.0098 -1.6579 -1.6748
  841MPD2     C12356   4.201   0.477  14.990 -0.0670  0.2949  0.2792
  841MPD2    C112357   4.267   0.502  14.871  0.5872  0.0880  0.9281
  841MPD2    C212358   4.242   0.622  14.809 -0.9068 -0.1828  0.5364
  841MPD2    C312359   4.163   0.720  14.870  0.0582 -0.2862 -0.3640
  841MPD2    C412360   4.118   0.700  15.000  0.7266  0.6740 -0.3055
  841MPD2    C512361   4.124   0.574  15.048  0.0108  0.2319 -0.2074
  841MPD2     H12362   4.271   0.648  14.708 -1.5950 -0.1176  0.3538
  841MPD2    H112363   4.061   0.773  15.056  2.0187  1.0679  0.4994
  841MPD2    H212364   4.202   0.383  15.043  2.1634  0.2556  0.2018
  841MPD2    H312365   4.078   0.560  15.146 -0.7728 -0.9666 -0.7511
  841MPD2     N12366   4.153   0.839  14.794  0.3793 -0.3627 -0.2713
  841MPD2    H512367   4.174   0.839  14.695 -0.4873  1.7300 -0.4653
  841MPD2    N112368   4.361   0.408  14.818  0.1533 -0.4890 -0.1403
  841MPD2    H712369   4.400   0.419  14.725 -1.7868  0.4221 -0.8588
  842MPD2     C12370   0.592   1.105  17.036  0.2923 -0.0363  0.1690
  842MPD2    C112371   0.483   1.188  17.047 -0.3648 -0.9787 -0.0471
  842MPD2    C212372   0.475   1.262  17.158  0.4169 -0.2961  0.3683
  842MPD2    C312373   0.574   1.265  17.255  0.3416 -0.1384 -0.2302
  842MPD2    C412374   0.684   1.189  17.245  0.3858  0.4339  0.2621
  842MPD2    C512375   0.693   1.107  17.138  1.2079  0.6688  0.2038
  842MPD2     H12376   0.391   1.330  17.167  0.4172 -0.2225 -0.2043
  842MPD2    H112377   0.761   1.181  17.320 -0.4522  0.7635  1.1681
  842MPD2    H212378   0.607   1.051  16.943 -0.9676 -1.3106  0.7247
  842MPD2    H312379   0.781   1.046  17.122  1.4824  1.7235 -2.2882
  842MPD2     N12380   0.566   1.357  17.359 -0.7377 -0.4590 -0.6544
  842MPD2    H512381   0.483   1.416  17.363  0.5676  1.4281 -1.6839
  842MPD2    N112382   0.384   1.179  16.950  0.2135  0.0495 -0.5912
  842MPD2    H712383   0.400   1.145  16.856 -1.0581 -2.6188  0.1590
  843MPD2     C12384   2.159   1.274   0.535 -0.0468 -0.2984 -0.5038
  843MPD2    C112385   2.209   1.324   0.655  0.2272  0.1778 -0.8023
  843MPD2    C212386   2.327   1.402   0.646  0.3085  0.1032  0.2718
  843MPD2    C312387   2.386   1.428   0.527 -0.1177  0.4197 -0.0718
  843MPD2    C412388   2.338   1.364   0.415 -0.0817 -0.2952  0.1610
  843MPD2    C512389   2.226   1.287   0.418 -0.3206  0.3552 -0.4257
  843MPD2     H12390   2.364   1.447   0.738 -0.7871  1.8510 -0.1529
  843MPD2    H112391   2.389   1.371   0.321 -2.0481 -0.5254 -0.9306
  843MPD2    H212392   2.070   1.212   0.533 -1.1178  1.3531 -4.0045
  843MPD2    H312393   2.183   1.237   0.332  0.2752 -0.5156 -0.2157
  843MPD2     N12394   2.496   1.513   0.514  0.8831 -0.3132  0.1827
  843MPD2    H512395   2.520   1.533   0.417  1.2840 -0.3047  0.2838
  843MPD2    N112396   2.128   1.311   0.772 -0.3952 -0.6588 -0.1313
  843MPD2    H712397   2.043   1.257   0.764 -0.6962 -0.0200 -1.4275
  844MPD2     C12398   1.119   1.199  16.421  0.4501  0.1517 -1.0036
  844MPD2    C112399   1.124   1.068  16.474 -0.3987  0.1638  0.6290
  844MPD2    C212400   1.214   1.028  16.578 -0.6019 -0.1164 -0.9228
  844MPD2    C312401   1.276   1.119  16.653 -0.2318  0.2156  0.0046
  844MPD2    C412402   1.264   1.254  16.613 -0.8175  0.0863 -0.1686
  844MPD2    C512403   1.188   1.294  16.499 -0.5183  0.2593  0.2509
  844MPD2     H12404   1.217   0.925  16.613 -1.4966  1.6607  4.4396
  844MPD2    H112405   1.302   1.336  16.674 -1.4709  1.4228 -1.5330
  844MPD2    H212406   1.058   1.235  16.339 -0.2020  0.0236 -0.5789
  844MPD2    H312407   1.172   1.400  16.482 -1.5726 -0.1491 -1.2424
  844MPD2     N12408   1.346   1.064  16.765  0.3254 -0.9600  0.5505
  844MPD2    H512409   1.372   0.966  16.762  2.6684 -0.3579  1.4455
  844MPD2    N112410   1.035   0.975  16.429 -0.3991  0.2672 -0.1636
  844MPD2    H712411   1.043   0.884  16.474  0.4814  0.5637  0.2826
  845MPD2     C12412   1.718   1.780  16.968 -0.4408  0.1223  0.3636
  845MPD2    C112413   1.593   1.734  17.008 -0.1952  0.1533 -0.6420
  845MPD2    C212414   1.568   1.599  17.038 -0.4602  0.0826  0.0655
  845MPD2    C312415   1.675   1.508  17.031  0.2257  1.0146 -0.0701
  845MPD2    C412416   1.803   1.554  17.009  0.2768  0.9506 -0.5938
  845MPD2    C512417   1.820   1.685  16.973 -0.4104  0.1675 -0.2617
  845MPD2     H12418   1.466   1.568  17.057  0.2914 -1.0281  2.1958
  845MPD2    H112419   1.895   1.496  17.010  1.2481  2.5310  0.2611
  845MPD2    H212420   1.739   1.884  16.946  0.1802  0.2016  1.3477
  845MPD2    H312421   1.919   1.718  16.944 -0.8902 -0.9421 -3.1999
  845MPD2     N12422   1.647   1.369  17.061  0.0664  0.2604  0.0520
  845MPD2    H512423   1.551   1.337  17.058  0.3202 -0.6554  1.6159
  845MPD2    N112424   1.497   1.839  17.009  0.3996  0.2431  0.4429
  845MPD2    H712425   1.514   1.934  16.976  0.7667 -0.1313 -0.4456
  846MPD2     C12426   2.640   2.070  13.688  0.1713  0.6627 -0.2125
  846MPD2    C112427   2.587   2.192  13.715 -0.4653 -0.1188  0.6706
  846MPD2    C212428   2.552   2.219  13.846 -0.2479 -0.0705  0.4053
  846MPD2    C312429   2.555   2.117  13.938  0.2595  0.6048 -0.2929
  846MPD2    C412430   2.611   1.992  13.914  0.1238 -0.2632  0.3643
  846MPD2    C512431   2.659   1.979  13.788  0.0944 -0.2703  0.2008
  846MPD2     H12432   2.523   2.319  13.874  0.7111  0.2300  0.3441
  846MPD2    H112433   2.631   1.916  13.989 -0.9116  0.4014  1.2983
  846MPD2    H212434   2.678   2.041  13.590 -0.3606 -2.4456  0.4995
  846MPD2    H312435   2.715   1.889  13.766  0.3228 -0.1240  0.1863
  846MPD2     N12436   2.513   2.150  14.069 -0.5389  0.4473 -0.3946
  846MPD2    H512437   2.459   2.234  14.086 -1.8835 -0.6583  0.7651
  846MPD2    N112438   2.592   2.295  13.617 -0.4908  1.2540 -0.6301
  846MPD2    H712439   2.551   2.378  13.659  1.5620  2.3661 -0.8275
  847MPD2     C12440   3.077   3.338  14.513 -0.6932  1.1909 -0.2812
  847MPD2    C112441   3.146   3.458  14.523  0.0677  0.2843 -0.0464
  847MPD2    C212442   3.259   3.461  14.605  0.9014  0.6428  0.2791
  847MPD2    C312443   3.306   3.346  14.671 -0.3327 -0.1536  0.3972
  847MPD2    C412444   3.237   3.229  14.661  0.2139  0.1250 -0.5443
  847MPD2    C512445   3.124   3.232  14.585  0.2271  0.2537 -0.1364
  847MPD2     H12446   3.320   3.551  14.607  2.6989 -0.5558 -0.5932
  847MPD2    H112447   3.269   3.137  14.710 -0.0363 -0.4683 -1.4941
  847MPD2    H212448   2.985   3.325  14.457 -1.1351 -0.8542  0.9519
  847MPD2    H312449   3.072   3.139  14.563  1.4477 -0.6364  0.7738
  847MPD2     N12450   3.415   3.344  14.759 -0.1139 -0.4780 -0.0204
  847MPD2    H512451   3.440   3.254  14.799 -0.4813  0.2680  1.8723
  847MPD2    N112452   3.102   3.578  14.473 -0.1865  0.0595 -0.1336
  847MPD2    H712453   3.153   3.664  14.491 -3.8622  1.8533  1.7337
  848MPD2     C12454   1.229   1.625  16.802 -0.2510 -0.2646 -0.0941
  848MPD2    C112455   1.119   1.550  16.759  0.0159  0.1311 -0.8238
  848MPD2    C212456   1.053   1.600  16.647  0.1510  0.4610 -0.7190
  848MPD2    C312457   1.100   1.712  16.575 -0.9136 -0.0323 -0.2881
  848MPD2    C412458   1.205   1.783  16.624 -0.7360 -0.9097  0.1629
  848MPD2    C512459   1.267   1.737  16.734  0.1104  0.0200 -0.1297
  848MPD2     H12460   0.971   1.535  16.618 -1.1221  1.2358  1.0825
  848MPD2    H112461   1.244   1.871  16.576 -0.7548 -0.7317  0.4766
  848MPD2    H212462   1.290   1.593  16.887 -0.4353 -1.8899 -0.5638
  848MPD2    H312463   1.354   1.780  16.781 -0.8078  1.4617  0.2602
  848MPD2     N12464   1.028   1.771  16.471 -0.6854 -0.0510  0.3764
  848MPD2    H512465   1.066   1.858  16.437  0.5819 -0.2334  1.3070
  848MPD2    N112466   1.098   1.426  16.829  0.2434  0.2576  0.2526
  848MPD2    H712467   1.171   1.397  16.893  0.2503  0.0391  0.1448
  849MPD2     C12468   4.661   0.983  14.421  0.1876 -0.4263  0.2152
  849MPD2    C112469   0.009   0.905  14.333  0.7402  0.4834  0.5357
  849MPD2    C212470   0.121   0.837  14.382  0.2145  0.0779 -0.2325
  849MPD2    C312471   0.156   0.839  14.521  0.4285 -0.0626  0.6234
  849MPD2    C412472   0.075   0.916  14.607  0.1441 -0.0795 -0.5634
  849MPD2    C512473   4.699   0.993  14.549 -0.3868 -0.1314 -0.2142
  849MPD2     H12474   0.182   0.791  14.305  0.5600  0.5325 -0.2325
  849MPD2    H112475   0.093   0.920  14.714 -0.2734  0.6831 -0.5229
  849MPD2    H212476   4.583   1.052  14.389  0.7961  0.0289 -0.2797
  849MPD2    H312477   4.655   1.067  14.615 -1.2438 -1.7076  0.9948
  849MPD2     N12478   0.268   0.770  14.574  0.4205  0.2830 -0.0463
  849MPD2    H512479   0.300   0.808  14.662  2.0652  0.4491 -0.7135
  849MPD2    N112480   4.699   0.913  14.195  0.6178  0.0652 -0.2136
  849MPD2    H712481   4.638   0.983  14.155  1.7965  0.8514 -0.6189
  850MPD2     C12482   3.107   4.378  14.811  0.1541 -0.4871  0.4566
  850MPD2    C112483   3.046   4.403  14.935 -0.2498 -0.0451 -0.3644
  850MPD2    C212484   3.120   4.394  15.053  0.0853 -0.6874  0.9247
  850MPD2    C312485   3.259   4.369  15.044 -0.1476  0.5355 -0.0039
  850MPD2    C412486   3.325   4.364  14.924 -0.1274 -0.1336 -0.0543
  850MPD2    C512487   3.248   4.359  14.807  0.4890  0.6790  1.1367
  850MPD2     H12488   3.083   4.407  15.154  1.1527 -0.8479  1.3316
  850MPD2    H112489   3.433   4.365  14.914 -0.0397  2.9690  1.0680
  850MPD2    H212490   3.046   4.376  14.722 -1.7982 -3.2214  1.8295
  850MPD2    H312491   3.300   4.337  14.714 -1.4411  0.8024  0.0283
  850MPD2     N12492   3.349   4.377  15.155 -0.6673 -0.3207  0.0863
  850MPD2    H512493   3.445   4.354  15.130 -0.1209  1.7978  0.2884
  850MPD2    N112494   2.905   4.403  14.948 -0.0310  0.3405 -0.1932
  850MPD2    H712495   2.854   4.365  14.869 -0.4788  1.5527 -0.4787
  851MPD2     C12496   2.952   3.937  15.416 -0.0413  0.4548 -0.5884
  851MPD2    C112497   2.852   3.930  15.320  0.0232 -0.6882 -0.1965
  851MPD2    C212498   2.866   3.834  15.222 -0.5703  0.1735  0.6305
  851MPD2    C312499   2.962   3.743  15.212 -0.4955 -0.2130  0.3763
  851MPD2    C412500   3.060   3.743  15.307  0.4421 -0.0005  0.3345
  851MPD2    C512501   3.052   3.839  15.410  0.6675  0.4057  0.6571
  851MPD2     H12502   2.800   3.828  15.136  1.1149 -1.9187 -0.5205
  851MPD2    H112503   3.136   3.666  15.308 -0.0074 -0.4511 -0.1851
  851MPD2    H212504   2.940   4.009  15.496 -0.5253 -1.1535  0.7825
  851MPD2    H312505   3.135   3.846  15.481  1.2887  1.9286 -0.2013
  851MPD2     N12506   2.958   3.657  15.099  0.6991  0.5446  0.0732
  851MPD2    H512507   2.898   3.694  15.025  0.9796 -1.0835 -0.9745
  851MPD2    N112508   2.747   4.033  15.313 -0.1874 -0.3445  0.3591
  851MPD2    H712509   2.769   4.112  15.373  1.2311  0.2594 -0.9551
  852MPD2     C12510   1.881   2.555   9.994  0.5916  0.3388  0.6024
  852MPD2    C112511   1.978   2.464  10.033 -0.1870 -0.4202  0.0454
  852MPD2    C212512   2.097   2.473   9.969 -0.7448 -0.2818  0.1788
  852MPD2    C312513   2.125   2.567   9.870 -0.3508 -0.1692 -0.4446
  852MPD2    C412514   2.021   2.647   9.825 -0.2474  0.0038  0.1538
  852MPD2    C512515   1.906   2.635   9.885  0.4047  0.2161  0.3075
  852MPD2     H12516   2.176   2.404   9.996 -0.1722  0.2375 -0.1682
  852MPD2    H112517   2.031   2.698   9.729  0.9662  2.1392  1.4316
  852MPD2    H212518   1.783   2.549  10.041 -1.0213  0.5595 -2.6787
  852MPD2    H312519   1.821   2.688   9.842 -0.8110  0.9288  3.5703
  852MPD2     N12520   2.251   2.564   9.811 -0.4063 -0.5375  0.2135
  852MPD2    H512521   2.321   2.496   9.838 -0.3025 -0.4314  0.2104
  852MPD2    N112522   1.959   2.379  10.143 -0.2292  0.0175  0.3030
  852MPD2    H712523   2.022   2.301  10.157 -0.5025 -0.1200  0.7688
  853MPD2     C12524   4.668   1.574  12.163 -0.3506  0.0568  0.1699
  853MPD2    C112525   4.535   1.581  12.128 -0.2915  0.0369  0.0383
  853MPD2    C212526   4.495   1.549  11.993 -0.2019  1.4214  0.1447
  853MPD2    C312527   4.587   1.501  11.905  0.1777 -0.0520  0.2949
  853MPD2    C412528   4.713   1.478  11.951 -1.5421  0.6319 -0.0875
  853MPD2    C512529   0.033   1.511  12.077 -0.4316 -0.0487 -0.5334
  853MPD2     H12530   4.392   1.563  11.965 -0.3379 -1.0115 -0.6252
  853MPD2    H112531   0.070   1.432  11.893 -1.8135  0.4378 -0.3045
  853MPD2    H212532   4.707   1.597  12.262 -1.7086  2.3337  0.1876
  853MPD2    H312533   0.137   1.508  12.106 -0.5597  0.7260  0.0143
  853MPD2     N12534   4.573   1.479  11.768 -0.3444  0.0037  0.7684
  853MPD2    H512535   4.656   1.460  11.714  0.1658  0.8710  1.2496
  853MPD2    N112536   4.449   1.642  12.225  0.0026 -0.1093 -0.2500
  853MPD2    H712537   4.490   1.660  12.316 -0.1101  0.2610 -0.2708
  854MPD2     C12538   0.882   1.335  12.490  0.8774  0.2944  0.1726
  854MPD2    C112539   0.910   1.410  12.602 -0.5718  0.5099 -0.2709
  854MPD2    C212540   0.940   1.347  12.718  0.1278  0.0259  0.2189
  854MPD2    C312541   0.952   1.213  12.723  0.4978 -0.0623  0.8338
  854MPD2    C412542   0.914   1.133  12.622  0.6297 -0.6403 -0.1394
  854MPD2    C512543   0.871   1.197  12.505 -0.6142 -0.0945 -0.0064
  854MPD2     H12544   0.964   1.406  12.806 -0.2299 -2.2518  1.8592
  854MPD2    H112545   0.922   1.025  12.627 -0.7729 -0.7829 -0.9423
  854MPD2    H212546   0.868   1.375  12.391  1.4134 -1.2149 -0.5131
  854MPD2    H312547   0.844   1.132  12.423  2.1582 -0.0040 -0.9694
  854MPD2     N12548   1.006   1.146  12.832  0.2060 -0.0416 -0.1806
  854MPD2    H512549   1.020   1.045  12.824  0.9199  0.1884 -2.0008
  854MPD2    N112550   0.912   1.549  12.589  0.1898 -0.1062  0.6529
  854MPD2    H712551   0.902   1.585  12.495 -0.7291  1.2131  1.2486
  855MPD2     C12552   1.607   1.435  13.592 -0.3076  0.2747  0.4396
  855MPD2    C112553   1.604   1.294  13.604 -0.3651  0.1716  0.1484
  855MPD2    C212554   1.515   1.227  13.523 -0.2498 -0.1876 -0.2714
  855MPD2    C312555   1.423   1.290  13.437  0.1190  0.4767 -0.5801
  855MPD2    C412556   1.419   1.425  13.450 -0.1317  0.1915 -0.1251
  855MPD2    C512557   1.510   1.499  13.519  0.4001  0.1373  0.0729
  855MPD2     H12558   1.517   1.120  13.542 -0.4989  0.1570  1.6755
  855MPD2    H112559   1.356   1.487  13.387  0.2036  0.8370  0.1757
  855MPD2    H212560   1.677   1.501  13.643 -0.1852 -1.6487  2.7686
  855MPD2    H312561   1.520   1.606  13.508  1.3153 -0.2684 -3.1294
  855MPD2     N12562   1.340   1.224  13.340  1.2455 -0.4083  0.2789
  855MPD2    H512563   1.282   1.282  13.280  0.8896 -0.1279  0.9015
  855MPD2    N112564   1.707   1.222  13.680 -0.1199  0.7148 -0.0213
  855MPD2    H712565   1.705   1.120  13.672 -2.2975  0.7041  0.8301
  856MPD2     C12566   3.313   2.637  14.193  0.1725 -0.1622  0.0865
  856MPD2    C112567   3.416   2.729  14.215 -1.3626 -0.1121 -0.1932
  856MPD2    C212568   3.399   2.862  14.178  0.6931  0.5692  0.9518
  856MPD2    C312569   3.274   2.909  14.140 -0.3701 -0.4837  0.3163
  856MPD2    C412570   3.179   2.815  14.119  0.5537 -0.4401  0.3858
  856MPD2    C512571   3.200   2.685  14.138 -0.3709  0.0570 -0.3082
  856MPD2     H12572   3.486   2.925  14.191 -0.6477  2.4451  0.8403
  856MPD2    H112573   3.083   2.837  14.073  1.2313  1.4336 -0.1238
  856MPD2    H212574   3.326   2.531  14.208  0.5867 -0.2101 -0.5913
  856MPD2    H312575   3.123   2.613  14.113 -0.5080 -0.5183  1.7770
  856MPD2     N12576   3.239   3.042  14.105  0.1440 -0.0163  0.4379
  856MPD2    H512577   3.143   3.070  14.090  0.3431 -0.5701 -1.7845
  856MPD2    N112578   3.547   2.693  14.256 -0.0401  0.2389  0.0664
  856MPD2    H712579   3.616   2.768  14.258  0.0315  0.2001 -1.1647
  857MPD2     C12580   0.416   4.318  13.117 -0.2181  0.3182  0.2731
  857MPD2    C112581   0.463   4.389  13.016  0.0469 -0.0164  0.5909
  857MPD2    C212582   0.505   4.515  13.045  0.2096 -0.0216 -0.0101
  857MPD2    C312583   0.518   4.560  13.176  0.3432 -0.7473  0.5664
  857MPD2    C412584   0.490   4.480  13.282  0.2480  0.2605 -0.2150
  857MPD2    C512585   0.425   4.363  13.249 -0.2595  0.1811 -0.6296
  857MPD2     H12586   0.537   4.578  12.963 -1.5261  0.5448 -0.2492
  857MPD2    H112587   0.486   4.514  13.385 -1.6774  1.1284 -0.5711
  857MPD2    H212588   0.374   4.218  13.113  0.2860  0.1034  0.2887
  857MPD2    H312589   0.396   4.300  13.333 -0.0888  0.0912 -0.6382
  857MPD2     N12590   0.562   4.692  13.181  0.3483 -0.4555 -0.1158
  857MPD2    H512591   0.592   0.014  13.095 -0.6593  0.7463  0.1431
  857MPD2    N112592   0.467   4.329  12.883  0.1288  0.6391  0.1335
  857MPD2    H712593   0.451   4.229  12.882 -1.1491  0.8263  1.1981
  858MPD2     C12594   1.189   4.099  16.925 -0.0581  0.2563  0.5424
  858MPD2    C112595   1.300   4.027  16.967  0.7477  0.8130 -0.8967
  858MPD2    C212596   1.327   4.025  17.102 -0.3537  0.4102  0.0726
  858MPD2    C312597   1.253   4.095  17.198  0.0068  0.3710  0.1149
  858MPD2    C412598   1.152   4.175  17.151  0.0261  0.0433 -0.2130
  858MPD2    C512599   1.125   4.173  17.016  0.5926 -0.2655 -0.3384
  858MPD2     H12600   1.408   3.964  17.141 -0.7694 -1.5625 -2.1546
  858MPD2    H112601   1.088   4.231  17.218 -0.4877 -0.6864 -0.1032
  858MPD2    H212602   1.160   4.099  16.821  0.6318  0.4217  0.3452
  858MPD2    H312603   1.043   4.234  16.980  0.6355 -0.4260 -0.7111
  858MPD2     N12604   1.279   4.098  17.339 -0.1896 -0.6078  0.6061
  858MPD2    H512605   1.213   4.152  17.393  0.0532  0.4960 -0.1974
  858MPD2    N112606   1.371   3.957  16.869  0.5233 -0.0319 -0.5789
  858MPD2    H712607   1.336   3.972  16.774  0.0976  1.3337 -0.2126
  859MPD2     C12608   4.295   1.051  15.321  0.8099 -0.2675 -0.2546
  859MPD2    C112609   4.408   1.089  15.252  0.7720 -0.1004  0.2457
  859MPD2    C212610   4.465   0.992  15.175 -1.1439  0.7646  0.5851
  859MPD2    C312611   4.411   0.867  15.160 -0.4143 -0.4763 -0.2633
  859MPD2    C412612   4.291   0.838  15.230  0.3382  0.6765 -0.1979
  859MPD2    C512613   4.234   0.933  15.306 -0.3859 -0.1384 -0.3540
  859MPD2     H12614   4.550   1.019  15.114 -0.8621 -3.7932 -1.1166
  859MPD2    H112615   4.250   0.737  15.228 -1.9885  1.6366 -0.1328
  859MPD2    H212616   4.248   1.119  15.391 -0.7461 -1.5261 -0.0892
  859MPD2    H312617   4.141   0.911  15.357 -0.2712  1.3759  0.4875
  859MPD2     N12618   4.463   0.765  15.077 -0.2921 -0.3650  0.7343
  859MPD2    H512619   4.435   0.669  15.092  0.5821 -0.6793  0.3567
  859MPD2    N112620   4.477   1.209  15.286  0.1460  0.0734 -0.0850
  859MPD2    H712621   4.441   1.261  15.365  0.3822  0.0679  0.0275
  860MPD2     C12622   2.123   1.533  11.562 -0.4228  0.1809 -0.0693
  860MPD2    C112623   2.116   1.604  11.675 -0.6960  0.6516 -0.2082
  860MPD2    C212624   2.047   1.561  11.782 -0.2845 -0.0010 -0.0391
  860MPD2    C312625   1.994   1.433  11.781  0.4422 -0.0074  0.1833
  860MPD2    C412626   2.004   1.354  11.667  0.7478  0.5905 -0.3321
  860MPD2    C512627   2.070   1.411  11.557  0.3072 -0.4056 -0.3804
  860MPD2     H12628   2.037   1.624  11.869 -1.7840 -0.3113  0.0200
  860MPD2    H112629   1.956   1.258  11.656  1.5079  0.0581  1.0098
  860MPD2    H212630   2.173   1.563  11.470 -0.8658  1.2956  0.0553
  860MPD2    H312631   2.077   1.356  11.464  1.7595 -3.1174  1.3214
  860MPD2     N12632   1.925   1.391  11.897 -0.2959 -0.3864  0.3294
  860MPD2    H512633   1.919   1.462  11.969 -0.3257 -1.4868  1.4194
  860MPD2    N112634   2.171   1.731  11.688 -0.1938 -0.6438 -0.2887
  860MPD2    H712635   2.145   1.783  11.772  2.6674  2.7966 -1.5674
  861MPD2     C12636   0.724   4.274  11.003  0.2602  0.6872  0.0079
  861MPD2    C112637   0.659   4.347  11.106  0.1770  0.0918 -0.3539
  861MPD2    C212638   0.548   4.415  11.073 -0.4468 -0.5149  0.1894
  861MPD2    C312639   0.506   4.428  10.939 -0.3368 -0.0070  0.4667
  861MPD2    C412640   0.586   4.376  10.837  0.0496  0.1363 -0.6145
  861MPD2    C512641   0.683   4.288  10.872 -0.3132  0.3680  0.5846
  861MPD2     H12642   0.503   4.465  11.158 -0.0809 -1.9868  1.2328
  861MPD2    H112643   0.566   4.385  10.731 -1.5939 -2.3447 -0.5343
  861MPD2    H212644   0.805   4.204  11.018  0.4589  0.2783 -3.0794
  861MPD2    H312645   0.721   4.226  10.793  2.9044  3.2526 -0.1115
  861MPD2     N12646   0.385   4.492  10.903  0.0125  0.0018  0.7439
  861MPD2    H512647   0.372   4.500  10.802  1.3825 -1.0021  0.4882
  861MPD2    N112648   0.705   4.345  11.238 -0.0730 -0.6688  0.2563
  861MPD2    H712649   0.655   4.402  11.305  0.6513  0.0875  0.1589
  862MPD2     C12650   4.642   4.615  10.405  1.2301  0.1328  0.8947
  862MPD2    C112651   0.056   4.600  10.424 -0.3097  0.4051 -0.1888
  862MPD2    C212652   0.126   4.508  10.341  0.4340  0.0310  0.2384
  862MPD2    C312653   0.060   4.436  10.235  0.1608  0.4235  0.3782
  862MPD2    C412654   4.645   4.450  10.220  0.1127  0.2174  0.5823
  862MPD2    C512655   4.581   4.539  10.299  0.5863  0.0020  0.9839
  862MPD2     H12656   0.230   4.490  10.364  0.5050 -1.7522 -1.4699
  862MPD2    H112657   4.591   4.414  10.133  0.9904 -0.9828  0.5368
  862MPD2    H212658   4.573   4.674  10.464 -0.6800 -2.3741  1.1668
  862MPD2    H312659   4.480   4.565  10.269  0.1872 -2.2655  0.3718
  862MPD2     N12660   0.129   4.345  10.148 -1.0432  0.3268 -0.2327
  862MPD2    H512661   0.074   4.266  10.115 -0.5731 -0.2128  0.2838
  862MPD2    N112662   0.126   4.661  10.530  0.2905  0.7473  0.7025
  862MPD2    H712663   0.212   4.618  10.559 -0.5047 -1.0580  0.3745
  863MPD2     C12664   4.419   2.672  16.430 -0.2715 -0.7875 -0.0095
  863MPD2    C112665   4.392   2.780  16.508  0.6088  0.2752 -0.2157
  863MPD2    C212666   4.453   2.786  16.637  0.1171  0.0476  0.3108
  863MPD2    C312667   4.543   2.685  16.675  0.1003  0.2016  0.4493
  863MPD2    C412668   4.552   2.571  16.603  0.3502  0.5240  0.3484
  863MPD2    C512669   4.491   2.563  16.473 -0.2028 -0.0763 -0.4562
  863MPD2     H12670   4.424   2.866  16.703  1.3856  0.0268  0.9070
  863MPD2    H112671   4.622   2.491  16.625 -0.0421  0.0683 -0.0543
  863MPD2    H212672   4.375   2.666  16.331  0.6925  0.3824 -0.5079
  863MPD2    H312673   4.511   2.488  16.398 -1.2676 -0.1533 -0.6556
  863MPD2     N12674   4.592   2.671  16.807 -0.1318  0.1725 -0.1588
  863MPD2    H512675   4.622   2.581  16.842 -0.7482  0.6500  1.5720
  863MPD2    N112676   4.299   2.874  16.456  0.3070  0.2343  0.1535
  863MPD2    H712677   4.263   2.863  16.362 -1.4008 -2.6586  1.1345
  864MPD2     C12678   0.064   3.981  17.236 -0.7612  0.4227 -0.4035
  864MPD2    C112679   0.179   3.938  17.173 -0.4154 -0.4145 -0.0872
  864MPD2    C212680   0.263   4.038  17.129  0.1510 -0.2319 -0.5500
  864MPD2    C312681   0.245   4.170  17.148  0.2557 -0.9101 -0.4967
  864MPD2    C412682   0.127   4.213  17.212 -0.1725  0.0208 -0.1530
  864MPD2    C512683   0.039   4.115  17.256 -0.4336  0.3911  0.0729
  864MPD2     H12684   0.354   4.006  17.079  0.5014  0.2113 -0.1918
  864MPD2    H112685   0.109   4.318  17.233  0.2533  0.2513 -0.9555
  864MPD2    H212686   4.716   3.902  17.258 -0.5436 -0.3072 -2.3188
  864MPD2    H312687   4.672   4.142  17.311 -1.0107  2.2659 -1.8016
  864MPD2     N12688   0.323   4.262  17.081 -0.4537 -0.3154 -0.3787
  864MPD2    H512689   0.289   4.357  17.067  0.9294  0.4796  1.6355
  864MPD2    N112690   0.196   3.796  17.143  0.1560 -0.4637  0.1025
  864MPD2    H712691   0.136   3.729  17.190 -0.2511 -1.1302 -1.3746
  865MPD2     C12692   0.385   4.494  16.160 -0.2314  0.0808  0.1306
  865MPD2    C112693   0.383   4.390  16.243 -0.0542 -0.7807 -0.0811
  865MPD2    C212694   0.366   4.409  16.378  0.0871  0.0200  0.7898
  865MPD2    C312695   0.371   4.530  16.429 -0.9732 -0.3597 -0.1530
  865MPD2    C412696   0.369   4.636  16.348 -0.5806  0.3219 -0.2455
  865MPD2    C512697   0.371   4.624  16.212  0.6089  0.1233  0.2175
  865MPD2     H12698   0.353   4.328  16.449 -0.5436 -0.0873  0.5564
  865MPD2    H112699   0.387   0.013  16.386 -0.6938  0.1553  0.2367
  865MPD2    H212700   0.397   4.488  16.053  2.4532 -1.0610  0.4822
  865MPD2    H312701   0.376   4.708  16.143  0.1944 -0.3912 -0.4416
  865MPD2     N12702   0.371   4.559  16.567 -0.8286 -0.4047 -0.0066
  865MPD2    H512703   0.405   4.651  16.592  3.2153 -1.7746 -0.5447
  865MPD2    N112704   0.427   4.275  16.179 -0.2060  0.2713 -0.2926
  865MPD2    H712705   0.442   4.291  16.080  2.4009  2.5869  0.4694
  866MPD2     C12706   1.457   4.363  11.074 -0.0104 -0.3251 -0.6499
  866MPD2    C112707   1.428   4.462  10.984 -0.0913  0.1405  0.0736
  866MPD2    C212708   1.295   4.514  10.985 -0.5305  0.6063  0.0425
  866MPD2    C312709   1.196   4.453  11.060 -0.3130  0.6853  0.5934
  866MPD2    C412710   1.228   4.359  11.149 -0.1872  0.5714 -0.3761
  866MPD2    C512711   1.358   4.310  11.158  0.9591  0.4446 -0.3882
  866MPD2     H12712   1.274   4.596  10.917  0.1368  1.1852  0.5253
  866MPD2    H112713   1.147   4.327  11.213 -0.0227 -0.7086 -0.8162
  866MPD2    H212714   1.553   4.314  11.077  0.7017  0.9623 -2.0665
  866MPD2    H312715   1.395   4.241  11.233 -1.5911  0.5219  0.9240
  866MPD2     N12716   1.058   4.495  11.049  0.9561 -0.1345  0.0751
  866MPD2    H512717   0.996   4.445  11.112  0.7685  1.2194  0.9773
  866MPD2    N112718   1.532   4.509  10.901  0.2842  0.7515 -0.1517
  866MPD2    H712719   1.614   4.449  10.902 -0.3195 -0.1339 -2.5602
  867MPD2     C12720   4.134   3.778  15.968 -0.3495  0.4446 -0.1452
  867MPD2    C112721   4.110   3.730  16.099 -0.4139 -0.2641  0.2186
  867MPD2    C212722   4.003   3.784  16.171  0.5182  0.2259 -0.3264
  867MPD2    C312723   3.929   3.886  16.111 -0.0644  0.3542 -0.2396
  867MPD2    C412724   3.965   3.929  15.991 -0.4433  0.1498  0.6574
  867MPD2    C512725   4.065   3.876  15.915 -0.2791  0.0511  0.3319
  867MPD2     H12726   3.978   3.749  16.270  0.9092  1.0086  0.0478
  867MPD2    H112727   3.907   4.008  15.945 -0.9567 -2.4207 -3.1433
  867MPD2    H212728   4.218   3.744  15.908 -1.1768 -1.0821 -0.4353
  867MPD2    H312729   4.101   3.932  15.829  0.4279  0.2133  0.7309
  867MPD2     N12730   3.817   3.946  16.183 -0.0574  0.5596 -0.0944
  867MPD2    H512731   3.761   4.012  16.130  0.6827  1.2954  0.0406
  867MPD2    N112732   4.196   3.629  16.154 -0.7984 -0.5392  0.2137
  867MPD2    H712733   4.271   3.604  16.091 -0.9220 -0.5196  0.0601
  868MPD2     C12734   0.660   3.296  13.071 -0.6913  0.1243  0.2431
  868MPD2    C112735   0.656   3.202  13.169 -0.2681  0.1835 -0.0012
  868MPD2    C212736   0.546   3.200  13.250  0.3695 -0.0408  0.0273
  868MPD2    C312737   0.466   3.314  13.251 -0.6682 -0.1022 -0.0044
  868MPD2    C412738   0.470   3.403  13.146  0.2032 -0.2068  0.5284
  868MPD2    C512739   0.567   3.392  13.054  0.6326  0.6443  0.2664
  868MPD2     H12740   0.547   3.134  13.336  0.6633 -0.8328 -0.5909
  868MPD2    H112741   0.394   3.480  13.138 -1.0794 -1.4913  0.2611
  868MPD2    H212742   0.736   3.300  12.994 -1.2068  0.3457 -0.2562
  868MPD2    H312743   0.554   3.447  12.962  1.8762  2.2400  1.0354
  868MPD2     N12744   0.381   3.322  13.372 -0.0355 -0.1738 -0.5576
  868MPD2    H512745   0.402   3.264  13.452  0.1421 -1.7939 -1.7833
  868MPD2    N112746   0.751   3.103  13.162 -0.1265  0.0024  0.3310
  868MPD2    H712747   0.831   3.111  13.100 -1.0083  1.4530 -0.6408
  869MPD2     C12748   2.672   2.175   2.065 -0.4151 -0.0770  0.9006
  869MPD2    C112749   2.616   2.070   2.131  0.2102  0.1684  0.6049
  869MPD2    C212750   2.481   2.034   2.113 -0.3836  0.2799 -0.0234
  869MPD2    C312751   2.399   2.111   2.037  0.1564  0.6992 -0.0422
  869MPD2    C412752   2.462   2.213   1.970  0.0127  0.2886  0.0772
  869MPD2    C512753   2.592   2.255   1.984 -0.2756  0.4586  0.0231
  869MPD2     H12754   2.437   1.957   2.175  1.0135 -0.4085  0.1276
  869MPD2    H112755   2.398   2.271   1.904  1.1167  0.5700 -0.7388
  869MPD2    H212756   2.778   2.199   2.070 -0.5390  1.1445 -2.3458
  869MPD2    H312757   2.621   2.343   1.928  0.1506  0.2077 -0.1430
  869MPD2     N12758   2.266   2.071   2.004  0.0377  0.3586 -0.5233
  869MPD2    H512759   2.220   2.130   1.936  0.1639  0.8001 -0.2234
  869MPD2    N112760   2.706   2.000   2.215 -0.3012  0.2526 -0.5400
  869MPD2    H712761   2.782   2.054   2.254 -1.2537 -0.4344  2.2676
  870MPD2     C12762   2.449   4.392   1.822 -0.3296 -0.5538  0.3145
  870MPD2    C112763   2.313   4.415   1.825  1.0371 -0.3505 -0.3636
  870MPD2    C212764   2.265   4.534   1.771  0.4353 -0.3668 -0.5570
  870MPD2    C312765   2.356   4.626   1.717  0.0535 -0.2996 -0.2963
  870MPD2    C412766   2.496   4.589   1.706 -0.1844 -0.7613 -0.8509
  870MPD2    C512767   2.538   4.475   1.757 -0.5392 -0.1396 -0.5105
  870MPD2     H12768   2.158   4.548   1.756  0.5044  0.7750  0.0571
  870MPD2    H112769   2.573   4.647   1.657 -0.4979 -0.5252 -1.0667
  870MPD2    H212770   2.484   4.294   1.855  0.7262 -0.4911 -0.6353
  870MPD2    H312771   2.645   4.465   1.743 -0.0957  0.8452  2.1896
  870MPD2     N12772   2.308   0.020   1.650 -0.5852 -0.4744  0.8034
  870MPD2    H512773   2.208   0.033   1.635 -0.2786  1.1579  0.2622
  870MPD2    N112774   2.233   4.321   1.885  0.5758 -0.2194 -0.0405
  870MPD2    H712775   2.280   4.237   1.918 -1.7677 -1.2806  0.5867
  871MPD2     C12776   2.592   3.899  16.825 -0.0164 -0.0509  0.4544
  871MPD2    C112777   2.595   3.918  16.961  0.0609 -0.5313  0.8172
  871MPD2    C212778   2.629   3.815  17.042 -0.3624  0.5292 -0.6852
  871MPD2    C312779   2.682   3.697  16.985  0.1180 -0.5362  0.0978
  871MPD2    C412780   2.701   3.687  16.850  0.2369  0.8322 -0.2343
  871MPD2    C512781   2.638   3.781  16.770  0.0528  0.4430  0.4306
  871MPD2     H12782   2.616   3.819  17.150  1.3510  1.6434 -0.5253
  871MPD2    H112783   2.733   3.593  16.805 -3.3655 -1.7093  2.5629
  871MPD2    H212784   2.551   3.968  16.752  0.3452  0.6154  0.8683
  871MPD2    H312785   2.641   3.761  16.663 -1.7755 -0.7006  0.5931
  871MPD2     N12786   2.728   3.586  17.061 -0.2716  0.0534 -0.1119
  871MPD2    H512787   2.759   3.506  17.006 -0.4175 -0.0864  0.0101
  871MPD2    N112788   2.551   4.044  17.010 -0.3970  0.2048  0.0558
  871MPD2    H712789   2.491   4.095  16.946 -0.6359 -1.8522 -1.3183
  872MPD2     C12790   3.003   1.789  13.761 -0.2631 -0.4259 -0.4080
  872MPD2    C112791   3.062   1.889  13.835  0.3292  0.2313 -0.4292
  872MPD2    C212792   3.039   1.883  13.973  0.3561 -0.6086 -0.1629
  872MPD2    C312793   2.950   1.794  14.034  0.5287 -0.6228 -1.0519
  872MPD2    C412794   2.902   1.693  13.954  1.2551 -0.5472 -0.5693
  872MPD2    C512795   2.919   1.698  13.819 -0.0002 -0.2385 -0.1214
  872MPD2     H12796   3.079   1.960  14.037 -0.4110  0.9074 -1.5118
  872MPD2    H112797   2.850   1.607  13.994  0.4080  0.2706  0.0855
  872MPD2    H212798   3.025   1.779  13.655  0.7656  2.4626 -0.4552
  872MPD2    H312799   2.878   1.621  13.754  0.3894 -1.4231  1.0456
  872MPD2     N12800   2.931   1.789  14.175 -0.1435 -0.8471 -0.4725
  872MPD2    H512801   2.874   1.710  14.204  0.2005 -1.0973 -0.4670
  872MPD2    N112802   3.148   1.986  13.775 -0.0935 -0.4536  0.1518
  872MPD2    H712803   3.207   2.040  13.837 -0.9157  1.4177 -0.6979
  873MPD2     C12804   4.518   2.574   1.164  0.0552  0.6901  0.4085
  873MPD2    C112805   4.636   2.539   1.224 -0.1327 -0.7562  0.6801
  873MPD2    C212806   0.002   2.456   1.152 -1.1016  0.4156  0.1901
  873MPD2    C312807   4.683   2.404   1.026  0.1318  0.3897  0.4617
  873MPD2    C412808   4.570   2.457   0.965  0.6381  0.2533 -0.3737
  873MPD2    C512809   4.485   2.536   1.038  0.4089  0.0051  0.3698
  873MPD2     H12810   0.098   2.428   1.192 -3.2698 -1.3786  4.1638
  873MPD2    H112811   4.539   2.441   0.862 -2.4567  1.3501  0.3583
  873MPD2    H212812   4.462   2.648   1.221 -0.8752 -0.1021  0.5221
  873MPD2    H312813   4.404   2.583   0.983  0.3418 -0.3758  0.1426
  873MPD2     N12814   0.032   2.300   0.960 -0.7492  0.6370  0.5307
  873MPD2    H512815   4.708   2.258   0.880 -1.6825 -0.6718  1.7574
  873MPD2    N112816   4.658   2.613   1.350 -0.4690 -0.6554  0.5056
  873MPD2    H712817   4.586   2.677   1.383  1.5083  0.6258  2.3649
  874MPD2     C12818   0.132   1.501  16.207 -0.0913  0.4664 -0.4584
  874MPD2    C112819   0.219   1.491  16.319 -0.1809  0.2014 -0.2603
  874MPD2    C212820   0.330   1.575  16.327 -0.4781  0.0192 -0.4598
  874MPD2    C312821   0.351   1.665  16.226  0.1438 -0.5369 -0.2913
  874MPD2    C412822   0.263   1.676  16.118 -0.1077 -0.1348  0.4170
  874MPD2    C512823   0.156   1.590  16.111  0.2133  0.2733 -0.5621
  874MPD2     H12824   0.401   1.574  16.409 -0.6084  0.7480 -0.3320
  874MPD2    H112825   0.286   1.746  16.037  1.0383 -0.0812  0.7810
  874MPD2    H212826   0.049   1.432  16.194  0.1909  0.1150 -0.4153
  874MPD2    H312827   0.080   1.593  16.034 -0.9100  3.0113  0.6468
  874MPD2     N12828   0.472   1.737  16.234  0.6808  0.3361  0.5110
  874MPD2    H512829   0.521   1.719  16.321 -0.4366  1.9165  1.4586
  874MPD2    N112830   0.189   1.394  16.420 -0.2663 -0.3108  0.2401
  874MPD2    H712831   0.108   1.334  16.406 -1.7786  1.6318  0.5745
  875MPD2     C12832   1.416   4.661  14.167 -0.0555  0.4479  0.1451
  875MPD2    C112833   1.322   4.720  14.244 -0.1650 -0.0197 -0.2119
  875MPD2    C212834   1.366   0.065  14.360 -0.3729  0.3331 -0.1490
  875MPD2    C312835   1.496   0.070  14.397  0.7094 -0.4699 -0.1830
  875MPD2    C412836   1.593   4.718  14.324 -0.0410  0.6155  0.3840
  875MPD2    C512837   1.552   4.662  14.203 -0.0627 -0.4416  0.2914
  875MPD2     H12838   1.289   0.114  14.419 -1.8023 -1.9728 -0.0869
  875MPD2    H112839   1.698   4.721  14.351 -0.6951 -0.3551  3.0045
  875MPD2    H212840   1.391   4.621  14.069 -1.5202 -2.2195  1.6093
  875MPD2    H312841   1.626   4.613  14.141 -0.6273 -0.7258 -0.1588
  875MPD2     N12842   1.548   0.146  14.509 -0.8021 -0.2332  0.7574
  875MPD2    H512843   1.647   0.137  14.528 -0.5142  0.6805 -0.2904
  875MPD2    N112844   1.185   0.013  14.215  0.1177 -0.2935  0.0341
  875MPD2    H712845   1.130   0.077  14.272 -0.1508  0.3684 -0.9526
  876MPD2     C12846   0.796   1.571  16.018 -0.2784  0.0583  0.0652
  876MPD2    C112847   0.673   1.574  15.951  0.0485  0.5637 -0.1883
  876MPD2    C212848   0.576   1.491  15.995  0.5656  0.6197  0.0184
  876MPD2    C312849   0.584   1.400  16.093  0.1361  0.2715 -0.2761
  876MPD2    C412850   0.712   1.395  16.149  0.6548  0.1436  0.0105
  876MPD2    C512851   0.816   1.480  16.118  0.0927  0.5701  0.1985
  876MPD2     H12852   0.482   1.500  15.942  0.9897 -1.7469 -1.1296
  876MPD2    H112853   0.738   1.324  16.227 -0.4204 -0.5045 -0.2253
  876MPD2    H212854   0.883   1.633  15.997 -1.1895  1.2144 -0.3198
  876MPD2    H312855   0.914   1.478  16.164 -0.0305 -2.2323  0.3426
  876MPD2     N12856   0.482   1.308  16.124 -0.0626  0.7140  0.1551
  876MPD2    H512857   0.394   1.304  16.073  0.5638 -0.7599 -0.8209
  876MPD2    N112858   0.647   1.653  15.833 -0.1229 -0.5269  0.2318
  876MPD2    H712859   0.553   1.638  15.796 -0.9003 -0.4540  2.1390
  877MPD2     C12860   0.193   1.890  15.252 -0.6537  0.3465  0.0114
  877MPD2    C112861   0.313   1.837  15.208  0.3133 -0.8330  0.3024
  877MPD2    C212862   0.330   1.829  15.075 -0.2674 -0.3887  0.2584
  877MPD2    C312863   0.238   1.873  14.981  0.4849 -0.2872  0.3108
  877MPD2    C412864   0.110   1.901  15.028  0.2369 -0.5323 -0.2688
  877MPD2    C512865   0.091   1.912  15.165 -0.4109 -0.5188  0.0608
  877MPD2     H12866   0.429   1.797  15.043 -0.3666 -0.0417 -0.4159
  877MPD2    H112867   0.023   1.918  14.966  1.2416  0.2393 -1.4796
  877MPD2    H212868   0.169   1.911  15.356 -2.2596  0.7052 -0.4302
  877MPD2    H312869   4.717   1.942  15.204  1.0939  1.1008  2.4695
  877MPD2     N12870   0.263   1.866  14.843  0.0193  0.8269  0.1464
  877MPD2    H512871   0.183   1.862  14.781  0.3266 -1.2644 -0.1362
  877MPD2    N112872   0.424   1.812  15.282  0.1135  0.0592  0.1344
  877MPD2    H712873   0.504   1.777  15.230 -1.2319 -0.2924 -1.7278
  878MPD2     C12874   0.174   1.623  13.574  1.0954 -0.1595 -0.3040
  878MPD2    C112875   0.205   1.517  13.495  1.0179  0.3844  0.2975
  878MPD2    C212876   0.193   1.382  13.543 -0.6842 -0.4212  0.3755
  878MPD2    C312877   0.136   1.366  13.663 -0.1405 -0.4724  0.0036
  878MPD2    C412878   0.117   1.475  13.750 -0.3264 -0.5339  0.1899
  878MPD2    C512879   0.136   1.602  13.703 -0.6194 -1.1208 -0.3370
  878MPD2     H12880   0.215   1.295  13.484 -1.8956  0.1387 -0.9080
  878MPD2    H112881   0.110   1.474  13.859  1.3782  0.2933  0.3155
  878MPD2    H212882   0.197   1.723  13.539  1.4336  0.4175  1.5490
  878MPD2    H312883   0.122   1.689  13.766 -1.3986 -1.3402 -0.2079
  878MPD2     N12884   0.122   1.231  13.709  0.4785  1.3492  0.0149
  878MPD2    H512885   0.151   1.160  13.643 -1.3652  1.0082 -0.4033
  878MPD2    N112886   0.252   1.541  13.362 -0.0285 -0.4764 -0.8067
  878MPD2    H712887   0.242   1.636  13.328  2.3429 -0.7016 -2.1025
  879MPD2     C12888   0.389   2.938  16.901  0.2349  0.3258 -0.2140
  879MPD2    C112889   0.454   2.835  16.960 -0.4106  0.2061 -0.7482
  879MPD2    C212890   0.458   2.706  16.892 -0.2102 -0.5349 -0.3941
  879MPD2    C312891   0.398   2.697  16.761 -0.2578 -0.2634  0.3128
  879MPD2    C412892   0.336   2.808  16.704  0.2541 -0.2134  0.2837
  879MPD2    C512893   0.336   2.923  16.777  0.0488  0.1305 -1.0698
  879MPD2     H12894   0.524   2.635  16.940 -0.4523 -0.5099 -0.0204
  879MPD2    H112895   0.296   2.814  16.603 -0.1412  0.1891  0.4674
  879MPD2    H212896   0.366   3.035  16.943  0.6235  0.6324 -0.7118
  879MPD2    H312897   0.284   3.013  16.747 -1.4307 -1.3126 -2.8166
  879MPD2     N12898   0.401   2.578  16.687  0.1835 -0.1253 -0.2605
  879MPD2    H512899   0.373   2.591  16.590 -0.7264  0.5628  0.0932
  879MPD2    N112900   0.514   2.853  17.089  0.3261  0.3974 -0.3566
  879MPD2    H712901   0.517   2.950  17.122 -1.4587  0.2374  0.2596
  880MPD2     C12902   2.050   3.932   0.710 -0.3380 -0.0376 -0.5835
  880MPD2    C112903   1.981   4.025   0.797  0.4413 -0.0872  0.0485
  880MPD2    C212904   1.921   3.988   0.915  0.3705  0.0121  1.0742
  880MPD2    C312905   1.940   3.855   0.952 -0.5655 -0.2111  0.7745
  880MPD2    C412906   1.993   3.765   0.861  0.2318 -0.4727  0.0790
  880MPD2    C512907   2.051   3.806   0.745 -0.0034  0.1169  0.3792
  880MPD2     H12908   1.868   4.054   0.983 -2.4427 -1.4775  0.3210
  880MPD2    H112909   1.996   3.657   0.875  0.1533 -0.4789  0.0466
  880MPD2    H212910   2.100   3.952   0.616  2.1947 -1.1186  0.5194
  880MPD2    H312911   2.105   3.730   0.690  0.8414 -0.7283  2.3650
  880MPD2     N12912   1.867   3.807   1.067  0.0555 -0.2461 -0.1552
  880MPD2    H512913   1.827   3.882   1.124  1.0553  0.1711 -0.0020
  880MPD2    N112914   1.978   4.156   0.739 -0.1750  0.3276  0.1884
  880MPD2    H712915   2.025   4.172   0.651  1.6208 -0.9468  0.9177
  881MPD2     C12916   1.680   0.133   0.053 -0.6226  0.1792 -0.4195
  881MPD2    C112917   1.738   0.009   0.034 -0.4246  0.1580 -0.7743
  881MPD2    C212918   1.765   4.653   0.146 -0.8322 -0.6954 -0.0469
  881MPD2    C312919   1.719   4.699   0.273  0.5561 -0.0628 -0.1322
  881MPD2    C412920   1.640   0.084   0.283  0.8397 -0.4676 -0.1317
  881MPD2    C512921   1.621   0.162   0.172 -0.6884  0.7563  0.1462
  881MPD2     H12922   1.831   4.567   0.140  0.6678  0.3540  1.4820
  881MPD2    H112923   1.600   0.111   0.381  0.3716 -0.6682 -0.2686
  881MPD2    H212924   1.659   0.184  17.652  1.6352 -0.6346 -1.3688
  881MPD2    H312925   1.565   0.254   0.180 -0.3805  0.9817 -0.2545
  881MPD2     N12926   1.752   4.640   0.398  0.4369 -0.3612  0.2100
  881MPD2    H512927   1.718   4.686   0.481  2.0642  1.2885 -0.0502
  881MPD2    N112928   1.784   4.712  17.593  0.7187 -0.4631  0.3190
  881MPD2    H712929   1.776   0.064  17.525  1.0474 -0.2074  0.5556
  882MPD2     C12930   0.094   1.877  14.023 -0.3981  0.3436 -0.3232
  882MPD2    C112931   0.055   1.859  14.150  0.5644  0.2226 -0.6329
  882MPD2    C212932   4.644   1.868  14.190  0.7874 -0.5917 -0.1388
  882MPD2    C312933   4.541   1.890  14.092 -0.7427  0.7241 -0.6966
  882MPD2    C412934   4.581   1.904  13.964 -0.0156 -0.0001 -0.1690
  882MPD2    C512935   4.713   1.892  13.930  0.0698  0.0286 -0.2148
  882MPD2     H12936   4.620   1.846  14.293  1.9570 -0.7670  0.0947
  882MPD2    H112937   4.504   1.926  13.891  2.3331  1.5112 -2.1815
  882MPD2    H212938   0.195   1.877  13.984  0.7873  0.9852  2.7153
  882MPD2    H312939   0.022   1.929  13.833 -0.3722 -1.3157 -0.8656
  882MPD2     N12940   4.410   1.900  14.121 -0.6527  0.2244  0.6297
  882MPD2    H512941   4.349   1.901  14.040  0.9938 -0.8315 -0.6214
  882MPD2    N112942   0.158   1.838  14.241  0.4055  1.1057  0.6054
  882MPD2    H712943   0.247   1.804  14.206 -0.1530  0.0339  0.2280
  883MPD2     C12944   2.416   2.054  17.046 -0.2070  0.9412  0.5768
  883MPD2    C112945   2.463   2.060  16.921  0.2245 -0.3084 -0.5888
  883MPD2    C212946   2.588   2.090  16.892  0.2495  0.6761 -0.3719
  883MPD2    C312947   2.681   2.111  16.990 -0.6974  0.2795  0.1727
  883MPD2    C412948   2.641   2.112  17.118  0.2183  0.3771 -0.1540
  883MPD2    C512949   2.508   2.083  17.149 -0.2546  0.3239 -0.3047
  883MPD2     H12950   2.616   2.077  16.788 -1.0029 -1.9058 -0.3940
  883MPD2    H112951   2.705   2.119  17.205 -0.1425 -1.2791  0.2382
  883MPD2    H212952   2.312   2.039  17.074  0.1972 -1.1180  0.9894
  883MPD2    H312953   2.477   2.083  17.253 -2.0659 -0.0549 -0.8427
  883MPD2     N12954   2.817   2.136  16.948  0.5338 -0.0930  0.4481
  883MPD2    H512955   2.829   2.127  16.848  1.6445  0.7317  0.5096
  883MPD2    N112956   2.388   2.038  16.807  0.1711 -0.3512  0.1046
  883MPD2    H712957   2.425   2.045  16.713 -0.5216 -1.4054 -0.2504
  884MPD2     C12958   4.135   2.427  15.391  0.5821 -0.1914  0.4716
  884MPD2    C112959   4.098   2.503  15.279  0.0714 -0.2016  0.0230
  884MPD2    C212960   3.996   2.601  15.294 -0.1192 -0.3247 -0.2486
  884MPD2    C312961   3.932   2.615  15.412 -0.7659 -0.1923  0.1197
  884MPD2    C412962   3.953   2.533  15.518 -0.1408 -0.0994 -0.2492
  884MPD2    C512963   4.058   2.442  15.508 -0.2964  0.2169  0.3627
  884MPD2     H12964   3.974   2.665  15.209  1.7380  1.4937  0.6507
  884MPD2    H112965   3.902   2.551  15.611 -2.1748  1.2668 -1.6389
  884MPD2    H212966   4.222   2.361  15.391 -0.8642 -2.0966 -1.2207
  884MPD2    H312967   4.092   2.377  15.588  2.5092  0.2649 -0.7982
  884MPD2     N12968   3.841   2.714  15.423  0.5584  0.5921  0.0956
  884MPD2    H512969   3.848   2.796  15.364 -0.1814  0.7339  0.2054
  884MPD2    N112970   4.173   2.482  15.161 -0.0869 -0.4296  0.0572
  884MPD2    H712971   4.245   2.411  15.163 -1.9473 -2.2790  0.9086
  885MPD2     C12972   2.008   2.554   0.033  0.2416 -0.2364  0.3075
  885MPD2    C112973   2.133   2.606   0.036 -0.6223  0.3112 -0.4146
  885MPD2    C212974   2.186   2.647  17.611  0.6381 -0.1885  0.3587
  885MPD2    C312975   2.111   2.667  17.494 -0.1837  0.2190 -0.1142
  885MPD2    C412976   1.983   2.617  17.498  0.8117 -0.4097 -0.0324
  885MPD2    C512977   1.931   2.567  17.612 -0.4235  0.6649  0.4182
  885MPD2     H12978   2.293   2.666  17.608  0.5767  0.1688  0.4108
  885MPD2    H112979   1.922   2.613  17.408  0.2845 -2.1270  0.3847
  885MPD2    H212980   1.962   2.513   0.123 -0.4593  3.3533  1.5844
  885MPD2    H312981   1.830   2.531  17.625 -0.3314 -0.1647 -1.1888
  885MPD2     N12982   2.174   2.711  17.380 -0.1555 -0.2219 -0.6172
  885MPD2    H512983   2.275   2.715  17.390  0.0544 -1.8560 -2.0991
  885MPD2    N112984   2.201   2.589   0.160 -0.3107 -0.1291  0.0582
  885MPD2    H712985   2.149   2.542   0.233  0.5805 -1.8891 -0.4336
  886MPD2     C12986   3.627   1.166  15.819  0.0111  0.6339  0.5752
  886MPD2    C112987   3.702   1.160  15.705  0.3291 -0.6270  0.0195
  886MPD2    C212988   3.693   1.258  15.613 -0.4372  0.0729 -0.2998
  886MPD2    C312989   3.603   1.369  15.633  0.2923 -0.0071  0.1796
  886MPD2    C412990   3.510   1.356  15.735  0.4104  0.7746  0.5996
  886MPD2    C512991   3.528   1.261  15.827 -0.0996 -0.0824  0.0876
  886MPD2     H12992   3.766   1.267  15.533 -1.2816 -0.5987 -1.1409
  886MPD2    H112993   3.434   1.431  15.751 -0.5898 -0.0190 -0.4035
  886MPD2    H212994   3.621   1.085  15.892 -1.8433  1.1394  0.9989
  886MPD2    H312995   3.445   1.252  15.895 -0.3429  1.7790  0.0476
  886MPD2     N12996   3.612   1.464  15.529 -0.1817  0.5790 -0.1322
  886MPD2    H512997   3.682   1.454  15.456 -0.8144  0.1380 -0.6747
  886MPD2    N112998   3.817   1.078  15.702  0.6852  0.1291 -0.3095
  886MPD2    H712999   3.886   1.101  15.631 -1.0267  0.2495 -1.9209
  887MPD2     C13000   4.532   1.169  15.620  0.1704 -0.1227  0.5585
  887MPD2    C113001   4.419   1.194  15.698  0.3703  0.1372  0.5480
  887MPD2    C213002   4.405   1.316  15.764 -0.4173 -0.0267  0.1070
  887MPD2    C313003   4.506   1.415  15.766 -0.0106  0.3477  0.5506
  887MPD2    C413004   4.619   1.373  15.713  0.3249  0.3084  0.7301
  887MPD2    C513005   4.632   1.262  15.638 -0.0925 -0.3861 -0.6304
  887MPD2     H13006   4.315   1.338  15.821  1.3596  1.6658  2.2555
  887MPD2    H113007   4.705   1.439  15.720 -0.0398  0.6646  1.8878
  887MPD2    H213008   4.545   1.076  15.565 -0.4421  1.3396 -2.0369
  887MPD2    H313009   0.006   1.237  15.594  0.5686 -0.4636  0.8711
  887MPD2     N13010   4.500   1.539  15.841  0.3294 -0.2637 -0.0676
  887MPD2    H513011   4.573   1.608  15.823  0.5788 -0.8314 -1.2773
  887MPD2    N113012   4.312   1.099  15.705  0.3291 -0.1168  0.5392
  887MPD2    H713013   4.232   1.136  15.755  0.9806  1.9766  0.0628
  888MPD2     C13014   1.491   1.390  15.156 -0.7280  0.4044 -0.3415
  888MPD2    C113015   1.460   1.460  15.044  0.0391  0.2028 -0.5586
  888MPD2    C213016   1.484   1.597  15.044  0.5197 -0.1137 -0.0445
  888MPD2    C313017   1.548   1.654  15.149  0.0002  0.2794 -0.1371
  888MPD2    C413018   1.565   1.577  15.262 -0.2808 -0.3331 -0.2636
  888MPD2    C513019   1.542   1.448  15.269  0.3136  0.2836  0.4812
  888MPD2     H13020   1.435   1.658  14.969 -1.7030  0.3964  1.8307
  888MPD2    H113021   1.584   1.628  15.356  0.3073 -0.4168 -0.3343
  888MPD2    H213022   1.472   1.284  15.166  1.9490 -0.1330 -0.9652
  888MPD2    H313023   1.554   1.386  15.357  2.0810 -0.9635 -0.6232
  888MPD2     N13024   1.565   1.796  15.142  0.1056 -0.5548  0.2726
  888MPD2    H513025   1.536   1.846  15.059  1.1660 -2.1471 -1.0285
  888MPD2    N113026   1.390   1.403  14.934 -0.1285  0.6624 -0.0234
  888MPD2    H713027   1.392   1.457  14.848  1.0375  1.0148  0.2359
  889MPD2     C13028   0.695   0.643  12.820  0.3745  0.2762  0.3726
  889MPD2    C113029   0.712   0.669  12.953  0.4044 -0.0037  0.1697
  889MPD2    C213030   0.678   0.795  12.992  0.2352  0.5689  0.4992
  889MPD2    C313031   0.661   0.899  12.898  0.5683  0.3882  0.7418
  889MPD2    C413032   0.662   0.880  12.763 -0.2095 -0.5387  0.4276
  889MPD2    C513033   0.676   0.744  12.724 -0.4327  0.0206 -0.4726
  889MPD2     H13034   0.689   0.826  13.095 -1.0143  0.2563  0.7291
  889MPD2    H113035   0.632   0.948  12.684  2.2567 -1.5937 -1.4422
  889MPD2    H213036   0.725   0.549  12.774 -0.0186 -0.3870  1.4693
  889MPD2    H313037   0.660   0.719  12.620  0.3484 -0.8952 -0.3712
  889MPD2     N13038   0.642   1.024  12.957 -0.5700 -0.2202  0.2130
  889MPD2    H513039   0.652   1.021  13.058  0.8249  1.7455  0.1130
  889MPD2    N113040   0.705   0.570  13.057  0.4074  0.0584  0.3727
  889MPD2    H713041   0.719   0.595  13.154 -0.0115  2.1868 -0.1129
  890MPD2     C13042   0.544   2.355  14.672 -0.1458  0.5236 -0.3724
  890MPD2    C113043   0.590   2.452  14.760  0.2359  0.1244  0.5784
  890MPD2    C213044   0.609   2.408  14.889 -0.8061  0.9446  0.2699
  890MPD2    C313045   0.581   2.287  14.934  0.0041 -0.5968  0.0517
  890MPD2    C413046   0.532   2.192  14.847  0.0653 -0.3254 -0.0805
  890MPD2    C513047   0.527   2.228  14.714 -0.7109 -0.7651  0.0473
  890MPD2     H13048   0.657   2.472  14.962  0.8318  0.3107 -0.2579
  890MPD2    H113049   0.498   2.094  14.879 -1.1146  0.4407  1.0226
  890MPD2    H213050   0.536   2.373  14.566  1.1552  0.0216 -0.5522
  890MPD2    H313051   0.498   2.158  14.636 -0.1561 -0.8299 -0.0966
  890MPD2     N13052   0.602   2.241  15.069  0.2987 -0.3453  0.4616
  890MPD2    H513053   0.582   2.145  15.096  0.5022 -0.1821  1.1980
  890MPD2    N113054   0.596   2.589  14.732  0.6102  0.2108  0.6859
  890MPD2    H713055   0.579   2.618  14.636  1.4801 -0.9536  0.1864
  891MPD2     C13056   2.842   0.774  16.617  0.1529 -0.1885 -0.0030
  891MPD2    C113057   2.775   0.849  16.708 -0.6824 -0.4193 -0.1641
  891MPD2    C213058   2.844   0.942  16.789  0.0634 -0.0188 -0.0309
  891MPD2    C313059   2.981   0.942  16.793  0.0530  0.7494 -0.0540
  891MPD2    C413060   3.049   0.869  16.691 -0.1481  0.0778  0.3392
  891MPD2    C513061   2.977   0.792  16.604  0.1553 -0.1694 -0.6678
  891MPD2     H13062   2.791   0.990  16.871 -2.1811  0.0309 -1.5251
  891MPD2    H113063   3.156   0.868  16.673  0.0948  0.2089  1.7369
  891MPD2    H213064   2.791   0.711  16.545 -0.9850  1.7886 -0.9449
  891MPD2    H313065   3.023   0.742  16.520 -3.8061 -3.0388 -1.1054
  891MPD2     N13066   3.048   1.019  16.893 -0.0228  0.6946 -0.3258
  891MPD2    H513067   2.997   1.081  16.954 -1.4654 -0.3253 -0.5045
  891MPD2    N113068   2.630   0.819  16.709 -0.9220 -0.0790  1.1300
  891MPD2    H713069   2.595   0.740  16.655 -1.6375  1.5238 -0.7533
  892MPD2     C13070   4.051   2.098  15.045  0.0103 -0.1521  0.6037
  892MPD2    C113071   3.973   2.161  14.951  0.1650  0.7460  0.2274
  892MPD2    C213072   3.983   2.128  14.816  0.0291  0.2748  0.0399
  892MPD2    C313073   4.066   2.023  14.780  0.3337 -0.6694  0.0301
  892MPD2    C413074   4.142   1.956  14.873 -0.3962 -0.0381 -0.0590
  892MPD2    C513075   4.141   1.999  15.003  0.1461  0.2029 -0.3286
  892MPD2     H13076   3.924   2.179  14.740 -0.6788  0.1590  0.5182
  892MPD2    H113077   4.219   1.888  14.839  0.3610  1.7929 -2.0233
  892MPD2    H213078   4.044   2.122  15.151 -1.6156  1.6943  0.0717
  892MPD2    H313079   4.198   1.945  15.077 -0.4148  1.2548  0.8666
  892MPD2     N13080   4.075   1.977  14.640 -0.0994  0.1834  0.7704
  892MPD2    H513081   4.137   1.901  14.613 -0.2674 -0.4886  2.2708
  892MPD2    N113082   3.875   2.251  14.991  0.1184 -0.4026 -0.1721
  892MPD2    H713083   3.814   2.289  14.919  3.2282 -0.5202 -2.8883
  893MPD2     C13084   2.254   0.558   1.799  0.2632  0.0789 -0.2551
  893MPD2    C113085   2.382   0.548   1.850 -0.5432 -0.1771 -0.0017
  893MPD2    C213086   2.429   0.433   1.905 -0.0925  0.1173  1.0833
  893MPD2    C313087   2.347   0.326   1.916  0.5779 -0.3619  0.7817
  893MPD2    C413088   2.212   0.334   1.887 -0.8043 -0.2016 -0.2729
  893MPD2    C513089   2.167   0.445   1.822 -0.9423 -0.2668  0.7502
  893MPD2     H13090   2.532   0.429   1.937  0.2454 -0.5959 -0.1135
  893MPD2    H113091   2.142   0.251   1.894 -0.1055 -0.6800  1.0828
  893MPD2    H213092   2.211   0.641   1.743  1.1723 -0.4627 -1.7717
  893MPD2    H313093   2.067   0.455   1.782 -1.0703 -2.7987  0.4419
  893MPD2     N13094   2.382   0.202   1.968  0.2247 -0.5018  0.2023
  893MPD2    H513095   2.317   0.124   1.969 -0.5205  0.1309  0.6576
  893MPD2    N113096   2.448   0.672   1.842  0.3436 -0.4274  0.4125
  893MPD2    H713097   2.409   0.754   1.795  1.6146  1.2529  2.3086
  894MPD2     C13098   3.582   3.337   1.033  0.0607 -0.8657  0.2914
  894MPD2    C113099   3.700   3.356   1.103 -0.2944  0.3010  0.1723
  894MPD2    C213100   3.784   3.464   1.079  0.5010 -0.0203 -0.4999
  894MPD2    C313101   3.739   3.558   0.989  0.5065 -0.0419  0.4563
  894MPD2    C413102   3.618   3.543   0.923  0.0577  0.1690  0.4903
  894MPD2    C513103   3.540   3.433   0.946 -0.1825 -0.2956  0.1008
  894MPD2     H13104   3.879   3.476   1.129  0.0922 -1.5305  0.6193
  894MPD2    H113105   3.579   3.615   0.852  1.1590 -0.1130 -0.3896
  894MPD2    H213106   3.531   3.243   1.046 -2.1278  0.3879  0.6873
  894MPD2    H313107   3.444   3.420   0.898 -0.2567 -1.6558  0.6253
  894MPD2     N13108   3.829   3.660   0.953  0.7014 -0.0555  0.1752
  894MPD2    H513109   3.921   3.664   0.995  0.8900 -0.5799 -0.1794
  894MPD2    N113110   3.735   3.265   1.202 -0.3349 -0.2182  0.2491
  894MPD2    H713111   3.831   3.274   1.234 -0.0061 -0.1507 -0.7509
  895MPD2     C13112   2.765   1.255  13.816 -0.4325  0.1127 -0.8153
  895MPD2    C113113   2.727   1.334  13.712  0.0406  0.5156 -0.2905
  895MPD2    C213114   2.821   1.410  13.644  0.5058 -0.1884  0.1783
  895MPD2    C313115   2.957   1.395  13.663 -0.2440  0.8935 -0.3339
  895MPD2    C413116   2.996   1.301  13.756  0.9209  0.6074  0.7260
  895MPD2    C513117   2.899   1.254  13.843 -0.1118 -0.3897 -0.5427
  895MPD2     H13118   2.780   1.465  13.560 -0.2665 -1.9318 -0.5790
  895MPD2    H113119   3.100   1.273  13.768  0.9811  0.3226 -0.4974
  895MPD2    H213120   2.688   1.205  13.874 -0.1926 -0.5182 -1.0332
  895MPD2    H313121   2.923   1.182  13.920 -1.1345  0.2110  0.3240
  895MPD2     N13122   3.058   1.442  13.581  0.0819  0.0505  0.0848
  895MPD2    H513123   3.142   1.386  13.571  0.0093 -0.2613  1.2004
  895MPD2    N113124   2.601   1.352  13.663 -0.6753 -0.2923 -0.2350
  895MPD2    H713125   2.577   1.420  13.592  1.6788  0.5686 -0.2141
  896MPD2     C13126   0.428   3.967   1.846 -0.2470  0.5121  0.0053
  896MPD2    C113127   0.482   3.893   1.748 -0.2162  0.1293  0.3108
  896MPD2    C213128   0.394   3.880   1.643  0.1098 -0.6580  0.1085
  896MPD2    C313129   0.268   3.932   1.635  0.1539 -0.4319 -0.5937
  896MPD2    C413130   0.215   3.995   1.753  0.0844 -0.5771 -0.4728
  896MPD2    C513131   0.300   4.013   1.862 -0.3868  0.1076 -0.0052
  896MPD2     H13132   0.425   3.823   1.556 -0.0129 -0.2125 -0.2280
  896MPD2    H113133   0.119   4.044   1.758 -0.3248 -1.4733  0.6173
  896MPD2    H213134   0.479   3.971   1.942 -2.2003  0.5880  1.0412
  896MPD2    H313135   0.267   4.082   1.939 -1.0242  0.2708 -0.4175
  896MPD2     N13136   0.206   3.948   1.511  0.1477 -0.5068 -0.2285
  896MPD2    H513137   0.256   3.911   1.430  1.4446 -1.2990  0.9322
  896MPD2    N113138   0.613   3.834   1.754  0.1290  0.6246  0.3868
  896MPD2    H713139   0.653   3.832   1.847 -0.8634  0.7251  0.8174
  897MPD2     C13140   1.235   1.040  10.712 -0.1105  0.0539 -0.5708
  897MPD2    C113141   1.282   0.959  10.606 -0.2569  0.0113  0.6537
  897MPD2    C213142   1.188   0.885  10.534 -0.4163  0.2023 -0.3091
  897MPD2    C313143   1.051   0.890  10.562  0.3666 -0.7312  0.0381
  897MPD2    C413144   1.010   0.954  10.675 -0.4443  0.4994  0.0230
  897MPD2    C513145   1.105   1.025  10.743  0.0675 -0.2059  0.2458
  897MPD2     H13146   1.215   0.846  10.436  0.4855 -1.5381  0.6488
  897MPD2    H113147   0.908   0.948  10.711 -0.8531  0.5573 -1.1525
  897MPD2    H213148   1.297   1.111  10.765 -1.9961  1.4994 -0.2937
  897MPD2    H313149   1.072   1.075  10.834  1.0155 -0.2861  0.6370
  897MPD2     N13150   0.966   0.797  10.498 -0.0160 -0.1849 -1.0391
  897MPD2    H513151   1.014   0.737  10.432  1.2717 -1.1470  0.7612
  897MPD2    N113152   1.418   0.979  10.560  0.6010 -0.1884  0.1330
  897MPD2    H713153   1.474   1.054  10.598 -0.5324  0.2581  0.9138
  898MPD2     C13154   3.601   1.601   0.580 -0.1655  0.0857  0.1775
  898MPD2    C113155   3.722   1.652   0.524 -0.1854 -0.2738  0.6106
  898MPD2    C213156   3.720   1.722   0.405  0.1738 -0.5156  0.1060
  898MPD2    C313157   3.603   1.760   0.347 -0.1908  0.1851  0.3105
  898MPD2    C413158   3.483   1.721   0.406  0.2699 -0.0704 -0.2237
  898MPD2    C513159   3.486   1.637   0.515 -0.7531 -0.2022 -0.2246
  898MPD2     H13160   3.813   1.750   0.356  0.4878 -1.5630  0.1052
  898MPD2    H113161   3.384   1.734   0.364  0.2621 -0.7344 -0.4235
  898MPD2    H213162   3.593   1.541   0.671 -0.8354  0.3416  0.2879
  898MPD2    H313163   3.392   1.599   0.554 -0.5987  0.8429  1.1391
  898MPD2     N13164   3.601   1.832   0.225 -0.0047 -0.2183 -0.2584
  898MPD2    H513165   3.688   1.851   0.176  0.4979  0.5940  0.9533
  898MPD2    N113166   3.842   1.621   0.576 -0.5171 -0.2099  0.0164
  898MPD2    H713167   3.923   1.659   0.528 -2.0504  2.6374 -0.3325
  899MPD2     C13168   4.418   2.280  17.266  0.5242 -0.1001 -0.2060
  899MPD2    C113169   4.457   2.392  17.331  0.1132 -0.4694 -0.6251
  899MPD2    C213170   4.415   2.412  17.464  1.0869 -0.8180 -0.3866
  899MPD2    C313171   4.331   2.332  17.533  0.4549 -0.1118  0.0409
  899MPD2    C413172   4.291   2.218  17.459 -0.2235  0.1314 -1.1979
  899MPD2    C513173   4.332   2.193  17.331 -0.3811 -0.1823  0.5462
  899MPD2     H13174   4.437   2.506  17.514  0.7348 -1.7506  1.5127
  899MPD2    H113175   4.237   2.132  17.496  0.4685  0.9180  1.6186
  899MPD2    H213176   4.438   2.264  17.161  1.1368  0.1488 -0.1311
  899MPD2    H313177   4.315   2.099  17.279 -0.8396  0.2147 -0.0207
  899MPD2     N13178   4.273   2.354  17.656 -0.2920 -0.0750 -0.3844
  899MPD2    H513179   4.195   2.292  17.673  1.1007 -0.9574  2.6730
  899MPD2    N113180   4.546   2.476  17.270  0.6884 -0.1709 -0.4498
  899MPD2    H713181   4.559   2.464  17.170 -1.0521 -1.8379 -0.4892
  900MPD2     C13182   4.283   4.097  12.465 -0.1629 -0.6575  0.4699
  900MPD2    C113183   4.180   4.003  12.444 -0.2894  0.4385 -0.9510
  900MPD2    C213184   4.062   4.040  12.389 -0.1884  0.5368  0.6068
  900MPD2    C313185   4.043   4.170  12.356  0.0906  0.0840  0.2383
  900MPD2    C413186   4.139   4.269  12.391 -0.8470  0.4874  0.4539
  900MPD2    C513187   4.254   4.232  12.449  0.6939 -0.4662 -0.2249
  900MPD2     H13188   3.995   3.958  12.364 -0.1756  1.3679 -2.1091
  900MPD2    H113189   4.132   4.378  12.389 -2.1889  0.3856 -0.4699
  900MPD2    H213190   4.382   4.076  12.505  0.4744  1.7878  0.1850
  900MPD2    H313191   4.331   4.307  12.467  0.2023  0.2234 -1.0054
  900MPD2     N13192   3.929   4.203  12.284  0.0212 -0.0150 -0.2213
  900MPD2    H513193   3.883   4.129  12.233 -1.2435 -0.4849  1.5877
  900MPD2    N113194   4.217   3.868  12.447  0.0794 -0.3135 -0.7506
  900MPD2    H713195   4.316   3.846  12.453 -0.1256 -0.9954  0.2518
  901MPD2     C13196   4.226   2.915  12.930 -0.0271 -0.2312  0.4184
  901MPD2    C113197   4.266   2.892  12.799 -0.6554  0.0194  0.4127
  901MPD2    C213198   4.294   2.993  12.712  0.4133 -0.3322  0.5530
  901MPD2    C313199   4.280   3.123  12.754  0.3463 -0.1158  0.2994
  901MPD2    C413200   4.233   3.148  12.883 -0.3980  0.1438 -0.0580
  901MPD2    C513201   4.213   3.045  12.970 -0.8015  0.1443  0.6116
  901MPD2     H13202   4.324   2.968  12.611  0.3881  0.7802  0.2776
  901MPD2    H113203   4.219   3.251  12.913  1.1025  0.9691 -2.1859
  901MPD2    H213204   4.204   2.837  13.002  0.3633  0.7425  1.6023
  901MPD2    H313205   4.195   3.063  13.075  2.2193  1.1284  0.9605
  901MPD2     N13206   4.286   3.226  12.650 -0.3558  0.2502  0.2998
  901MPD2    H513207   4.319   3.205  12.556 -0.5915 -0.1492  0.3071
  901MPD2    N113208   4.287   2.758  12.773  0.4600 -0.3727  0.1144
  901MPD2    H713209   4.274   2.686  12.843 -0.4329  0.3366  0.6667
  902MPD2     C13210   2.742   1.639  12.920 -0.8172  0.0295  0.1287
  902MPD2    C113211   2.778   1.729  12.824 -0.3054 -0.1315 -0.1805
  902MPD2    C213212   2.819   1.685  12.705 -0.0395  0.1631  0.4280
  902MPD2    C313213   2.828   1.553  12.680 -0.5593 -0.2162 -0.7809
  902MPD2    C413214   2.787   1.458  12.762 -0.0164  0.7592 -0.4091
  902MPD2    C513215   2.747   1.504  12.886 -0.1139 -0.0828 -0.1978
  902MPD2     H13216   2.849   1.759  12.632  0.0549 -1.0126 -0.7297
  902MPD2    H113217   2.788   1.351  12.742  0.2371  0.8160 -0.7008
  902MPD2    H213218   2.709   1.665  13.020 -1.0936  2.3266 -0.5642
  902MPD2    H313219   2.700   1.432  12.951  0.6588 -0.1216  0.3160
  902MPD2     N13220   2.884   1.509  12.564 -0.0056 -0.3261  0.7019
  902MPD2    H513221   2.871   1.411  12.540  0.6782  0.0966 -1.4562
  902MPD2    N113222   2.781   1.866  12.849  1.0438 -0.3286 -0.0247
  902MPD2    H713223   2.800   1.922  12.766 -1.3170 -0.5081 -0.6792
  903MPD2     C13224   3.098   1.886  11.880  0.1271 -0.1577 -0.0924
  903MPD2    C113225   2.993   1.829  11.945 -0.4260 -0.1262  0.3000
  903MPD2    C213226   2.865   1.863  11.913 -0.5371  0.0338  0.0010
  903MPD2    C313227   2.841   1.959  11.810 -0.1086 -0.3349  0.4912
  903MPD2    C413228   2.946   2.016  11.739  0.6413  0.7279 -0.4210
  903MPD2    C513229   3.071   1.977  11.778 -0.0799 -0.5283 -0.0813
  903MPD2     H13230   2.786   1.829  11.979  0.1254 -0.3056  0.6160
  903MPD2    H113231   2.940   2.081  11.652  0.6584  1.2952  0.0076
  903MPD2    H213232   3.200   1.863  11.909 -0.2584 -1.2126  0.4050
  903MPD2    H313233   3.163   1.994  11.722  0.2250 -1.2407  0.1970
  903MPD2     N13234   2.707   1.988  11.787  1.0079  0.3593  0.4650
  903MPD2    H513235   2.634   1.947  11.844  2.6954  0.6059  2.7643
  903MPD2    N113236   3.017   1.736  12.045  0.3675 -0.4385  0.4951
  903MPD2    H713237   2.941   1.705  12.105  0.2333 -0.4469  0.3215
  904MPD2     C13238   3.405   0.869  13.557 -0.1354  0.1001  0.3995
  904MPD2    C113239   3.341   0.915  13.669 -0.1812 -0.5527  0.2979
  904MPD2    C213240   3.426   0.983  13.759  0.5587  0.9176  0.2734
  904MPD2    C313241   3.562   0.994  13.744 -0.3164  0.4256  0.5650
  904MPD2    C413242   3.624   0.940  13.635  0.7425  0.1975  0.4651
  904MPD2    C513243   3.541   0.873  13.545 -0.6345 -0.1690  0.1843
  904MPD2     H13244   3.379   1.034  13.842  2.3084 -0.2668  2.0093
  904MPD2    H113245   3.729   0.951  13.610  0.9801 -1.2207  0.8347
  904MPD2    H213246   3.353   0.823  13.473  0.1180 -0.1333  0.3694
  904MPD2    H313247   3.584   0.817  13.463 -2.0990 -1.4531  0.3058
  904MPD2     N13248   3.633   1.067  13.851 -0.0994  0.0771  0.0897
  904MPD2    H513249   3.574   1.096  13.927 -0.4904 -2.1329  0.6265
  904MPD2    N113250   3.197   0.901  13.692  0.4213 -0.3403  0.0051
  904MPD2    H713251   3.155   0.937  13.777 -1.0795 -0.8080 -0.5359
  905MPD2     C13252   2.558   1.181  13.320  0.1840 -0.4449 -0.3267
  905MPD2    C113253   2.692   1.150  13.334  0.0656 -0.4676  0.1456
  905MPD2    C213254   2.790   1.243  13.289  0.2857 -0.5149 -0.6826
  905MPD2    C313255   2.748   1.366  13.240  0.5629 -0.2882  0.0448
  905MPD2    C413256   2.618   1.401  13.249 -0.3462 -0.4693  0.2497
  905MPD2    C513257   2.520   1.308  13.279  0.2841 -0.3155  0.5530
  905MPD2     H13258   2.892   1.219  13.314  0.2809  0.6380  0.4382
  905MPD2    H113259   2.582   1.502  13.235 -0.7806 -0.8109 -1.0704
  905MPD2    H213260   2.471   1.122  13.348 -0.5986 -0.7168 -3.2886
  905MPD2    H313261   2.416   1.338  13.282  0.1467 -0.8786  1.4183
  905MPD2     N13262   2.839   1.461  13.199 -0.1783  0.1152  0.5151
  905MPD2    H513263   2.816   1.557  13.221 -1.5371  0.1023 -0.9199
  905MPD2    N113264   2.743   1.049  13.412 -0.4502 -0.4051 -0.2429
  905MPD2    H713265   2.843   1.061  13.424 -0.1311  0.2163 -3.6967
  906MPD2     C13266   0.094   0.481  11.306  0.1895  0.4798 -0.2345
  906MPD2    C113267   4.691   0.540  11.312 -0.0460  0.1018 -0.2915
  906MPD2    C213268   4.649   0.599  11.437 -0.0178 -0.6007  0.4752
  906MPD2    C313269   0.026   0.612  11.537  0.2386 -1.1067 -0.7473
  906MPD2    C413270   0.151   0.562  11.520 -0.1534  1.1132  0.1869
  906MPD2    C513271   0.186   0.496  11.408 -0.4908 -0.5596 -0.8215
  906MPD2     H13272   4.546   0.632  11.445 -0.2487 -1.1171 -0.2962
  906MPD2    H113273   0.227   0.564  11.597 -1.5109  0.8413  1.5366
  906MPD2    H213274   0.129   0.431  11.216  0.6393  2.5760 -1.2203
  906MPD2    H313275   0.282   0.447  11.402 -0.4676 -0.7418  1.1023
  906MPD2     N13276   4.716   0.659  11.665 -0.3409 -0.1314  0.4693
  906MPD2    H513277   0.058   0.651  11.743  0.5564 -2.3049 -0.5029
  906MPD2    N113278   4.603   0.534  11.207  0.2545 -0.2801  0.1473
  906MPD2    H713279   4.523   0.595  11.215  0.2802 -0.1109 -0.8102
  907MPD2     C13280   4.367   0.255  15.592  0.1804  0.3741  0.0620
  907MPD2    C113281   4.371   0.118  15.604  0.0299 -0.3992  0.3442
  907MPD2    C213282   4.413   0.072  15.727  0.0144  0.7409  0.1111
  907MPD2    C313283   4.460   0.158  15.826  0.3300 -0.3288  0.2323
  907MPD2    C413284   4.469   0.298  15.805 -0.4136  0.3182  0.1199
  907MPD2    C513285   4.417   0.340  15.690  0.3332  0.1680  0.2002
  907MPD2     H13286   4.409   4.689  15.751 -0.5501  1.3340  2.6867
  907MPD2    H113287   4.513   0.372  15.871  1.6075 -0.9451  0.1996
  907MPD2    H213288   4.332   0.302  15.501 -1.4521 -0.6514  0.1685
  907MPD2    H313289   4.432   0.440  15.652  0.8574 -0.3022 -0.8338
  907MPD2     N13290   4.505   0.110  15.957  0.4940  0.5645  0.5399
  907MPD2    H513291   4.525   0.184  16.024  1.1190 -0.8139  1.8581
  907MPD2    N113292   4.337   0.025  15.504 -0.9254 -0.0655  0.4211
  907MPD2    H713293   4.328   4.652  15.535  1.4090 -0.9625 -1.6267
  908MPD2     C13294   1.298   0.780   9.630 -0.9337 -0.2473  0.0135
  908MPD2    C113295   1.387   0.697   9.697  0.0565 -0.5741 -0.5204
  908MPD2    C213296   1.457   0.739   9.808  0.2767  0.1558  0.0577
  908MPD2    C313297   1.452   0.875   9.843 -0.0224 -0.4304 -0.7664
  908MPD2    C413298   1.360   0.959   9.780  0.1613 -0.1790 -0.0706
  908MPD2    C513299   1.294   0.915   9.667  0.1526 -0.4350 -0.4238
  908MPD2     H13300   1.512   0.664   9.865 -2.5002 -2.6585 -0.9680
  908MPD2    H113301   1.349   1.061   9.816  0.9963 -0.0060 -0.3026
  908MPD2    H213302   1.238   0.756   9.543  0.8483  0.2466 -1.3588
  908MPD2    H313303   1.238   0.985   9.607 -0.3754 -0.3565  0.1608
  908MPD2     N13304   1.511   0.912   9.968 -0.4581  0.1190 -0.2036
  908MPD2    H513305   1.577   0.850  10.014 -0.7070 -0.3678 -0.5022
  908MPD2    N113306   1.380   0.557   9.666  0.6353 -0.1772  0.2247
  908MPD2    H713307   1.299   0.530   9.610  0.4314 -1.3025  1.0677
  909MPD2     C13308   2.083   3.140  11.849 -0.4127  0.7546 -0.0538
  909MPD2    C113309   2.036   3.237  11.770 -0.0662 -0.6299  0.3129
  909MPD2    C213310   1.939   3.316  11.824  0.6599  0.1627  0.0183
  909MPD2    C313311   1.888   3.291  11.949 -0.3111 -0.5209 -0.6552
  909MPD2    C413312   1.933   3.191  12.027  0.0367 -0.2591  0.7643
  909MPD2    C513313   2.034   3.119  11.973  0.3885  0.2012 -0.3586
  909MPD2     H13314   1.899   3.402  11.773  1.5056  0.3407 -0.3304
  909MPD2    H113315   1.901   3.170  12.129  2.3500 -1.2677  1.2857
  909MPD2    H213316   2.159   3.069  11.818 -0.1857  1.4887 -1.1825
  909MPD2    H313317   2.085   3.041  12.028  1.9954  2.0055  0.7182
  909MPD2     N13318   1.798   3.388  11.988 -0.7735 -0.0186 -0.1699
  909MPD2    H513319   1.799   3.474  11.934  1.9345 -0.0454 -0.1881
  909MPD2    N113320   2.084   3.262  11.643  0.2647  0.4872 -0.0006
  909MPD2    H713321   2.050   3.346  11.598 -1.7474  0.3992  1.3501
  910MPD2     C13322   3.156   0.579  16.225 -0.2137 -0.0783  0.1808
  910MPD2    C113323   3.262   0.564  16.140 -0.1049  0.0643  0.1057
  910MPD2    C213324   3.233   0.576  16.003 -0.3152  0.3821 -0.2694
  910MPD2    C313325   3.097   0.598  15.963 -0.3174  0.1300 -0.0286
  910MPD2    C413326   2.997   0.602  16.057  0.1228  0.7863  0.0209
  910MPD2    C513327   3.028   0.585  16.188  0.2819 -0.5792  0.2433
  910MPD2     H13328   3.316   0.568  15.935 -0.5721  1.1443 -0.6706
  910MPD2    H113329   2.895   0.618  16.024  0.1641 -0.6062 -0.8026
  910MPD2    H213330   3.171   0.568  16.332  0.3042 -0.1784  0.1008
  910MPD2    H313331   2.949   0.599  16.261 -0.8618 -0.4097 -1.0420
  910MPD2     N13332   3.061   0.612  15.823 -0.1026  0.3662  0.1946
  910MPD2    H513333   2.967   0.644  15.801  0.1349  2.2012  1.8241
  910MPD2    N113334   3.406   0.559  16.183  0.4213  0.1039 -0.2844
  910MPD2    H713335   3.470   0.526  16.111  2.4139  0.9968  1.0836
  911MPD2     C13336   1.277   1.572  16.226 -0.0331 -0.1142  0.1716
  911MPD2    C113337   1.298   1.469  16.136  0.2963  0.3423 -0.3571
  911MPD2    C213338   1.237   1.475  16.014 -0.7193  0.3454 -0.4719
  911MPD2    C313339   1.161   1.584  15.977 -0.2996  0.0573  0.4083
  911MPD2    C413340   1.153   1.692  16.064 -0.2781 -0.3175  0.1136
  911MPD2    C513341   1.208   1.685  16.185  0.2842 -0.2119  0.4679
  911MPD2     H13342   1.243   1.392  15.945  2.0079 -1.3907  1.8618
  911MPD2    H113343   1.105   1.784  16.033  0.1756 -0.1887 -0.2180
  911MPD2    H213344   1.330   1.577  16.321  2.2442  2.0414 -1.2041
  911MPD2    H313345   1.210   1.777  16.243 -0.7831 -0.4060  0.8118
  911MPD2     N13346   1.101   1.594  15.841  0.0408 -0.3617 -0.0406
  911MPD2    H513347   1.021   1.655  15.829  0.5180  0.1279 -0.7776
  911MPD2    N113348   1.373   1.360  16.188 -0.1688 -0.1585  0.5172
  911MPD2    H713349   1.392   1.360  16.287 -0.6529 -0.9258  0.6146
  912MPD2     C13350   0.591   0.984  15.607 -0.3211  0.3785  0.1079
  912MPD2    C113351   0.682   1.061  15.683  0.3327  0.0811  0.7116
  912MPD2    C213352   0.698   1.031  15.818 -0.3210 -0.4664 -0.2431
  912MPD2    C313353   0.621   0.933  15.876 -0.9291  0.5556  0.0691
  912MPD2    C413354   0.534   0.861  15.804  0.0364 -0.2130 -0.1294
  912MPD2    C513355   0.518   0.887  15.671 -0.2964 -0.1492 -0.1861
  912MPD2     H13356   0.757   1.089  15.887  1.4005 -1.6234 -0.7466
  912MPD2    H113357   0.470   0.787  15.853 -0.3799 -0.4320 -1.0030
  912MPD2    H213358   0.586   1.002  15.500 -2.1581  1.0265  0.3102
  912MPD2    H313359   0.444   0.831  15.615  0.8306 -0.7025 -1.1302
  912MPD2     N13360   0.648   0.909  16.012 -0.2771 -0.0173 -0.4317
  912MPD2    H513361   0.717   0.973  16.051  0.0217 -0.5597 -0.0647
  912MPD2    N113362   0.759   1.163  15.616  0.0411  0.9514 -0.2038
  912MPD2    H713363   0.755   1.171  15.514  2.9558 -1.8463 -0.5161
  913MPD2     C13364   1.711   2.553  10.878 -0.4607  0.7574 -0.5486
  913MPD2    C113365   1.675   2.430  10.826  0.5470 -0.0047 -0.7552
  913MPD2    C213366   1.633   2.424  10.695 -0.4010  0.6878  0.0012
  913MPD2    C313367   1.622   2.545  10.615 -0.2303  0.8667 -0.2359
  913MPD2    C413368   1.673   2.665  10.670  0.0193 -0.3686 -0.5263
  913MPD2    C513369   1.716   2.668  10.797  0.6863  0.4531  0.3524
  913MPD2     H13370   1.607   2.330  10.647 -3.6833  0.1904  2.7342
  913MPD2    H113371   1.683   2.753  10.607  0.1258 -0.4817 -0.6682
  913MPD2    H213372   1.750   2.554  10.979  1.2546  0.0188 -1.2138
  913MPD2    H313373   1.763   2.754  10.844  1.9897 -1.1968  2.0709
  913MPD2     N13374   1.575   2.544  10.481 -0.4441  0.0263  0.5172
  913MPD2    H513375   1.563   2.635  10.438  0.4979 -0.0247  0.1543
  913MPD2    N113376   1.695   2.315  10.907 -0.1814  0.1057 -0.4567
  913MPD2    H713377   1.715   2.325  11.006  2.0247 -1.0305 -0.8060
  914MPD2     C13378   4.119   2.165  12.005 -0.5733 -0.0897  0.3883
  914MPD2    C113379   4.212   2.263  11.989 -0.1467  0.1973  0.1420
  914MPD2    C213380   4.277   2.296  12.103 -0.6726 -0.0907 -0.4233
  914MPD2    C313381   4.250   2.246  12.226 -0.6744 -0.6098  0.2014
  914MPD2    C413382   4.147   2.154  12.237  1.0554 -0.2580  0.1977
  914MPD2    C513383   4.089   2.107  12.124 -0.9639 -0.2737  0.1236
  914MPD2     H13384   4.340   2.384  12.100 -0.5078 -0.1796  0.4556
  914MPD2    H113385   4.117   2.112  12.332 -0.8640 -0.0386 -0.3084
  914MPD2    H213386   4.059   2.138  11.919  0.3900  0.1850 -0.3684
  914MPD2    H313387   3.999   2.046  12.123  0.5912 -2.5988  2.2143
  914MPD2     N13388   4.306   2.300  12.341 -0.3034 -0.0885  0.5461
  914MPD2    H513389   4.347   2.392  12.329 -1.2274  0.4927  1.9442
  914MPD2    N113390   4.240   2.302  11.857 -0.4679  0.0437 -0.4290
  914MPD2    H713391   4.201   2.254  11.776  0.2948  0.7409 -1.2249
  915MPD2     C13392   2.726   2.583  15.632  0.5927  0.3360  0.2866
  915MPD2    C113393   2.615   2.658  15.592  0.4151 -0.5859  0.9299
  915MPD2    C213394   2.542   2.713  15.697 -0.2065 -0.0849  0.2436
  915MPD2    C313395   2.579   2.704  15.831 -0.2089 -0.4590 -0.1060
  915MPD2    C413396   2.693   2.632  15.864 -0.6451  0.5835  0.6588
  915MPD2    C513397   2.777   2.572  15.760  0.1023  0.6163 -0.0136
  915MPD2     H13398   2.452   2.769  15.673  0.3535 -0.9256 -3.8094
  915MPD2    H113399   2.726   2.637  15.967 -0.3428  0.0483  0.5855
  915MPD2    H213400   2.786   2.539  15.553  0.7814  0.2382  0.4852
  915MPD2    H313401   2.862   2.509  15.780 -0.3649 -0.9115 -2.9258
  915MPD2     N13402   2.492   2.746  15.935  0.1868 -0.0142 -0.2388
  915MPD2    H513403   2.424   2.811  15.897 -0.4638 -1.0514 -0.8405
  915MPD2    N113404   2.589   2.662  15.457  0.4825 -0.0856 -0.2276
  915MPD2    H713405   2.639   2.598  15.396 -0.1737  1.3908 -2.3189
  916MPD2     C13406   0.089   0.951  15.737 -0.1936 -0.4064  0.6201
  916MPD2    C113407   0.132   0.870  15.839 -0.3007 -0.2290  0.3647
  916MPD2    C213408   0.129   0.730  15.825 -0.9497 -0.7346 -0.1056
  916MPD2    C313409   0.074   0.668  15.719  0.0490  0.5409 -0.0282
  916MPD2    C413410   0.027   0.748  15.621 -0.0696  0.3052 -0.7371
  916MPD2    C513411   0.037   0.885  15.629  0.3811 -0.0901 -0.2426
  916MPD2     H13412   0.161   0.666  15.907  0.3302 -0.6230 -0.5124
  916MPD2    H113413   4.701   0.722  15.527 -2.5859  0.0400  0.6560
  916MPD2    H213414   0.089   1.059  15.743  2.0203 -0.3395 -0.9268
  916MPD2    H313415   4.720   0.950  15.552  0.0991  1.8152  1.4719
  916MPD2     N13416   0.077   0.527  15.708 -0.2129 -0.3051  0.4392
  916MPD2    H513417   0.102   0.473  15.791  0.2361  0.8274  1.0299
  916MPD2    N113418   0.178   0.940  15.955  0.3667  0.0153  0.0533
  916MPD2    H713419   0.191   1.039  15.938  1.1094  0.0411  0.7735
  917MPD2     C13420   0.780   3.213  10.817 -0.2912 -0.4243  0.0086
  917MPD2    C113421   0.855   3.269  10.915 -0.3902  0.2142  0.1171
  917MPD2    C213422   0.947   3.364  10.881  0.2949 -0.4369  0.4496
  917MPD2    C313423   0.974   3.398  10.747 -0.3574 -1.6783  0.6694
  917MPD2    C413424   0.900   3.343  10.655 -0.2066 -0.0915  0.3234
  917MPD2    C513425   0.800   3.252  10.688  1.0261 -0.5301  0.5967
  917MPD2     H13426   1.005   3.409  10.961 -0.4902 -0.7391  1.1937
  917MPD2    H113427   0.917   3.367  10.551 -1.3575 -1.4832 -0.1907
  917MPD2    H213428   0.715   3.131  10.842 -2.6494  1.3815 -0.2428
  917MPD2    H313429   0.745   3.210  10.605  0.4729 -0.1440  0.7616
  917MPD2     N13430   1.059   3.503  10.702 -0.5452 -0.3623  0.0721
  917MPD2    H513431   1.054   3.530  10.604 -0.7863  2.1802  0.7787
  917MPD2    N113432   0.849   3.209  11.045 -0.1651 -0.4708 -0.7790
  917MPD2    H713433   0.786   3.130  11.052 -2.1859  1.3101  1.1924
  918MPD2     C13434   1.031   3.522  12.037  0.0103 -0.1332  0.9381
  918MPD2    C113435   1.082   3.401  12.001 -0.1758  0.4325 -0.6047
  918MPD2    C213436   1.051   3.346  11.880 -0.1562  0.6088 -0.0158
  918MPD2    C313437   0.962   3.411  11.796 -0.0900 -0.0713  0.1282
  918MPD2    C413438   0.931   3.538  11.827 -0.0941 -0.3340 -0.0939
  918MPD2    C513439   0.972   3.594  11.945  0.2788  0.1459  0.4462
  918MPD2     H13440   1.096   3.252  11.851 -0.5275  0.5255 -0.3206
  918MPD2    H113441   0.877   3.598  11.755 -0.9288 -2.2972 -1.0904
  918MPD2    H213442   1.045   3.574  12.132 -0.3163  0.8652  0.4455
  918MPD2    H313443   0.932   3.692  11.970  0.1335  0.1251  0.3009
  918MPD2     N13444   0.921   3.357  11.674  0.0643  1.0115  0.1004
  918MPD2    H513445   0.873   3.419  11.609 -1.3638 -0.4119 -0.2028
  918MPD2    N113446   1.174   3.333  12.090 -0.4952  0.0306  0.1989
  918MPD2    H713447   1.211   3.248  12.050  1.4806  1.1597 -0.3873
  919MPD2     C13448   1.240   2.450  11.601 -0.2467  0.0711  0.3305
  919MPD2    C113449   1.263   2.319  11.560  0.1618 -0.2745 -0.2492
  919MPD2    C213450   1.277   2.295  11.432  0.3895  0.2646 -0.2064
  919MPD2    C313451   1.276   2.400  11.343 -0.3060  0.9887 -0.7613
  919MPD2    C413452   1.255   2.530  11.386 -0.4040 -0.0739  1.1972
  919MPD2    C513453   1.245   2.556  11.516 -0.3281 -0.0782 -0.0418
  919MPD2     H13454   1.282   2.192  11.399  0.9283  1.1325 -2.8060
  919MPD2    H113455   1.254   2.608  11.310  0.4587 -2.5701 -1.3876
  919MPD2    H213456   1.245   2.483  11.704  0.0901  0.0670  0.3172
  919MPD2    H313457   1.238   2.660  11.548  1.0189 -0.1286  0.3744
  919MPD2     N13458   1.275   2.381  11.207 -0.1240 -0.0974  0.6225
  919MPD2    H513459   1.243   2.461  11.153  3.5586  1.3514  0.5558
  919MPD2    N113460   1.266   2.212  11.644  0.2696  0.5195 -0.3494
  919MPD2    H713461   1.283   2.120  11.604 -0.4180  0.0654  0.4081
  920MPD2     C13462   1.258   2.857  10.332 -0.2035 -0.6834 -0.0999
  920MPD2    C113463   1.186   2.739  10.307 -0.0125 -0.7787  0.7046
  920MPD2    C213464   1.182   2.641  10.406 -0.1401  0.0622  0.3947
  920MPD2    C313465   1.249   2.653  10.520  0.1716  0.0594  0.6351
  920MPD2    C413466   1.324   2.769  10.542  0.3734 -0.3123  0.6045
  920MPD2    C513467   1.331   2.862  10.446 -0.8249  0.1158  0.0596
  920MPD2     H13468   1.128   2.548  10.389  2.8710 -1.3715 -1.2737
  920MPD2    H113469   1.386   2.781  10.630  1.7988 -0.3497 -0.3917
  920MPD2    H213470   1.271   2.939  10.263 -2.2682 -0.7923 -0.6269
  920MPD2    H313471   1.406   2.938  10.462  0.4480 -1.4834  1.6059
  920MPD2     N13472   1.244   2.545  10.620  0.3731 -0.3741  0.1427
  920MPD2    H513473   1.196   2.459  10.594 -0.1426 -0.8541  2.7338
  920MPD2    N113474   1.111   2.712  10.188  0.4998 -0.3813 -0.5157
  920MPD2    H713475   1.051   2.630  10.196 -0.5274  0.2086 -2.1588
  921MPD2     C13476   1.952   1.290  16.761 -0.1360  0.4734 -0.4589
  921MPD2    C113477   1.952   1.160  16.728 -0.2085  0.6775 -0.4473
  921MPD2    C213478   1.856   1.115  16.638  0.0077 -0.0471 -0.4541
  921MPD2    C313479   1.757   1.199  16.595  0.1601  0.3505  0.1240
  921MPD2    C413480   1.776   1.336  16.612  0.5295  0.3135 -0.4854
  921MPD2    C513481   1.873   1.377  16.688  0.1176  0.2632 -0.2234
  921MPD2     H13482   1.851   1.011  16.606  0.3022  0.1769 -1.2397
  921MPD2    H113483   1.713   1.405  16.557 -0.8377 -0.8279 -0.3503
  921MPD2    H213484   2.028   1.323  16.831 -0.5484 -0.8462  0.6242
  921MPD2    H313485   1.883   1.482  16.712  0.6095 -0.1584  1.3952
  921MPD2     N13486   1.645   1.168  16.514 -0.0655 -0.2225 -0.0429
  921MPD2    H513487   1.618   1.244  16.452  2.2520 -0.1427 -0.9698
  921MPD2    N113488   2.056   1.070  16.776  0.2919  0.0847 -0.0741
  921MPD2    H713489   2.115   1.103  16.852 -1.2027 -0.6162  1.3842
  922MPD2     C13490   3.257   3.412   0.389 -0.3665  0.9071 -0.3004
  922MPD2    C113491   3.225   3.500   0.288 -0.5471 -1.0779  0.2649
  922MPD2    C213492   3.119   3.586   0.320  0.0351  1.0294  0.1057
  922MPD2    C313493   3.054   3.581   0.444  0.1490 -0.0344  0.2028
  922MPD2    C413494   3.114   3.506   0.547  0.0518 -0.7786 -0.4135
  922MPD2    C513495   3.208   3.414   0.513 -0.2300 -0.2456 -0.9028
  922MPD2     H13496   3.086   3.658   0.245 -0.6263 -1.5938 -2.1180
  922MPD2    H113497   3.081   3.515   0.650  1.5391  2.7539 -0.2744
  922MPD2    H213498   3.326   3.329   0.379  0.4640  1.1813  2.9067
  922MPD2    H313499   3.242   3.346   0.590 -1.3898  0.5572  0.3017
  922MPD2     N13500   2.938   3.657   0.469  0.2178  0.2630 -0.0329
  922MPD2    H513501   2.892   3.642   0.558  2.1922 -1.3391  0.7210
  922MPD2    N113502   3.279   3.495   0.151 -0.4684 -0.0186 -0.3953
  922MPD2    H713503   3.242   3.573   0.097 -0.7745  0.2056  0.1411
  923MPD2     C13504   3.691   0.161  10.083 -0.3377 -0.1750 -0.3546
  923MPD2    C113505   3.613   0.274  10.083 -0.4407  0.3246 -0.1138
  923MPD2    C213506   3.635   0.369  10.187 -0.1540 -0.0975 -0.2078
  923MPD2    C313507   3.732   0.345  10.282 -0.0570 -0.5688  0.0090
  923MPD2    C413508   3.809   0.230  10.275 -0.0040  0.5961 -0.1373
  923MPD2    C513509   3.784   0.137  10.179 -0.1477 -0.0973 -0.1959
  923MPD2     H13510   3.555   0.441  10.203 -1.4056 -1.5477  0.0266
  923MPD2    H113511   3.870   0.201  10.360  0.8369  2.0948 -0.2398
  923MPD2    H213512   3.689   0.082  10.009  1.5814  1.0321 -1.7068
  923MPD2    H313513   3.837   0.042  10.180  0.6855  0.3224 -2.4934
  923MPD2     N13514   3.747   0.430  10.398  0.1086  0.4517 -0.2485
  923MPD2    H513515   3.814   0.388  10.461 -2.5380 -0.0631  2.2242
  923MPD2    N113516   3.513   0.282   9.980  0.5861  0.1605  0.0289
  923MPD2    H713517   3.508   0.206   9.913  0.3188 -0.3892  0.6801
  924MPD2     C13518   4.511   4.129  16.686 -0.5409 -0.2426 -0.1542
  924MPD2    C113519   4.465   4.149  16.559 -0.8620 -0.4235 -0.4286
  924MPD2    C213520   4.541   4.228  16.475  0.6639 -0.4532  0.0498
  924MPD2    C313521   4.656   4.286  16.517 -0.2123 -0.2939 -0.2990
  924MPD2    C413522   4.706   4.254  16.644  0.6121  0.4908  0.2595
  924MPD2    C513523   4.631   4.176  16.726 -0.9925  0.1457  0.3613
  924MPD2     H13524   4.499   4.257  16.379  2.2343 -1.2093 -0.8581
  924MPD2    H113525   0.071   4.299  16.688 -0.7314  2.1710  1.2244
  924MPD2    H213526   4.446   4.082  16.759 -0.3342  0.3079  0.3914
  924MPD2    H313527   4.670   4.160  16.825 -3.4073 -2.7904  0.8470
  924MPD2     N13528   0.007   4.380  16.436  0.1729  0.0340  0.2488
  924MPD2    H513529   0.051   4.450  16.494 -0.6588  0.6821  0.0997
  924MPD2    N113530   4.337   4.109  16.522 -0.2719  0.8288  0.5632
  924MPD2    H713531   4.286   4.065  16.598 -1.1297 -1.6153 -1.4099
  925MPD2     C13532   3.182   1.760  15.020  0.8203  0.3843  0.1077
  925MPD2    C113533   3.052   1.821  15.001 -0.0510 -0.0648  0.1511
  925MPD2    C213534   2.979   1.847  15.111 -0.3180 -0.0250  0.1487
  925MPD2    C313535   3.022   1.830  15.242  0.3967  0.2644 -0.2792
  925MPD2    C413536   3.152   1.788  15.257 -0.6612  0.8103  0.2444
  925MPD2    C513537   3.231   1.752  15.147 -0.1481  0.2598 -0.1761
  925MPD2     H13538   2.880   1.891  15.098  0.6945  2.5922  1.2934
  925MPD2    H113539   3.194   1.780  15.356  1.0320 -0.0779 -0.5366
  925MPD2    H213540   3.247   1.728  14.939 -1.4678 -3.4898 -0.2168
  925MPD2    H313541   3.330   1.711  15.166 -1.4938 -1.3899  3.1440
  925MPD2     N13542   2.945   1.847  15.370 -0.8096 -0.0752  0.2810
  925MPD2    H513543   2.981   1.809  15.457  1.2812  1.8346  0.2733
  925MPD2    N113544   2.990   1.821  14.875  0.6550 -0.4187 -0.1760
  925MPD2    H713545   2.892   1.846  14.876  0.2059 -2.0988 -1.6014
  926MPD2     C13546   1.886   4.710  12.852 -0.2547  0.1963 -0.4241
  926MPD2    C113547   1.978   0.074  12.923 -0.2614 -0.0859  0.1367
  926MPD2    C213548   2.067   0.147  12.845 -0.3726 -0.2858  0.2059
  926MPD2    C313549   2.061   0.158  12.710  0.5832 -0.1265  0.0112
  926MPD2    C413550   1.974   0.074  12.653 -0.5002  0.2554  0.0495
  926MPD2    C513551   1.894   4.709  12.719  0.0458  0.0076 -0.3961
  926MPD2     H13552   2.136   0.215  12.894  1.0512 -0.5949 -1.3845
  926MPD2    H113553   1.974   0.060  12.545  0.0564  0.5366  0.0136
  926MPD2    H213554   1.828   4.635  12.906 -0.0133  0.8983  0.8240
  926MPD2    H313555   1.830   4.644  12.662  0.7196 -2.0287  1.2027
  926MPD2     N13556   2.145   0.247  12.634 -0.0229 -0.6047 -0.0805
  926MPD2    H513557   2.119   0.261  12.537 -1.1728  1.2159  0.4963
  926MPD2    N113558   1.983   0.070  13.063 -0.3402  0.5719 -0.0873
  926MPD2    H713559   2.049   0.133  13.107  0.0683 -1.0047  1.5888
  927MPD2     C13560   0.881   2.063   0.362  0.2811  0.1921 -0.4055
  927MPD2    C113561   0.900   2.198   0.363  0.0780  0.1598  0.7157
  927MPD2    C213562   0.975   2.258   0.261 -0.3391 -0.0925 -0.3679
  927MPD2    C313563   1.024   2.178   0.157  0.5674 -0.1292 -0.5816
  927MPD2    C413564   0.987   2.048   0.142 -0.7729 -0.8150  0.0334
  927MPD2    C513565   0.916   1.997   0.251 -0.0323 -0.0154 -0.1764
  927MPD2     H13566   1.010   2.361   0.258  3.2205 -1.2464  1.3699
  927MPD2    H113567   1.019   1.982   0.062  1.0782  0.7279 -0.4770
  927MPD2    H213568   0.834   2.024   0.451  1.1169  2.1361  0.8912
  927MPD2    H313569   0.898   1.890   0.250 -0.8339  0.1160  1.7287
  927MPD2     N13570   1.108   2.244   0.063 -0.0105  0.0930  0.2940
  927MPD2    H513571   1.110   2.346   0.060 -0.0765  0.0448 -1.2406
  927MPD2    N113572   0.841   2.274   0.470  0.0750 -0.5734  0.1999
  927MPD2    H713573   0.794   2.228   0.547  1.5895  1.2187  2.1561
  928MPD2     C13574   3.969   1.243   0.926 -0.1969  0.1156 -0.3920
  928MPD2    C113575   4.074   1.293   1.007  0.8116 -0.0727  0.1473
  928MPD2    C213576   4.208   1.294   0.959  0.1713  0.3262 -0.1396
  928MPD2    C313577   4.235   1.241   0.831 -0.2803  0.0377 -0.4083
  928MPD2    C413578   4.134   1.173   0.770 -0.0007  0.1633  0.4211
  928MPD2    C513579   4.000   1.188   0.802 -0.1461  0.6497  0.2039
  928MPD2     H13580   4.287   1.342   1.015  1.2297  1.0251 -2.2269
  928MPD2    H113581   4.149   1.139   0.669  0.0727 -0.2187  0.5598
  928MPD2    H213582   3.864   1.242   0.952 -0.4653  0.3621 -1.4916
  928MPD2    H313583   3.919   1.140   0.748 -0.4893  1.0744  0.3430
  928MPD2     N13584   4.365   1.243   0.775 -0.2941 -0.0568 -0.8807
  928MPD2    H513585   4.376   1.212   0.678 -0.2335  1.3284 -1.3110
  928MPD2    N113586   4.047   1.344   1.137  0.5238  0.3099  0.3899
  928MPD2    H713587   3.952   1.376   1.152  0.6614 -0.1481  2.2705
  929MPD2     C13588   3.348   1.575  11.162  0.4253  0.2206 -0.1131
  929MPD2    C113589   3.285   1.458  11.188 -0.0789  0.3011 -0.8082
  929MPD2    C213590   3.207   1.405  11.092  1.3210 -0.7007 -0.1134
  929MPD2    C313591   3.178   1.475  10.981 -0.3459  0.0878  0.1045
  929MPD2    C413592   3.229   1.601  10.963  0.0184 -0.1664  0.4961
  929MPD2    C513593   3.318   1.646  11.050 -0.4582  0.3739 -0.2221
  929MPD2     H13594   3.146   1.317  11.114 -0.2915  0.4528  0.0454
  929MPD2    H113595   3.211   1.671  10.882  0.8756 -1.0193 -0.4145
  929MPD2    H213596   3.423   1.608  11.233 -1.0426  1.0575  1.0686
  929MPD2    H313597   3.376   1.737  11.035 -0.2527  0.2688 -0.0773
  929MPD2     N13598   3.109   1.422  10.875 -0.3271 -0.3663  0.0261
  929MPD2    H513599   3.102   1.484  10.795 -1.0871  1.9197  1.8528
  929MPD2    N113600   3.306   1.392  11.320  0.3016 -0.4468 -0.3521
  929MPD2    H713601   3.346   1.447  11.395  2.1881 -0.5127 -1.2870
  930MPD2     C13602   1.109   2.744  14.182  0.0874  0.1182 -0.2941
  930MPD2    C113603   1.076   2.840  14.091 -0.2196  0.0980 -0.8237
  930MPD2    C213604   0.997   2.808  13.981 -0.5432 -0.7132 -0.1458
  930MPD2    C313605   0.969   2.678  13.961  0.2898 -0.2176  0.4542
  930MPD2    C413606   0.991   2.581  14.060 -0.3003 -0.5229 -0.2753
  930MPD2    C513607   1.061   2.620  14.167  0.3692 -0.0288 -0.5238
  930MPD2     H13608   0.956   2.887  13.919 -0.0626  1.3088  2.1101
  930MPD2    H113609   0.956   2.479  14.047  0.4849 -0.4088 -3.3098
  930MPD2    H213610   1.161   2.765  14.275 -0.1672  1.9449 -0.5669
  930MPD2    H313611   1.079   2.551  14.249  1.8306 -0.9504 -1.6142
  930MPD2     N13612   0.900   2.633  13.848  0.1195 -0.2384 -0.1559
  930MPD2    H513613   0.860   2.541  13.854 -0.2347 -0.0619  0.1690
  930MPD2    N113614   1.117   2.976  14.117 -0.3136  0.0806  0.1097
  930MPD2    H713615   1.186   2.987  14.192  1.1117 -2.3908 -0.8260
  931MPD2     C13616   0.966   2.065   1.025 -0.0734 -0.0057  0.1948
  931MPD2    C113617   0.920   2.192   1.053 -0.0423 -0.4201 -0.7294
  931MPD2    C213618   0.926   2.233   1.183  0.7459 -0.7797  0.0306
  931MPD2    C313619   0.991   2.155   1.281  0.2713  0.1957 -0.0174
  931MPD2    C413620   1.041   2.031   1.244  0.1756 -0.0606  0.2465
  931MPD2    C513621   1.016   1.986   1.118 -0.4106  0.0086 -0.1816
  931MPD2     H13622   0.900   2.335   1.205  1.6094 -0.5021 -0.2385
  931MPD2    H113623   1.090   1.965   1.315 -1.3299  0.4018  1.7246
  931MPD2    H213624   0.957   2.021   0.926 -0.1960 -4.0409  2.0267
  931MPD2    H313625   1.064   1.893   1.093  1.1704  0.4049  1.3255
  931MPD2     N13626   1.028   2.212   1.403 -0.1970  0.2212  0.2049
  931MPD2    H513627   1.101   2.170   1.460  1.2158  0.5998 -1.3471
  931MPD2    N113628   0.867   2.264   0.940 -0.3089  0.4187  0.0131
  931MPD2    H713629   0.843   2.211   0.858  1.7004 -0.0938 -0.2498
  932MPD2     C13630   3.211   2.348  11.360 -0.2143  0.1718 -0.0515
  932MPD2    C113631   3.127   2.363  11.255 -0.8318 -0.2598  0.2609
  932MPD2    C213632   3.017   2.271  11.245  1.0704  0.4920  0.3428
  932MPD2    C313633   3.000   2.172  11.339  0.3300  0.2539  0.0021
  932MPD2    C413634   3.081   2.169  11.453 -0.4865  0.3104 -0.2493
  932MPD2    C513635   3.186   2.255  11.461 -0.4611  0.2470 -0.0036
  932MPD2     H13636   2.949   2.282  11.161  2.0293 -1.0769 -0.6395
  932MPD2    H113637   3.073   2.091  11.528  2.4870  0.2907  0.0375
  932MPD2    H213638   3.287   2.423  11.378 -2.0711  2.2893 -1.0544
  932MPD2    H313639   3.241   2.273  11.553  0.3582 -0.1376 -0.4199
  932MPD2     N13640   2.882   2.080  11.336  0.1824  0.2351  0.1471
  932MPD2    H513641   2.869   2.033  11.425  0.9475 -0.0150  0.1298
  932MPD2    N113642   3.154   2.468  11.161  0.2495 -0.0267 -0.2110
  932MPD2    H713643   3.248   2.503  11.174 -0.0452  0.1550  1.4417
  933MPD2     C13644   3.447   1.472   1.439  0.0358  0.1846 -0.8200
  933MPD2    C113645   3.536   1.579   1.457 -0.6157 -0.5006 -0.0102
  933MPD2    C213646   3.485   1.704   1.475 -0.1237 -0.2110  0.1872
  933MPD2    C313647   3.342   1.727   1.485  0.6453  0.0931 -0.8882
  933MPD2    C413648   3.261   1.616   1.470 -0.1245  0.4282 -0.7780
  933MPD2    C513649   3.318   1.489   1.450 -0.0050 -0.2745  0.0202
  933MPD2     H13650   3.549   1.791   1.464 -0.1206 -0.4580 -1.7370
  933MPD2    H113651   3.156   1.615   1.495  0.2055  1.6026  0.6084
  933MPD2    H213652   3.476   1.367   1.436 -2.1776 -0.3879 -1.8780
  933MPD2    H313653   3.255   1.401   1.461 -0.5779  0.2011  0.5711
  933MPD2     N13654   3.298   1.859   1.502 -0.3043 -0.3528  0.4646
  933MPD2    H513655   3.370   1.930   1.501 -0.4233 -0.2016  2.1069
  933MPD2    N113656   3.674   1.549   1.433  0.1994 -0.1003 -0.6263
  933MPD2    H713657   3.685   1.453   1.400  3.8361 -0.0787  0.4941
  934MPD2     C13658   4.640   3.553   2.359  0.0445 -0.0937 -0.1153
  934MPD2    C113659   0.009   3.470   2.292 -0.0123 -0.0596  0.0568
  934MPD2    C213660   4.716   3.446   2.159  0.4094  0.5397 -0.3199
  934MPD2    C313661   4.613   3.494   2.083  0.3347 -0.6386  0.5656
  934MPD2    C413662   4.530   3.582   2.150 -0.3276 -0.8263 -0.0333
  934MPD2    C513663   4.542   3.613   2.282 -0.1017 -0.1305  0.0553
  934MPD2     H13664   0.069   3.383   2.114 -0.6535 -1.3965  0.6012
  934MPD2    H113665   4.450   3.625   2.091 -0.9216 -1.4003  0.3537
  934MPD2    H213666   4.640   3.575   2.465 -0.7239 -2.3913  0.3546
  934MPD2    H313667   4.481   3.689   2.329 -1.5586 -1.6282  0.5686
  934MPD2     N13668   4.587   3.460   1.951 -0.0255  0.3495 -0.4244
  934MPD2    H513669   4.506   3.504   1.908 -0.3591 -0.2802 -0.4363
  934MPD2    N113670   0.126   3.429   2.354 -0.1241 -0.6170 -0.4717
  934MPD2    H713671   0.180   3.360   2.302  0.4736 -0.6088  0.1358
  935MPD2     C13672   0.446   2.928   1.341 -0.4049  0.3459  0.2730
  935MPD2    C113673   0.327   2.925   1.271 -0.0926  0.1818 -1.1992
  935MPD2    C213674   0.214   2.993   1.320 -0.2344  0.3532  0.2852
  935MPD2    C313675   0.229   3.064   1.440  0.5348 -0.4302 -0.0758
  935MPD2    C413676   0.348   3.066   1.507  0.0528 -0.4491  0.2079
  935MPD2    C513677   0.457   2.994   1.459  1.1605  0.5665 -0.2161
  935MPD2     H13678   0.117   2.975   1.275  0.4742 -1.3397 -0.5727
  935MPD2    H113679   0.357   3.123   1.599 -1.5861  0.4157 -0.1583
  935MPD2    H213680   0.528   2.873   1.297 -0.8892  0.2032 -0.4598
  935MPD2    H313681   0.553   2.991   1.510  1.4596 -1.0265 -0.8734
  935MPD2     N13682   0.129   3.150   1.497 -0.7976  0.5412 -0.1196
  935MPD2    H513683   0.163   3.204   1.575 -1.8262  0.7745  0.1591
  935MPD2    N113684   0.306   2.834   1.164 -0.2645 -0.6154 -0.1155
  935MPD2    H713685   0.219   2.842   1.112 -0.7991 -0.1901  0.8274
  936MPD2     C13686   4.070   0.412  12.547  0.5250  0.0832 -0.2832
  936MPD2    C113687   4.082   0.463  12.675  0.8030  0.0394 -0.1197
  936MPD2    C213688   4.040   0.595  12.694 -0.1180  0.4533 -0.0666
  936MPD2    C313689   4.001   0.675  12.586  0.1516  0.3378 -0.1657
  936MPD2    C413690   3.973   0.614  12.463  0.4827  0.8480  0.4430
  936MPD2    C513691   4.006   0.482  12.450  0.4722 -0.7646  0.0601
  936MPD2     H13692   4.070   0.639  12.789 -4.1254 -0.7032  1.7394
  936MPD2    H113693   3.939   0.667  12.374  1.3557 -0.6740 -0.7922
  936MPD2    H213694   4.115   0.318  12.517 -0.9597 -0.2889 -1.3519
  936MPD2    H313695   4.000   0.435  12.352  0.0788 -0.2999 -0.1393
  936MPD2     N13696   3.981   0.815  12.607 -0.5792  0.3311  0.1832
  936MPD2    H513697   4.004   0.848  12.700  1.0170 -0.6085  0.1215
  936MPD2    N113698   4.152   0.404  12.787 -0.0155  0.0220 -0.2512
  936MPD2    H713699   4.165   0.466  12.867  1.6276  1.2218 -1.4492
  937MPD2     C13700   1.574   1.550  11.781 -0.2697  0.9198  0.4972
  937MPD2    C113701   1.559   1.672  11.726 -0.5447  0.7377  0.5712
  937MPD2    C213702   1.619   1.697  11.603 -0.1143  0.2923  0.5640
  937MPD2    C313703   1.698   1.601  11.540 -0.5121  0.3758  0.0567
  937MPD2    C413704   1.706   1.477  11.598  0.0197 -0.3164  0.0260
  937MPD2    C513705   1.657   1.454  11.727  0.2770  0.4208 -0.1901
  937MPD2     H13706   1.609   1.796  11.558 -0.2222 -0.1342 -0.3589
  937MPD2    H113707   1.764   1.399  11.552  2.6019  2.7382 -1.8161
  937MPD2    H213708   1.528   1.520  11.875  1.0708 -0.3009  0.7578
  937MPD2    H313709   1.672   1.355  11.766 -0.1370  0.8675  1.1064
  937MPD2     N13710   1.772   1.644  11.419  0.3425 -0.3736  0.1679
  937MPD2    H513711   1.767   1.744  11.402 -0.0618 -0.3390  0.5053
  937MPD2    N113712   1.463   1.771  11.758  0.5525 -0.4889 -0.9217
  937MPD2    H713713   1.445   1.845  11.692  0.0764 -0.1664 -0.4286
  938MPD2     C13714   3.674   2.917   0.780 -0.5710 -0.4369  0.3813
  938MPD2    C113715   3.750   2.997   0.869  0.6630  0.1374 -0.2959
  938MPD2    C213716   3.808   2.942   0.983  0.9412 -0.1697 -0.2027
  938MPD2    C313717   3.768   2.810   1.020 -0.0991  0.3748  0.1229
  938MPD2    C413718   3.679   2.740   0.939 -0.0882  0.5610  0.1029
  938MPD2    C513719   3.644   2.790   0.818 -0.1330  0.4312 -0.1203
  938MPD2     H13720   3.874   3.006   1.041  0.5423  0.1948 -0.1531
  938MPD2    H113721   3.632   2.647   0.970  1.5029 -0.0098  0.8151
  938MPD2    H213722   3.631   2.937   0.683 -1.8165 -0.7271  0.8646
  938MPD2    H313723   3.585   2.732   0.748  2.3151  0.4998 -2.2299
  938MPD2     N13724   3.799   2.748   1.140 -0.5619 -0.0818  0.4207
  938MPD2    H513725   3.751   2.661   1.159 -2.7099  0.7423 -1.2768
  938MPD2    N113726   3.793   3.122   0.840 -0.2102 -0.9302  0.5633
  938MPD2    H713727   3.859   3.163   0.905 -1.2549  1.6906 -0.0238
  939MPD2     C13728   0.456   4.244   1.514  0.4004 -0.3205 -1.0927
  939MPD2    C113729   0.390   4.287   1.400 -0.0537 -0.7137 -0.1062
  939MPD2    C213730   0.455   4.260   1.277  0.6504 -0.0152  0.2445
  939MPD2    C313731   0.564   4.172   1.269 -0.2282 -0.1199  0.4332
  939MPD2    C413732   0.615   4.118   1.385 -0.2550 -0.0097 -0.1166
  939MPD2    C513733   0.561   4.157   1.504 -0.3397  0.1203 -0.0677
  939MPD2     H13734   0.419   4.309   1.188 -1.4279  0.9507  1.6216
  939MPD2    H113735   0.687   4.038   1.392  1.4730  1.3922 -1.9450
  939MPD2    H213736   0.418   4.267   1.613  0.2525 -0.7229 -1.0562
  939MPD2    H313737   0.596   4.126   1.602  2.6002 -0.8313 -1.4193
  939MPD2     N13738   0.607   4.138   1.135  0.1451  0.4302 -0.2989
  939MPD2    H513739   0.576   4.199   1.060  0.6758 -2.6845 -3.0554
  939MPD2    N113740   0.274   4.366   1.405 -0.0792 -0.3686 -0.1724
  939MPD2    H713741   0.249   4.373   1.503 -1.6482 -0.2629 -0.5727
  940MPD2     C13742   4.623   0.574  13.229 -0.0508 -0.2867 -0.2108
  940MPD2    C113743   4.612   0.436  13.254 -0.0390 -0.2238  0.1024
  940MPD2    C213744   4.642   0.352  13.148  0.0232  0.2225  0.3482
  940MPD2    C313745   4.673   0.400  13.020 -0.4216  0.2123 -0.7637
  940MPD2    C413746   4.692   0.535  13.001 -0.3954 -0.0106  0.2354
  940MPD2    C513747   4.659   0.621  13.103 -0.5613  0.3310  0.0628
  940MPD2     H13748   4.637   0.245  13.168 -0.0048  0.4968  1.8266
  940MPD2    H113749   4.718   0.567  12.901  0.2447  1.8574  1.0080
  940MPD2    H213750   4.585   0.639  13.307 -2.7233 -0.6399 -1.1884
  940MPD2    H313751   4.661   0.728  13.083 -2.7021  0.4807  0.6751
  940MPD2     N13752   4.709   0.312  12.917  0.1934  0.1140  0.1286
  940MPD2    H513753   0.025   0.343  12.829  0.4687 -1.4531 -0.2941
  940MPD2    N113754   4.577   0.399  13.384  0.3839  0.5078 -0.7891
  940MPD2    H713755   4.541   0.471  13.446  1.5696 -1.3055  1.9397
  941MPD2     C13756   3.885   3.597  10.010  0.5838 -0.0021  0.4100
  941MPD2    C113757   3.782   3.688  10.025 -0.6152 -0.3580  0.0340
  941MPD2    C213758   3.688   3.706   9.925  0.0397  0.5051  0.3797
  941MPD2    C313759   3.696   3.620   9.817  0.1142 -0.0803 -0.4178
  941MPD2    C413760   3.795   3.520   9.805 -0.2570  0.0679 -0.9030
  941MPD2    C513761   3.893   3.521   9.892 -0.6200  0.0166 -0.6334
  941MPD2     H13762   3.607   3.774   9.945 -1.5129 -1.6157  1.3216
  941MPD2    H113763   3.799   3.454   9.718 -1.2611 -1.3492  0.1188
  941MPD2    H213764   3.968   3.589  10.078  0.5597 -0.5228  0.3796
  941MPD2    H313765   3.970   3.446   9.883 -2.3603 -1.9133  0.5033
  941MPD2     N13766   3.591   3.627   9.724  0.9252  0.2148 -0.1896
  941MPD2    H513767   3.513   3.688   9.744  1.0266  0.2093  0.2134
  941MPD2    N113768   3.765   3.752  10.148 -0.2826 -0.4354 -0.2447
  941MPD2    H713769   3.693   3.822  10.154  0.2443  0.1801 -1.0208
  942MPD2     C13770   1.984   0.951   9.462 -0.9487 -0.4179 -0.2553
  942MPD2    C113771   2.015   0.833   9.402  0.3585 -0.5628  0.6962
  942MPD2    C213772   2.115   0.754   9.444  0.4805 -0.0878  0.5366
  942MPD2    C313773   2.180   0.790   9.558 -0.0547  1.0507  0.0021
  942MPD2    C413774   2.141   0.913   9.619  0.3924  0.5320  1.4904
  942MPD2    C513775   2.048   0.992   9.574  0.1045  0.4586 -0.0889
  942MPD2     H13776   2.141   0.669   9.381 -1.3808 -0.0709 -0.2306
  942MPD2    H113777   2.168   0.935   9.722  3.1373  1.1003  0.6468
  942MPD2    H213778   1.916   1.026   9.424  0.7819  1.4951  0.3801
  942MPD2    H313779   2.030   1.084   9.629 -1.9386 -0.9487  1.5676
  942MPD2     N13780   2.261   0.709   9.645 -0.4661  0.2100 -0.5050
  942MPD2    H513781   2.302   0.763   9.720 -0.6325  3.2151 -2.6239
  942MPD2    N113782   1.932   0.786   9.298  0.6476  0.4931  1.0369
  942MPD2    H713783   1.951   0.693   9.263 -0.6612 -0.1609  2.0927
  943MPD2     C13784   1.664   4.082  10.007  0.2243  0.1719 -0.6227
  943MPD2    C113785   1.626   3.965   9.947  0.3813  0.2238  0.2218
  943MPD2    C213786   1.534   3.976   9.849 -0.1383  0.2799  0.0864
  943MPD2    C313787   1.486   4.094   9.795  0.3606 -0.2942  0.3577
  943MPD2    C413788   1.532   4.215   9.852 -0.9616  0.3144 -0.6924
  943MPD2    C513789   1.624   4.204   9.958 -0.4974  0.6336 -0.1577
  943MPD2     H13790   1.492   3.883   9.814  0.1604  0.2903 -0.3140
  943MPD2    H113791   1.491   4.314   9.837  2.1576  1.7390  0.3428
  943MPD2    H213792   1.732   4.086  10.092 -0.0353  0.0871 -0.4084
  943MPD2    H313793   1.659   4.288  10.016  1.4261 -2.0452  2.5617
  943MPD2     N13794   1.391   4.100   9.689  0.4825 -0.6071 -0.6868
  943MPD2    H513795   1.355   4.193   9.668 -0.6038 -0.9463 -0.3715
  943MPD2    N113796   1.684   3.842   9.987  0.1523 -0.3232 -0.7092
  943MPD2    H713797   1.773   3.851  10.036  0.5134  1.7239 -1.7357
  944MPD2     C13798   2.227   2.429  11.065  0.0811  0.4627 -0.1846
  944MPD2    C113799   2.231   2.527  11.155  0.2147 -0.0486  0.2595
  944MPD2    C213800   2.119   2.562  11.227  0.5142  0.3923  0.1803
  944MPD2    C313801   2.003   2.492  11.213 -0.4461 -0.6387  0.8382
  944MPD2    C413802   1.997   2.396  11.123  0.0511  0.2713 -0.0348
  944MPD2    C513803   2.111   2.356  11.050  0.4119  0.2972 -0.6470
  944MPD2     H13804   2.115   2.644  11.298 -1.2524  0.6350 -0.1902
  944MPD2    H113805   1.914   2.326  11.119  1.5301 -1.3057 -2.9807
  944MPD2    H213806   2.312   2.413  10.999  0.5934  2.2165  0.0442
  944MPD2    H313807   2.113   2.277  10.976 -0.1308  0.9421 -1.3482
  944MPD2     N13808   1.888   2.542  11.285 -0.1247 -0.2537 -0.7040
  944MPD2    H513809   1.902   2.616  11.353  0.4743  0.0322 -1.1324
  944MPD2    N113810   2.352   2.592  11.169  0.3093 -0.9665  0.3280
  944MPD2    H713811   2.425   2.562  11.104 -0.1005  0.0442 -0.5940
    1TCq1    O113812   0.469   3.594  13.661  0.3501  0.3386 -0.1713
    1TCq1    C113813   0.367   3.676  13.637  0.5647 -0.7450  0.1030
    1TCq1    O213814   0.304   3.697  13.533 -0.6584 -1.1280 -0.1596
    1TCq1    C213815   0.317   3.721  13.759 -0.1130  0.8064  0.8837
    1TCq1    C313816   0.179   3.749  13.770 -0.3743 -0.1937  0.8038
    1TCq1    C413817   0.133   3.800  13.889  0.0372 -0.2867  0.5214
    1TCq1    C513818   0.210   3.825  13.999  0.6682 -0.1268  0.6243
    1TCq1    C613819   0.344   3.806  13.979 -0.2194 -0.1572  0.3885
    1TCq1    C713820   0.399   3.747  13.866 -0.2006 -0.5342  0.0104
    1TCq1    C813821   0.436   3.863  14.072 -0.4554  0.0194  0.2220
    1TCq1    O413822   0.550   3.812  14.096 -0.1536 -0.0488  0.5550
    1TCq1    C913823   4.718   3.783  13.918 -0.0134  0.4863  0.0094
    1TCq1    O513824   4.670   3.825  14.027 -0.0720  0.6791 -0.2895
    1TCq1    O613825   4.645   3.748  13.823  0.2604 -0.4549  0.8121
    1TCq1    H113826   0.514   3.595  13.748  3.5012  0.2177 -1.8116
    1TCq1    H213827   0.112   3.739  13.686  1.2767  1.5156 -0.6987
    1TCq1    H313828   0.160   3.870  14.084 -1.1810 -0.2002 -0.4290
    1TCq1    H413829   0.507   3.740  13.872 -0.2938 -0.2101  2.2868
    2MPD2     C13830   0.549   4.219  14.412  0.2084  0.5464  0.2059
    2MPD2    C113831   0.441   4.267  14.339 -0.0097 -0.5431  0.9956
    2MPD2    C213832   0.388   4.187  14.239  0.1920 -0.2877 -0.0281
    2MPD2    C313833   0.428   4.059  14.220 -0.2223 -0.1445  0.9604
    2MPD2    C413834   0.531   4.016  14.303 -0.1211 -0.6289 -0.1700
    2MPD2    C513835   0.591   4.096  14.393 -0.2586  0.1698 -0.2547
    2MPD2     H13836   0.318   4.231  14.170 -0.7778 -0.4189  0.8646
    2MPD2    H113837   0.583   3.922  14.286 -1.4937 -1.4804  0.2702
    2MPD2    H213838   0.584   4.269  14.502 -1.3517 -0.0709  1.1431
    2MPD2    H313839   0.669   4.044  14.448 -1.2796 -0.8165  0.2645
    2MPD2     N13840   0.382   3.984  14.110  0.3124  0.0894  0.2770
    2MPD2    H513841   0.295   4.006  14.061  1.2008  1.7086 -0.5727
    2MPD2    N113842   0.414   4.400  14.359 -0.1493 -0.5840  0.5385
    2MPD2    H713843   0.470   4.456  14.423  1.6749 -2.0289  0.1901
    3TMC2    C113844   0.325   4.605  14.285  0.7802  0.2752  0.3709
    3TMC2    C213845   0.449   4.655  14.269 -0.1024  0.2687  0.2687
    3TMC2    C313846   0.458   0.057  14.228 -0.7871 -0.0026  0.4892
    3TMC2    C413847   0.219   4.677  14.245  0.0680  0.6100  0.5291
    3TMC2    C513848   0.235   0.078  14.202 -0.5236  0.7696 -0.2390
    3TMC2    C613849   0.354   0.136  14.195  0.0613 -0.3308 -0.4100
    3TMC2     C13850   0.308   4.465  14.304 -0.0789  0.4874  0.2239
    3TMC2     O13851   0.211   4.414  14.250  0.1367  0.7117 -0.0973
    3TMC2     H13852   0.532   4.595  14.305 -0.4192 -0.8657 -0.8782
    3TMC2    H113853   0.118   4.638  14.257  0.4039  0.4956  3.0866
    3TMC2    H213854   0.374   0.234  14.155  0.2406 -0.1508  0.1292
    3TMC2    C713855   0.114   0.159  14.201 -0.5063  0.5529  0.3061
    3TMC2    C813856   0.573   0.135  14.257 -0.7132  0.5498 -0.2327
    3TMC2    O113857   0.044   0.156  14.301  0.2869  0.2268 -0.0569
    3TMC2    O213858   0.560   0.251  14.303 -0.5089 -0.7902 -0.3913
    3TMC2    O513859   0.682   0.059  14.254  0.1802  0.0651 -0.3071
    3TMC2    H513860   0.678   4.688  14.223 -0.3234  0.0067 -0.0678
    4MPD2     C13861   4.139   1.268  13.582 -0.2733 -0.1466 -0.7474
    4MPD2    C113862   4.213   1.282  13.467 -0.0360 -0.6741  0.5985
    4MPD2    C213863   4.331   1.213  13.454  0.1548 -0.2049 -0.6552
    4MPD2    C313864   4.355   1.109  13.540  0.3210 -0.2907 -0.2167
    4MPD2    C413865   4.266   1.086  13.644  1.1976  0.2044  0.1398
    4MPD2    C513866   4.167   1.172  13.673  0.0186 -0.0914 -0.3083
    4MPD2     H13867   4.395   1.232  13.369 -0.0471 -4.3408 -1.7299
    4MPD2    H113868   4.286   1.003  13.711 -0.4915 -1.3510 -1.3121
    4MPD2    H213869   4.057   1.337  13.603 -0.6408 -0.8933  0.2913
    4MPD2    H313870   4.116   1.170  13.769 -2.4805 -1.5420 -1.6783
    4MPD2     N13871   4.471   1.031  13.515 -0.2226  0.7290  0.1452
    4MPD2    H513872   4.547   1.063  13.456 -0.4947  0.1097 -0.5387
    4MPD2    N113873   4.164   1.379  13.373 -0.2424 -0.3379 -0.2814
    4MPD2    H713874   4.073   1.422  13.389 -0.4066 -0.5811 -0.5510
    5TCq2    C113875   4.500   0.914  13.587  0.0343 -0.0106  0.0956
    5TCq2    O213876   4.426   0.837  13.647 -0.1175  0.2138  0.3705
    5TCq2    C213877   4.623   0.855  13.552 -0.2129 -0.4483 -0.1313
    5TCq2    C313878   0.016   0.928  13.526  0.6410 -0.1459  0.5780
    5TCq2    C413879   0.135   0.864  13.522  0.3565 -0.3062  0.5479
    5TCq2    C513880   0.144   0.733  13.556 -0.3210 -1.1007  0.2546
    5TCq2    C613881   0.029   0.664  13.577 -0.7044 -0.2544  0.6787
    5TCq2    C713882   4.629   0.723  13.574  0.2411  0.0037 -1.1472
    5TCq2    C813883   0.047   0.571  13.693  0.3662  0.0185  0.3070
    5TCq2    O413884   0.161   0.527  13.709  0.5296  0.3748  0.0542
    5TCq2    C913885   0.253   0.937  13.494  0.6137  0.6721 -0.2229
    5TCq2    O513886   0.360   0.875  13.475  0.3231  0.5708  0.3130
    5TCq2    O613887   0.263   1.055  13.527 -0.2788 -0.2200 -0.1972
    5TCq2    H213888   0.010   1.035  13.510 -1.2175 -0.3215  0.0955
    5TCq2    H313889   0.240   0.686  13.539  0.2874 -0.1117  0.9594
    5TCq2    H413890   4.540   0.663  13.582  1.3497 -1.9135 -3.3444
    6MPD1     C13891   3.037   2.225  12.300  0.1700  0.3043  0.0962
    6MPD1    C113892   3.088   2.268  12.417 -0.8154 -0.2409  0.0271
    6MPD1    C213893   3.098   2.177  12.522  0.3721 -0.3084  0.6861
    6MPD1    C313894   3.062   2.049  12.508  1.2009 -0.0171 -0.3431
    6MPD1    C413895   3.017   2.003  12.384 -0.1246 -0.3777 -0.3044
    6MPD1    C513896   3.003   2.092  12.287 -0.8938  0.3514 -1.0458
    6MPD1     H13897   3.142   2.208  12.616  1.2958  0.3156  0.0520
    6MPD1    H113898   2.991   1.900  12.361  1.7642 -0.6401 -1.2029
    6MPD1    H213899   3.010   2.294  12.221  0.2934  1.0952  0.7460
    6MPD1    H313900   2.965   2.064  12.189  2.2526  0.4891 -2.3075
    6MPD1     N13901   3.071   1.954  12.612 -0.3283  0.0324 -0.4031
    6MPD1    H513902   3.059   1.857  12.583 -0.0407 -0.0385 -0.2896
    6MPD1    N113903   3.159   2.385  12.423  0.7918  0.1092 -0.1538
    6MPD1    H613904   3.168   2.419  12.519  3.2314 -2.7650  0.6326
    6MPD1    H713905   3.121   2.462  12.369  0.3085 -1.3055 -1.8215
    7MPD2     C13906   3.486   1.889  13.396  0.0996  0.5004 -0.0421
    7MPD2    C113907   3.522   1.851  13.272  0.0895 -0.2730 -0.3919
    7MPD2    C213908   3.656   1.825  13.245  0.4976 -0.0382 -0.3597
    7MPD2    C313909   3.757   1.828  13.342 -0.3823  0.2993  0.2619
    7MPD2    C413910   3.714   1.846  13.471 -0.6816  0.3222  0.2206
    7MPD2    C513911   3.583   1.874  13.493 -0.7352  0.3278  0.6773
    7MPD2     H13912   3.678   1.783  13.147 -1.4743 -0.7785 -0.4974
    7MPD2    H113913   3.776   1.833  13.559 -1.3954 -0.7725  0.5665
    7MPD2    H213914   3.379   1.903  13.410 -0.0498  0.5993 -1.3140
    7MPD2    H313915   3.562   1.883  13.599 -1.3583  1.5250  0.4478
    7MPD2     N13916   3.888   1.783  13.318  0.0122  0.0416 -0.2466
    7MPD2    H513917   3.943   1.759  13.400  0.7903  0.3767 -0.6794
    7MPD2    N113918   3.441   1.833  13.157  0.6877  0.1646 -0.2895
    7MPD2    H713919   3.495   1.826  13.071  0.2924  1.4857 -0.6365
    8TMC3    C113920   4.069   1.722  13.169 -0.1727  0.4572  0.0467
    8TMC3    C213921   4.094   1.614  13.246 -1.0723 -0.3117 -0.5170
    8TMC3    C313922   4.162   1.514  13.182 -0.7288 -0.1862 -0.0555
    8TMC3    C413923   4.100   1.729  13.029 -0.1567 -0.1068  0.1115
    8TMC3    C513924   4.161   1.618  12.975  0.7963  0.2013 -0.1001
    8TMC3    C613925   4.204   1.514  13.054  0.1854  0.2042 -0.4184
    8TMC3     C13926   3.941   1.787  13.194  0.4658  0.2125 -0.4957
    8TMC3     O13927   3.903   1.838  13.088 -0.3601  0.1739 -0.6923
    8TMC3     H13928   4.062   1.616  13.349  0.6310  0.2520  0.0098
    8TMC3    H113929   4.103   1.823  12.976 -0.6981 -0.1319  0.0326
    8TMC3    H213930   4.248   1.426  13.008  1.1517 -1.2195  3.2534
    8TMC3    C713931   4.109   1.575  12.850 -0.4739 -0.2315  0.6565
    8TMC3    C813932   4.227   1.405  13.256  0.2778 -0.5150 -0.1753
    8TMC3    O113933   4.166   1.498  12.776 -0.0783 -0.1139 -0.4549
    8TMC3    O213934   4.323   1.353  13.206  0.7086  0.2018  0.1548
    9TMC3    C113935   3.140   1.868  12.818 -0.0142 -0.2410  0.5225
    9TMC3    C213936   3.212   1.777  12.747  0.7732 -0.6570 -0.1582
    9TMC3    C313937   3.301   1.707  12.819  0.1085 -0.2556 -0.2358
    9TMC3    C413938   3.163   1.888  12.951 -0.4090 -0.5059  0.2527
    9TMC3    C513939   3.251   1.808  13.020  0.1602 -0.0351 -0.3708
    9TMC3    C613940   3.333   1.723  12.950 -0.5210  0.6461  1.0557
    9TMC3     C13941   3.092   1.981  12.747 -0.1445 -0.4235  0.4395
    9TMC3     O13942   3.078   2.087  12.806  0.3333 -0.2801 -0.2916
    9TMC3     H13943   3.191   1.747  12.645  0.6746  1.4333 -0.7330
    9TMC3    H113944   3.108   1.968  13.000 -0.8971 -1.2080  0.8610
    9TMC3    H213945   3.380   1.641  13.003  0.1361 -0.1863 -0.8204
    9TMC3    C713946   3.304   1.843  13.147 -0.4932 -0.3167  0.2957
    9TMC3    C813947   3.395   1.625  12.741  0.4380  0.7553 -0.7431
    9TMC3    O113948   3.225   1.885  13.230  0.4950 -0.1953  0.3007
    9TMC3    O213949   3.354   1.558  12.647 -0.4774 -0.5067 -0.3888
   10MPD2     C13950   3.885   1.495  12.662  0.0698  0.2155  0.7203
   10MPD2    C113951   3.879   1.596  12.760  0.2177 -0.0066  0.2381
   10MPD2    C213952   3.753   1.651  12.792  0.1521 -0.3568 -0.9339
   10MPD2    C313953   3.636   1.604  12.729  0.5612  0.2188 -0.4217
   10MPD2    C413954   3.647   1.510  12.632 -0.3687 -0.3764 -0.5334
   10MPD2    C513955   3.767   1.451  12.603 -0.3906  1.0564  0.2438
   10MPD2     H13956   3.736   1.714  12.878  2.3778 -0.3067 -0.5152
   10MPD2    H113957   3.564   1.487  12.566  0.8208 -1.0285 -1.8120
   10MPD2    H213958   3.978   1.459  12.619  0.3382  0.2717  1.2558
   10MPD2    H313959   3.778   1.387  12.516  0.1369 -0.7477  1.6482
   10MPD2     N13960   3.520   1.653  12.787  0.3913 -0.0386 -0.1519
   10MPD2    H513961   3.540   1.718  12.862  0.7337 -1.4920  1.0345
   10MPD2    N113962   3.986   1.634  12.843  0.2730 -0.4940 -0.7748
   10MPD2    H713963   3.970   1.700  12.918  0.6778  0.9915 -1.9836
   11MPD2     C13964   4.638   0.339  14.123 -0.7892 -0.1827  0.1467
   11MPD2    C113965   0.013   0.305  14.033  0.1893 -0.8843  0.1362
   11MPD2    C213966   0.029   0.379  13.912 -0.5898  0.3396 -0.3662
   11MPD2    C313967   4.667   0.490  13.890  0.4832  0.3232  0.1376
   11MPD2    C413968   4.569   0.523  13.984  0.1269  0.7575 -0.2635
   11MPD2    C513969   4.563   0.449  14.103  0.7750 -0.1671  0.5826
   11MPD2     H13970   0.114   0.347  13.852 -2.7159  0.9243 -3.6802
   11MPD2    H113971   4.498   0.603  13.965 -2.8078 -1.3036  2.0616
   11MPD2    H213972   4.619   0.286  14.217  0.4746 -1.8934 -0.5499
   11MPD2    H313973   4.491   0.464  14.184 -0.5774  0.1953 -0.6935
   11MPD2     N13974   4.667   0.572  13.778  0.0705  0.2243  0.7435
   11MPD2    H513975   4.590   0.634  13.757  0.9246  0.5748 -1.3695
   11MPD2    N113976   0.117   0.221  14.083  0.2547  0.1828  0.5350
   11MPD2    H713977   0.191   0.201  14.016 -0.6605  1.2715 -0.7975
    1MPD1     C13978   2.442   1.333  17.515 -0.1755 -0.2706  0.2063
    1MPD1    C113979   2.573   1.323  17.470  0.3248  0.6440 -0.6498
    1MPD1    C213980   2.663   1.279  17.559 -0.2680  0.1573  0.8043
    1MPD1    C313981   2.624   1.233  17.687 -0.2533 -0.0259  0.3636
    1MPD1    C413982   2.488   1.242   0.030 -0.7476 -0.1501  0.3429
    1MPD1    C513983   2.400   1.291  17.635 -0.2128  0.4622 -1.1299
    1MPD1     H13984   2.766   1.262  17.533 -0.5577 -1.6108  0.7549
    1MPD1    H113985   2.446   1.214   0.126  1.6438 -1.5848  0.9699
    1MPD1    H213986   2.378   1.375  17.438 -0.7361  0.2850  0.9718
    1MPD1    H313987   2.298   1.309  17.668 -0.8802 -0.1175 -2.9303
    1MPD1     N13988   2.714   1.195   0.107  0.5265  0.1658  0.6733
    1MPD1    H513989   2.672   1.149   0.187  2.0063  2.6439  2.8477
    1MPD1    N113990   2.618   1.384  17.350  0.8327  0.0862 -0.7728
    1MPD1    H613991   2.543   1.395  17.281 -0.0057  1.5697  0.3653
    1MPD1    H713992   2.709   1.355  17.316 -0.2481 -0.5898 -3.0726
    2MPD1     C13993   3.705   1.220   0.535 -0.2036  0.5296  0.3240
    2MPD1    C113994   3.605   1.233   0.628 -0.5598 -0.7245  0.6779
    2MPD1    C213995   3.480   1.186   0.611  0.3215 -0.3020 -0.5664
    2MPD1    C313996   3.444   1.148   0.487  0.0723 -0.2374 -0.3957
    2MPD1    C413997   3.540   1.138   0.389  0.6719 -0.5585  0.3333
    2MPD1    C513998   3.669   1.159   0.417  0.9285  0.0999  0.5270
    2MPD1     H13999   3.414   1.174   0.696 -0.5394 -0.0154 -1.1892
    2MPD1    H114000   3.521   1.102   0.289  0.4656  1.0978 -0.2330
    2MPD1    H214001   3.803   1.264   0.548 -0.2981  0.8538 -0.0523
    2MPD1    H314002   3.745   1.142   0.341 -0.3177  0.6931 -0.8398
    2MPD1     N14003   3.310   1.117   0.464  0.0439 -0.3238  0.4284
    2MPD1    H514004   3.243   1.113   0.540  1.0314 -0.0510  1.3095
    2MPD1    N114005   3.637   1.276   0.758 -0.7593  0.2011 -0.3282
    2MPD1    H614006   3.722   1.333   0.760 -0.7543  0.3332 -3.6562
    2MPD1    H714007   3.565   1.314   0.818 -1.2567  2.8006 -2.5608
    3TMC3    C114008   3.100   1.121   0.342 -1.0130  0.5097 -0.5395
    3TMC3    C214009   3.030   1.036   0.424 -0.6629 -0.8725  0.0545
    3TMC3    C314010   2.904   0.999   0.389 -0.5801 -0.1266  0.6989
    3TMC3    C414011   3.038   1.187   0.238  0.0422 -0.1924 -0.7417
    3TMC3    C514012   2.909   1.156   0.216 -0.4695 -0.0758 -0.3740
    3TMC3    C614013   2.840   1.059   0.290  0.5654  0.4960  0.6581
    3TMC3     C14014   3.249   1.132   0.340  0.1697 -1.1340 -0.1650
    3TMC3     O14015   3.303   1.176   0.238 -0.5221  0.4208 -0.4199
    3TMC3     H14016   3.086   0.971   0.490  1.8099  3.3213  2.0614
    3TMC3    H114017   3.091   1.246   0.164 -1.4009  1.3162 -0.5609
    3TMC3    H214018   2.747   1.012   0.260  0.6186  1.3506 -0.8854
    3TMC3    C714019   2.848   1.203   0.096  0.7126 -0.0657 -0.4770
    3TMC3    C814020   2.827   0.904   0.471  0.7928  0.6477  0.6092
    3TMC3    O114021   2.923   1.264   0.019  0.1108  0.3495  0.6580
    3TMC3    O214022   2.734   0.853   0.414  0.1272 -0.0042 -0.4241
    4MPD1     C14023   2.811   0.625   0.902 -0.0541 -0.0591  0.4261
    4MPD1    C114024   2.885   0.732   0.924  0.4600  0.3882  0.5384
    4MPD1    C214025   2.905   0.826   0.821 -0.5329  0.0655  0.1704
    4MPD1    C314026   2.856   0.798   0.695  0.5088  0.3857  0.8100
    4MPD1    C414027   2.784   0.678   0.667  0.3687  0.5058 -0.0688
    4MPD1    C514028   2.763   0.595   0.778 -0.0434  0.0016  0.1145
    4MPD1     H14029   2.952   0.923   0.834  0.6577 -0.4438 -0.3682
    4MPD1    H114030   2.742   0.649   0.572  0.9530 -0.6609  0.0283
    4MPD1    H214031   2.793   0.551   0.980  1.6286  0.7878  1.6161
    4MPD1    H314032   2.708   0.502   0.766  0.1756 -0.0074 -0.8499
    4MPD1     N14033   2.890   0.886   0.595 -0.0030 -0.0001 -0.4142
    4MPD1    H514034   2.957   0.959   0.618  3.0264 -3.0826  0.4860
    4MPD1    N114035   2.912   0.771   1.059  0.4484 -0.2611  0.4281
    4MPD1    H614036   2.988   0.837   1.059 -0.9189  1.3074  0.1889
    4MPD1    H714037   2.924   0.688   1.117 -0.6000  0.0961  1.1579
    1TCq1    O114038   3.079   1.730  11.586 -0.0603  0.0616  0.1853
    1TCq1    C114039   3.124   1.749  11.459  0.2765 -0.2805 -0.0208
    1TCq1    O214040   3.199   1.834  11.423 -0.2028 -0.0239  0.5811
    1TCq1    C214041   3.066   1.652  11.368 -0.0205 -0.4218 -0.5460
    1TCq1    C314042   3.000   1.538  11.417 -0.4361 -0.5898 -0.0691
    1TCq1    C414043   2.932   1.452  11.336 -0.5587 -0.0007  0.5043
    1TCq1    C514044   2.897   1.495  11.212 -0.1022  0.3947  0.3918
    1TCq1    C614045   2.947   1.621  11.175 -0.2247 -0.4628  0.1136
    1TCq1    C714046   3.036   1.689  11.239 -0.2081  0.1722 -0.1695
    1TCq1    C814047   2.904   1.671  11.042 -0.3603 -0.4406  0.2824
    1TCq1    O414048   2.960   1.773  11.002 -0.2464  0.5265  0.0132
    1TCq1    C914049   2.857   1.345  11.396 -0.6767 -0.3903 -0.5332
    1TCq1    O514050   2.781   1.270  11.329  0.6872  0.5819  0.0229
    1TCq1    O614051   2.864   1.344  11.520 -0.2906  0.1212  0.3061
    1TCq1    H114052   2.992   1.684  11.581  0.3223 -0.5148 -1.1422
    1TCq1    H214053   3.032   1.498  11.513 -0.7273 -0.4408  0.0898
    1TCq1    H314054   2.824   1.434  11.160 -0.2240  2.1092 -1.4541
    1TCq1    H414055   3.066   1.788  11.206  1.0177 -0.5153 -1.0978
    2MPD1     C14056   2.606   1.661  10.633 -0.3734 -0.2589 -0.1437
    2MPD1    C114057   2.563   1.561  10.716  0.2063 -0.2070 -0.4970
    2MPD1    C214058   2.642   1.531  10.829  0.6399  0.6196  0.0795
    2MPD1    C314059   2.750   1.608  10.863  0.1911  0.1162  0.3126
    2MPD1    C414060   2.788   1.716  10.786  0.6145  0.0700 -0.0843
    2MPD1    C514061   2.720   1.726  10.672  0.1934 -0.2047 -0.3957
    2MPD1     H14062   2.625   1.453  10.903  1.5754 -0.0128 -0.3747
    2MPD1    H114063   2.872   1.783  10.803 -0.9523  1.5769  1.6648
    2MPD1    H214064   2.555   1.683  10.540 -2.0410  0.8595  1.0325
    2MPD1    H314065   2.764   1.799  10.606  2.1549  0.8663  2.1175
    2MPD1     N14066   2.818   1.584  10.982  0.2847  0.4283 -0.6296
    2MPD1    H514067   2.793   1.496  11.025 -3.5220  0.8409 -2.0081
    2MPD1    N114068   2.436   1.502  10.695  0.0835 -0.4635 -0.1962
    2MPD1    H614069   2.392   1.540  10.612  1.1951 -1.3462 -1.1858
    2MPD1    H714070   2.450   1.401  10.683 -0.5330 -0.2649 -2.6175
    1TCq1    O114071   0.222   4.092   9.048 -0.1297 -0.1826 -0.1198
    1TCq1    C114072   0.206   3.969   9.005 -0.0623  0.3682 -0.5992
    1TCq1    O214073   0.277   3.896   8.937  0.3164 -0.1933  0.7740
    1TCq1    C214074   0.063   3.951   8.996  0.0215 -0.2317  0.2371
    1TCq1    C314075   4.709   3.977   9.109 -1.2126 -0.0394 -0.7281
    1TCq1    C414076   4.588   3.915   9.130  0.4828 -0.4930  0.0572
    1TCq1    C514077   4.545   3.815   9.039 -0.2512  1.2042 -0.1453
    1TCq1    C614078   4.629   3.793   8.931 -0.9714  0.1539 -0.5778
    1TCq1    C714079   0.020   3.862   8.908  1.0199 -0.4091  0.0415
    1TCq1    C814080   4.613   3.671   8.851  0.2166  0.4479  0.3501
    1TCq1    O414081   4.710   3.627   8.795  0.5649 -0.4526  1.0772
    1TCq1    C914082   4.538   3.906   9.260  0.6113 -0.1482  0.6781
    1TCq1    O514083   4.603   3.957   9.354  0.4357 -0.1178  0.8314
    1TCq1    O614084   4.421   3.857   9.277 -0.3864 -0.1446  0.0247
    1TCq1    H114085   0.139   4.132   9.081  0.4430  3.1414 -2.7161
    1TCq1    H214086   0.039   4.008   9.199 -1.7051 -0.9412 -0.1280
    1TCq1    H314087   4.463   3.754   9.074  1.3665 -1.2255 -0.6510
    1TCq1    H414088   0.079   3.836   8.821  1.8488  1.7044 -0.0276
    2MPD1     C14089   4.335   3.285   8.659 -0.4257 -0.6575  0.3096
    2MPD1    C114090   4.252   3.391   8.677 -0.4272 -0.9266 -0.1259
    2MPD1    C214091   4.303   3.507   8.741 -0.2508 -0.6490  0.5635
    2MPD1    C314092   4.436   3.516   8.776 -0.3967  0.1163  0.5681
    2MPD1    C414093   4.520   3.413   8.743 -0.6139  0.0789 -0.6120
    2MPD1    C514094   4.465   3.293   8.695  0.9413  0.1774 -0.8478
    2MPD1     H14095   4.238   3.594   8.748  2.4513  1.5368 -1.7671
    2MPD1    H114096   4.627   3.413   8.757 -0.6698  1.2735 -0.1202
    2MPD1    H214097   4.301   3.188   8.624  0.9470 -0.6036 -1.1724
    2MPD1    H314098   4.535   3.216   8.668  0.4478 -1.7265  3.3702
    2MPD1     N14099   4.481   3.638   8.838 -0.3772  1.0800  0.2176
    2MPD1    H514100   4.402   3.697   8.862  0.9567  2.9854 -0.1067
    2MPD1    N114101   4.119   3.380   8.620 -0.2138  0.0184 -0.0862
    2MPD1    H614102   4.057   3.436   8.679  1.8253  0.9100  1.2050
    2MPD1    H714103   4.077   3.287   8.621  1.1550 -0.5893  0.0322
    1MPD1     C14104   0.832   0.658  12.316 -0.2072 -0.1142 -1.2180
    1MPD1    C114105   0.824   0.634  12.178 -0.0171 -0.4676  0.4556
    1MPD1    C214106   0.867   0.734  12.094 -0.3780  0.9586  0.8136
    1MPD1    C314107   0.909   0.852  12.141 -0.0843  1.1487  0.4203
    1MPD1    C414108   0.907   0.875  12.274 -0.3793  0.5696 -1.2957
    1MPD1    C514109   0.880   0.775  12.359  0.4296  0.2001  0.5333
    1MPD1     H14110   0.861   0.730  11.986 -2.9688  0.8658  0.9628
    1MPD1    H114111   0.943   0.968  12.316  3.0598 -0.7553 -1.3377
    1MPD1    H214112   0.805   0.580  12.385  0.8768  1.2091  0.7266
    1MPD1    H314113   0.875   0.794  12.466  0.4330 -1.5953  0.8694
    1MPD1     N14114   0.958   0.944  12.044 -0.1156  0.8113 -0.5462
    1MPD1    H514115   0.952   0.906  11.950 -0.0372  2.7418 -1.3369
    1MPD1    N114116   0.800   0.503  12.135 -0.2152  0.2322  0.1815
    1MPD1    H614117   0.743   0.503  12.050  0.2382  0.9917 -0.1201
    1MPD1    H714118   0.738   0.442  12.189 -1.9610  2.5074  0.7234
    2MPD1     C14119   0.041   1.841  11.608  0.2292  0.5514 -0.4931
    2MPD1    C114120   4.707   1.772  11.505 -0.3345  0.0184  0.3051
    2MPD1    C214121   0.052   1.732  11.396 -0.9954  0.1583  0.3169
    2MPD1    C314122   0.190   1.762  11.379 -0.4577 -0.6845  0.6587
    2MPD1    C414123   0.249   1.823  11.490  0.2626 -0.2970  0.9799
    2MPD1    C514124   0.179   1.862  11.601 -0.7939  0.3818 -0.1115
    2MPD1     H14125   4.717   1.691  11.314  0.8683  0.0325 -0.9279
    2MPD1    H114126   0.357   1.838  11.490 -0.0248  1.7010  0.4107
    2MPD1    H214127   4.723   1.866  11.705 -1.2777 -0.0044 -0.9839
    2MPD1    H314128   0.219   1.909  11.690  0.2103 -1.3816  0.3833
    2MPD1     N14129   0.258   1.720  11.264 -0.7017  0.3909 -0.2131
    2MPD1    H514130   0.343   1.773  11.252 -0.5456  0.3697  0.7941
    2MPD1    N114131   4.570   1.749  11.511 -0.5448  0.2590  0.0488
    2MPD1    H614132   4.518   1.831  11.541 -0.0928 -0.5247  3.0351
    2MPD1    H714133   4.542   1.730  11.415 -0.1209 -1.6457  0.2924
    3MPD1     C14134   0.074   1.570  10.173  0.2875 -1.0817  0.4631
    3MPD1    C114135   0.209   1.544  10.197  0.1614 -0.1990  0.0845
    3MPD1    C214136   0.261   1.573  10.322  0.1618  0.2988 -0.3024
    3MPD1    C314137   0.174   1.599  10.425  0.0454  0.8099  0.2850
    3MPD1    C414138   0.037   1.612  10.403  0.0604 -0.6942  0.1032
    3MPD1    C514139   4.710   1.599  10.273  0.4650  0.5660 -0.3603
    3MPD1     H14140   0.367   1.570  10.343  0.8680 -0.7476 -4.1110
    3MPD1    H114141   4.683   1.618  10.480  0.5517  0.2374  0.5225
    3MPD1    H214142   0.042   1.564  10.069  0.9293  3.1041  0.0268
    3MPD1    H314143   4.606   1.628  10.262  0.6599  1.3573 -0.1205
    3MPD1     N14144   0.223   1.617  10.553 -0.6096 -0.2191  0.0718
    3MPD1    H514145   0.324   1.614  10.561 -0.6880 -1.0071  0.7336
    3MPD1    N114146   0.298   1.522  10.093  0.0562 -0.1086  0.6363
    3MPD1    H614147   0.244   1.484  10.016  0.7044 -0.4303  0.3379
    3MPD1    H714148   0.371   1.455  10.118 -0.4462 -1.7901 -2.3449
    4MPD2     C14149   0.980   1.783  11.768  0.0789  0.2406  0.1245
    4MPD2    C114150   1.080   1.713  11.712  0.7214  0.1930  0.5598
    4MPD2    C214151   1.161   1.777  11.616 -0.1906 -0.2107 -0.3243
    4MPD2    C314152   1.116   1.894  11.562 -0.3248 -0.3554  1.0239
    4MPD2    C414153   0.992   1.945  11.600 -0.5938 -0.0951  0.4105
    4MPD2    C514154   0.933   1.904  11.710  0.2016  0.3165  0.3845
    4MPD2     H14155   1.254   1.731  11.585  0.3809 -0.7470  2.1132
    4MPD2    H114156   0.948   2.030  11.549 -0.8342 -0.8598 -0.6484
    4MPD2    H214157   0.914   1.746  11.846  2.3037 -1.2656  1.2736
    4MPD2    H314158   0.839   1.940  11.749 -0.3615 -0.5250 -0.2191
    4MPD2     N14159   1.177   1.955  11.452  0.0206 -0.2786  0.0826
    4MPD2    H514160   1.119   2.005  11.385  0.4501 -0.3585 -0.3412
    4MPD2    N114161   1.119   1.579  11.753  0.2325  0.3634  0.0295
    4MPD2    H714162   1.180   1.528  11.691 -1.1472 -0.4330 -0.6682
    5TMC3    C114163   1.099   1.362  11.858  0.3805 -0.6797 -0.2022
    5TMC3    C214164   1.074   1.284  11.967 -0.3766  0.4873 -1.1107
    5TMC3    C314165   1.053   1.146  11.949  0.1015  0.1811 -0.4167
    5TMC3    C414166   1.128   1.304  11.736  0.2793 -0.1941 -0.3114
    5TMC3    C514167   1.121   1.164  11.723 -1.0146  0.1838 -0.0281
    5TMC3    C614168   1.078   1.085  11.824  0.6809  0.5212  0.2709
    5TMC3     C14169   1.086   1.510  11.868  0.3980  0.3580  0.6073
    5TMC3     O14170   1.048   1.555  11.981 -0.3861  1.0675 -0.8134
    5TMC3     H14171   1.039   1.331  12.058  1.6306  2.1048 -1.1791
    5TMC3    H114172   1.128   1.366  11.648  1.6916  0.6272  0.2721
    5TMC3    H214173   1.063   0.979  11.806  0.5698  0.5852 -0.0170
    5TMC3    C714174   1.137   1.113  11.586  0.6600  0.1699  0.7109
    5TMC3    C814175   0.986   1.075  12.060  0.1225 -0.2244  0.6055
    5TMC3    O114176   1.088   1.001  11.562  0.1413 -0.1945  0.2805
    5TMC3    O214177   0.984   1.139  12.162 -0.0149 -0.0610  0.0294
    6TMC3    C114178   0.265   1.666  11.024  0.2934 -0.2476  0.0532
    6TMC3    C214179   0.183   1.640  10.915  0.0892  0.1482 -0.2079
    6TMC3    C314180   0.241   1.660  10.789  0.0638 -0.1718  0.5346
    6TMC3    C414181   0.400   1.689  11.017  0.6890 -1.1086 -0.1892
    6TMC3    C514182   0.454   1.705  10.891 -0.1543 -0.3355  0.6067
    6TMC3    C614183   0.368   1.700  10.778  0.1237  0.0635 -0.4880
    6TMC3     C14184   0.213   1.645  11.153 -0.5899  0.3604  0.0850
    6TMC3     O14185   0.122   1.560  11.147 -0.0415 -0.5579 -0.2705
    6TMC3     H14186   0.075   1.639  10.925 -0.1394 -2.7417 -3.0155
    6TMC3    H114187   0.459   1.713  11.104 -0.4989 -0.2136  0.3676
    6TMC3    H214188   0.403   1.727  10.679  1.7738  2.0598  0.6554
    6TMC3    C714189   0.586   1.759  10.883  0.1275  0.1120  0.8977
    6TMC3    C814190   0.156   1.648  10.675 -0.2650 -0.0720  0.0338
    6TMC3    O114191   0.638   1.808  10.982 -0.1435 -0.1219 -0.4962
    6TMC3    O214192   0.037   1.678  10.692 -0.2754 -0.0958  0.6174
    7MPD2     C14193   1.240   1.212  11.095  0.2801  0.6528 -0.0804
    7MPD2    C114194   1.276   1.315  11.179  0.6685 -0.3738 -0.4749
    7MPD2    C214195   1.257   1.306  11.313 -0.0159 -0.0524 -0.8051
    7MPD2    C314196   1.209   1.192  11.369 -0.4495 -0.4207  0.2931
    7MPD2    C414197   1.180   1.083  11.291  0.9243 -0.3768 -0.5367
    7MPD2    C514198   1.192   1.104  11.155 -0.0342 -0.0894  0.4730
    7MPD2     H14199   1.273   1.394  11.373  1.5820 -0.9474  0.0840
    7MPD2    H114200   1.119   0.998  11.316  0.4682 -0.0244 -0.4472
    7MPD2    H214201   1.249   1.218  10.988 -1.0678  0.1937 -0.2242
    7MPD2    H314202   1.161   1.025  11.087 -1.7075  0.8890  0.1067
    7MPD2     N14203   1.197   1.202  11.508 -0.5694  0.2010  0.0367
    7MPD2    H514204   1.229   1.284  11.558 -0.1332  0.4269 -0.6188
    7MPD2    N114205   1.316   1.444  11.121 -0.0844  0.0578 -0.6615
    7MPD2    H714206   1.281   1.460  11.027 -0.9368  2.4158  0.0744
    8TMC3    C114207   1.358   1.682  11.165  0.2441  0.1251  0.8992
    8TMC3    C214208   1.265   1.716  11.067 -0.6241  0.6948 -0.2643
    8TMC3    C314209   1.216   1.845  11.076  0.8128 -0.3357 -0.5034
    8TMC3    C414210   1.392   1.764  11.265 -0.1717  0.0419 -0.2376
    8TMC3    C514211   1.325   1.878  11.278  0.5274 -0.6019 -0.5383
    8TMC3    C614212   1.237   1.919  11.183  0.1027 -0.1874  0.0744
    8TMC3     C14213   1.384   1.539  11.194 -0.0542  0.1642  0.2616
    8TMC3     O14214   1.447   1.518  11.297  0.0504 -0.3475  0.5114
    8TMC3     H14215   1.221   1.644  10.999  0.9118  0.9754 -1.5508
    8TMC3    H114216   1.465   1.733  11.338  0.2831  0.8612 -0.3413
    8TMC3    H214217   1.195   2.019  11.189 -2.0240 -1.0901  0.4933
    8TMC3    C714218   1.305   1.925  11.414  0.1089  0.2393 -0.1830
    8TMC3    C814219   1.090   1.869  11.005  0.3851 -0.4011 -0.3801
    8TMC3    O114220   1.393   1.901  11.492 -0.2743  0.5033 -0.3793
    8TMC3    O214221   0.997   1.920  11.060 -0.6320  0.3768  0.5343
    9MPD2     C14222   1.036   1.842  10.647  0.0456  0.0010 -0.1815
    9MPD2    C114223   1.000   1.837  10.782 -0.1843  0.7069 -0.0040
    9MPD2    C214224   0.865   1.820  10.809  0.2999 -0.0716 -0.5096
    9MPD2    C314225   0.770   1.780  10.717  1.0405 -0.0043 -0.8632
    9MPD2    C414226   0.814   1.773  10.586 -0.5443 -0.2071 -0.2410
    9MPD2    C514227   0.934   1.831  10.554  0.8669  1.1227  0.2543
    9MPD2     H14228   0.841   1.812  10.915  2.6229 -2.2208 -0.1431
    9MPD2    H114229   0.741   1.769  10.506  0.3239  1.5029 -1.1248
    9MPD2    H214230   1.137   1.860  10.612  0.3626  0.0269  0.7300
    9MPD2    H314231   0.965   1.842  10.451  1.2767 -2.1813  0.0164
    9MPD2     N14232   0.640   1.737  10.757 -0.0987  0.0746  0.9879
    9MPD2    H514233   0.586   1.683  10.690  2.6631 -0.9839 -0.4111
    9MPD2    N114234   1.101   1.844  10.872  0.2310  0.1870  0.5651
    9MPD2    H714235   1.191   1.826  10.828 -0.4032 -2.9567  0.5760
    1MPD1     C14236   3.369   3.851  16.161 -0.0537  0.3567  0.6093
    1MPD1    C114237   3.455   3.793  16.254 -0.2449  0.5692  0.0475
    1MPD1    C214238   3.423   3.824  16.384 -0.3676 -0.1530  0.2090
    1MPD1    C314239   3.315   3.899  16.419  0.0488  0.6557 -0.5474
    1MPD1    C414240   3.240   3.959  16.325 -0.0435 -0.4314  0.3704
    1MPD1    C514241   3.265   3.925  16.202  0.0528 -0.2746  1.2061
    1MPD1     H14242   3.469   3.781  16.472 -2.4751  1.0773  1.9038
    1MPD1    H114243   3.167   4.034  16.352  0.7440 -0.1290  1.6505
    1MPD1    H214244   3.374   3.829  16.055  2.0597 -2.0949  1.2050
    1MPD1    H314245   3.203   3.983  16.135  0.9417  0.2706  0.8586
    1MPD1     N14246   3.301   3.937  16.553  0.3423  0.0780 -0.1405
    1MPD1    H514247   3.228   4.006  16.570 -1.2605 -2.2608  2.5750
    1MPD1    N114248   3.542   3.695  16.221  0.0522 -0.3464 -0.8379
    1MPD1    H614249   3.581   3.699  16.128 -0.3853 -1.1568 -1.0627
    1MPD1    H714250   3.610   3.673  16.294 -0.1071  1.6717 -0.0914
    2MPD1     C14251   3.692   3.866  17.572 -0.4664 -0.2585  0.2527
    2MPD1    C114252   3.623   3.986  17.562  0.2381  0.0680  0.7834
    2MPD1    C214253   3.547   4.012  17.451 -0.4247  0.0620 -0.1350
    2MPD1    C314254   3.556   3.934  17.345 -0.5032  0.2215  0.2913
    2MPD1    C414255   3.631   3.814  17.349  0.5981 -1.0999  0.2766
    2MPD1    C514256   3.696   3.777  17.463  0.1021 -0.3586 -0.2244
    2MPD1     H14257   3.480   4.096  17.434  1.9934  1.7518 -1.2537
    2MPD1    H114258   3.642   3.748  17.264  0.3872 -2.0195  0.9668
    2MPD1    H214259   3.732   3.828  17.665  3.2659  0.0736 -1.2226
    2MPD1    H314260   3.751   3.684  17.462 -0.9079 -0.9607  0.3133
    2MPD1     N14261   3.480   3.970  17.235  0.1829  0.5293 -0.5571
    2MPD1    H514262   3.406   4.040  17.242  0.1381  0.7150 -2.7480
    2MPD1    N114263   3.613   4.076  17.672  0.2443  0.1944  0.5138
    2MPD1    H614264   3.692   4.071   0.043  0.8476 -2.4889 -0.4423
    2MPD1    H714265   3.587   4.171  17.646  1.6471  0.0742 -1.3075
    3TCq2    C114266   3.493   3.911  17.109  0.5446 -0.8841  0.4553
    3TCq2    O214267   3.573   3.826  17.068  0.0046  0.8030  0.2833
    3TCq2    C214268   3.397   3.973  17.016  0.4031 -0.2896  0.5074
    3TCq2    C314269   3.359   4.106  17.016  0.0759 -0.5676  0.6237
    3TCq2    C414270   3.302   4.157  16.899  0.1491  0.3032  0.1106
    3TCq2    C514271   3.293   4.083  16.787 -0.3601  0.8473 -0.2285
    3TCq2    C614272   3.337   3.950  16.793  0.2998 -0.1382  0.2538
    3TCq2    C714273   3.377   3.894  16.909  0.6246  0.2974  0.2543
    3TCq2    C814274   3.360   3.877  16.666 -0.4347 -0.3607  0.7048
    3TCq2    O414275   3.424   3.778  16.694  0.3602  0.0602 -0.5525
    3TCq2    C914276   3.284   4.302  16.875 -0.0166 -0.4710  0.0198
    3TCq2    O514277   3.297   4.388  16.974  0.4301  0.3933  0.1048
    3TCq2    O614278   3.270   4.338  16.757 -0.1870 -0.2909 -0.3693
    3TCq2    H214279   3.380   4.165  17.104  0.1953  0.3661 -0.0347
    3TCq2    H314280   3.239   4.123  16.702 -1.6495  0.4019  0.3774
    3TCq2    H414281   3.400   3.789  16.923 -0.0323 -0.0923 -1.5977
    1TCq1    O114282   3.080   4.502  12.613  0.0872  0.3758  0.6477
    1TCq1    C114283   3.191   4.552  12.667 -0.3714 -0.2282 -0.1028
    1TCq1    O214284   3.242   4.661  12.637 -0.4030 -0.7396 -0.2854
    1TCq1    C214285   3.259   4.440  12.735  0.3633  0.4276  0.4105
    1TCq1    C314286   3.182   4.340  12.794 -0.3178  0.4769  0.0617
    1TCq1    C414287   3.244   4.253  12.876 -0.4644  0.2130 -0.0341
    1TCq1    C514288   3.378   4.255  12.886 -0.1852 -0.2912 -0.3180
    1TCq1    C614289   3.455   4.359  12.828 -0.0143 -0.7274  0.0459
    1TCq1    C714290   3.389   4.459  12.761 -0.3311  0.1282 -0.3258
    1TCq1    C814291   3.587   4.393  12.867 -0.1207 -0.1297 -0.1284
    1TCq1    O414292   3.635   4.493  12.814 -0.4806  0.8306  0.7802
    1TCq1    C914293   3.163   4.163  12.956 -0.3010  0.1943  0.6484
    1TCq1    O514294   3.047   4.208  12.981 -0.1163  0.0259 -0.3183
    1TCq1    O614295   3.236   4.089  13.032 -0.1622  0.0039 -0.3482
    1TCq1    H114296   3.089   4.406  12.595  0.2634  0.1301  2.0065
    1TCq1    H214297   3.074   4.336  12.785 -0.2863  1.0146 -0.5215
    1TCq1    H314298   3.425   4.184  12.953  1.7148  2.2998  1.1035
    1TCq1    H414299   3.430   4.548  12.715 -0.5674  1.4659  2.0444
    2MPD2     C14300   3.863   4.413  12.973 -0.4014  0.7328  0.1498
    2MPD2    C114301   3.762   4.339  13.026  0.4357 -0.3782  0.3575
    2MPD2    C214302   3.794   4.263  13.142  0.0978 -0.0720 -0.0710
    2MPD2    C314303   3.922   4.257  13.194 -0.5289  0.4041 -0.6893
    2MPD2    C414304   4.020   4.340  13.143  0.4731  0.1592  0.1387
    2MPD2    C514305   3.987   4.415  13.031 -0.2560  0.3345 -0.3174
    2MPD2     H14306   3.717   4.204  13.190  1.0207 -0.0118  1.4865
    2MPD2    H114307   4.118   4.350  13.189  1.7206 -0.6309 -2.3768
    2MPD2    H214308   3.854   4.460  12.876 -0.3380 -3.2506 -1.7978
    2MPD2    H314309   4.060   4.484  12.991  1.8433 -1.2094  0.8466
    2MPD2     N14310   3.959   4.171  13.300 -0.2201  0.4282  0.2642
    2MPD2    H514311   3.889   4.106  13.335  1.4651 -1.5975 -0.1376
    2MPD2    N114312   3.633   4.323  12.975 -0.0545 -0.6965 -0.1354
    2MPD2    H714313   3.578   4.248  13.016 -0.9612  1.1916  2.1010
    3TCq1    O114314   4.007   4.198  13.911 -0.3267 -0.2705 -0.1280
    3TCq1    C114315   3.965   4.211  13.783 -0.6151 -0.2345 -1.0431
    3TCq1    O214316   3.864   4.270  13.755  0.4419  0.0767  0.1158
    3TCq1    C214317   4.031   4.115  13.695 -0.3098  0.3753 -0.2435
    3TCq1    C314318   4.108   4.007  13.739  0.2088 -0.3138 -0.2323
    3TCq1    C414319   4.186   3.946  13.637  0.1931  0.8456  0.5292
    3TCq1    C514320   4.173   3.983  13.501  0.3339 -0.3242 -0.1192
    3TCq1    C614321   4.077   4.073  13.469  0.9797 -0.1654  0.4845
    3TCq1    C714322   4.001   4.141  13.566 -0.4992  0.3024 -0.2890
    3TCq1    C814323   4.088   4.147  13.343  0.6354 -0.8277  0.0321
    3TCq1    O414324   4.182   4.133  13.264  0.5146  0.4413  0.4944
    3TCq1    C914325   4.285   3.852  13.670  0.0365 -0.3763  0.0150
    3TCq1    O514326   4.352   3.802  13.576  0.1050  0.0375  0.1461
    3TCq1    O614327   4.302   3.821  13.790 -0.3073 -0.2468 -0.0137
    3TCq1    H114328   4.100   4.172  13.925 -0.3898  0.6053  1.8997
    3TCq1    H214329   4.117   3.985  13.844  1.8562 -0.7554 -0.4584
    3TCq1    H314330   4.236   3.940  13.424 -0.3192  0.5597 -1.1549
    3TCq1    H414331   3.943   4.228  13.539 -1.0662 -0.2475 -0.8415
    1MPD2     C14332   3.413   0.595  14.777 -0.1688  0.0913 -0.1119
    1MPD2    C114333   3.293   0.558  14.834 -0.9916  0.3819  0.1204
    1MPD2    C214334   3.256   0.427  14.839 -0.0192  0.1312 -0.2170
    1MPD2    C314335   3.345   0.325  14.810 -0.2041 -0.3194  0.4178
    1MPD2    C414336   3.474   0.359  14.760  0.4781 -0.4051  0.0502
    1MPD2    C514337   3.497   0.491  14.738  0.1763  0.4903 -0.5020
    1MPD2     H14338   3.158   0.402  14.879  0.2599 -2.3092 -1.0713
    1MPD2    H114339   3.553   0.288  14.739  1.0699  0.6991 -1.4608
    1MPD2    H214340   3.448   0.697  14.768  1.7572 -0.4314  1.3667
    1MPD2    H314341   3.598   0.511  14.704  0.5807  0.3494  0.6329
    1MPD2     N14342   3.313   0.189  14.815  0.0023  0.4307  0.2647
    1MPD2    H514343   3.385   0.122  14.791  1.5665  2.0151  0.5024
    1MPD2    N114344   3.213   0.660  14.883 -0.0036 -0.1338 -0.0600
    1MPD2    H714345   3.236   0.753  14.852 -1.1805 -0.1527 -0.9712
    2TMC3    C114346   3.015   0.770  14.970 -0.8160  0.0716 -0.0548
    2TMC3    C214347   2.920   0.749  15.064 -0.3859 -0.8370  0.1103
    2TMC3    C314348   2.790   0.764  15.029 -0.7745 -0.8827 -0.1082
    2TMC3    C414349   2.983   0.828  14.847  0.0108  0.1568 -0.1396
    2TMC3    C514350   2.852   0.860  14.825 -0.2830 -0.0584  0.0224
    2TMC3    C614351   2.753   0.819  14.912  0.6025 -0.0113 -0.3104
    2TMC3     C14352   3.105   0.649  14.963  0.1367  0.3154  0.8585
    2TMC3     O14353   3.062   0.548  15.020  0.3606 -0.0413 -0.1000
    2TMC3     H14354   2.960   0.711  15.157  3.3295 -1.2337 -1.6304
    2TMC3    H114355   3.065   0.854  14.781 -0.5542  0.1315 -0.8505
    2TMC3    H214356   2.650   0.823  14.881  0.2000  4.6864  1.5799
    2TMC3    C714357   2.832   0.979  14.751 -1.5037  0.2011 -0.2710
    2TMC3    C814358   2.715   0.645  15.050  0.4127 -0.0275  0.0512
    2TMC3    O114359   2.718   1.005  14.711  0.0057  0.0542 -0.0597
    2TMC3    O214360   2.598   0.660  15.059 -0.3884  0.5073 -0.1482
    3TCq1    O114361   3.642   1.839  14.513  0.4444  0.2750  0.0915
    3TCq1    C114362   3.715   1.750  14.580  0.2119  0.1591 -0.5113
    3TCq1    O214363   3.837   1.739  14.586  0.2797 -0.1947  0.1873
    3TCq1    C214364   3.632   1.662  14.666  0.3378 -0.1084 -0.2257
    3TCq1    C314365   3.684   1.622  14.786  0.1617  0.2718  0.3804
    3TCq1    C414366   3.600   1.555  14.866  0.9777 -0.1296 -1.0762
    3TCq1    C514367   3.462   1.533  14.841 -0.6028 -0.0756 -0.2550
    3TCq1    C614368   3.410   1.588  14.731 -0.7638 -0.1036 -0.3526
    3TCq1    C714369   3.493   1.651  14.639 -0.0852 -0.6054 -0.5930
    3TCq1    C814370   3.280   1.549  14.677  1.2277 -0.7000  0.4690
    3TCq1    O414371   3.249   1.599  14.569 -0.4635  0.2366 -0.1857
    3TCq1    C914372   3.663   1.509  14.986 -0.3183  0.0096  0.1493
    3TCq1    O514373   3.788   1.524  14.986 -0.5640 -0.3008 -0.0107
    3TCq1    O614374   3.602   1.424  15.057 -0.0403 -0.5583  0.0637
    3TCq1    H114375   3.549   1.849  14.542 -0.9880 -2.7774 -3.5288
    3TCq1    H214376   3.790   1.638  14.804  0.4236 -1.5195  0.4578
    3TCq1    H314377   3.396   1.493  14.917  0.3148 -0.9899  0.0483
    3TCq1    H414378   3.460   1.683  14.541  1.3669 -0.4327 -1.0263
    4MPD2     C14379   3.021   1.430  14.614  0.1510 -0.6655 -0.5294
    4MPD2    C114380   3.106   1.378  14.702 -0.0905  0.6179 -0.7297
    4MPD2    C214381   3.074   1.254  14.753  0.3766  0.0472  0.2363
    4MPD2    C314382   2.956   1.188  14.714 -0.1311 -0.1861  0.1667
    4MPD2    C414383   2.867   1.250  14.629  0.0911  0.7227 -0.0455
    4MPD2    C514384   2.905   1.372  14.575  0.6578  0.5954  0.2579
    4MPD2     H14385   3.140   1.203  14.822 -0.2352  1.7407  2.0498
    4MPD2    H114386   2.785   1.195  14.584  0.8434  0.3541 -0.9745
    4MPD2    H214387   3.038   1.532  14.581 -1.4035  0.1238  1.0795
    4MPD2    H314388   2.844   1.417  14.497  0.5689  0.5671  0.3112
    4MPD2     N14389   2.940   1.062  14.769  0.0647  0.4164  0.2433
    4MPD2    H514390   3.016   1.027  14.827 -0.5466 -1.8547 -0.3491
    4MPD2    N114391   3.227   1.436  14.742 -0.0550 -0.4065  0.6843
    4MPD2    H714392   3.271   1.388  14.820 -0.5099 -0.8604  0.6620
    5TMC2    C114393   3.115   4.716  15.139 -0.5002 -0.3275 -0.1007
    5TMC2    C214394   3.242   4.717  15.194  0.2955  0.3746  0.0786
    5TMC2    C314395   3.346   4.708  15.108 -0.0436  0.2846  0.1854
    5TMC2    C414396   3.103   4.718  15.000  0.3444 -0.2798 -0.4246
    5TMC2    C514397   3.209   0.010  14.919 -0.1286 -0.0672 -0.2076
    5TMC2    C614398   3.336   4.712  14.970  0.1271  0.2556  0.9612
    5TMC2     C14399   3.031   0.098  15.192  0.0042  0.7442 -0.0736
    5TMC2     O14400   3.081   0.194  15.250  0.3216 -0.0315  0.2327
    5TMC2     H14401   3.251   4.697  15.300  1.4571  0.5952  0.0149
    5TMC2    H114402   3.005   0.010  14.957 -0.0531 -3.8770 -0.7540
    5TMC2    H214403   3.424   4.717  14.907 -0.4703 -3.7276 -0.1758
    5TMC2    C714404   3.190   0.143  14.847  0.4119 -0.5324  1.0080
    5TMC2    C814405   3.481   4.717  15.158  0.2841 -0.4363  0.1053
    5TMC2    O114406   3.086   0.208  14.856  0.0400  0.1960 -0.2978
    5TMC2    O214407   3.570   4.657  15.101  0.8098  0.0594 -0.1827
    5TMC2    O514408   3.480   0.038  15.289  0.2863 -0.5591  0.1805
    5TMC2    H514409   3.407   0.089  15.331 -0.9212 -0.3145 -2.1959
    6MPD2     C14410   2.612   0.371  15.121 -0.4680  0.7436 -0.4660
    6MPD2    C114411   2.745   0.403  15.113  0.1182 -0.7333  0.3838
    6MPD2    C214412   2.836   0.305  15.130 -0.0358 -0.3437  0.2875
    6MPD2    C314413   2.798   0.177  15.162  0.5034  0.8795 -0.1955
    6MPD2    C414414   2.662   0.138  15.170 -0.6701 -0.4515  0.4294
    6MPD2    C514415   2.576   0.244  15.150 -0.5506 -0.0778 -0.0397
    6MPD2     H14416   2.940   0.328  15.109 -0.5151  0.9011 -0.6731
    6MPD2    H114417   2.629   0.039  15.198  2.0432 -1.4363  0.1342
    6MPD2    H214418   2.532   0.444  15.116 -0.6735  0.4376 -1.6623
    6MPD2    H314419   2.472   0.221  15.169 -0.7374  0.9341  0.1324
    6MPD2     N14420   2.898   0.074  15.166 -0.3690  0.0900 -0.0072
    6MPD2    H514421   2.865   4.703  15.145 -0.4291 -0.2830  1.8143
    6MPD2    N114422   2.793   0.535  15.082  0.2968 -0.0257  0.1236
    6MPD2    H714423   2.894   0.542  15.068  0.8737 -1.7148  3.3988
  945NH4     N114424   3.209   3.299  16.014  0.1011 -0.4949 -0.3932
  945NH4     H214425   3.125   3.325  15.959  0.5378 -3.0786 -2.2638
  945NH4     H314426   3.193   3.219  16.078 -0.7620 -1.0306 -1.2881
  945NH4     H414427   3.237   3.380  16.073 -0.2081  0.1532 -1.1475
  945NH4     H514428   3.290   3.280  15.952  1.4586  0.6027  1.0075
  946SOD     NA14429   4.420   4.171   1.848  0.3017  0.1511  0.0866
  947SOD     NA14430   2.029   3.128   5.419  0.4831 -0.1052  0.2423
  948SOD     NA14431   2.328   1.606  10.876 -0.3647  0.1727  0.3882
  949SOD     NA14432   3.024   2.313   2.933 -0.0424 -0.1285 -0.2526
  950SOD     NA14433   2.995   3.339   8.120  0.0412  0.3811  0.1697
  951SOD     NA14434   2.476   1.964   1.436 -0.0411  0.1379 -0.3905
  952SOD     NA14435   0.449   2.292   1.174  1.1436 -0.1067  0.7835
  953SOD     NA14436   3.425   0.189  14.025 -0.0935  0.0608 -0.3111
  954SOD     NA14437   1.742   3.948  10.736  0.0029 -0.2699  0.0091
  955SOD     NA14438   2.843   1.045  11.288  0.3125 -0.3141  0.3694
  956SOD     NA14439   0.162   4.492  15.003  0.0180 -0.1904 -0.4617
  957SOD     NA14440   2.177   3.700  10.434  0.1307 -0.5419  0.0212
  958SOD     NA14441   4.339   3.026  15.150 -0.2911  0.2854 -0.0204
  959SOD     NA14442   1.117   3.163  12.784 -0.1254 -0.1737  0.0960
  960SOD     NA14443   4.553   3.044  10.033 -0.1293 -0.6423  0.2528
  961SOD     NA14444   0.640   3.061   2.994  0.1374  0.2033  0.4498
  962SOD     NA14445   3.710   2.413   7.633  0.0640  0.2351  0.1850
  963SOD     NA14446   0.878   3.336   0.396  0.3492 -0.2327  0.3352
  964SOD     NA14447   4.445   2.677  12.177 -0.3818  0.2200  0.0905
  965SOD     NA14448   2.912   1.382   1.923  0.2147  0.0600  0.2779
  966SOD     NA14449   0.534   1.556  16.652  0.0682 -0.0803 -0.0499
  967SOD     NA14450   3.375   0.082  12.163 -0.0449 -0.3024 -0.1298
  968SOD     NA14451   1.788   0.301  10.317  0.1182 -0.0306 -0.1320
  969SOD     NA14452   0.786   0.264  12.806 -0.1268 -0.3816 -0.1941
  970SOD     NA14453   3.426   4.227   0.650  0.1636  0.0007 -0.1736
  971SOD     NA14454   0.228   2.970   3.415  0.0429  0.2447  0.2183
  972SOD     NA14455   0.078   0.124  15.131 -0.0388 -0.3940 -0.3572
  973SOD     NA14456   0.069   3.311   3.832  0.0406 -0.4879  0.0057
  974SOD     NA14457   2.617   3.646   3.305  0.1212 -0.0341 -0.0665
  975SOD     NA14458   1.601   0.827  11.275 -0.0997 -0.2434 -0.2194
  976SOD     NA14459   3.383   4.583  11.852  0.4171 -0.1164  0.0265
  977SOD     NA14460   0.428   1.167  13.419  0.3123  0.4332  0.0984
  978SOD     NA14461   3.503   1.713  11.726 -0.0801  0.2799  0.7334
  979SOD     NA14462   3.926   2.327  10.208 -0.3284 -0.1938 -0.2769
  980SOD     NA14463   4.513   0.255  15.213 -0.1522 -0.0437 -0.4265
  981SOD     NA14464   4.467   3.915  14.236  0.6056  0.2774 -0.5454
  982SOD     NA14465   1.668   4.639   9.303  0.3107  0.1772 -0.8314
  983SOD     NA14466   4.180   2.735   7.752  0.4008  0.0455 -0.2619
  984SOD     NA14467   1.602   0.472  10.639  0.1786  0.0810 -0.2355
  985SOD     NA14468   2.364   0.362   8.723  0.0166 -0.5540 -0.0201
  986SOD     NA14469   4.176   4.311  15.654  0.2304  0.0724  0.5919
  987SOD     NA14470   4.131   0.036  12.600  0.0873 -0.1935  0.3202
  988SOD     NA14471   0.740   2.858   5.800  0.1186  0.4223  0.1901
  989SOD     NA14472   3.062   3.294   9.131 -0.0617  0.2643  0.3430
  990SOD     NA14473   2.870   1.472   3.817  0.0492 -0.0364  0.0530
  991SOD     NA14474   0.777   4.222   0.377  0.7230  0.0763  0.1752
  992SOD     NA14475   3.542   4.074  11.475 -0.0095 -0.0956 -0.2109
  993SOD     NA14476   4.449   3.773  13.935  0.1776  0.1190 -0.4153
  994SOD     NA14477   2.125   2.894  10.323  0.2261  0.6474 -0.0002
  995SOD     NA14478   4.050   3.501  11.806  0.0391 -0.0890 -0.8405
  996SOD     NA14479   3.344   3.953  13.154  0.0022  0.3810  0.9421
  997SOD     NA14480   0.117   0.316  14.435 -0.2360  0.0633 -0.4466
  998SOD     NA14481   1.015   1.765   6.764 -0.1486 -0.5250 -0.3545
  999SOD     NA14482   3.243   1.623  17.558  0.1268  0.0785  0.0386
 1000SOD     NA14483   2.606   1.018  15.335 -0.3148 -0.4547 -0.1801
 1001SOD     NA14484   0.394   1.287  14.403 -0.6116 -0.5727 -0.1103
 1002SOD     NA14485   2.134   4.690   1.144  0.2456  0.0050  0.0719
 1003SOD     NA14486   2.475   3.846  10.031  0.2843 -0.4713  0.3870
 1004SOD     NA14487   0.070   2.444  13.938 -0.1582  0.4733 -0.0872
 1005SOD     NA14488   3.345   2.306  14.428 -0.8120 -0.1089 -0.2401
 1006SOD     NA14489   3.690   4.189  11.746  0.2111 -0.0756  0.2499
 1007SOD     NA14490   1.946   2.972  13.738  0.5715  0.0752 -0.0240
 1008SOD     NA14491   0.162   3.545   1.133 -0.1177  0.1388  0.2465
 1009SOD     NA14492   3.702   4.112  11.141 -0.2354 -0.4580  0.3293
 1010SOD     NA14493   4.063   3.191  16.999  0.3312 -0.1102  0.3603
 1011SOL     OW14494   0.023   4.081   7.556 -0.1454 -0.0280  0.5978
 1011SOL    HW114495   4.688   4.132   7.613 -1.2995 -0.6356 -0.0257
 1011SOL    HW214496   0.105   4.123   7.581  0.7930 -2.7869  2.1435
 1012SOL     OW14497   1.476   2.688   4.919 -0.2484 -0.3758  0.3333
 1012SOL    HW114498   1.445   2.771   4.884  1.3506  0.2166  0.3133
 1012SOL    HW214499   1.438   2.625   4.858 -1.8012 -1.0144  1.9276
 1013SOL     OW14500   1.316   2.667  13.308 -0.5252 -0.0325 -0.0295
 1013SOL    HW114501   1.362   2.716  13.376 -0.6819 -0.5583  0.4589
 1013SOL    HW214502   1.386   2.625  13.258 -1.4819 -0.3699 -1.0832
 1014SOL     OW14503   2.131   3.354   5.653  0.1510  0.2250  0.5926
 1014SOL    HW114504   2.037   3.372   5.654  0.7857  3.3410  4.8962
 1014SOL    HW214505   2.155   3.379   5.564  0.5893 -0.9374  0.3813
 1015SOL     OW14506   0.552   0.429   7.290  0.4491  0.0944 -0.5903
 1015SOL    HW114507   0.642   0.459   7.276  0.6349  0.0446  0.4890
 1015SOL    HW214508   0.520   0.405   7.203 -1.0080  3.0068 -0.8798
 1016SOL     OW14509   2.631   3.187  14.568 -0.2678 -0.2585  0.1687
 1016SOL    HW114510   2.578   3.188  14.648  0.0152  1.0020  0.3375
 1016SOL    HW214511   2.575   3.131  14.515 -0.9632  1.0220 -0.4528
 1017SOL     OW14512   3.214   4.441  12.324  0.1194 -0.0832 -0.3649
 1017SOL    HW114513   3.172   4.364  12.364 -3.0234  1.3114 -1.0351
 1017SOL    HW214514   3.167   4.446  12.241 -1.1986  0.6318  0.4346
 1018SOL     OW14515   3.548   3.794   5.335 -0.3166 -0.1089 -0.0345
 1018SOL    HW114516   3.546   3.819   5.427 -4.6911  1.2784 -0.5365
 1018SOL    HW214517   3.608   3.860   5.299 -0.2094 -0.8943 -1.3092
 1019SOL     OW14518   4.097   2.587  14.043 -0.4904 -0.1267 -0.0282
 1019SOL    HW114519   4.080   2.529  14.117 -0.4678  2.3374  1.9120
 1019SOL    HW214520   4.012   2.630  14.034  0.2471  1.3552  0.1001
 1020SOL     OW14521   4.399   0.121   7.799 -0.0128  0.0360 -0.0805
 1020SOL    HW114522   4.340   0.175   7.852  1.5292 -1.7475  3.4774
 1020SOL    HW214523   4.449   0.078   7.869  0.1249 -0.6221 -0.5835
 1021SOL     OW14524   4.261   3.902   2.190 -0.3084  0.4597  0.5614
 1021SOL    HW114525   4.235   3.822   2.144  1.6173  0.5691 -0.7122
 1021SOL    HW214526   4.176   3.927   2.227 -0.6282  0.0751  0.0902
 1022SOL     OW14527   3.982   3.384   4.783  0.0578  0.2404 -0.0592
 1022SOL    HW114528   4.000   3.353   4.872  2.9223 -0.7418 -0.9953
 1022SOL    HW214529   3.886   3.374   4.783 -0.0676  1.5203  0.4307
 1023SOL     OW14530   2.359   0.032   4.502  0.1372 -0.2121  0.5322
 1023SOL    HW114531   2.339   0.081   4.422  0.9126 -1.4814 -0.4251
 1023SOL    HW214532   2.438   0.074   4.537  0.4596 -0.7942  0.4977
 1024SOL     OW14533   2.357   4.143   2.539  0.1992  0.5090 -0.0585
 1024SOL    HW114534   2.434   4.101   2.502 -1.5381 -0.3122 -2.7284
 1024SOL    HW214535   2.284   4.089   2.509  1.5317 -0.0347 -2.3518
 1025SOL     OW14536   0.539   4.473   2.710 -0.7017 -0.3922  0.0555
 1025SOL    HW114537   0.551   4.380   2.728  0.8195 -0.2354 -0.2016
 1025SOL    HW214538   0.554   4.469   2.616  1.6875 -0.0161  0.4272
 1026SOL     OW14539   4.464   2.461  13.229  0.5128  0.8419 -0.1514
 1026SOL    HW114540   4.472   2.457  13.134 -3.3893  1.8901 -0.5455
 1026SOL    HW214541   4.488   2.554  13.230  1.5481  0.5874 -1.5297
 1027SOL     OW14542   4.260   4.590  16.219  0.3613 -0.3408  0.0893
 1027SOL    HW114543   4.294   4.650  16.285  0.4003  0.8523 -1.0015
 1027SOL    HW214544   4.166   4.607  16.223  0.6759  1.5577 -0.4010
 1028SOL     OW14545   2.683   3.639   1.116 -0.3274  0.0515 -0.2922
 1028SOL    HW114546   2.776   3.615   1.107 -0.4064 -0.1127 -0.6423
 1028SOL    HW214547   2.664   3.616   1.207  3.5318  0.7774  0.7363
 1029SOL     OW14548   1.667   3.472   5.513 -0.3725  0.0818  0.6954
 1029SOL    HW114549   1.728   3.544   5.496 -0.4091  0.1726  0.9466
 1029SOL    HW214550   1.582   3.493   5.474 -1.0447 -2.5983  0.7167
 1030SOL     OW14551   4.454   0.173  10.587  0.4325 -0.0450 -0.2013
 1030SOL    HW114552   4.478   0.257  10.626 -2.4495 -0.2015  1.9765
 1030SOL    HW214553   4.529   0.115  10.581 -0.2370 -0.7251 -1.9614
 1031SOL     OW14554   0.441   1.260  14.180 -0.4884 -0.7080 -0.0748
 1031SOL    HW114555   0.435   1.173  14.141 -1.4196 -0.0394 -1.4085
 1031SOL    HW214556   0.509   1.303  14.128 -1.8020 -0.7631 -1.8439
 1032SOL     OW14557   3.193   4.701  16.550  0.2059  0.0311  0.1560
 1032SOL    HW114558   3.227   0.021  16.472  2.4209 -1.3343  0.3674
 1032SOL    HW214559   3.264   4.638  16.560  0.5463  0.3838 -0.0539
 1033SOL     OW14560   4.698   0.373   0.967  0.1896 -0.2113 -0.2252
 1033SOL    HW114561   0.069   0.375   0.948 -0.0304 -0.1870 -1.3198
 1033SOL    HW214562   4.675   0.464   0.948  0.7389 -0.0986 -0.3318
 1034SOL     OW14563   3.639   4.674   9.037  0.1692  0.0209  0.2337
 1034SOL    HW114564   3.578   4.615   9.081 -0.4293  0.9273  0.6149
 1034SOL    HW214565   3.593   4.678   8.953 -0.0634  0.0512  0.3628
 1035SOL     OW14566   1.909   0.313   5.489  0.0461  0.4680 -0.2543
 1035SOL    HW114567   1.959   0.322   5.408  2.0016 -0.4795  0.8588
 1035SOL    HW214568   1.835   0.268   5.448  0.6219 -0.7127 -0.0067
 1036SOL     OW14569   3.477   0.542  11.332  0.2549  0.0328 -0.3103
 1036SOL    HW114570   3.506   0.551  11.242  0.0972  1.2746 -0.2425
 1036SOL    HW214571   3.477   0.633  11.362 -1.4232 -0.8171  2.3593
 1037SOL     OW14572   4.065   3.074  12.358  0.4699 -0.0718  0.4138
 1037SOL    HW114573   4.012   3.153  12.353  0.1202 -0.3875 -1.0864
 1037SOL    HW214574   4.152   3.096  12.324  0.3290 -3.3517 -2.0560
 1038SOL     OW14575   0.041   1.540  16.939 -0.0683  0.5953  0.4133
 1038SOL    HW114576   4.697   1.601  16.970  2.3584  2.3575  2.0779
 1038SOL    HW214577   0.097   1.534  17.017  0.1758 -0.0547  0.1905
 1039SOL     OW14578   0.063   2.678   2.719  0.1759 -0.1025  0.5504
 1039SOL    HW114579   0.072   2.672   2.624  0.6592 -3.9255  0.8485
 1039SOL    HW214580   0.130   2.615   2.746  1.6339  0.8188 -0.9212
 1040SOL     OW14581   4.640   3.717   5.071 -0.3930 -0.4680 -0.3757
 1040SOL    HW114582   4.609   3.724   4.980 -0.1629 -0.6177 -0.4653
 1040SOL    HW214583   4.637   3.623   5.087 -1.1174  0.3466  4.1070
 1041SOL     OW14584   0.587   3.555   1.073  0.1072 -0.5015  0.5811
 1041SOL    HW114585   0.648   3.591   1.009 -0.5642  0.2409  0.3682
 1041SOL    HW214586   0.593   3.616   1.146 -0.3255  0.8331 -0.4998
 1042SOL     OW14587   1.004   0.764   7.409  0.0433  0.1983 -0.0725
 1042SOL    HW114588   1.015   0.803   7.496  0.5301 -0.2059  0.0425
 1042SOL    HW214589   0.932   0.703   7.425 -1.0340  0.5525 -3.5302
 1043SOL     OW14590   4.283   1.582   8.568 -0.5096 -0.4080 -0.0793
 1043SOL    HW114591   4.216   1.539   8.515 -0.3207 -1.3681  0.4492
 1043SOL    HW214592   4.272   1.675   8.552  3.3491  0.0978  0.0460
 1044SOL     OW14593   4.608   0.718   7.160 -0.1905 -0.3704 -0.5851
 1044SOL    HW114594   4.601   0.659   7.085 -1.0487  0.1248 -0.8982
 1044SOL    HW214595   4.648   0.796   7.120 -0.5112 -0.7774 -1.7194
 1045SOL     OW14596   3.586   1.489   5.003  0.0238 -0.2683 -0.0304
 1045SOL    HW114597   3.581   1.572   5.049  0.9089 -0.7696  0.9527
 1045SOL    HW214598   3.541   1.439   5.071  1.0907  0.5462  1.2799
 1046SOL     OW14599   1.611   1.815   6.013 -0.1736 -0.5634  0.3610
 1046SOL    HW114600   1.623   1.752   6.084  2.7832 -1.1039 -0.6553
 1046SOL    HW214601   1.705   1.831   6.014 -0.2186 -0.4391  2.4396
 1047SOL     OW14602   4.583   2.252   3.430  0.2730 -0.0294  0.3640
 1047SOL    HW114603   4.627   2.227   3.512 -1.4906 -1.7822  0.7693
 1047SOL    HW214604   4.608   2.344   3.428 -1.7350  0.4080 -4.6619
 1048SOL     OW14605   1.559   1.171   9.231  0.2032  0.1621  0.3061
 1048SOL    HW114606   1.560   1.193   9.324  1.8313  2.2456 -0.1809
 1048SOL    HW214607   1.652   1.160   9.208  0.1535 -1.0451  0.6992
 1049SOL     OW14608   1.252   3.007   2.168 -0.0347 -0.1290  0.4238
 1049SOL    HW114609   1.273   3.056   2.248 -2.6597 -0.7415  1.4884
 1049SOL    HW214610   1.241   3.077   2.103 -0.6278 -0.5637  0.0503
 1050SOL     OW14611   1.219   0.901   2.376 -0.3512  0.5664 -0.1967
 1050SOL    HW114612   1.147   0.838   2.377  0.8169 -0.8608 -2.9187
 1050SOL    HW214613   1.192   0.957   2.448 -2.3310 -0.7828  0.1110
 1051SOL     OW14614   2.453   0.601  14.312  0.1325  0.2736  0.4994
 1051SOL    HW114615   2.432   0.619  14.221 -1.0098  1.3190  0.9723
 1051SOL    HW214616   2.424   0.685  14.346 -1.0271  0.7367 -1.6920
 1052SOL     OW14617   2.801   2.454   8.187 -0.4856 -0.4190  0.1250
 1052SOL    HW114618   2.748   2.379   8.159 -3.3876  0.9642  1.8984
 1052SOL    HW214619   2.774   2.459   8.279 -1.5140 -1.0023 -0.1443
 1053SOL     OW14620   3.076   1.338   3.359  0.9999  0.1287 -0.1467
 1053SOL    HW114621   3.167   1.308   3.352  1.1592  0.4070  0.8170
 1053SOL    HW214622   3.066   1.380   3.444  0.3048  0.1696 -0.2512
 1054SOL     OW14623   3.586   2.601   7.626 -0.0122  0.0100 -0.7903
 1054SOL    HW114624   3.599   2.646   7.709 -1.1278 -0.1584 -0.5326
 1054SOL    HW214625   3.563   2.668   7.561  0.2409  0.4801 -0.3985
 1055SOL     OW14626   1.296   1.513   0.422 -0.2292 -0.0357  0.1893
 1055SOL    HW114627   1.287   1.551   0.335 -0.6002 -1.2047 -0.2790
 1055SOL    HW214628   1.391   1.502   0.424 -0.2545  0.0031  1.5221
 1056SOL     OW14629   1.096   4.693   5.889 -0.0473  0.0700  0.2147
 1056SOL    HW114630   1.169   4.635   5.871 -0.5199 -1.1178  2.1339
 1056SOL    HW214631   1.078   0.013   5.805 -0.2309 -2.4072 -1.0011
 1057SOL     OW14632   3.618   1.290  11.509 -0.1279 -0.6266 -0.1181
 1057SOL    HW114633   3.593   1.352  11.578 -2.3014 -1.1407 -0.4293
 1057SOL    HW214634   3.593   1.205  11.545 -1.5171 -0.0886  0.1796
 1058SOL     OW14635   3.133   1.297   4.564 -0.1426 -0.4325 -0.1280
 1058SOL    HW114636   3.121   1.354   4.640  2.2032 -0.8731  0.5705
 1058SOL    HW214637   3.222   1.317   4.536 -0.5266  2.3785  0.6280
 1059SOL     OW14638   3.407   2.151   6.189 -0.1837  0.0415 -0.1756
 1059SOL    HW114639   3.424   2.241   6.215 -2.1038  0.0006  1.1784
 1059SOL    HW214640   3.333   2.123   6.243  0.0751  0.6443  0.4976
 1060SOL     OW14641   3.116   0.309   3.313  0.8584 -0.4043 -0.2903
 1060SOL    HW114642   3.023   0.298   3.331  1.6074  1.7823  4.7596
 1060SOL    HW214643   3.130   0.235   3.254  0.2795 -2.1177  1.7110
 1061SOL     OW14644   0.660   4.365   3.955  0.6501 -0.0198 -0.5259
 1061SOL    HW114645   0.607   4.415   4.017  0.2555  0.7827 -1.5140
 1061SOL    HW214646   0.704   4.305   4.015  0.2844 -2.2678 -2.4941
 1062SOL     OW14647   1.450   1.246  12.445  0.3367 -0.0555 -0.0036
 1062SOL    HW114648   1.390   1.261  12.518 -0.9209 -2.5404 -0.5077
 1062SOL    HW214649   1.392   1.206  12.380 -0.5753 -0.6535  1.1615
 1063SOL     OW14650   0.539   4.683   7.935  0.2610 -0.7497 -0.7735
 1063SOL    HW114651   0.589   0.041   7.934  1.1469 -1.3146 -1.5963
 1063SOL    HW214652   0.570   4.652   7.850  0.7743  1.2794 -1.3152
 1064SOL     OW14653   1.486   2.388   0.894  0.5352 -0.3119  0.4711
 1064SOL    HW114654   1.408   2.441   0.877 -1.4457 -2.8655  1.5761
 1064SOL    HW214655   1.530   2.397   0.810 -0.5103  1.3711  0.0941
 1065SOL     OW14656   2.141   1.340  10.652 -0.4588  0.4372  0.0347
 1065SOL    HW114657   2.159   1.429  10.621 -1.2981  1.3238  2.0832
 1065SOL    HW214658   2.223   1.290  10.651 -0.5513  0.2387  2.6736
 1066SOL     OW14659   2.279   3.948  12.473 -0.1689 -0.1647  0.0630
 1066SOL    HW114660   2.276   4.043  12.478  1.7026 -0.2109  2.1168
 1066SOL    HW214661   2.367   3.931  12.439  0.4379  0.6370  1.2441
 1067SOL     OW14662   2.189   2.115   0.762 -0.5890 -0.2550 -0.1538
 1067SOL    HW114663   2.222   2.033   0.799 -1.0374 -0.6081 -0.5347
 1067SOL    HW214664   2.173   2.093   0.671 -1.1633 -0.2175 -0.0635
 1068SOL     OW14665   3.074   1.441   4.810  0.2726 -0.1192  0.6004
 1068SOL    HW114666   2.990   1.484   4.795  1.1935  1.4761  0.0283
 1068SOL    HW214667   3.049   1.381   4.881  0.9350 -2.1654 -0.9042
 1069SOL     OW14668   3.674   2.619  11.361 -0.2439  0.6482 -0.3656
 1069SOL    HW114669   3.715   2.627  11.275  0.2192  0.5384 -0.1547
 1069SOL    HW214670   3.722   2.676  11.421 -1.3993  0.7759  0.4436
 1070SOL     OW14671   3.677   0.906  17.282  0.3289 -0.2510  0.6765
 1070SOL    HW114672   3.770   0.930  17.275  0.1277  0.0177 -0.9247
 1070SOL    HW214673   3.648   0.973  17.344  1.2042 -1.3710  2.3058
 1071SOL     OW14674   0.532   3.054   6.187  0.3226 -0.0441  0.7527
 1071SOL    HW114675   0.443   3.068   6.155  0.2377  3.4796  2.4794
 1071SOL    HW214676   0.559   3.143   6.210 -0.4849  0.2909  0.3930
 1072SOL     OW14677   0.698   1.172   7.092  0.1144 -0.2275  0.4757
 1072SOL    HW114678   0.651   1.255   7.097  0.9005  0.3520 -1.8868
 1072SOL    HW214679   0.642   1.116   7.146  0.8752  0.3029  1.8113
 1073SOL     OW14680   4.435   2.680  15.155  0.1951 -0.2847  0.1933
 1073SOL    HW114681   4.413   2.605  15.210 -1.4783  0.2043  0.1915
 1073SOL    HW214682   4.513   2.708  15.204  2.0440 -1.1217 -2.3178
 1074SOL     OW14683   0.659   1.827   9.334  0.0410  0.2212 -0.1916
 1074SOL    HW114684   0.618   1.741   9.335  0.0625  0.1856 -1.5854
 1074SOL    HW214685   0.733   1.801   9.388  1.0438  1.5962 -0.8725
 1075SOL     OW14686   1.117   3.607   6.582 -0.0910  0.2981 -0.0968
 1075SOL    HW114687   1.158   3.532   6.624 -0.8374  0.6613  1.2880
 1075SOL    HW214688   1.044   3.622   6.643  0.9198  4.0693  0.1866
 1076SOL     OW14689   2.630   1.099  12.969 -0.6775 -0.3058 -0.0275
 1076SOL    HW114690   2.623   1.106  13.064  2.1605  1.8042  0.0240
 1076SOL    HW214691   2.703   1.042  12.947 -0.2579  0.1883  0.0816
 1077SOL     OW14692   0.973   3.513   4.774  0.0464  0.1983  0.3092
 1077SOL    HW114693   0.976   3.455   4.698 -0.1068  0.5991 -0.0017
 1077SOL    HW214694   0.936   3.592   4.736 -0.2772 -1.4891 -2.9173
 1078SOL     OW14695   1.519   1.389   6.170 -0.2998 -0.4917  0.1606
 1078SOL    HW114696   1.429   1.361   6.151 -0.9555  1.8231 -0.0636
 1078SOL    HW214697   1.532   1.365   6.262  1.3164  1.8683  0.5240
 1079SOL     OW14698   0.777   3.219   7.521 -0.1572 -0.0071 -0.4784
 1079SOL    HW114699   0.869   3.242   7.511  0.2581 -1.4147  0.1992
 1079SOL    HW214700   0.768   3.213   7.616 -0.1697 -3.0095 -0.6849
 1080SOL     OW14701   0.746   1.760   4.949  0.1191  0.2214  0.3825
 1080SOL    HW114702   0.704   1.837   4.911 -3.1373 -1.3458  0.7620
 1080SOL    HW214703   0.804   1.730   4.880 -1.4548 -1.4677 -0.2015
 1081SOL     OW14704   2.439   4.491  13.490 -0.0769  0.3937 -0.2975
 1081SOL    HW114705   2.384   4.568  13.508  1.7301  1.2536  1.4624
 1081SOL    HW214706   2.420   4.470  13.398  2.3992 -0.7534 -0.5327
 1082SOL     OW14707   2.198   2.638   8.006  0.0619  0.3031 -0.1060
 1082SOL    HW114708   2.253   2.712   7.983  0.6302 -0.0845  0.0107
 1082SOL    HW214709   2.242   2.607   8.085  1.2586 -0.4209 -1.0628
 1083SOL     OW14710   4.436   0.662  10.030  0.1227 -0.2200  0.4457
 1083SOL    HW114711   4.347   0.687  10.003  0.0871 -0.2264  0.5542
 1083SOL    HW214712   4.457   0.590   9.971 -1.2737 -0.5287  0.3104
 1084SOL     OW14713   4.528   2.989  14.599 -0.6235 -0.2927  0.1354
 1084SOL    HW114714   4.511   2.908  14.646  2.5862 -0.2708  1.3457
 1084SOL    HW214715   4.446   3.038  14.604 -1.6508 -2.0160 -0.1311
 1085SOL     OW14716   0.080   1.512   7.467  0.1259 -0.0121 -0.2536
 1085SOL    HW114717   0.127   1.589   7.500 -0.7718  0.7375 -0.7157
 1085SOL    HW214718   0.086   1.461   7.548  2.9639  2.1149  0.8800
 1086SOL     OW14719   3.232   1.681   3.684  0.1828  0.2063  0.3185
 1086SOL    HW114720   3.315   1.689   3.732 -1.8071 -1.1782  3.9640
 1086SOL    HW214721   3.262   1.669   3.594  0.0357 -1.9744  0.5512
 1087SOL     OW14722   3.718   2.618   8.016  0.0673 -0.6171 -0.2814
 1087SOL    HW114723   3.736   2.575   8.099 -1.6935  1.4923  1.1875
 1087SOL    HW214724   3.645   2.668   8.053 -0.9258 -0.5467 -2.3216
 1088SOL     OW14725   2.340   1.492   1.516  0.6689 -0.3649  0.4421
 1088SOL    HW114726   2.275   1.456   1.456  0.9816 -2.6518  1.4557
 1088SOL    HW214727   2.274   1.523   1.579  0.5500 -1.9722  1.1126
 1089SOL     OW14728   0.912   4.324   3.259  0.0391  0.9132  0.0018
 1089SOL    HW114729   0.839   4.339   3.199 -2.1791 -0.9850  2.2328
 1089SOL    HW214730   0.928   4.417   3.274 -0.4284  1.1915 -1.2224
 1090SOL     OW14731   2.011   3.088   4.268  0.0659 -0.8488  1.2394
 1090SOL    HW114732   2.104   3.091   4.244 -0.5430  2.1979 -0.7847
 1090SOL    HW214733   1.984   3.037   4.191 -1.2821  1.6250  0.0745
 1091SOL     OW14734   2.949   4.296   8.457  0.0759 -0.2148 -0.1822
 1091SOL    HW114735   2.988   4.283   8.543 -1.4491 -1.8385  0.2605
 1091SOL    HW214736   3.003   4.238   8.403 -0.5399 -0.8608 -0.1168
 1092SOL     OW14737   2.595   4.416   5.174  0.4499 -0.0825 -0.1999
 1092SOL    HW114738   2.577   4.323   5.190 -0.1205 -0.1907 -1.4477
 1092SOL    HW214739   2.505   4.446   5.159  1.1520  2.0803 -0.0829
 1093SOL     OW14740   0.776   3.059   0.059 -0.2989 -0.6466  0.4571
 1093SOL    HW114741   0.761   2.966   0.045 -0.9796 -0.2485 -1.4774
 1093SOL    HW214742   0.837   3.042   0.131  1.7194 -1.9740 -1.5577
 1094SOL     OW14743   0.847   2.430  17.383 -0.1868 -0.2986  0.0435
 1094SOL    HW114744   0.765   2.389  17.410 -1.1337  0.4580 -1.6664
 1094SOL    HW214745   0.878   2.348  17.345 -1.0858 -1.1028  1.0589
 1095SOL     OW14746   2.184   0.318   5.959 -0.3281  0.2511 -0.4579
 1095SOL    HW114747   2.097   0.347   5.986 -0.5990 -0.1235 -0.9189
 1095SOL    HW214748   2.165   0.255   5.889  0.1968 -0.4262  0.0109
 1096SOL     OW14749   0.733   3.260   0.239  0.0318 -0.0519  0.1633
 1096SOL    HW114750   0.739   3.189   0.175  0.2481  0.0242  0.0950
 1096SOL    HW214751   0.639   3.260   0.257  0.0326 -1.3192  0.1700
 1097SOL     OW14752   0.340   4.619  11.719  0.2847 -0.1061 -0.5057
 1097SOL    HW114753   0.359   4.668  11.800  2.6323  0.0332 -1.1511
 1097SOL    HW214754   0.382   4.672  11.651  0.7205  0.6734  0.3632
 1098SOL     OW14755   3.721   2.833   2.694 -0.0298  0.2340  0.0457
 1098SOL    HW114756   3.792   2.778   2.661  0.4584 -0.4525  2.2776
 1098SOL    HW214757   3.637   2.787   2.698 -0.2981  0.8576  1.6441
 1099SOL     OW14758   0.877   0.058   7.356  0.4001 -0.5707  0.2746
 1099SOL    HW114759   0.964   0.075   7.393 -0.5795 -0.7177  2.6488
 1099SOL    HW214760   0.901   0.045   7.264 -0.8354  0.1268 -0.1554
 1100SOL     OW14761   1.640   4.472   5.628  0.4005  0.2012  0.0978
 1100SOL    HW114762   1.678   4.396   5.672 -0.5464 -0.1681  0.2784
 1100SOL    HW214763   1.563   4.433   5.585  0.0125  0.9226  0.1352
 1101SOL     OW14764   4.563   1.677   4.898  0.3731  0.5995  0.3921
 1101SOL    HW114765   4.589   1.766   4.921  0.5858  1.1090 -1.8115
 1101SOL    HW214766   4.549   1.684   4.804  0.0118 -0.0909  0.3881
 1102SOL     OW14767   2.895   0.615   5.826  0.3159 -0.1231 -0.1700
 1102SOL    HW114768   2.800   0.607   5.830  0.5745 -3.2880 -0.0452
 1102SOL    HW214769   2.917   0.539   5.881  2.2935 -1.6011 -3.0131
 1103SOL     OW14770   1.627   1.967   6.340  0.0345  0.7654  0.2992
 1103SOL    HW114771   1.580   2.051   6.346 -0.2340  0.8276 -2.7914
 1103SOL    HW214772   1.559   1.904   6.366  0.7889  0.9494  2.6583
 1104SOL     OW14773   2.515   4.683   3.261 -0.5788  0.3982 -0.2764
 1104SOL    HW114774   2.578   0.008   3.315 -1.7700 -0.3953  1.8068
 1104SOL    HW214775   2.453   4.654   3.329  0.7097 -1.4123  0.1268
 1105SOL     OW14776   1.250   1.602   7.460  0.2301  0.4076  0.0472
 1105SOL    HW114777   1.199   1.525   7.436 -0.1349  0.6038  0.2090
 1105SOL    HW214778   1.185   1.670   7.474  0.7762  0.7433  0.9314
 1106SOL     OW14779   4.195   2.714  17.403  0.1120 -0.2977 -0.0170
 1106SOL    HW114780   4.144   2.794  17.401  1.3786  0.5289  0.4826
 1106SOL    HW214781   4.134   2.641  17.394 -0.0543  0.3145 -3.8665
 1107SOL     OW14782   0.601   1.358  16.783  0.4078 -0.4715  0.0251
 1107SOL    HW114783   0.693   1.336  16.768  0.2612  1.9744 -4.3641
 1107SOL    HW214784   0.557   1.279  16.751 -1.0420 -0.2640  1.5054
 1108SOL     OW14785   3.768   0.826   2.592 -0.2886  0.9301  0.2179
 1108SOL    HW114786   3.758   0.733   2.612  1.6916  0.7836  0.5472
 1108SOL    HW214787   3.732   0.830   2.503  0.3598 -0.2931 -0.0890
 1109SOL     OW14788   1.667   4.090  10.906 -0.5180  0.2813  0.2879
 1109SOL    HW114789   1.665   4.084  11.001  3.6556  0.4027  0.3867
 1109SOL    HW214790   1.727   4.163  10.897 -0.8818  0.8094  2.2877
 1110SOL     OW14791   4.100   4.626   9.979  0.7410  0.5518 -0.0973
 1110SOL    HW114792   4.148   4.660  10.054  1.5205  1.6925 -1.1041
 1110SOL    HW214793   4.049   4.705   9.958  0.6055 -0.1441 -2.4290
 1111SOL     OW14794   3.331   0.794   0.480 -0.1211 -0.0049 -0.3450
 1111SOL    HW114795   3.422   0.770   0.501  0.4543  2.3466 -0.2061
 1111SOL    HW214796   3.313   0.868   0.538  0.2858 -1.4815  1.6694
 1112SOL     OW14797   1.232   0.003   7.935  0.1881  0.0371 -0.7981
 1112SOL    HW114798   1.140   0.013   7.960  0.8611 -2.1602  2.4950
 1112SOL    HW214799   1.260   0.094   7.919  1.8387 -0.6396 -1.7676
 1113SOL     OW14800   2.786   2.334   1.605  0.0263 -0.0730 -0.3014
 1113SOL    HW114801   2.760   2.243   1.620  2.1183 -1.0196 -2.6406
 1113SOL    HW214802   2.715   2.368   1.550  1.1718  0.2791 -1.5545
 1114SOL     OW14803   1.083   2.112   6.486 -0.1083  0.1559 -0.2529
 1114SOL    HW114804   1.018   2.134   6.553  2.5527 -0.1108  2.4135
 1114SOL    HW214805   1.107   2.198   6.451 -0.1161  0.4657  0.4887
 1115SOL     OW14806   2.284   0.299   8.924 -0.3419  0.1089 -0.1478
 1115SOL    HW114807   2.322   0.337   9.003  1.0058 -1.3625 -0.0907
 1115SOL    HW214808   2.232   0.231   8.967 -0.8570  0.5931 -0.0020
 1116SOL     OW14809   3.302   0.185  15.420 -0.6348  0.6350  0.3732
 1116SOL    HW114810   3.255   0.163  15.501 -0.9999 -0.3482 -0.1159
 1116SOL    HW214811   3.233   0.226  15.368 -1.6259  0.0510  1.2385
 1117SOL     OW14812   0.528   0.499  15.937 -0.0962 -0.4891  0.3537
 1117SOL    HW114813   0.618   0.490  15.968 -0.5427  1.4679  2.2188
 1117SOL    HW214814   0.507   0.589  15.963  1.1731  0.8074 -3.1053
 1118SOL     OW14815   1.847   1.143  10.594  0.0501 -0.4955 -0.3059
 1118SOL    HW114816   1.856   1.049  10.581 -4.2365 -1.4114  3.3893
 1118SOL    HW214817   1.936   1.173  10.610  0.1799 -1.7873  1.3677
 1119SOL     OW14818   2.139   4.407   3.107  0.5852  0.2144  0.2486
 1119SOL    HW114819   2.235   4.410   3.108  0.5880  0.3581 -1.7487
 1119SOL    HW214820   2.128   4.501   3.122  0.2755  0.0221  1.2782
 1120SOL     OW14821   0.668   3.856   6.966  0.7780 -0.8462  0.2286
 1120SOL    HW114822   0.595   3.827   6.912 -0.0562 -0.5713  1.2175
 1120SOL    HW214823   0.619   3.835   7.045 -0.7928  0.0825 -0.4843
 1121SOL     OW14824   2.651   2.584  17.515  0.0645 -0.0644 -0.0828
 1121SOL    HW114825   2.624   2.621  17.599 -0.4902 -2.9717  1.0191
 1121SOL    HW214826   2.723   2.530  17.547  1.6015  2.7950  1.2990
 1122SOL     OW14827   2.350   3.365   8.471 -0.1417  0.4660  0.3027
 1122SOL    HW114828   2.337   3.284   8.421 -0.7337  0.5330  0.3475
 1122SOL    HW214829   2.434   3.395   8.437  0.1904 -0.6595  0.1336
 1123SOL     OW14830   0.624   0.895   2.459  0.4717  0.0276 -0.0961
 1123SOL    HW114831   0.557   0.880   2.392  2.2543 -2.6204 -1.2626
 1123SOL    HW214832   0.665   0.978   2.435  1.8504 -0.3518  0.9422
 1124SOL     OW14833   3.401   2.989  16.245  0.5872  0.0950  0.3578
 1124SOL    HW114834   3.321   3.017  16.200  0.8360 -0.3823 -0.3738
 1124SOL    HW214835   3.438   3.074  16.270 -1.0194  1.2161 -1.0718
 1125SOL     OW14836   0.905   1.852   2.454  0.1202 -0.3787  0.2778
 1125SOL    HW114837   0.816   1.860   2.488  1.1410  0.4902  2.8034
 1125SOL    HW214838   0.920   1.933   2.405 -1.8672 -0.2050 -0.0565
 1126SOL     OW14839   3.714   1.613   8.114 -0.0532  0.7760 -0.5718
 1126SOL    HW114840   3.637   1.564   8.143  1.2286 -0.7176  0.3022
 1126SOL    HW214841   3.726   1.573   8.028 -0.1181 -1.2732  0.3782
 1127SOL     OW14842   2.647   0.675  17.247 -0.2612 -0.2338  0.2629
 1127SOL    HW114843   2.739   0.650  17.242 -0.1429  0.0462  1.1135
 1127SOL    HW214844   2.656   0.759  17.292  1.7424 -1.4267  2.0697
 1128SOL     OW14845   2.449   4.501   8.785 -0.0717 -0.3173 -0.3743
 1128SOL    HW114846   2.457   4.447   8.863  2.4031  0.4169 -0.1388
 1128SOL    HW214847   2.356   4.524   8.794  0.5270  1.6415  0.7168
 1129SOL     OW14848   1.588   1.049  11.333  0.0363  0.1171 -0.2772
 1129SOL    HW114849   1.589   1.140  11.304  0.7955  0.3082  0.3812
 1129SOL    HW214850   1.562   1.058  11.425 -0.4469  0.0891 -0.4078
 1130SOL     OW14851   2.506   3.325   3.910 -0.2525  0.5154  0.5098
 1130SOL    HW114852   2.587   3.318   3.962 -0.3333 -1.1383  0.4400
 1130SOL    HW214853   2.534   3.286   3.827 -2.0320 -0.7258  0.4954
 1131SOL     OW14854   0.555   4.587   6.397 -0.1387 -0.5257  0.5683
 1131SOL    HW114855   0.466   4.601   6.430 -0.0733  0.8504  0.1562
 1131SOL    HW214856   0.584   4.509   6.445  2.0857 -0.1610 -0.1967
 1132SOL     OW14857   3.779   1.319  10.453  0.7816  0.6601  0.0480
 1132SOL    HW114858   3.826   1.333  10.370 -1.1841  1.7290 -0.8998
 1132SOL    HW214859   3.774   1.408  10.488  1.4850  0.6054  0.2781
 1133SOL     OW14860   0.217   1.887  17.102 -0.1285 -0.7351  0.2207
 1133SOL    HW114861   0.297   1.880  17.154  0.2967  2.1336 -0.0700
 1133SOL    HW214862   0.157   1.941  17.154  0.9032  0.0031  0.6375
 1134SOL     OW14863   1.136   0.668   7.192 -0.0901 -0.3668 -0.0047
 1134SOL    HW114864   1.168   0.606   7.258  1.3286  0.5074  0.1238
 1134SOL    HW214865   1.075   0.711   7.253  1.2357  2.1966 -0.4939
 1135SOL     OW14866   0.737   1.651  11.522 -0.1010 -0.8830  0.5235
 1135SOL    HW114867   0.722   1.722  11.460 -0.2143 -1.8167 -0.5307
 1135SOL    HW214868   0.648   1.643  11.557 -0.9969  1.5473 -1.2235
 1136SOL     OW14869   2.570   4.700   2.474 -0.7074  0.0605  0.2727
 1136SOL    HW114870   2.486   0.008   2.439  1.0207  3.5033 -0.8501
 1136SOL    HW214871   2.635   0.038   2.438 -2.3679  0.9096 -1.2871
 1137SOL     OW14872   0.830   1.654   6.184 -0.0150 -0.1859  0.0522
 1137SOL    HW114873   0.905   1.701   6.221 -0.5548  0.1924  0.6640
 1137SOL    HW214874   0.778   1.639   6.263  1.0165 -0.2984  0.7097
 1138SOL     OW14875   2.704   3.519  15.492 -0.4292  0.0018 -0.1778
 1138SOL    HW114876   2.656   3.448  15.450 -0.9420  1.8662 -2.7172
 1138SOL    HW214877   2.647   3.591  15.463  0.9955  0.2615 -2.2781
 1139SOL     OW14878   0.263   0.927   3.989 -0.1612  0.2230  0.0983
 1139SOL    HW114879   0.357   0.943   3.985  0.1246 -1.2305  0.9995
 1139SOL    HW214880   0.227   0.939   3.901 -0.0329  1.9620  0.2781
 1140SOL     OW14881   4.119   1.403   8.428 -0.3535  0.0609  0.7700
 1140SOL    HW114882   4.113   1.322   8.477  3.5384 -0.0404  1.0448
 1140SOL    HW214883   4.128   1.378   8.336  0.9875  0.2856  0.8392
 1141SOL     OW14884   2.627   4.478   9.523 -0.5501 -0.5613 -0.1732
 1141SOL    HW114885   2.675   4.409   9.567  1.1072  0.7576  0.0926
 1141SOL    HW214886   2.538   4.448   9.543  0.2752 -1.3680  2.2190
 1142SOL     OW14887   1.495   2.632   4.168 -0.3446  0.1786 -0.5150
 1142SOL    HW114888   1.539   2.611   4.086  2.2704 -1.9841  1.4410
 1142SOL    HW214889   1.545   2.709   4.193 -0.5083 -0.5914  2.2492
 1143SOL     OW14890   1.304   1.933   2.539  0.1142 -0.4071 -0.2513
 1143SOL    HW114891   1.396   1.958   2.533  0.3082 -0.3272  2.6432
 1143SOL    HW214892   1.257   1.996   2.485 -0.6910 -0.2710  0.6063
 1144SOL     OW14893   2.924   2.206   5.237 -0.2200  0.0516  0.1200
 1144SOL    HW114894   2.867   2.245   5.304 -1.0759 -1.5612  0.3444
 1144SOL    HW214895   2.921   2.273   5.169 -0.0577 -0.2157 -0.1501
 1145SOL     OW14896   1.303   0.098   5.411 -0.5177 -0.4545 -0.2249
 1145SOL    HW114897   1.274   0.175   5.461  0.7472  1.1230 -1.9086
 1145SOL    HW214898   1.312   0.028   5.476  1.7982  0.6972  0.7200
 1146SOL     OW14899   2.227   3.455  10.525 -0.2888 -0.2143 -0.2648
 1146SOL    HW114900   2.152   3.426  10.474 -0.8306 -1.8616  1.4602
 1146SOL    HW214901   2.278   3.487  10.451  1.3054 -1.6622  0.2285
 1147SOL     OW14902   3.072   3.317  11.657  0.0430 -0.1622 -0.1661
 1147SOL    HW114903   3.022   3.384  11.611 -0.6903  0.0703  0.9798
 1147SOL    HW214904   3.004   3.286  11.717 -0.4773 -0.2057 -0.7742
 1148SOL     OW14905   2.676   4.050  13.699 -0.8562 -0.6014 -0.2204
 1148SOL    HW114906   2.754   4.067  13.752 -0.9637 -0.0971 -0.2254
 1148SOL    HW214907   2.639   4.137  13.683  0.2872 -0.1135 -0.2131
 1149SOL     OW14908   2.983   2.934  14.436 -0.2277  0.4617  0.6479
 1149SOL    HW114909   2.896   2.894  14.437  0.5060 -1.1852 -1.5649
 1149SOL    HW214910   2.980   2.981  14.353 -0.7725  0.3263  0.5917
 1150SOL     OW14911   0.314   4.616   0.993 -0.0062 -0.2280 -0.0691
 1150SOL    HW114912   0.320   4.563   1.072 -0.7169  0.2865  0.3345
 1150SOL    HW214913   0.309   4.552   0.922  1.1038 -1.7030  1.2057
 1151SOL     OW14914   3.027   4.212   4.715  0.7111 -0.1952 -0.1453
 1151SOL    HW114915   2.976   4.139   4.678 -1.4417 -0.1022  2.7038
 1151SOL    HW214916   2.975   4.240   4.790  0.0293 -1.3532 -0.1906
 1152SOL     OW14917   3.087   4.247  12.525  0.3715 -0.1467  0.6768
 1152SOL    HW114918   3.129   4.161  12.517  2.1502  0.7571  0.3031
 1152SOL    HW214919   3.013   4.217  12.578  1.4639 -1.5211  1.4141
 1153SOL     OW14920   3.963   2.782   6.012 -0.2894 -0.1215  0.4467
 1153SOL    HW114921   3.887   2.839   6.025  0.1401  0.5083  0.1435
 1153SOL    HW214922   3.920   2.716   5.958 -1.8505  0.5942  0.7889
 1154SOL     OW14923   3.686   0.486  12.770 -0.0310  0.0812  0.0099
 1154SOL    HW114924   3.763   0.429  12.777 -1.4645 -1.6933  1.2080
 1154SOL    HW214925   3.620   0.420  12.791  1.8897 -2.6689 -2.6391
 1155SOL     OW14926   1.386   3.154   3.578  0.3115 -0.4617  0.4447
 1155SOL    HW114927   1.393   3.072   3.530  1.9095  0.0538 -0.2037
 1155SOL    HW214928   1.402   3.220   3.511 -0.7194 -0.3997  0.2650
 1156SOL     OW14929   3.091   3.578   4.101  0.5458  0.0125 -0.1477
 1156SOL    HW114930   3.094   3.487   4.071 -1.6486 -0.1044  0.0216
 1156SOL    HW214931   2.996   3.590   4.102  0.6838  1.1278 -0.9907
 1157SOL     OW14932   3.197   4.172   7.764  0.3547 -0.2539  0.3184
 1157SOL    HW114933   3.184   4.256   7.808 -1.0228  0.4089 -1.3622
 1157SOL    HW214934   3.265   4.197   7.701 -1.6532  0.2691 -1.6344
 1158SOL     OW14935   2.190   0.178   8.371 -0.2591  0.2368  0.3232
 1158SOL    HW114936   2.222   0.179   8.280 -2.9896 -1.1192 -0.6220
 1158SOL    HW214937   2.127   0.249   8.360  0.3672  0.5301 -1.4481
 1159SOL     OW14938   2.089   4.232   4.447 -0.2411 -0.0037  0.0928
 1159SOL    HW114939   2.168   4.178   4.448  1.5016  2.6166  0.2014
 1159SOL    HW214940   2.125   4.319   4.432 -2.8760  1.3934  1.7564
 1160SOL     OW14941   0.005   3.460   5.651  0.4626 -0.0125 -0.2309
 1160SOL    HW114942   4.663   3.530   5.661  2.3292  1.5016  1.3731
 1160SOL    HW214943   0.046   3.462   5.738 -0.6943 -1.9556  0.3600
 1161SOL     OW14944   3.190   0.249   6.319 -0.2349  0.0896 -0.1877
 1161SOL    HW114945   3.257   0.290   6.374  0.6835  0.9334 -1.9527
 1161SOL    HW214946   3.180   0.165   6.365  0.1448 -0.4770 -1.1526
 1162SOL     OW14947   2.330   0.926   2.065  0.2054 -0.2415 -0.1195
 1162SOL    HW114948   2.282   0.917   2.148  1.8948 -1.8663  0.6830
 1162SOL    HW214949   2.264   0.912   1.998 -2.5886  0.9965  2.3798
 1163SOL     OW14950   1.308   1.018   5.598  0.7481 -0.2644 -0.6750
 1163SOL    HW114951   1.387   0.968   5.582  0.5709 -0.0848 -2.1264
 1163SOL    HW214952   1.353   1.102   5.611 -1.2566  0.9884 -1.8209
 1164SOL     OW14953   4.657   0.279   9.453 -0.1030 -0.4066 -0.6174
 1164SOL    HW114954   4.569   0.243   9.462  0.4926 -1.2666  1.5743
 1164SOL    HW214955   4.655   0.331   9.533  0.9799  0.0838 -0.9119
 1165SOL     OW14956   0.070   3.223  15.082  0.3420  0.1253  0.1730
 1165SOL    HW114957   0.039   3.311  15.104 -0.5962  0.1579 -1.2725
 1165SOL    HW214958   0.164   3.235  15.089 -0.1019  3.5111  0.2924
 1166SOL     OW14959   3.786   2.174   7.660 -0.0004  0.3074  0.1432
 1166SOL    HW114960   3.734   2.138   7.732 -0.2165  1.4842  0.5712
 1166SOL    HW214961   3.740   2.135   7.585  1.5233  0.9912 -1.1206
 1167SOL     OW14962   3.960   2.223   3.600 -0.1597  0.1083  0.7108
 1167SOL    HW114963   3.992   2.133   3.609 -0.0924  0.1011  0.3927
 1167SOL    HW214964   3.975   2.242   3.507  0.3703 -0.8959  0.5973
 1168SOL     OW14965   2.742   1.375   1.226  0.3054 -0.1500  0.4673
 1168SOL    HW114966   2.692   1.399   1.147 -0.4956 -1.9743  0.4237
 1168SOL    HW214967   2.739   1.280   1.214  1.6306 -0.2052  0.6588
 1169SOL     OW14968   1.192   0.567  15.511 -0.3301 -0.5830 -0.3556
 1169SOL    HW114969   1.125   0.553  15.445 -0.0710 -0.1938 -0.6984
 1169SOL    HW214970   1.250   0.623  15.459 -1.7102  1.9221  0.8078
 1170SOL     OW14971   2.452   2.715  17.385 -0.9076  0.7228  0.3326
 1170SOL    HW114972   2.462   2.779  17.455  1.8172 -0.6544  1.2092
 1170SOL    HW214973   2.517   2.648  17.406 -1.0040  0.5043 -0.0547
 1171SOL     OW14974   3.164   3.523  16.953  0.1419 -0.4134 -0.7226
 1171SOL    HW114975   3.211   3.557  17.029 -0.9334 -1.7655  0.5532
 1171SOL    HW214976   3.112   3.453  16.992  0.5931 -0.9035 -1.0036
 1172SOL     OW14977   3.912   0.152  17.567 -0.6733 -0.3915  0.1483
 1172SOL    HW114978   3.976   0.214  17.533  0.2619 -0.9722  0.8488
 1172SOL    HW214979   3.850   0.208  17.614  0.7029 -0.7143  2.3174
 1173SOL     OW14980   3.162   2.071   5.898  0.1563 -0.1718 -0.2182
 1173SOL    HW114981   3.144   2.020   5.977  1.9226  0.3758  0.5493
 1173SOL    HW214982   3.080   2.063   5.850 -0.0984 -1.2658  0.3894
 1174SOL     OW14983   3.846   4.238   4.682 -0.2973 -0.3303 -0.5207
 1174SOL    HW114984   3.860   4.239   4.588 -0.2127 -0.2549 -0.5079
 1174SOL    HW214985   3.824   4.145   4.692 -1.4172  0.1337  1.3975
 1175SOL     OW14986   1.722   1.225   6.803 -0.2500  0.1642 -0.1667
 1175SOL    HW114987   1.716   1.227   6.899  2.3959  1.0806 -0.0132
 1175SOL    HW214988   1.817   1.228   6.792 -0.5806  2.0319 -2.6464
 1176SOL     OW14989   0.822   2.244  12.195  0.8490  0.5137 -0.3218
 1176SOL    HW114990   0.859   2.177  12.138  1.5372 -0.8020  1.6577
 1176SOL    HW214991   0.754   2.190  12.236  1.9929 -1.0834 -0.5177
 1177SOL     OW14992   0.967   4.153  16.141 -0.8369 -0.7777  0.4400
 1177SOL    HW114993   0.960   4.243  16.174  3.1215 -0.3928  0.2248
 1177SOL    HW214994   1.062   4.145  16.146 -0.8906 -0.2391  2.3216
 1178SOL     OW14995   1.218   2.711   2.142  0.3175 -0.5690  0.2705
 1178SOL    HW114996   1.220   2.793   2.093 -0.7635 -0.5884  0.1925
 1178SOL    HW214997   1.129   2.716   2.178  0.0603  0.0942 -0.4579
 1179SOL     OW14998   0.194   1.800   8.527 -0.4187 -0.1942 -0.0931
 1179SOL    HW114999   0.227   1.721   8.569 -0.1274  0.2919  0.5842
 1179SOL    HW215000   0.256   1.867   8.558  1.8675 -3.0577  1.5172
 1180SOL     OW15001   1.843   1.069   7.759 -0.0812 -0.0703  0.5306
 1180SOL    HW115002   1.842   0.978   7.789 -0.7858  0.0599  0.9120
 1180SOL    HW215003   1.888   1.067   7.675 -0.8244  1.4389  0.1035
 1181SOL     OW15004   2.020   4.590   7.880  0.2630 -0.3073 -0.2934
 1181SOL    HW115005   2.028   4.659   7.945  2.0592 -0.4263 -0.3866
 1181SOL    HW215006   2.056   4.625   7.798  1.1411  0.3095  0.3678
 1182SOL     OW15007   1.353   4.540  15.180  0.3046 -0.7550 -0.3642
 1182SOL    HW115008   1.343   4.603  15.252  1.0127  0.7025 -1.5299
 1182SOL    HW215009   1.406   4.470  15.219  0.8921 -0.3191 -0.3635
 1183SOL     OW15010   2.500   2.867   4.188  0.7605 -0.2267  0.4201
 1183SOL    HW115011   2.452   2.879   4.270  0.7027 -1.1506  0.5271
 1183SOL    HW215012   2.577   2.923   4.201  0.3706  0.2872  0.4761
 1184SOL     OW15013   0.604   3.690  10.363 -0.3059 -0.3406 -0.4043
 1184SOL    HW115014   0.652   3.763  10.322 -1.2269  0.7668  0.4801
 1184SOL    HW215015   0.595   3.711  10.455  0.8222 -0.1764 -0.3331
 1185SOL     OW15016   0.538   4.002  13.202 -0.0495  0.0704 -0.0922
 1185SOL    HW115017   0.450   3.993  13.237  0.2247 -2.1569 -0.0001
 1185SOL    HW215018   0.591   3.995  13.281  2.4255  0.5079 -1.7062
 1186SOL     OW15019   1.187   3.451   1.847  0.0259 -0.3072  0.5118
 1186SOL    HW115020   1.170   3.491   1.932 -0.3415 -0.4723  0.5120
 1186SOL    HW215021   1.243   3.524   1.818  1.6273 -2.1651 -1.0840
 1187SOL     OW15022   1.753   4.649   5.833  0.8683  0.2791  0.2253
 1187SOL    HW115023   1.734   4.561   5.799  2.5238 -0.2436  0.6793
 1187SOL    HW215024   1.841   4.653   5.796 -0.8163 -1.2346 -4.0418
 1188SOL     OW15025   2.576   4.129   5.250 -0.4512 -0.1899 -0.0907
 1188SOL    HW115026   2.558   4.048   5.298 -0.0782 -1.1831 -1.6282
 1188SOL    HW215027   2.672   4.123   5.243 -0.4195 -0.2365  0.3769
 1189SOL     OW15028   3.355   0.049   4.316 -0.2708 -0.4087  0.4679
 1189SOL    HW115029   3.359   4.676   4.324  2.1381 -0.6503 -3.3797
 1189SOL    HW215030   3.261   0.066   4.317 -0.5828 -2.3004  3.4083
 1190SOL     OW15031   4.067   4.058   2.305 -0.3744  0.1737  0.1760
 1190SOL    HW115032   4.057   3.990   2.372  0.6268 -2.1085 -1.9818
 1190SOL    HW215033   3.976   4.086   2.311 -1.1752 -2.1394 -0.8873
 1191SOL     OW15034   1.863   4.244   3.786  0.1841 -0.3159 -0.2469
 1191SOL    HW115035   1.769   4.228   3.787 -0.4182  3.1978 -2.0479
 1191SOL    HW215036   1.870   4.287   3.701  1.5217 -2.0757 -1.0266
 1192SOL     OW15037   3.227   0.516  17.447  0.1927 -0.1990 -0.3207
 1192SOL    HW115038   3.167   0.442  17.461  0.3786 -0.6159 -1.7373
 1192SOL    HW215039   3.281   0.476  17.380  0.6784 -1.2857  0.7260
 1193SOL     OW15040   0.984   2.507   5.629 -0.4100 -0.3255 -0.2346
 1193SOL    HW115041   1.073   2.543   5.635 -0.8991  0.4851  1.8794
 1193SOL    HW215042   0.978   2.525   5.535  1.3341  1.4306 -0.0104
 1194SOL     OW15043   3.938   0.632   2.023 -0.1476 -0.0575  0.6487
 1194SOL    HW115044   3.933   0.624   1.928  2.0608 -0.3327  0.5571
 1194SOL    HW215045   3.979   0.551   2.053  1.8879  0.4263 -0.8430
 1195SOL     OW15046   0.490   1.541   2.224  0.2393  0.4338 -0.2698
 1195SOL    HW115047   0.542   1.619   2.242  1.9286 -0.7373 -0.0764
 1195SOL    HW215048   0.420   1.567   2.284 -0.8954 -0.3718 -1.2326
 1196SOL     OW15049   0.232   4.382   7.280 -0.1497  0.3037 -0.1127
 1196SOL    HW115050   0.327   4.392   7.277 -0.2881  1.5910  0.0453
 1196SOL    HW215051   0.237   4.311   7.216 -1.0472 -1.4752  1.7787
 1197SOL     OW15052   1.359   0.688  15.349  0.1391 -0.1623  0.1417
 1197SOL    HW115053   1.378   0.644  15.266  1.3334  1.9805 -0.7465
 1197SOL    HW215054   1.450   0.711  15.369  0.0352  0.1932  0.2073
 1198SOL     OW15055   0.986   4.647  14.443 -0.5147  0.3321  0.3575
 1198SOL    HW115056   1.055   4.593  14.403  2.1098  3.6566  0.3383
 1198SOL    HW215057   0.908   4.604  14.410  0.5505 -0.5908 -0.9608
 1199SOL     OW15058   2.542   3.315  15.390 -0.6644 -0.4326  0.2428
 1199SOL    HW115059   2.511   3.367  15.317 -0.0776 -2.1713 -1.2520
 1199SOL    HW215060   2.474   3.251  15.409  0.3512 -2.2889 -2.3320
 1200SOL     OW15061   2.746   3.004  14.066 -0.3070  0.5596 -0.0585
 1200SOL    HW115062   2.679   2.944  14.032 -2.6041  2.1281  1.7220
 1200SOL    HW215063   2.689   3.079  14.082  0.4705  0.8795  1.2808
 1201SOL     OW15064   3.411   0.218  11.984 -0.3901  0.2219  0.0534
 1201SOL    HW115065   3.320   0.231  11.957 -0.4113  2.7959  1.4202
 1201SOL    HW215066   3.454   0.177  11.908  2.1107  0.2984  1.4160
 1202SOL     OW15067   3.220   0.185   8.267  0.5498 -0.3009  0.3407
 1202SOL    HW115068   3.138   0.134   8.266 -0.4971  1.3757  1.2119
 1202SOL    HW215069   3.248   0.176   8.358 -0.3377  2.8652  0.9163
 1203SOL     OW15070   1.020   0.505  15.973 -0.0820 -0.0214  0.3012
 1203SOL    HW115071   1.113   0.524  15.958 -0.0269 -2.2208 -2.0038
 1203SOL    HW215072   1.024   0.419  15.932 -0.7187 -0.8415  1.9521
 1204SOL     OW15073   0.513   0.917  10.099 -0.1172 -0.2455 -0.6033
 1204SOL    HW115074   0.455   0.885  10.030 -1.7815  0.5838  0.3810
 1204SOL    HW215075   0.568   0.976  10.048 -1.0788  0.3955 -0.8978
 1205SOL     OW15076   2.561   4.292   3.221 -0.0030 -0.1121  0.4702
 1205SOL    HW115077   2.502   4.353   3.176  0.4701  0.3947  0.5337
 1205SOL    HW215078   2.612   4.341   3.286 -2.4160  1.1304  1.4295
 1206SOL     OW15079   0.881   2.017  10.213 -0.6229 -0.3523 -0.0264
 1206SOL    HW115080   0.967   1.979  10.193 -0.3502  1.0701 -1.5273
 1206SOL    HW215081   0.823   1.941  10.216  0.5423 -1.2589 -0.4986
 1207SOL     OW15082   0.378   4.635   4.922  0.5780  0.1568 -0.5268
 1207SOL    HW115083   0.286   4.643   4.898  0.6289 -1.5233 -1.2913
 1207SOL    HW215084   0.370   4.627   5.017  0.0743  0.0549 -0.5750
 1208SOL     OW15085   0.467   4.315  10.455 -0.2147  0.5101  0.3014
 1208SOL    HW115086   0.486   4.222  10.467 -0.4464  0.1036 -2.3621
 1208SOL    HW215087   0.553   4.355  10.464  0.4652 -0.5115 -1.6295
 1209SOL     OW15088   2.271   1.278   3.518 -0.4094 -0.1732 -0.2743
 1209SOL    HW115089   2.191   1.330   3.526 -0.5738 -0.3836 -0.5443
 1209SOL    HW215090   2.256   1.219   3.592 -0.5767  0.9900  0.6193
 1210SOL     OW15091   1.043   2.794   1.433  0.2337  0.0764  0.1858
 1210SOL    HW115092   1.036   2.759   1.344  2.4449  0.9812 -0.3500
 1210SOL    HW215093   1.052   2.889   1.423  0.5961 -0.3988 -3.8132
 1211SOL     OW15094   4.673   1.942  12.642 -0.3066 -0.0555  0.0753
 1211SOL    HW115095   4.587   1.903  12.653 -0.4276  0.1736 -0.0717
 1211SOL    HW215096   4.718   1.909  12.721 -1.5938  1.6718  1.5245
 1212SOL     OW15097   1.956   1.087  11.314 -0.2931 -0.1114  0.0818
 1212SOL    HW115098   1.972   1.005  11.361  0.4670  1.4954  2.5973
 1212SOL    HW215099   1.865   1.106  11.338 -0.9148 -1.8620 -0.8455
 1213SOL     OW15100   4.143   2.630   9.345  0.0558  0.1331 -0.4358
 1213SOL    HW115101   4.090   2.558   9.311 -1.1875  1.4925 -1.3553
 1213SOL    HW215102   4.110   2.707   9.299  1.6749  0.6680 -0.7166
 1214SOL     OW15103   3.918   0.571  15.383 -0.1566 -0.0210 -0.8344
 1214SOL    HW115104   3.997   0.548  15.431 -1.0210 -0.5822  0.3188
 1214SOL    HW215105   3.917   0.666  15.372 -2.5921  0.0616  0.1380
 1215SOL     OW15106   0.568   3.763  11.661 -0.2274  0.4354 -0.0527
 1215SOL    HW115107   0.584   3.681  11.707  1.3463  1.2999  0.9694
 1215SOL    HW215108   0.484   3.786  11.702  0.4602 -0.9431  2.1584
 1216SOL     OW15109   0.375   3.868   2.638 -0.4870  0.5728  0.1188
 1216SOL    HW115110   0.334   3.794   2.683  0.1738  0.0269 -0.1751
 1216SOL    HW215111   0.376   3.841   2.546 -1.5827  1.5972 -0.2016
 1217SOL     OW15112   1.400   2.048  14.258  0.3441  0.1865 -0.0944
 1217SOL    HW115113   1.458   2.071  14.186  1.5957  1.2974  1.2579
 1217SOL    HW215114   1.447   1.982  14.309 -1.5659 -0.2934  1.0764
 1218SOL     OW15115   0.073   0.054   4.575  0.6131 -0.4385 -0.8803
 1218SOL    HW115116   0.042   0.130   4.526  0.7543  0.9399  1.1820
 1218SOL    HW215117   0.022   4.708   4.533 -1.5626 -0.7807  2.3103
 1219SOL     OW15118   4.019   3.149  12.015  0.1546 -0.7092 -0.3043
 1219SOL    HW115119   3.962   3.220  11.984  2.8423  0.8114 -1.7253
 1219SOL    HW215120   3.968   3.096  12.076  0.5929 -1.0312 -0.2184
 1220SOL     OW15121   3.425   3.441   1.750  0.3408  0.6445  0.5362
 1220SOL    HW115122   3.361   3.508   1.774  1.4287  1.3564  1.4106
 1220SOL    HW215123   3.411   3.381   1.823  1.0591  0.7095  0.7229
 1221SOL     OW15124   2.979   3.939   6.500 -0.0145  0.2239 -0.3368
 1221SOL    HW115125   2.946   4.008   6.442 -0.3646 -0.2772 -0.7406
 1221SOL    HW215126   2.906   3.878   6.489  0.2314 -0.0465 -0.4935
 1222SOL     OW15127   4.712   0.067   3.639  0.0825  0.1069  0.0276
 1222SOL    HW115128   4.622   0.073   3.608 -0.3731 -1.9629  0.9361
 1222SOL    HW215129   0.014   4.706   3.599  2.9369  1.2462 -0.6041
 1223SOL     OW15130   0.245   1.159  17.535  0.3103  0.0846  0.4161
 1223SOL    HW115131   0.175   1.117  17.587  1.1730 -0.5929  1.0253
 1223SOL    HW215132   0.200   1.244  17.533  1.8307  0.7902 -3.1335
 1224SOL     OW15133   4.495   0.807   1.862  0.1778 -0.8972 -0.4516
 1224SOL    HW115134   4.422   0.746   1.873  0.3498 -1.2438 -1.2436
 1224SOL    HW215135   4.486   0.854   1.945 -0.7302  0.0531 -1.0793
 1225SOL     OW15136   1.661   0.070   8.741  0.1437  0.3186 -0.0263
 1225SOL    HW115137   1.610   0.150   8.728  0.0599  0.5987  1.8937
 1225SOL    HW215138   1.601   0.018   8.794 -1.2363  0.9467 -0.9806
 1226SOL     OW15139   0.831   1.003   5.680 -0.8973  0.0382 -0.3950
 1226SOL    HW115140   0.919   1.034   5.701 -1.6497 -0.1264  2.9824
 1226SOL    HW215141   0.803   0.977   5.768  1.5337  2.7536  1.1966
 1227SOL     OW15142   1.192   1.267   7.702  0.1286  0.5589 -0.3919
 1227SOL    HW115143   1.122   1.319   7.742 -1.1751 -1.3252 -0.2678
 1227SOL    HW215144   1.142   1.226   7.631 -0.4716  0.0341  0.3341
 1228SOL     OW15145   1.247   0.025   1.904 -0.3153  0.3170  0.0491
 1228SOL    HW115146   1.318   0.087   1.887  1.1939 -0.9598  1.6890
 1228SOL    HW215147   1.174   0.080   1.933 -0.2210  2.0038 -2.8160
 1229SOL     OW15148   3.917   1.255  13.103  0.5952 -0.2892 -0.0589
 1229SOL    HW115149   3.854   1.272  13.034  0.9049 -1.8192 -0.7269
 1229SOL    HW215150   3.858   1.207  13.161  1.2558  0.3323  1.1417
 1230SOL     OW15151   1.894   0.154   4.994  0.1272  0.1656  0.4748
 1230SOL    HW115152   1.949   0.083   5.027  0.8761 -1.1557 -3.5571
 1230SOL    HW215153   1.965   0.205   4.955 -0.3315  0.5287  0.1065
 1231SOL     OW15154   1.740   2.722   6.389  0.3402  0.2695 -0.0008
 1231SOL    HW115155   1.648   2.705   6.368  1.2137 -2.1367 -1.9518
 1231SOL    HW215156   1.758   2.799   6.335 -0.6523 -0.2379 -1.0847
 1232SOL     OW15157   2.391   2.946   8.591  0.2666  0.4375 -0.3562
 1232SOL    HW115158   2.361   2.861   8.561  0.7064 -0.7351  2.5458
 1232SOL    HW215159   2.334   2.961   8.666 -1.0371  0.5303 -1.3535
 1233SOL     OW15160   4.226   3.333   5.202 -0.1941 -0.1120  0.2716
 1233SOL    HW115161   4.247   3.426   5.200  2.4734 -0.7496 -1.8015
 1233SOL    HW215162   4.145   3.338   5.150 -1.2495 -2.3588  1.6957
 1234SOL     OW15163   2.287   1.544  15.885 -0.3495  0.5435 -0.3505
 1234SOL    HW115164   2.202   1.562  15.925 -0.3940  2.0254 -1.1235
 1234SOL    HW215165   2.262   1.562  15.795 -2.3819 -0.1890  0.0671
 1235SOL     OW15166   2.871   3.264   6.601  0.1048  0.3438 -0.0591
 1235SOL    HW115167   2.965   3.251   6.584  0.0978 -0.3339  0.4179
 1235SOL    HW215168   2.863   3.355   6.630  0.8308  1.1688 -2.4295
 1236SOL     OW15169   0.365   0.195   1.874  0.1350  0.4456  0.0875
 1236SOL    HW115170   0.284   0.244   1.892  0.0506  0.0942  0.6731
 1236SOL    HW215171   0.343   0.142   1.797  1.3728 -0.6921  0.5335
 1237SOL     OW15172   1.329   1.135   3.570 -0.4752  0.0081  0.9558
 1237SOL    HW115173   1.239   1.115   3.596 -0.4395 -0.1105  0.9894
 1237SOL    HW215174   1.312   1.228   3.555 -0.2758  0.0384  0.9125
 1238SOL     OW15175   0.685   0.972   7.927  0.1186  0.1612 -0.5838
 1238SOL    HW115176   0.635   0.972   7.845 -1.1139 -1.2587  0.1834
 1238SOL    HW215177   0.609   0.944   7.977 -0.0004  3.0427  0.8620
 1239SOL     OW15178   2.095   4.551  12.014  0.4163  0.3825  0.3335
 1239SOL    HW115179   2.180   4.509  12.016  0.1576 -0.1769 -0.1985
 1239SOL    HW215180   2.076   4.551  11.920  1.6049  1.2048  0.1032
 1240SOL     OW15181   2.093   2.800   3.729 -0.0304  0.0230  0.6338
 1240SOL    HW115182   2.034   2.774   3.658  0.0741  0.1325  0.5066
 1240SOL    HW215183   2.121   2.884   3.693  1.3846  0.2585  2.3200
 1241SOL     OW15184   4.631   4.196   1.787  0.3810  0.1374  0.2958
 1241SOL    HW115185   4.680   4.168   1.710  1.5742 -0.9272  1.4531
 1241SOL    HW215186   4.660   4.287   1.799 -0.5093  0.5510 -0.6680
 1242SOL     OW15187   1.936   1.596   3.271  0.3912 -0.0194 -0.0970
 1242SOL    HW115188   1.992   1.610   3.195 -0.1633  0.4978 -0.4032
 1242SOL    HW215189   1.940   1.501   3.264 -0.6005  0.0247 -1.1491
 1243SOL     OW15190   2.996   2.832  15.917  0.5681 -0.4118  0.3539
 1243SOL    HW115191   2.968   2.820  16.008 -1.2611  0.1911 -0.1347
 1243SOL    HW215192   2.928   2.790  15.865  2.8749  0.7156 -3.5723
 1244SOL     OW15193   2.432   0.624  17.065  0.3535  0.2138 -0.0183
 1244SOL    HW115194   2.498   0.603  17.131 -0.2070  0.0996  0.5083
 1244SOL    HW215195   2.422   0.719  17.073 -1.8373 -0.0055 -0.1678
 1245SOL     OW15196   3.796   3.401  11.529  0.1399 -0.2943 -0.5862
 1245SOL    HW115197   3.774   3.313  11.562  0.6892 -0.7176 -1.3651
 1245SOL    HW215198   3.711   3.442  11.513 -0.4071  0.3560  3.8377
 1246SOL     OW15199   1.284   1.467   9.328  0.1313 -0.0793  0.0947
 1246SOL    HW115200   1.351   1.440   9.265 -0.8509 -1.6154 -0.2892
 1246SOL    HW215201   1.342   1.503   9.395  1.2645 -1.1359 -0.3276
 1247SOL     OW15202   0.834   3.931  10.813 -0.0020  0.0848 -0.2245
 1247SOL    HW115203   0.899   4.000  10.815 -0.2210  0.2708  0.4339
 1247SOL    HW215204   0.856   3.877  10.888  2.5917  0.5870 -0.6502
 1248SOL     OW15205   4.380   0.626  12.435  0.0027 -0.2046  0.4541
 1248SOL    HW115206   4.460   0.657  12.393  0.6291 -3.1126 -0.4785
 1248SOL    HW215207   4.323   0.697  12.404 -0.8596 -0.9490  0.3567
 1249SOL     OW15208   4.016   2.593  15.852 -0.0947 -0.3252 -0.3488
 1249SOL    HW115209   3.998   2.531  15.922 -1.1935 -1.2414 -1.4437
 1249SOL    HW215210   4.109   2.614  15.858 -0.5237  1.8832 -1.1544
 1250SOL     OW15211   2.948   3.463   0.871  0.6346 -0.3517 -0.5294
 1250SOL    HW115212   2.959   3.496   0.960  1.5713  1.0976 -1.1849
 1250SOL    HW215213   3.027   3.409   0.871  1.0066  0.2001 -0.3064
 1251SOL     OW15214   0.965   3.342   4.081 -0.0751 -0.1360  0.1752
 1251SOL    HW115215   0.960   3.358   4.175 -1.2674 -1.8780  0.4202
 1251SOL    HW215216   1.040   3.399   4.064  0.2478 -0.6283 -0.0558
 1252SOL     OW15217   1.561   1.940   2.804 -0.0628  0.4546  0.8025
 1252SOL    HW115218   1.469   1.921   2.824  0.0288  0.4252  1.1927
 1252SOL    HW215219   1.611   1.897   2.874  1.6002  1.6047  0.3272
 1253SOL     OW15220   4.097   0.764   6.154  0.0167 -0.1162 -0.4499
 1253SOL    HW115221   4.054   0.816   6.221  1.5856  0.4616  0.0921
 1253SOL    HW215222   4.017   0.740   6.106  1.5419 -1.7026 -2.2054
 1254SOL     OW15223   2.379   0.681   3.398 -0.5346  0.9817  0.0028
 1254SOL    HW115224   2.303   0.710   3.449  0.6116  0.8614  1.7959
 1254SOL    HW215225   2.400   0.766   3.361 -1.2255  0.9644 -0.4290
 1255SOL     OW15226   2.206   2.608  11.624  0.0069 -0.2237 -0.2601
 1255SOL    HW115227   2.226   2.586  11.533 -0.4092 -0.5661 -0.2647
 1255SOL    HW215228   2.227   2.701  11.626  0.1874 -0.2781  0.4353
 1256SOL     OW15229   2.081   1.518   6.374  0.1833  0.5064  0.1162
 1256SOL    HW115230   2.170   1.536   6.344 -0.0317  1.8467  0.2450
 1256SOL    HW215231   2.035   1.488   6.296 -0.9902  5.3566 -1.0427
 1257SOL     OW15232   1.099   1.708  10.173 -0.1493 -0.4987  0.1921
 1257SOL    HW115233   1.143   1.664  10.100 -2.8248 -0.8085 -1.2131
 1257SOL    HW215234   1.156   1.786  10.175 -3.6013  2.0297 -0.2105
 1258SOL     OW15235   3.054   3.892   5.351  0.3872 -0.0101  0.0128
 1258SOL    HW115236   3.060   3.798   5.335 -2.6709 -0.4013  1.2016
 1258SOL    HW215237   3.133   3.912   5.400  0.8184 -1.1567 -0.2170
 1259SOL     OW15238   1.462   1.833  14.392 -0.4613  0.2740 -0.1976
 1259SOL    HW115239   1.468   1.800  14.481  1.1431 -0.1628 -0.4603
 1259SOL    HW215240   1.522   1.776  14.344  0.6949  0.3244  1.1822
 1260SOL     OW15241   3.637   0.157   1.279 -0.6833  0.0757  0.0371
 1260SOL    HW115242   3.624   0.144   1.373  0.5434  0.3962  0.2619
 1260SOL    HW215243   3.692   0.235   1.289 -0.1955 -0.2232 -0.2898
 1261SOL     OW15244   3.477   1.659  16.982 -0.7791 -0.6036  0.1271
 1261SOL    HW115245   3.472   1.600  16.907 -0.1137 -0.7128  0.1644
 1261SOL    HW215246   3.394   1.705  16.971 -0.1860  0.1238 -1.2200
 1262SOL     OW15247   1.462   0.896   2.300  0.6851 -0.3898 -0.0541
 1262SOL    HW115248   1.473   0.801   2.295  2.6565 -0.2127  0.8895
 1262SOL    HW215249   1.381   0.897   2.350  1.4141  0.1622  1.1237
 1263SOL     OW15250   2.494   2.821  13.997 -0.1236  0.4977 -0.3041
 1263SOL    HW115251   2.401   2.800  13.991 -0.2981  2.1094 -3.1136
 1263SOL    HW215252   2.506   2.847  13.906 -1.6840  2.5583  0.0908
 1264SOL     OW15253   0.016   3.237   6.392  0.4006  0.1624 -0.4031
 1264SOL    HW115254   0.031   3.331   6.387  0.0982  0.0116 -3.7140
 1264SOL    HW215255   0.043   3.214   6.303 -0.0817  2.2966 -1.0926
 1265SOL     OW15256   4.113   0.013  11.408  0.2787  0.1641 -0.4586
 1265SOL    HW115257   4.085   4.675  11.476 -0.7130  1.2170  0.0717
 1265SOL    HW215258   4.068   4.702  11.330 -1.4190 -0.3446  0.7460
 1266SOL     OW15259   1.799   0.497   6.534 -0.4561  0.0857  0.1072
 1266SOL    HW115260   1.762   0.582   6.557  0.1422  0.3708 -0.0025
 1266SOL    HW215261   1.818   0.458   6.619  0.0683 -1.9412 -0.9276
 1267SOL     OW15262   1.589   4.239   3.837 -0.2108 -0.5114  0.4372
 1267SOL    HW115263   1.607   4.322   3.881 -0.6196 -0.2247  0.0667
 1267SOL    HW215264   1.591   4.182   3.914  1.7940  0.5544  1.1843
 1268SOL     OW15265   3.899   0.116   3.657  0.5551  0.1448 -0.0835
 1268SOL    HW115266   3.882   0.161   3.574  0.9461 -2.6218 -1.6473
 1268SOL    HW215267   3.993   0.128   3.668  0.6930 -0.6637 -0.3972
 1269SOL     OW15268   0.226   1.296   8.548  0.3112 -0.3708 -0.2041
 1269SOL    HW115269   0.223   1.329   8.458  2.3055  2.0025  0.5981
 1269SOL    HW215270   0.136   1.303   8.579  0.6336  0.7064  0.4693
 1270SOL     OW15271   0.543   3.660   2.204  0.0526 -0.5347 -0.2020
 1270SOL    HW115272   0.516   3.732   2.261  1.9197 -0.5942  0.7700
 1270SOL    HW215273   0.463   3.643   2.155 -1.5960  1.4925  1.7706
 1271SOL     OW15274   1.929   3.085   4.528 -0.1792 -0.3719 -0.1951
 1271SOL    HW115275   1.971   3.148   4.585  1.2999 -0.7769 -0.8531
 1271SOL    HW215276   1.977   3.110   4.449 -0.0891 -0.3592 -0.1350
 1272SOL     OW15277   0.572   2.557  13.417 -0.8945 -0.4586  0.1577
 1272SOL    HW115278   0.550   2.479  13.365  1.0179 -0.4492 -0.6762
 1272SOL    HW215279   0.660   2.539  13.448 -1.1919 -2.8885 -0.3643
 1273SOL     OW15280   0.069   4.423   4.876  0.5967 -0.5764  0.1512
 1273SOL    HW115281   0.094   4.515   4.873  1.9087 -0.8674  1.6671
 1273SOL    HW215282   0.001   4.420   4.943  1.0360  2.2936  0.7364
 1274SOL     OW15283   4.393   1.257   6.869  0.1836 -0.6036 -0.1700
 1274SOL    HW115284   4.422   1.320   6.935 -1.2257  0.5498 -0.6400
 1274SOL    HW215285   4.298   1.264   6.882 -0.2581 -2.0890 -2.6772
 1275SOL     OW15286   0.885   1.739   0.725  0.3120  0.1016 -0.2633
 1275SOL    HW115287   0.876   1.688   0.644  1.4558 -0.1393 -0.2419
 1275SOL    HW215288   0.973   1.716   0.756  0.3550  0.2959 -0.2438
 1276SOL     OW15289   0.200   4.381  15.696 -0.5874 -0.3109  0.1782
 1276SOL    HW115290   0.152   4.464  15.697  2.0521  1.1892  2.0995
 1276SOL    HW215291   0.138   4.324  15.650 -0.4104 -0.4587  0.1264
 1277SOL     OW15292   0.029   3.537   3.845 -0.0753 -0.2309 -0.2751
 1277SOL    HW115293   4.716   3.574   3.764  0.8064  4.3063  1.4507
 1277SOL    HW215294   4.685   3.579   3.901  1.4365  1.7713  0.0060
 1278SOL     OW15295   2.618   1.897  16.295 -0.7390  0.2733 -0.1397
 1278SOL    HW115296   2.671   1.970  16.265  1.2289 -1.8552 -1.8914
 1278SOL    HW215297   2.684   1.839  16.335 -0.4599  0.9894  0.4387
 1279SOL     OW15298   3.215   3.768   7.225  0.2388 -0.5070  0.1593
 1279SOL    HW115299   3.260   3.851   7.209 -0.0618 -0.8849 -2.6308
 1279SOL    HW215300   3.214   3.727   7.138 -1.3677  0.0120 -0.0629
 1280SOL     OW15301   4.025   0.849  11.479 -0.3620  0.1599 -0.3291
 1280SOL    HW115302   4.031   0.806  11.393  0.1369  2.3337 -1.3775
 1280SOL    HW215303   4.118   0.836  11.501 -0.4684 -0.3120 -0.1633
 1281SOL     OW15304   0.067   1.374   4.491  0.6408  0.1842 -0.1697
 1281SOL    HW115305   0.115   1.438   4.542 -1.0210  1.3435 -0.0743
 1281SOL    HW215306   0.032   1.318   4.560 -0.2576 -0.4981 -1.1774
 1282SOL     OW15307   4.709   2.453   9.226 -0.2657 -0.1166 -0.2054
 1282SOL    HW115308   4.664   2.488   9.149  0.5629  1.5044  0.0491
 1282SOL    HW215309   4.644   2.395   9.267 -0.6187 -0.2359 -0.9352
 1283SOL     OW15310   1.879   0.216  15.676 -0.0723 -0.5508  0.3484
 1283SOL    HW115311   1.823   0.262  15.739 -0.8061 -0.7080 -0.1932
 1283SOL    HW215312   1.910   0.132  15.710 -0.4756 -1.5076 -1.6200
 1284SOL     OW15313   4.169   2.194   3.877 -0.2584 -0.9854  0.1087
 1284SOL    HW115314   4.241   2.223   3.820 -0.0832  0.9436  1.3083
 1284SOL    HW215315   4.205   2.119   3.925  0.1697 -0.4615  0.6126
 1285SOL     OW15316   0.596   0.739   7.234 -0.2694  0.1822  0.1106
 1285SOL    HW115317   0.533   0.791   7.184  1.4790  2.4589  0.2833
 1285SOL    HW215318   0.547   0.658   7.216  0.3289 -0.6811  2.3496
 1286SOL     OW15319   1.692   3.541   1.871  0.2593 -0.4910 -0.3391
 1286SOL    HW115320   1.614   3.526   1.924 -0.2205  0.2471 -0.8208
 1286SOL    HW215321   1.741   3.615   1.909  0.1108 -0.9555  0.7483
 1287SOL     OW15322   3.535   1.318   7.124 -0.4652 -0.3172  0.3750
 1287SOL    HW115323   3.490   1.320   7.039  0.2224 -0.3511  0.0043
 1287SOL    HW215324   3.531   1.411   7.146  1.4084 -0.1374 -0.0180
 1288SOL     OW15325   4.231   4.150   9.475 -0.7199  0.3112  0.3568
 1288SOL    HW115326   4.321   4.132   9.448 -0.4961  0.0669  1.2683
 1288SOL    HW215327   4.250   4.171   9.566  0.9816 -1.3254  0.3835
 1289SOL     OW15328   2.548   4.250   8.916  0.0889  0.4773  0.1814
 1289SOL    HW115329   2.574   4.190   8.986 -0.9594  0.2403  0.3712
 1289SOL    HW215330   2.454   4.261   8.931  0.0889  1.6151 -0.6399
 1290SOL     OW15331   1.699   1.253   7.079 -0.0296 -0.2814  0.6669
 1290SOL    HW115332   1.675   1.315   7.148 -0.4098  2.0247 -1.5444
 1290SOL    HW215333   1.644   1.179   7.104  1.4032 -0.5527  2.9533
 1291SOL     OW15334   1.286   0.540  15.953  0.3492  0.2228 -0.0348
 1291SOL    HW115335   1.268   0.499  15.868  3.4035 -2.8307  0.7970
 1291SOL    HW215336   1.327   0.622  15.927  0.6841  0.5501  1.4983
 1292SOL     OW15337   0.938   1.670   4.377  0.4481 -0.3717  0.5966
 1292SOL    HW115338   0.868   1.609   4.400 -0.1917 -0.7222 -2.3426
 1292SOL    HW215339   1.008   1.639   4.434  0.8735 -0.0157  0.2681
 1293SOL     OW15340   0.293   1.274   2.081 -0.1949  0.2635 -0.2238
 1293SOL    HW115341   0.384   1.271   2.111 -0.2391 -2.7996 -0.3532
 1293SOL    HW215342   0.307   1.290   1.987 -0.3465 -1.1933 -0.4927
 1294SOL     OW15343   3.663   1.231   2.074 -0.3513  0.1121  0.4614
 1294SOL    HW115344   3.708   1.297   2.020  1.4385  1.0934  3.1603
 1294SOL    HW215345   3.688   1.265   2.159  1.5706  2.3218 -0.9873
 1295SOL     OW15346   0.162   1.429   9.809 -0.1581 -0.3879 -0.1160
 1295SOL    HW115347   0.155   1.524   9.816  0.5163 -0.2389 -1.4077
 1295SOL    HW215348   0.157   1.409   9.716  1.0039  0.4202 -0.3597
 1296SOL     OW15349   1.439   2.723   3.277 -0.0908 -0.3181 -0.2953
 1296SOL    HW115350   1.500   2.690   3.212 -2.1019 -0.2468 -2.2211
 1296SOL    HW215351   1.423   2.646   3.333  2.2755 -1.8699 -1.7712
 1297SOL     OW15352   0.292   2.950   6.760 -0.1657 -0.0529 -0.1389
 1297SOL    HW115353   0.255   2.989   6.839  0.4446 -2.3628  1.3001
 1297SOL    HW215354   0.251   3.009   6.697  3.3035 -0.7074 -2.9824
 1298SOL     OW15355   1.945   4.056   6.674  0.2462 -0.6022  0.0433
 1298SOL    HW115356   2.005   3.988   6.705 -0.0067 -1.1213 -0.5897
 1298SOL    HW215357   1.923   4.097   6.758 -0.6223  2.8507 -1.8504
 1299SOL     OW15358   2.483   3.703   0.808 -0.2734  0.6272  0.0877
 1299SOL    HW115359   2.568   3.732   0.841 -0.1299  0.8329 -0.4685
 1299SOL    HW215360   2.430   3.745   0.876 -1.7643  1.9765 -1.9505
 1300SOL     OW15361   4.316   0.281   5.384  0.0212 -0.8875 -0.5778
 1300SOL    HW115362   4.272   0.354   5.339 -0.4125  0.3012  1.7564
 1300SOL    HW215363   4.249   0.214   5.372  0.0288 -0.5038 -2.9500
 1301SOL     OW15364   2.800   3.569  16.029 -0.4906  0.1133 -0.0254
 1301SOL    HW115365   2.789   3.595  15.937  1.3374 -0.3650 -0.3924
 1301SOL    HW215366   2.852   3.648  16.047  0.7522 -0.3475 -1.5985
 1302SOL     OW15367   4.003   2.271   5.617  0.0826  0.4421 -0.2560
 1302SOL    HW115368   4.019   2.180   5.643 -0.3831  0.3724 -0.2118
 1302SOL    HW215369   3.923   2.286   5.667 -0.1949  0.2243 -0.6336
 1303SOL     OW15370   2.597   0.492   8.276  0.0358 -0.2833  0.4819
 1303SOL    HW115371   2.576   0.551   8.348 -0.4918  1.8892 -1.4295
 1303SOL    HW215372   2.547   0.537   8.208 -1.5808  0.9627  2.5133
 1304SOL     OW15373   1.389   2.012  16.179  0.1191 -0.1999  0.9570
 1304SOL    HW115374   1.323   2.048  16.120  0.1421 -0.3771  0.8238
 1304SOL    HW215375   1.470   2.043  16.139  1.0065 -3.3715  0.3566
 1305SOL     OW15376   0.790   2.905  11.000 -0.2902 -0.2598  0.2237
 1305SOL    HW115377   0.873   2.859  11.016 -0.2592 -0.6015 -0.8931
 1305SOL    HW215378   0.767   2.868  10.914  1.0683  0.5297 -0.4797
 1306SOL     OW15379   1.597   4.224   6.311  0.1074 -0.1092  0.3456
 1306SOL    HW115380   1.510   4.197   6.338 -0.2397  0.8314  0.1762
 1306SOL    HW215381   1.587   4.313   6.276  1.4573  0.2438  0.8507
 1307SOL     OW15382   3.478   4.542   9.212  0.1321 -0.2078  0.0746
 1307SOL    HW115383   3.421   4.467   9.192 -1.0368  1.0022 -1.0556
 1307SOL    HW215384   3.515   4.512   9.296 -0.3470 -0.0068  0.3606
 1308SOL     OW15385   0.957   3.275   6.957  0.2183 -0.2186 -0.0573
 1308SOL    HW115386   0.893   3.288   7.027  0.1377 -1.5381  0.1056
 1308SOL    HW215387   0.985   3.184   6.964  0.0459 -0.2782 -0.1525
 1309SOL     OW15388   4.029   1.584   9.814  0.3462  0.4312 -0.1458
 1309SOL    HW115389   4.048   1.514   9.752 -0.4108 -0.4238  0.5858
 1309SOL    HW215390   4.040   1.536   9.896 -0.8274  1.5612  0.6807
 1310SOL     OW15391   0.968   2.892   6.729  0.5456 -0.6847  0.1730
 1310SOL    HW115392   0.888   2.940   6.749  2.1593  1.3536  1.8183
 1310SOL    HW215393   1.001   2.886   6.819  0.5337 -2.2189  0.0681
 1311SOL     OW15394   1.193   2.077   4.554 -0.2422  0.1127  0.7359
 1311SOL    HW115395   1.258   2.144   4.533 -0.5673  0.5454  1.0958
 1311SOL    HW215396   1.209   2.085   4.648  1.1301  0.4831  0.4646
 1312SOL     OW15397   1.916   2.304   6.297  0.1149  0.7927 -0.0832
 1312SOL    HW115398   1.971   2.328   6.223 -0.9352 -1.4281 -1.5621
 1312SOL    HW215399   1.944   2.214   6.313 -0.7194  1.3351  4.4665
 1313SOL     OW15400   2.048   2.437   0.666  0.0565 -0.1698 -0.4163
 1313SOL    HW115401   1.971   2.449   0.722  2.0742 -1.6398  2.6853
 1313SOL    HW215402   2.011   2.361   0.619  0.4392 -0.3847 -0.3707
 1314SOL     OW15403   1.148   1.292   6.706 -0.0507  0.0646  0.5928
 1314SOL    HW115404   1.166   1.217   6.762  1.0967 -0.0737  0.0252
 1314SOL    HW215405   1.215   1.285   6.638  0.0319  1.9523  0.4624
 1315SOL     OW15406   4.288   2.420   6.956  0.3532  0.5862  0.0141
 1315SOL    HW115407   4.378   2.387   6.947 -0.3476 -1.8169  1.9254
 1315SOL    HW215408   4.246   2.374   6.884 -1.3425  0.0330  1.3651
 1316SOL     OW15409   2.187   0.575  14.045  0.4338  0.0214  1.1759
 1316SOL    HW115410   2.210   0.605  13.957 -1.8960 -2.6119 -0.3036
 1316SOL    HW215411   2.275   0.593  14.080  1.3922 -1.4993 -0.4409
 1317SOL     OW15412   0.705   4.452  12.243  0.4048 -0.4952  0.0562
 1317SOL    HW115413   0.669   4.498  12.318 -0.4749  0.8508 -1.2082
 1317SOL    HW215414   0.749   4.377  12.284  1.2686  0.5293  1.0190
 1318SOL     OW15415   4.702   3.014   2.382  0.3149  0.8493 -0.3060
 1318SOL    HW115416   0.024   3.083   2.333  4.3198  0.2895  2.5897
 1318SOL    HW215417   4.610   3.025   2.358  0.4850  2.9134  0.0228
 1319SOL     OW15418   3.345   0.461   3.238  0.1354  0.4280 -0.0673
 1319SOL    HW115419   3.262   0.446   3.282  0.1546 -0.7794 -0.4171
 1319SOL    HW215420   3.410   0.448   3.307  1.3263  1.1776 -1.0512
 1320SOL     OW15421   3.111   2.593   5.337 -0.3915 -0.0462 -0.0112
 1320SOL    HW115422   3.038   2.588   5.275 -0.3421  2.9482 -0.2987
 1320SOL    HW215423   3.073   2.528   5.396  2.5572 -2.0297 -0.2939
 1321SOL     OW15424   2.544   1.344   2.831  0.1002  0.1468  0.5451
 1321SOL    HW115425   2.536   1.312   2.741 -1.7126  0.2998  0.6508
 1321SOL    HW215426   2.594   1.425   2.817 -0.0861  0.1600 -0.0309
 1322SOL     OW15427   4.085   0.640   3.885  0.1481 -0.6683 -0.6782
 1322SOL    HW115428   4.028   0.602   3.818  0.8038  0.1476 -1.6963
 1322SOL    HW215429   4.094   0.566   3.944  0.6281 -2.0193 -2.4642
 1323SOL     OW15430   2.642   4.227   0.547  0.1238  0.0351 -0.0471
 1323SOL    HW115431   2.649   4.172   0.625  1.2139  0.9708  0.5239
 1323SOL    HW215432   2.727   4.271   0.539  0.1430 -0.0250 -0.1647
 1324SOL     OW15433   2.004   0.483   3.044  0.2716  0.5476 -0.0880
 1324SOL    HW115434   2.073   0.458   3.106 -0.0993 -0.4215 -0.0569
 1324SOL    HW215435   1.965   0.396   3.033 -0.8504  1.0087  0.2228
 1325SOL     OW15436   3.262   3.152   3.685 -0.1141  0.2591  0.2161
 1325SOL    HW115437   3.202   3.158   3.610 -0.3907  0.5486  0.4650
 1325SOL    HW215438   3.335   3.096   3.657 -1.2379 -1.9240  1.6496
 1326SOL     OW15439   0.638   0.359   6.777 -0.6639 -0.5521 -0.0039
 1326SOL    HW115440   0.556   0.365   6.727 -0.9251  0.3586  0.5432
 1326SOL    HW215441   0.587   0.380   6.855 -2.2767  1.0423 -1.4790
 1327SOL     OW15442   4.323   2.173   3.527 -0.1141  0.5693  0.5038
 1327SOL    HW115443   4.268   2.244   3.494 -1.0543 -1.5274 -2.3832
 1327SOL    HW215444   4.409   2.196   3.491  0.7535 -2.1750  0.8017
 1328SOL     OW15445   0.031   3.158   8.812 -0.0112  0.2633 -0.4569
 1328SOL    HW115446   4.708   3.208   8.880 -0.2210  0.1809 -0.5362
 1328SOL    HW215447   0.091   3.105   8.864 -0.4503 -1.6517 -1.9061
 1329SOL     OW15448   2.427   4.350   8.566  0.1052  0.0753  0.9001
 1329SOL    HW115449   2.364   4.284   8.594  0.3429 -1.0122 -1.1724
 1329SOL    HW215450   2.420   4.415   8.636  0.0166  1.9015 -0.8019
 1330SOL     OW15451   4.640   3.103  15.475  0.5397  0.3323 -0.1251
 1330SOL    HW115452   4.632   3.198  15.482 -2.4764  0.0157  0.9404
 1330SOL    HW215453   4.721   3.080  15.430  1.1619 -0.6575  1.5089
 1331SOL     OW15454   4.101   0.782   2.171 -0.4094 -0.5830 -0.2148
 1331SOL    HW115455   4.028   0.740   2.127 -1.1138  0.9168 -0.4744
 1331SOL    HW215456   4.070   0.872   2.160 -1.0032 -0.8795 -0.9375
 1332SOL     OW15457   1.694   1.653   6.455 -0.0472  0.0119 -0.0087
 1332SOL    HW115458   1.620   1.698   6.495 -0.4435  0.7459 -1.5633
 1332SOL    HW215459   1.705   1.583   6.519  0.8445  1.6368  1.6077
 1333SOL     OW15460   3.611   2.068   1.719 -0.0595  0.1620  0.1934
 1333SOL    HW115461   3.556   2.132   1.674  1.7821  0.9229 -0.9743
 1333SOL    HW215462   3.672   2.047   1.647 -1.1351 -1.0498 -0.3678
 1334SOL     OW15463   3.743   1.369  17.402  0.0422 -0.3743  0.4853
 1334SOL    HW115464   3.706   1.360  17.313 -1.5819  0.6010  1.0599
 1334SOL    HW215465   3.799   1.445  17.392 -0.5719  0.4026  2.9741
 1335SOL     OW15466   3.173   3.089   7.517  0.5230 -0.1405  0.1503
 1335SOL    HW115467   3.239   3.020   7.517 -0.4943 -1.1102 -0.0700
 1335SOL    HW215468   3.228   3.166   7.534 -0.5697  0.8684 -0.8969
 1336SOL     OW15469   3.287   0.304   5.549 -0.4961  0.3460 -0.6715
 1336SOL    HW115470   3.230   0.267   5.482  0.0579  0.9706 -1.4932
 1336SOL    HW215471   3.354   0.334   5.486 -3.2212  4.6693 -1.5314
 1337SOL     OW15472   2.171   0.814   3.681 -0.1053 -0.1792  0.0457
 1337SOL    HW115473   2.159   0.735   3.628  0.9395 -0.2347 -0.0964
 1337SOL    HW215474   2.198   0.792   3.770  3.1350 -1.8651 -1.3732
 1338SOL     OW15475   3.296   3.622   6.560 -0.2599  0.2339  0.0348
 1338SOL    HW115476   3.338   3.701   6.527  0.7570 -0.7639 -1.1107
 1338SOL    HW215477   3.203   3.636   6.540  0.0442  1.4223 -0.5095
 1339SOL     OW15478   0.374   0.458   8.445 -0.3164 -0.6700  0.4214
 1339SOL    HW115479   0.327   0.511   8.380  1.4384 -1.2087 -1.2793
 1339SOL    HW215480   0.409   0.530   8.498 -0.4528  0.8965 -1.5999
 1340SOL     OW15481   0.522   2.141   9.617  0.1710  0.9520 -0.0881
 1340SOL    HW115482   0.568   2.081   9.675 -2.4300 -0.3213  0.6264
 1340SOL    HW215483   0.446   2.161   9.671  0.2966 -0.0181  0.4472
 1341SOL     OW15484   0.971   3.804   5.952 -0.4233  0.1638  0.5718
 1341SOL    HW115485   0.944   3.751   6.027  0.2325  1.5490  1.7838
 1341SOL    HW215486   0.986   3.744   5.879 -1.2237 -0.5266  0.9733
 1342SOL     OW15487   1.228   0.392   4.189  0.1722  0.1790  0.3510
 1342SOL    HW115488   1.322   0.374   4.188 -0.0239 -0.6247 -2.6927
 1342SOL    HW215489   1.198   0.322   4.131 -0.6713 -0.8817  2.0720
 1343SOL     OW15490   4.564   3.172   3.128 -0.4423  0.2109  0.3091
 1343SOL    HW115491   4.565   3.088   3.081 -0.2723  0.1827  0.3657
 1343SOL    HW215492   4.561   3.141   3.218 -1.0242 -0.6544 -0.0090
 1344SOL     OW15493   1.469   2.690   8.513 -0.1926  0.0691 -0.1828
 1344SOL    HW115494   1.434   2.609   8.475  1.1140 -0.0839 -1.0599
 1344SOL    HW215495   1.410   2.685   8.588 -0.5952  0.5450 -0.4685
 1345SOL     OW15496   2.309   1.081   2.973 -0.5548 -0.0016  0.0503
 1345SOL    HW115497   2.391   1.034   2.959  1.1426  3.1980 -0.8935
 1345SOL    HW215498   2.249   1.039   2.912  2.1923 -1.9071 -1.3529
 1346SOL     OW15499   2.795   4.531   9.233 -0.1365 -0.8275 -0.7827
 1346SOL    HW115500   2.827   4.558   9.320  0.3328 -3.4883 -0.1422
 1346SOL    HW215501   2.879   4.503   9.198 -0.6519  0.5956 -3.0942
 1347SOL     OW15502   0.026   3.736   6.913 -0.0246  0.2035 -0.0763
 1347SOL    HW115503   0.034   3.830   6.930 -2.4683  0.4269 -0.2251
 1347SOL    HW215504   4.672   3.707   6.962  0.9145 -0.5729  0.9376
 1348SOL     OW15505   4.657   0.253   3.107  0.3297  0.2564  0.1682
 1348SOL    HW115506   4.688   0.285   3.022 -1.8018  0.3193 -0.5783
 1348SOL    HW215507   4.611   0.334   3.131  1.5939  0.6449  1.2855
 1349SOL     OW15508   3.570   1.136   1.839  0.0278  0.5680 -0.0450
 1349SOL    HW115509   3.637   1.070   1.826 -1.1708 -0.8944  1.1562
 1349SOL    HW215510   3.591   1.174   1.924 -3.7300 -1.8862  1.9689
 1350SOL     OW15511   0.799   2.929   2.901  0.5387  0.1430  0.2387
 1350SOL    HW115512   0.857   2.899   2.971 -0.9057 -1.5372  0.7097
 1350SOL    HW215513   0.857   2.922   2.825  0.2458  0.6491 -0.0309
 1351SOL     OW15514   3.199   2.251   6.496 -0.1178  0.0681  0.3352
 1351SOL    HW115515   3.199   2.156   6.479  2.7335 -0.0338  0.7897
 1351SOL    HW215516   3.123   2.257   6.554 -0.1845 -2.2275  0.5198
 1352SOL     OW15517   0.014   4.686   0.408 -0.0078 -0.3538 -0.1015
 1352SOL    HW115518   4.681   4.722   0.338 -0.1411  0.0620  0.2241
 1352SOL    HW215519   4.695   4.707   0.491  1.9791  0.5962  0.6506
 1353SOL     OW15520   3.207   3.854   6.224 -0.4408 -0.0526 -0.0730
 1353SOL    HW115521   3.300   3.876   6.225  0.0178 -1.9232 -1.2791
 1353SOL    HW215522   3.204   3.802   6.304  0.9220 -0.5834 -0.3563
 1354SOL     OW15523   0.013   3.085  14.462  0.2518  0.1500  0.1476
 1354SOL    HW115524   4.663   3.061  14.520  0.1060 -2.4313 -1.1463
 1354SOL    HW215525   0.056   3.000  14.456 -0.7151 -0.2293 -1.4421
 1355SOL     OW15526   0.156   0.388   9.345  0.2328 -0.5304  0.3067
 1355SOL    HW115527   0.092   0.344   9.402 -1.8857  2.4640  0.2113
 1355SOL    HW215528   0.181   0.456   9.407  2.8388 -1.3620  0.1809
 1356SOL     OW15529   3.455   3.814   8.964  0.3783 -0.0298  0.0836
 1356SOL    HW115530   3.386   3.748   8.960  1.3450 -1.1167  1.5522
 1356SOL    HW215531   3.424   3.860   8.886  0.9119 -0.0645 -0.1450
 1357SOL     OW15532   4.003   2.411  10.006  0.4052  0.0811  0.2020
 1357SOL    HW115533   4.092   2.407   9.970  0.5635 -2.2841  0.8563
 1357SOL    HW215534   3.960   2.414   9.921 -1.0082 -0.8725  0.8962
 1358SOL     OW15535   1.364   2.436  15.941 -0.7129  0.2708 -0.6365
 1358SOL    HW115536   1.354   2.370  15.872 -1.2280 -0.1937 -0.1225
 1358SOL    HW215537   1.367   2.514  15.887 -0.2550  0.1206 -0.8316
 1359SOL     OW15538   2.117   3.841   6.712  0.1427  0.2382  0.0477
 1359SOL    HW115539   2.205   3.856   6.678  0.2195 -1.6860 -0.6408
 1359SOL    HW215540   2.110   3.749   6.685 -0.5643 -0.0354  1.1850
 1360SOL     OW15541   1.089   0.530   0.441 -0.2964  0.1393  0.4808
 1360SOL    HW115542   1.007   0.482   0.435 -0.1151 -0.0964 -0.1077
 1360SOL    HW215543   1.090   0.587   0.364 -0.3009 -0.9863 -0.3501
 1361SOL     OW15544   1.324   1.190   6.529  0.1872 -0.0014  0.5315
 1361SOL    HW115545   1.381   1.168   6.603  1.3775  1.3235 -0.0051
 1361SOL    HW215546   1.280   1.105   6.522 -1.7793  0.7948  3.0499
 1362SOL     OW15547   2.696   3.237   7.721 -0.2389  0.0906 -0.5676
 1362SOL    HW115548   2.665   3.228   7.811  0.9255  2.0542  0.0580
 1362SOL    HW215549   2.777   3.187   7.724 -0.2450  0.1193  0.2151
 1363SOL     OW15550   3.694   2.416   6.526  0.4680  0.3646  0.0710
 1363SOL    HW115551   3.604   2.422   6.556  1.4884  0.1487  3.1545
 1363SOL    HW215552   3.697   2.343   6.464  2.4215 -0.3348  0.9984
 1364SOL     OW15553   4.541   1.727   9.613  0.3023 -0.0159 -0.2532
 1364SOL    HW115554   4.451   1.701   9.591 -0.0503 -0.5875  1.8646
 1364SOL    HW215555   4.542   1.680   9.696  0.9753  1.6521  0.6790
 1365SOL     OW15556   3.315   2.024   7.844 -0.2267  0.0370 -0.1642
 1365SOL    HW115557   3.324   1.971   7.924  1.1422  1.9254  0.9336
 1365SOL    HW215558   3.405   2.031   7.813 -0.0661  0.4658  0.3863
 1366SOL     OW15559   1.619   4.087   4.073  0.6757 -0.0600  0.3776
 1366SOL    HW115560   1.567   4.025   4.125  1.7594 -1.0323  0.2958
 1366SOL    HW215561   1.706   4.074   4.109 -0.0124  1.1084  2.4922
 1367SOL     OW15562   3.218   1.339  12.563  0.0055 -0.0172 -0.1453
 1367SOL    HW115563   3.229   1.335  12.468  0.3479  0.2004 -0.1168
 1367SOL    HW215564   3.276   1.412  12.581 -1.0973  0.6416  0.6794
 1368SOL     OW15565   3.972   2.848   7.856 -0.4027 -0.1293 -0.2014
 1368SOL    HW115566   3.992   2.937   7.885 -0.3040  0.2171 -1.3340
 1368SOL    HW215567   3.928   2.810   7.932  0.0981 -0.7601 -0.2377
 1369SOL     OW15568   2.060   2.445   7.280 -0.2222  0.2060  0.3181
 1369SOL    HW115569   2.088   2.383   7.347 -0.7693 -0.6136 -0.2102
 1369SOL    HW215570   2.147   2.485   7.275 -0.8711  1.6642  0.7229
 1370SOL     OW15571   2.085   3.511   8.763 -0.1526 -0.4595 -0.4983
 1370SOL    HW115572   2.080   3.495   8.668  1.2280 -0.0459 -0.6428
 1370SOL    HW215573   2.058   3.429   8.805 -1.8247  0.3137 -0.0628
 1371SOL     OW15574   4.304   4.654   1.605 -0.0275 -0.0034  0.0511
 1371SOL    HW115575   4.310   4.583   1.540 -2.2641 -1.7534  1.7458
 1371SOL    HW215576   4.370   4.612   1.661 -1.8463  0.8145  2.7796
 1372SOL     OW15577   2.515   2.252  15.504  0.6857 -0.0379  0.8588
 1372SOL    HW115578   2.427   2.228  15.474 -0.0314  0.7523  2.3537
 1372SOL    HW215579   2.501   2.322  15.568 -0.6998  2.1467 -1.8416
 1373SOL     OW15580   0.554   1.679   3.030  0.2030  0.4617  0.4703
 1373SOL    HW115581   0.606   1.759   3.022  0.9543  0.0046  0.7299
 1373SOL    HW215582   0.614   1.635   3.090 -0.0061 -1.2994 -0.6011
 1374SOL     OW15583   3.103   2.665   3.595  0.1769 -0.5235 -0.5754
 1374SOL    HW115584   3.185   2.648   3.641  0.0135  0.8392  0.2391
 1374SOL    HW215585   3.052   2.695   3.671 -0.8954 -2.8173 -0.3973
 1375SOL     OW15586   2.381   4.237   7.435  0.4090  0.1372 -0.1661
 1375SOL    HW115587   2.426   4.259   7.353 -2.1836  0.6847 -1.4484
 1375SOL    HW215588   2.425   4.299   7.494 -1.1410  1.0427  0.0401
 1376SOL     OW15589   1.984   3.693   7.798 -0.3019  0.4578  0.1671
 1376SOL    HW115590   2.044   3.629   7.838  1.2557 -0.7879 -4.0696
 1376SOL    HW215591   1.926   3.718   7.869 -1.6953  1.8931 -1.4981
 1377SOL     OW15592   4.620   0.914   3.601 -0.4317 -0.4596 -0.0388
 1377SOL    HW115593   4.603   0.856   3.527  0.0821 -0.5868 -0.0575
 1377SOL    HW215594   4.548   0.896   3.662  1.3674 -2.6599  1.4624
 1378SOL     OW15595   2.964   3.103   0.411  0.0519 -0.1671 -0.0313
 1378SOL    HW115596   2.908   3.026   0.419 -0.8183  0.5302  0.6644
 1378SOL    HW215597   3.003   3.106   0.498 -2.9041  0.9084  1.2724
 1379SOL     OW15598   1.028   2.043   5.551  0.3869  0.4332  0.4427
 1379SOL    HW115599   1.069   1.957   5.548  0.7650  0.5627  2.1840
 1379SOL    HW215600   0.974   2.041   5.629  1.1613  0.1987  0.9751
 1380SOL     OW15601   4.124   1.626  11.738 -0.8470  0.3436 -0.4321
 1380SOL    HW115602   4.203   1.574  11.755  0.3651  2.5174  0.4964
 1380SOL    HW215603   4.095   1.565  11.670 -1.5164 -1.1109  1.1573
 1381SOL     OW15604   3.741   4.549   1.021  0.3373  0.0577 -0.2953
 1381SOL    HW115605   3.710   4.639   1.012  0.1439 -0.0479 -0.6673
 1381SOL    HW215606   3.671   4.517   1.078  0.0703  1.5642  0.2123
 1382SOL     OW15607   1.811   4.643   8.378 -0.1824 -0.5741 -0.0092
 1382SOL    HW115608   1.835   4.551   8.364 -1.3721 -0.6905 -1.2658
 1382SOL    HW215609   1.810   4.672   8.287  0.5108 -0.1998  0.1091
 1383SOL     OW15610   4.576   4.463   5.744 -0.3168  0.1799  0.0027
 1383SOL    HW115611   4.630   4.393   5.708 -1.3989 -1.9149  2.3941
 1383SOL    HW215612   4.556   4.523   5.672 -1.2691 -1.5194 -1.1367
 1384SOL     OW15613   4.181   4.515   2.016  0.2189  0.1219 -0.0337
 1384SOL    HW115614   4.134   4.447   2.063  0.9123  0.0815  0.6076
 1384SOL    HW215615   4.111   4.579   2.005 -0.9929 -0.9651  1.3395
 1385SOL     OW15616   4.289   4.593  17.215 -0.2138  0.1738  0.7047
 1385SOL    HW115617   4.239   4.641  17.149  0.9656 -0.5493 -0.7241
 1385SOL    HW215618   4.229   4.522  17.235 -0.5390  0.3849  0.4880
 1386SOL     OW15619   4.632   0.635   0.429 -0.2584  0.0316 -0.0487
 1386SOL    HW115620   4.659   0.553   0.470  4.2072  1.1478 -0.8251
 1386SOL    HW215621   4.556   0.659   0.482  0.5670  0.0870  1.1146
 1387SOL     OW15622   0.299   1.212   4.689 -0.0949 -0.3590 -0.2571
 1387SOL    HW115623   0.329   1.231   4.778 -0.3678 -2.0813  0.1881
 1387SOL    HW215624   0.205   1.231   4.697  0.1293  0.5385  0.2645
 1388SOL     OW15625   1.561   1.134   8.639  0.2488  0.4870 -0.3795
 1388SOL    HW115626   1.558   1.098   8.728 -1.4922  0.3037 -0.5184
 1388SOL    HW215627   1.603   1.217   8.662  1.5827  0.0391 -1.1947
 1389SOL     OW15628   4.255   2.380   9.872 -0.6544  0.6444 -0.0855
 1389SOL    HW115629   4.291   2.293   9.855 -0.0677  0.6499  1.1456
 1389SOL    HW215630   4.328   2.440   9.859 -0.1832 -0.0662 -0.7247
 1390SOL     OW15631   1.671   0.099   6.380 -0.2221  0.0898 -0.1337
 1390SOL    HW115632   1.667   0.195   6.389 -2.1343 -0.0049  0.0331
 1390SOL    HW215633   1.581   0.068   6.386  0.0536 -0.8172 -0.6630
 1391SOL     OW15634   3.575   3.919   7.611  0.0517 -0.4244  0.3980
 1391SOL    HW115635   3.562   3.995   7.668  0.6536 -0.1473  0.1677
 1391SOL    HW215636   3.537   3.952   7.530 -0.3787 -1.7862  0.0624
 1392SOL     OW15637   0.871   0.136   7.736 -0.8582 -0.9418 -0.5916
 1392SOL    HW115638   0.871   0.044   7.710  0.8193 -0.7042 -1.4238
 1392SOL    HW215639   0.789   0.164   7.696  0.8063  0.5426 -2.9792
 1393SOL     OW15640   3.415   0.739   4.234 -0.4543  0.0477  0.5750
 1393SOL    HW115641   3.471   0.811   4.208 -2.2526  1.6280  1.0669
 1393SOL    HW215642   3.361   0.727   4.156 -0.3287  1.6087  0.2599
 1394SOL     OW15643   3.637   1.743   6.014 -0.1974  0.3831  0.2555
 1394SOL    HW115644   3.649   1.823   6.066 -0.0847 -0.5344  1.6396
 1394SOL    HW215645   3.542   1.742   6.000 -0.4202 -2.3073  2.0120
 1395SOL     OW15646   2.752   4.301   2.276 -0.1231 -0.1537  0.2416
 1395SOL    HW115647   2.778   4.344   2.195 -0.3761 -0.3797  0.0417
 1395SOL    HW215648   2.774   4.211   2.251  0.6555  0.2710 -0.5915
 1396SOL     OW15649   0.940   1.167  13.468  0.6617 -0.4189 -0.8925
 1396SOL    HW115650   0.960   1.244  13.415 -0.0358  1.3324  1.4158
 1396SOL    HW215651   0.959   1.179  13.561 -0.3882  3.9006 -1.2685
 1397SOL     OW15652   0.940   4.226   7.223  0.3690 -0.1014 -0.0639
 1397SOL    HW115653   0.982   4.299   7.177 -0.4475 -0.1425 -0.8666
 1397SOL    HW215654   0.906   4.176   7.149 -0.1031 -1.0534  0.7977
 1398SOL     OW15655   0.236   3.121   2.298 -0.6367  0.3702 -0.1956
 1398SOL    HW115656   0.222   3.114   2.204  0.6832  2.4944 -0.5608
 1398SOL    HW215657   0.329   3.096   2.303 -0.3020  1.4243 -1.1225
 1399SOL     OW15658   0.871   1.168   9.260  0.9941 -0.1083 -0.0404
 1399SOL    HW115659   0.963   1.165   9.285  2.0281 -0.1268 -3.8105
 1399SOL    HW215660   0.845   1.083   9.295 -1.2902 -0.0045 -1.4975
 1400SOL     OW15661   1.384   2.487   3.396 -0.0075 -0.0364 -0.0099
 1400SOL    HW115662   1.469   2.443   3.396  0.7124  1.3667  2.0385
 1400SOL    HW215663   1.337   2.413   3.355  0.4337 -0.3810  0.1078
 1401SOL     OW15664   4.052   1.385   9.631  0.1397 -0.0679  0.2875
 1401SOL    HW115665   4.062   1.297   9.667  1.0675  0.7338  2.0084
 1401SOL    HW215666   4.122   1.385   9.566  0.3711  1.4434  0.5331
 1402SOL     OW15667   4.684   1.580   8.841  0.0772 -0.1529  0.4699
 1402SOL    HW115668   4.641   1.565   8.756 -0.8450  1.3659  0.6708
 1402SOL    HW215669   4.642   1.664   8.860  0.9984  0.8715 -2.0440
 1403SOL     OW15670   4.501   1.853   6.233 -0.4648  0.1359 -0.3943
 1403SOL    HW115671   4.497   1.949   6.231  0.6465  0.1563 -1.8868
 1403SOL    HW215672   4.489   1.834   6.140  1.8880 -0.3645 -0.6089
 1404SOL     OW15673   4.052   0.051   1.578 -0.0957  0.0077  0.0912
 1404SOL    HW115674   4.051   0.132   1.528  0.6226  1.4965  2.5158
 1404SOL    HW215675   4.145   0.032   1.581 -0.1474  0.0939  2.0943
 1405SOL     OW15676   4.625   3.679   3.621  0.0527  0.2644  0.4644
 1405SOL    HW115677   4.560   3.615   3.592 -1.3198  2.4315 -1.2939
 1405SOL    HW215678   4.567   3.748   3.653 -0.8801  0.2518 -1.2133
 1406SOL     OW15679   0.714   3.937  12.802  0.1980 -0.3513 -0.4068
 1406SOL    HW115680   0.800   3.977  12.790  0.8633 -1.4055  0.8478
 1406SOL    HW215681   0.741   3.850  12.831  1.1732 -0.2541 -1.0286
 1407SOL     OW15682   4.288   2.234  14.623  0.1784 -0.6020 -0.3348
 1407SOL    HW115683   4.233   2.287  14.565 -0.1510 -0.2489  0.3052
 1407SOL    HW215684   4.222   2.202  14.684  0.8576  1.3389  1.4423
 1408SOL     OW15685   2.638   2.031   5.914 -0.6866 -0.5306  0.0144
 1408SOL    HW115686   2.549   1.998   5.900 -2.0671  3.0527  0.4609
 1408SOL    HW215687   2.640   2.092   5.841  1.1194 -0.8133 -0.1846
 1409SOL     OW15688   0.607   2.105   0.678  0.1296 -0.3982 -0.0429
 1409SOL    HW115689   0.568   2.191   0.693  0.7319 -0.2939  0.9316
 1409SOL    HW215690   0.623   2.087   0.770  0.8368 -0.3109 -0.1505
 1410SOL     OW15691   0.594   3.007  10.545  0.0862 -0.1969 -0.3531
 1410SOL    HW115692   0.623   2.948  10.615 -1.8309  0.2458  0.8241
 1410SOL    HW215693   0.674   3.022  10.496  0.5472  1.6587  0.9873
 1411SOL     OW15694   4.018   2.565   3.266 -0.0650  0.4498 -0.9477
 1411SOL    HW115695   4.039   2.652   3.300 -1.9240  0.8455 -0.7802
 1411SOL    HW215696   3.923   2.577   3.272  0.4300  3.4690  0.9864
 1412SOL     OW15697   0.406   3.366   5.212  0.4072 -0.3761  0.3933
 1412SOL    HW115698   0.449   3.435   5.161 -0.2311  1.3491  2.1817
 1412SOL    HW215699   0.478   3.317   5.252  0.6478 -0.5807 -0.2956
 1413SOL     OW15700   2.517   4.147  13.066 -0.1933  0.3521  0.0929
 1413SOL    HW115701   2.481   4.117  13.149 -1.6253 -0.6773 -0.9120
 1413SOL    HW215702   2.522   4.066  13.017  0.0572 -0.4246  1.4027
 1414SOL     OW15703   3.583   3.363   9.044 -0.2468 -0.5423  0.2491
 1414SOL    HW115704   3.638   3.338   9.118 -0.2548  1.0267  0.7686
 1414SOL    HW215705   3.523   3.428   9.079 -0.6274 -0.3942 -0.6667
 1415SOL     OW15706   2.511   2.453   7.378  0.4357 -0.3818 -0.9421
 1415SOL    HW115707   2.554   2.514   7.438 -0.0180 -2.8959  1.9451
 1415SOL    HW215708   2.448   2.513   7.337 -0.7285 -1.2317 -0.4133
 1416SOL     OW15709   1.019   3.276  15.989  0.2268  0.2122 -0.2485
 1416SOL    HW115710   0.979   3.351  15.945 -2.7203 -1.3547 -0.2643
 1416SOL    HW215711   1.066   3.324  16.058 -1.0563 -0.3399  1.0146
 1417SOL     OW15712   1.958   1.938  11.580 -0.2944 -0.3481 -0.2873
 1417SOL    HW115713   2.036   1.936  11.526  1.0035  0.0888  1.5754
 1417SOL    HW215714   1.894   1.949  11.510 -1.0788  0.1372  0.5063
 1418SOL     OW15715   0.107   4.594  11.609 -0.7861  0.5760 -0.2024
 1418SOL    HW115716   0.184   4.589  11.666 -1.3560  0.1374  0.5302
 1418SOL    HW215717   0.147   4.574  11.525  1.6804 -0.5821  1.2322
 1419SOL     OW15718   1.279   2.894   6.382  0.0711  0.3437 -0.7081
 1419SOL    HW115719   1.218   2.923   6.450 -1.3666 -1.3322 -1.3031
 1419SOL    HW215720   1.301   2.978   6.342 -0.5806  1.6850  1.7032
 1420SOL     OW15721   2.247   1.720  12.002 -0.4162 -0.2387 -0.3762
 1420SOL    HW115722   2.274   1.683  12.086 -2.6952 -0.5065  0.2477
 1420SOL    HW215723   2.155   1.691  12.007 -1.2747  2.2537 -1.6886
 1421SOL     OW15724   0.005   4.117  13.529  0.6165  0.4054  0.3918
 1421SOL    HW115725   0.068   4.059  13.487  0.1958 -0.4319  0.9206
 1421SOL    HW215726   4.644   4.070  13.525  0.9144  0.3115 -4.0591
 1422SOL     OW15727   3.643   4.119  15.634 -0.2190 -0.5363  0.2210
 1422SOL    HW115728   3.662   4.104  15.541  1.0940  1.6143  0.1555
 1422SOL    HW215729   3.547   4.125  15.635 -0.2907 -1.5978 -0.1764
 1423SOL     OW15730   3.585   1.295   7.995  0.4156  0.3897 -0.2649
 1423SOL    HW115731   3.599   1.203   7.974 -0.4485 -0.0026  0.9396
 1423SOL    HW215732   3.552   1.292   8.084 -0.3902  3.6424 -0.4681
 1424SOL     OW15733   3.339   2.737   9.713  0.8032  0.2858 -0.0382
 1424SOL    HW115734   3.388   2.724   9.794 -0.7828 -0.4139  0.8174
 1424SOL    HW215735   3.263   2.784   9.748 -0.0497  0.3734 -2.0248
 1425SOL     OW15736   2.378   2.615   8.228 -0.0153  0.1830 -0.1340
 1425SOL    HW115737   2.353   2.527   8.198 -0.1849  0.6362 -1.3437
 1425SOL    HW215738   2.464   2.623   8.187 -0.2959 -2.0883 -1.1725
 1426SOL     OW15739   1.217   2.027  16.382  0.2785  0.2508 -0.0697
 1426SOL    HW115740   1.281   2.003  16.315  1.1976  0.3654  0.7789
 1426SOL    HW215741   1.276   2.078  16.438  0.0360 -0.7951  1.1456
 1427SOL     OW15742   2.735   2.787  14.463 -0.9798 -0.2225  0.2358
 1427SOL    HW115743   2.723   2.810  14.555  1.7999 -0.4134  0.6226
 1427SOL    HW215744   2.645   2.777  14.430 -0.8634 -1.3647  0.2655
 1428SOL     OW15745   2.064   1.488  12.341  0.1443  0.3768  0.8036
 1428SOL    HW115746   1.984   1.523  12.382 -1.3413  1.1014 -2.7162
 1428SOL    HW215747   2.045   1.394  12.343  1.1629  0.1741  0.8509
 1429SOL     OW15748   4.024   4.544  11.195  0.4238  0.8653 -0.5598
 1429SOL    HW115749   4.083   4.468  11.197 -0.0980  0.3350 -5.2164
 1429SOL    HW215750   4.069   4.577  11.117 -0.7907  0.5628 -1.3930
 1430SOL     OW15751   0.164   2.042   5.267 -0.4921 -0.4034  0.0192
 1430SOL    HW115752   0.247   2.023   5.223 -0.9572 -1.3185 -0.4545
 1430SOL    HW215753   0.174   2.027   5.361 -0.1884 -1.6645 -0.2125
 1431SOL     OW15754   2.643   1.534   5.963  0.0457 -0.4498  0.5992
 1431SOL    HW115755   2.723   1.504   5.920  0.4137  0.8026  0.3986
 1431SOL    HW215756   2.574   1.490   5.912 -0.1512  1.4811 -0.8199
 1432SOL     OW15757   1.856   3.502  13.217 -0.4912 -0.2092 -0.5220
 1432SOL    HW115758   1.927   3.547  13.170  0.6213 -1.1981  0.2153
 1432SOL    HW215759   1.807   3.578  13.250 -1.8106 -0.4669 -1.9054
 1433SOL     OW15760   2.681   0.065   9.742  0.3153 -0.0171  0.3826
 1433SOL    HW115761   2.652   0.123   9.813 -1.6939  0.2988 -0.7083
 1433SOL    HW215762   2.666   4.701   9.779 -0.9059 -0.2314 -0.6291
 1434SOL     OW15763   0.144   3.343  15.415  0.4214 -0.2652 -0.1445
 1434SOL    HW115764   0.050   3.337  15.402  0.7233  2.2269 -3.6296
 1434SOL    HW215765   0.166   3.421  15.363  1.4868 -1.2192 -1.1283
 1435SOL     OW15766   1.458   1.218   4.552 -0.1974  0.2218 -0.5816
 1435SOL    HW115767   1.433   1.308   4.569 -3.2006 -0.8548  0.7339
 1435SOL    HW215768   1.528   1.230   4.488  0.1978 -1.5878 -0.4960
 1436SOL     OW15769   2.171   2.069   1.052 -0.3241  0.1334  0.0184
 1436SOL    HW115770   2.143   2.138   0.992  1.2146 -0.4119 -1.3246
 1436SOL    HW215771   2.165   1.995   0.992 -2.1968  0.8967 -0.7406
 1437SOL     OW15772   2.418   1.482   8.907 -0.0020 -0.1981 -0.2253
 1437SOL    HW115773   2.495   1.455   8.956  0.8548  0.1861 -1.3690
 1437SOL    HW215774   2.448   1.566   8.872 -1.6838 -0.3477 -2.0410
 1438SOL     OW15775   2.692   3.788   5.554  0.3142 -0.1391  0.3334
 1438SOL    HW115776   2.614   3.740   5.523  0.7926 -0.5199 -0.2873
 1438SOL    HW215777   2.707   3.770   5.647  2.0166  1.8584  0.4433
 1439SOL     OW15778   4.645   2.359  16.973  0.3878  0.2549 -0.7435
 1439SOL    HW115779   4.710   2.365  16.904 -1.0762 -0.7775 -2.2200
 1439SOL    HW215780   4.606   2.272  16.961  0.6140  0.0471  0.0429
 1440SOL     OW15781   3.024   3.446   7.762 -0.3485  0.0094 -0.6095
 1440SOL    HW115782   2.937   3.486   7.761 -0.6879 -0.6942  0.2876
 1440SOL    HW215783   3.044   3.437   7.669 -3.2017 -0.7522 -1.1600
 1441SOL     OW15784   0.660   3.101  16.052 -0.4864 -0.2196 -0.3248
 1441SOL    HW115785   0.581   3.072  16.099 -0.9513 -1.3115 -1.7546
 1441SOL    HW215786   0.641   3.099  15.958  0.8315  2.7718 -0.6199
 1442SOL     OW15787   1.133   3.939   7.841  0.2969  0.2414 -0.7004
 1442SOL    HW115788   1.106   3.848   7.853 -1.1885  0.6508 -0.8403
 1442SOL    HW215789   1.193   3.922   7.769  1.3221  1.5019 -0.1326
 1443SOL     OW15790   2.081   2.600   2.724 -0.0513  0.6994  0.6856
 1443SOL    HW115791   2.149   2.643   2.775 -0.5914  1.5774  0.6605
 1443SOL    HW215792   2.126   2.517   2.710 -2.0521  0.0364 -1.8393
 1444SOL     OW15793   3.290   1.604  15.964 -0.1563  0.1376  0.1206
 1444SOL    HW115794   3.265   1.694  15.987 -0.8617  0.1124 -0.5758
 1444SOL    HW215795   3.227   1.574  15.899  0.4319  0.6322 -0.6851
 1445SOL     OW15796   1.221   1.467   0.697  0.1821 -0.2832  0.8287
 1445SOL    HW115797   1.234   1.491   0.605  0.5149  0.3438  1.0370
 1445SOL    HW215798   1.306   1.467   0.741  0.7112  0.7875 -0.1939
 1446SOL     OW15799   1.294   3.205  17.177  0.2750 -0.1318 -0.0789
 1446SOL    HW115800   1.225   3.222  17.114 -0.9150 -0.9399  0.9961
 1446SOL    HW215801   1.326   3.124  17.137 -1.6273  0.6871 -3.2013
 1447SOL     OW15802   4.185   2.937   2.517 -0.2375 -0.0970  0.0306
 1447SOL    HW115803   4.270   2.956   2.557  0.5836  1.0248 -2.2050
 1447SOL    HW215804   4.203   2.883   2.440 -3.1290 -2.0950  0.7691
 1448SOL     OW15805   3.760   2.325  11.434  0.5780  0.5038 -0.1035
 1448SOL    HW115806   3.669   2.356  11.435  0.2362 -0.4147 -2.1201
 1448SOL    HW215807   3.810   2.383  11.491  2.9461  0.0776 -1.7051
 1449SOL     OW15808   0.214   0.977   9.271 -0.4821  0.5926  0.6782
 1449SOL    HW115809   0.275   1.048   9.253 -0.2546  0.0882 -0.5495
 1449SOL    HW215810   0.149   0.991   9.203 -0.2585 -0.4755  0.2416
 1450SOL     OW15811   4.189   4.288   6.115  0.7727 -0.3029  0.0766
 1450SOL    HW115812   4.213   4.316   6.026 -2.0878 -1.7471 -1.1269
 1450SOL    HW215813   4.149   4.368   6.149 -1.7457 -0.8214 -1.6992
 1451SOL     OW15814   0.288   1.123   9.549  0.2005 -0.2683 -0.4099
 1451SOL    HW115815   0.226   1.170   9.493  0.5464 -1.4086 -1.7485
 1451SOL    HW215816   0.258   1.145   9.637  2.6083  0.8460  0.1154
 1452SOL     OW15817   2.083   2.225   4.002  0.0111 -0.1932 -0.2874
 1452SOL    HW115818   2.102   2.193   3.914  0.2958 -2.4430  0.5750
 1452SOL    HW215819   2.156   2.287   4.008 -2.4732  2.7676 -0.9760
 1453SOL     OW15820   2.716   0.771   7.362 -0.2668  0.1480  0.8380
 1453SOL    HW115821   2.642   0.827   7.386  1.0137  2.2799 -0.2400
 1453SOL    HW215822   2.755   0.835   7.303  0.4902 -0.1483  1.0172
 1454SOL     OW15823   0.196   3.343  10.631 -0.0190  0.8530  0.4019
 1454SOL    HW115824   0.204   3.362  10.538  0.0382  1.9615  0.6391
 1454SOL    HW215825   0.267   3.280  10.645  1.1433  2.3279  1.0579
 1455SOL     OW15826   2.364   4.072   5.077 -0.8155 -0.6006 -0.5247
 1455SOL    HW115827   2.423   4.051   5.005  1.3062  1.1995  0.6990
 1455SOL    HW215828   2.427   4.113   5.136 -2.2948 -0.4647  0.9645
 1456SOL     OW15829   0.591   1.500   8.534  0.4052  0.9899 -0.4293
 1456SOL    HW115830   0.670   1.446   8.535  0.4881  1.1387  1.0054
 1456SOL    HW215831   0.635   1.584   8.546 -0.6339  1.4335  0.2913
 1457SOL     OW15832   3.676   1.604   4.370  0.3378  0.4247 -0.0644
 1457SOL    HW115833   3.653   1.525   4.320  0.1275 -0.4463  1.3928
 1457SOL    HW215834   3.599   1.601   4.428  0.1237  0.9068 -0.3246
 1458SOL     OW15835   1.013   4.374   1.794 -0.0200  0.2581  0.2599
 1458SOL    HW115836   1.076   4.306   1.769 -1.6270 -0.7850 -0.9319
 1458SOL    HW215837   1.041   4.390   1.884  0.2317  0.8832  0.0801
 1459SOL     OW15838   3.783   3.605  16.347 -0.0044 -0.0101 -0.0753
 1459SOL    HW115839   3.864   3.616  16.297 -0.8886 -0.8472 -1.7035
 1459SOL    HW215840   3.792   3.514  16.376  3.0406 -0.1653 -1.4671
 1460SOL     OW15841   0.957   2.489  10.977  0.8006 -0.2358 -0.1921
 1460SOL    HW115842   0.968   2.404  11.020  0.5454 -0.5719 -0.7817
 1460SOL    HW215843   0.997   2.549  11.039 -1.8916 -1.9901  3.2578
 1461SOL     OW15844   3.643   0.889   2.077  0.4040  0.2877  0.0169
 1461SOL    HW115845   3.563   0.936   2.101  0.0716 -0.8412  1.1150
 1461SOL    HW215846   3.709   0.943   2.121  0.7651  0.1940 -0.4139
 1462SOL     OW15847   3.671   0.339  12.510 -0.3660  0.1873  0.2061
 1462SOL    HW115848   3.724   0.379  12.579 -0.7792  0.0975  0.5818
 1462SOL    HW215849   3.694   0.247  12.526  0.2467  0.8242  3.0360
 1463SOL     OW15850   3.850   0.261   6.552 -0.2232 -0.3323  0.1486
 1463SOL    HW115851   3.823   0.177   6.515 -3.3774  1.0169 -0.6069
 1463SOL    HW215852   3.927   0.278   6.498 -1.2326  0.7631 -0.9532
 1464SOL     OW15853   3.327   0.653  11.998 -0.2020 -0.0003  0.1232
 1464SOL    HW115854   3.365   0.578  12.042  2.4589  0.8282 -0.7859
 1464SOL    HW215855   3.389   0.717  12.033 -2.0799  1.8030  0.2120
 1465SOL     OW15856   0.090   0.664   4.450  0.3855 -0.3910 -0.1287
 1465SOL    HW115857   0.051   0.590   4.404 -0.8683 -0.1208  0.4978
 1465SOL    HW215858   0.181   0.644   4.430  0.4931  0.1363 -0.1491
 1466SOL     OW15859   0.906   2.889   0.943  0.0480  0.4602  0.2049
 1466SOL    HW115860   0.845   2.870   1.014  0.3558  3.1738  1.2240
 1466SOL    HW215861   0.978   2.934   0.988 -0.7442 -0.7755  2.6788
 1467SOL     OW15862   1.327   2.499   1.440 -0.2358  0.1087  0.0760
 1467SOL    HW115863   1.420   2.477   1.450 -0.3809 -1.3723 -1.8272
 1467SOL    HW215864   1.320   2.592   1.462 -2.7935  0.4330 -2.2002
 1468SOL     OW15865   3.438   2.619   8.005  0.7542  0.2793  0.1760
 1468SOL    HW115866   3.395   2.675   8.069  0.5867  1.3882 -0.8908
 1468SOL    HW215867   3.420   2.668   7.924  0.5427 -1.7422 -0.9838
 1469SOL     OW15868   3.339   1.600  10.380  0.2644  0.2489 -0.3963
 1469SOL    HW115869   3.399   1.538  10.341 -0.3000 -0.1977 -0.5502
 1469SOL    HW215870   3.322   1.556  10.464  0.6381 -1.4967 -1.2415
 1470SOL     OW15871   4.610   1.009   0.206 -0.0640  0.6156  0.1525
 1470SOL    HW115872   4.532   0.955   0.221  1.2151 -0.1688  3.8963
 1470SOL    HW215873   4.599   1.090   0.255  0.2583  1.0612 -0.5129
 1471SOL     OW15874   0.493   3.800   6.778  0.5329 -0.2485 -0.7083
 1471SOL    HW115875   0.521   3.710   6.759 -0.1666 -0.3329 -1.3203
 1471SOL    HW215876   0.409   3.773   6.813  1.5862 -1.8594  0.5899
 1472SOL     OW15877   1.599   1.431   8.418 -0.3627 -0.7839  0.0974
 1472SOL    HW115878   1.637   1.390   8.496 -0.2427 -2.3993 -0.7994
 1472SOL    HW215879   1.516   1.465   8.450 -1.0819 -2.0287 -0.4807
 1473SOL     OW15880   3.495   2.255   7.603  0.3279 -0.4495  0.6493
 1473SOL    HW115881   3.522   2.284   7.515 -0.1158  0.7712  0.9128
 1473SOL    HW215882   3.423   2.204   7.565  0.0624  0.1931  0.2782
 1474SOL     OW15883   0.980   1.189  15.966  0.0042  0.4392 -0.0828
 1474SOL    HW115884   0.928   1.234  15.900  0.5208  2.4117  0.8496
 1474SOL    HW215885   0.970   1.239  16.048 -2.5775  0.2394 -0.2845
 1475SOL     OW15886   2.615   4.092   9.811  0.0178 -0.2080  0.3950
 1475SOL    HW115887   2.621   4.087   9.906  0.1464  2.0864  0.4888
 1475SOL    HW215888   2.525   4.069   9.790 -0.0651 -0.4531  1.0230
 1476SOL     OW15889   1.505   3.024  13.885 -0.1583  0.0200  0.5330
 1476SOL    HW115890   1.504   2.956  13.953  0.1496  1.4811  1.9948
 1476SOL    HW215891   1.600   3.035  13.881 -0.0691 -1.1947 -0.6567
 1477SOL     OW15892   1.163   0.710  16.148  0.0539  1.0345 -0.1303
 1477SOL    HW115893   1.200   0.647  16.086 -0.0548  2.1733 -1.3363
 1477SOL    HW215894   1.118   0.769  16.088 -1.8819  0.6591  0.9359
 1478SOL     OW15895   4.516   1.920   5.026  0.3898 -0.0867  0.2246
 1478SOL    HW115896   4.463   1.997   5.049  0.4767  0.4976 -1.5595
 1478SOL    HW215897   4.476   1.859   5.088 -2.3669 -0.1021 -1.5631
 1479SOL     OW15898   3.498   1.002   7.485  0.0258  0.0190 -0.3151
 1479SOL    HW115899   3.411   0.973   7.514  0.5290 -0.6424  0.5472
 1479SOL    HW215900   3.476   1.091   7.457  1.0108 -0.2297 -1.8947
 1480SOL     OW15901   1.903   1.992   9.540  0.1991  0.1034  0.1022
 1480SOL    HW115902   1.816   2.023   9.564  0.3200 -0.8498  1.7341
 1480SOL    HW215903   1.949   2.026   9.617  1.0556 -0.1752 -0.2805
 1481SOL     OW15904   1.227   0.524   7.791 -0.1154  0.6720 -0.2505
 1481SOL    HW115905   1.223   0.439   7.834  2.6861 -0.5177 -2.3901
 1481SOL    HW215906   1.136   0.552   7.801 -0.3137  0.3608 -1.2279
 1482SOL     OW15907   1.131   0.512   4.887  0.5324 -0.0929  0.4198
 1482SOL    HW115908   1.204   0.554   4.932  0.8948 -1.3215  0.9761
 1482SOL    HW215909   1.117   0.577   4.818  0.3818  0.3617  0.8837
 1483SOL     OW15910   1.511   2.187   9.900 -0.4460  0.1067 -0.1763
 1483SOL    HW115911   1.602   2.201   9.874 -1.2460 -0.1958 -3.0936
 1483SOL    HW215912   1.515   2.120   9.969 -1.5276  0.4216  0.1856
 1484SOL     OW15913   2.925   2.836   6.428 -0.3505 -0.6035 -0.1583
 1484SOL    HW115914   2.877   2.754   6.420  1.3219 -1.7646  2.1022
 1484SOL    HW215915   2.853   2.899   6.433  0.9480  0.7654  1.2426
 1485SOL     OW15916   0.546   0.901   6.467 -0.2598 -0.4190 -0.4467
 1485SOL    HW115917   0.542   0.957   6.545  2.5416 -0.1353 -0.4973
 1485SOL    HW215918   0.517   0.954   6.393  0.0548  1.8192  1.0211
 1486SOL     OW15919   1.816   2.549   7.309  0.2182 -0.4650 -0.4618
 1486SOL    HW115920   1.817   2.581   7.400 -0.4470 -0.6215 -0.3952
 1486SOL    HW215921   1.896   2.497   7.297 -0.1311 -0.5626 -2.3445
 1487SOL     OW15922   4.026   3.349   2.877 -0.6505 -0.5912 -0.4384
 1487SOL    HW115923   4.096   3.389   2.825 -0.5206 -2.4925 -1.7334
 1487SOL    HW215924   3.975   3.308   2.807 -2.6448  1.1175 -0.0027
 1488SOL     OW15925   1.222   2.649   5.696 -0.3635 -0.4084 -0.1292
 1488SOL    HW115926   1.299   2.637   5.639  0.4792 -0.3037  0.9831
 1488SOL    HW215927   1.262   2.643   5.783 -0.3681  1.0698 -0.0290
 1489SOL     OW15928   1.361   4.520   7.422  0.1900 -0.1997 -0.1464
 1489SOL    HW115929   1.300   4.571   7.369 -0.0912 -0.2400  0.1408
 1489SOL    HW215930   1.329   4.544   7.509  1.6517  2.1224 -0.2655
 1490SOL     OW15931   4.152   2.932   6.919  0.3638  0.4121  0.0242
 1490SOL    HW115932   4.174   2.884   6.999 -0.1479 -0.7147 -0.5054
 1490SOL    HW215933   4.102   3.010   6.943  0.7330  0.9775 -1.0339
 1491SOL     OW15934   1.267   3.827   7.647  0.3403  0.2266  0.2279
 1491SOL    HW115935   1.327   3.893   7.612  0.0079  0.4223  0.0209
 1491SOL    HW215936   1.284   3.758   7.583 -3.3443  1.0913 -1.7015
 1492SOL     OW15937   4.165   3.656  12.834  0.3695  0.3211  0.5259
 1492SOL    HW115938   4.228   3.709  12.784  0.5401  0.3127  0.7308
 1492SOL    HW215939   4.197   3.569  12.811 -2.8316 -0.6330 -0.1975
 1493SOL     OW15940   0.214   3.826   7.135  0.4334 -0.1618  0.0135
 1493SOL    HW115941   0.212   3.874   7.052 -0.5913 -0.5920 -0.2115
 1493SOL    HW215942   0.119   3.820   7.146  0.3037  1.7202 -0.2021
 1494SOL     OW15943   2.936   1.953   3.958 -0.0271  0.4027  0.4048
 1494SOL    HW115944   2.858   1.898   3.962  0.2260  0.0555  0.6028
 1494SOL    HW215945   2.904   2.022   3.900  0.8228 -0.4204 -1.0678
 1495SOL     OW15946   4.059   2.931   5.176  0.1235  0.4053  0.3904
 1495SOL    HW115947   4.081   2.932   5.269  1.2002 -0.2172  0.1491
 1495SOL    HW215948   4.064   2.843   5.140  0.3452  1.2283 -1.5782
 1496SOL     OW15949   4.560   1.989  13.396 -0.5084 -0.2637  0.2377
 1496SOL    HW115950   4.647   2.028  13.407  0.3884 -2.1223 -0.2392
 1496SOL    HW215951   4.528   2.027  13.478 -0.7890 -1.9075  0.8921
 1497SOL     OW15952   1.825   0.022  10.024  0.3847 -0.4376  0.3592
 1497SOL    HW115953   1.757   4.680  10.008  0.7936 -1.0478  1.0732
 1497SOL    HW215954   1.783   0.095   9.978 -1.3432 -1.5667  0.1786
 1498SOL     OW15955   1.040   1.611   5.059 -0.7846  0.1881 -0.3466
 1498SOL    HW115956   1.046   1.688   5.116 -4.7567  0.8641 -0.7940
 1498SOL    HW215957   1.091   1.544   5.105 -1.4653  0.4739  0.8307
 1499SOL     OW15958   1.966   3.064   8.665  0.2082 -0.1026  0.1420
 1499SOL    HW115959   1.981   3.028   8.753 -0.0623  2.2410  1.1639
 1499SOL    HW215960   1.873   3.053   8.648  0.2832 -0.3749 -0.0789
 1500SOL     OW15961   3.922   2.411  12.193  0.3636 -0.4105 -0.2282
 1500SOL    HW115962   3.843   2.360  12.176 -0.2344  0.2866  0.4719
 1500SOL    HW215963   3.977   2.372  12.125 -1.1273 -1.0947 -1.0297
 1501SOL     OW15964   3.533   0.702  15.802  0.6358 -0.1268  0.7446
 1501SOL    HW115965   3.606   0.703  15.740 -1.4199  2.9468 -1.6495
 1501SOL    HW215966   3.468   0.640  15.767  0.5243  0.0564  0.6276
 1502SOL     OW15967   2.750   0.927   9.796 -0.0740  0.1812 -0.4386
 1502SOL    HW115968   2.716   0.846   9.832 -0.0133  0.9242  1.2858
 1502SOL    HW215969   2.801   0.964   9.869  0.1928 -2.0572  0.5173
 1503SOL     OW15970   2.278   0.308  11.877  0.5990 -0.8803  0.3450
 1503SOL    HW115971   2.331   0.250  11.822 -0.2041 -1.5059  0.2415
 1503SOL    HW215972   2.325   0.391  11.866  0.3413 -0.3719  3.2291
 1504SOL     OW15973   0.786   3.985   8.361 -0.2345 -0.1752 -0.8200
 1504SOL    HW115974   0.733   4.006   8.438 -0.5058  0.9767 -1.3083
 1504SOL    HW215975   0.758   4.051   8.297 -0.2918  1.4354  0.8824
 1505SOL     OW15976   3.460   1.698   6.871  0.1533 -0.5238  0.4145
 1505SOL    HW115977   3.417   1.782   6.884 -0.7601 -1.0990  1.1025
 1505SOL    HW215978   3.390   1.649   6.828  0.0520  0.2508 -0.3064
 1506SOL     OW15979   2.617   2.082   4.513  0.3986  0.2718  0.3602
 1506SOL    HW115980   2.639   2.026   4.587  1.1036 -0.7403 -0.6159
 1506SOL    HW215981   2.522   2.067   4.518  0.2375  0.3177 -2.4521
 1507SOL     OW15982   1.940   2.433   1.264 -0.1847  0.5926 -0.2688
 1507SOL    HW115983   1.873   2.485   1.219  0.4146  0.5372 -1.2310
 1507SOL    HW215984   1.900   2.402   1.345 -0.6035  2.8977  0.3940
 1508SOL     OW15985   4.527   2.600   8.372  0.1466 -0.0348  0.3791
 1508SOL    HW115986   4.588   2.537   8.334  1.6249  1.1034  0.8759
 1508SOL    HW215987   4.497   2.646   8.294  1.9435  1.2067  0.4149
 1509SOL     OW15988   0.233   2.274   6.838  0.1463 -0.2203  0.4266
 1509SOL    HW115989   0.172   2.228   6.780 -0.3518  1.6922 -0.5914
 1509SOL    HW215990   0.300   2.302   6.776 -0.1522  0.2668  0.3247
 1510SOL     OW15991   2.144   0.023   5.822 -0.3398 -0.3195 -0.1908
 1510SOL    HW115992   2.092   4.667   5.837 -0.6455 -0.6707 -3.1463
 1510SOL    HW215993   2.172   0.025   5.914 -0.4358  4.2633 -0.2873
 1511SOL     OW15994   4.001   1.597   8.199 -0.1330  0.2403  0.1901
 1511SOL    HW115995   3.908   1.580   8.180 -0.0359  0.2867 -0.3443
 1511SOL    HW215996   4.001   1.599   8.294 -0.3500 -1.0426  0.2159
 1512SOL     OW15997   0.064   2.059  10.727 -0.2887  0.6172 -0.4487
 1512SOL    HW115998   0.066   2.026  10.816 -1.3949  0.0182 -0.6381
 1512SOL    HW215999   4.705   2.022  10.693 -0.6801  0.1337  1.0355
 1513SOL     OW16000   2.007   1.736   0.734 -0.1725  0.0111 -0.3896
 1513SOL    HW116001   1.957   1.667   0.690 -0.8549 -0.5782  1.3006
 1513SOL    HW216002   2.034   1.778   0.652 -0.6176 -0.0575 -0.5688
 1514SOL     OW16003   1.077   1.928  13.199  0.6133 -0.1409 -1.1338
 1514SOL    HW116004   1.017   1.932  13.124 -0.8429  0.7471  0.0858
 1514SOL    HW216005   1.161   1.949  13.158  0.8660 -0.0828 -0.5768
 1515SOL     OW16006   3.895   2.036   1.812 -0.7859  0.0246 -0.3335
 1515SOL    HW116007   3.895   2.131   1.821 -1.3874  0.1334 -1.5492
 1515SOL    HW216008   3.878   2.013   1.721  0.9547  1.7042 -1.0586
 1516SOL     OW16009   3.100   2.467  11.729 -0.1051  0.3883 -0.6511
 1516SOL    HW116010   3.066   2.412  11.659  0.1742  0.2484 -0.6788
 1516SOL    HW216011   3.037   2.538  11.721  0.8706  1.5159  1.4622
 1517SOL     OW16012   3.044   1.092  11.203  0.1933  0.0738 -0.0640
 1517SOL    HW116013   3.024   1.123  11.115  0.4765 -0.6305 -0.3775
 1517SOL    HW216014   3.134   1.124  11.217  0.5665  0.3164 -2.9359
 1518SOL     OW16015   0.193   3.738   0.630 -0.0485 -0.2365  0.0334
 1518SOL    HW116016   0.204   3.651   0.591 -1.5805 -0.5252  0.2203
 1518SOL    HW216017   0.137   3.726   0.706 -0.9040  0.2175 -0.5251
 1519SOL     OW16018   3.109   0.965   7.301 -0.0443  0.3646 -0.4117
 1519SOL    HW116019   3.181   0.981   7.241  0.5147  0.8913  0.4006
 1519SOL    HW216020   3.103   0.869   7.297  0.6135  0.3009  0.1091
 1520SOL     OW16021   1.723   4.050   2.396 -0.4222  0.5739 -0.0994
 1520SOL    HW116022   1.647   4.024   2.448  0.2288 -0.1069  0.5241
 1520SOL    HW216023   1.690   4.097   2.320  2.3543  3.6079  0.5965
 1521SOL     OW16024   0.069   0.202   1.718  0.1561 -0.3950  0.3333
 1521SOL    HW116025   0.014   0.227   1.643 -0.1148  1.3495  1.1221
 1521SOL    HW216026   0.011   0.150   1.774  0.4157 -2.6867 -1.5100
 1522SOL     OW16027   2.808   2.261   4.661 -0.5612  0.4515  0.3096
 1522SOL    HW116028   2.865   2.337   4.647  0.9736 -0.3180  2.2606
 1522SOL    HW216029   2.844   2.196   4.601 -0.1530 -0.2031  1.2667
 1523SOL     OW16030   0.517   2.124   8.636 -0.1642  0.3699  0.1485
 1523SOL    HW116031   0.561   2.140   8.719 -0.2822  1.2361  0.0420
 1523SOL    HW216032   0.457   2.056   8.668  0.9004 -0.0888  1.1681
 1524SOL     OW16033   0.718   2.863   5.113 -0.5156 -0.1413  0.3260
 1524SOL    HW116034   0.747   2.947   5.078 -1.4362 -0.0493 -0.2249
 1524SOL    HW216035   0.782   2.797   5.087  1.2093  0.9407  1.9019
 1525SOL     OW16036   0.224   1.260   5.365  0.4654  0.0178  0.2672
 1525SOL    HW116037   0.208   1.167   5.350  0.2942 -0.0024  0.5652
 1525SOL    HW216038   0.136   1.295   5.383  0.2141  0.3828 -1.6389
 1526SOL     OW16039   1.443   1.841   5.033  0.1636 -0.2576 -0.1416
 1526SOL    HW116040   1.353   1.841   4.999  0.1183  3.4010  0.0611
 1526SOL    HW216041   1.420   1.802   5.118  0.4626  2.3522  1.1345
 1527SOL     OW16042   1.780   2.901  13.604 -0.0152  0.1279 -0.2421
 1527SOL    HW116043   1.701   2.854  13.628 -0.1130  0.3776 -0.0750
 1527SOL    HW216044   1.790   2.876  13.512  0.1808  0.4692 -0.3181
 1528SOL     OW16045   2.209   1.832   9.697  0.3100 -0.6119 -0.4927
 1528SOL    HW116046   2.156   1.848   9.775  0.3827 -1.8327 -0.1941
 1528SOL    HW216047   2.169   1.760   9.649  1.6115 -0.5620 -1.6591
 1529SOL     OW16048   4.593   2.721  13.664  0.3816  0.0665 -0.0880
 1529SOL    HW116049   4.591   2.816  13.673  0.2594  0.0727 -0.1832
 1529SOL    HW216050   4.634   2.700  13.581 -0.2437  1.2967 -0.7058
 1530SOL     OW16051   0.095   3.458   7.840  0.2276  0.8632 -0.3175
 1530SOL    HW116052   0.016   3.436   7.890  0.4598  0.2451 -0.2314
 1530SOL    HW216053   0.129   3.369   7.835  0.9537  1.1121  0.2502
 1531SOL     OW16054   0.973   1.123   7.590 -0.1299 -0.1684  0.3278
 1531SOL    HW116055   0.933   1.037   7.593 -1.2681  0.3325 -0.3956
 1531SOL    HW216056   0.994   1.132   7.497  1.2406  1.2318  0.7766
 1532SOL     OW16057   0.118   3.912   2.387  0.1094 -0.8522 -0.0240
 1532SOL    HW116058   0.108   4.007   2.378  1.0434 -0.7168  0.3208
 1532SOL    HW216059   0.033   3.888   2.424  0.0983 -0.1737  0.3841
 1533SOL     OW16060   3.755   0.089   5.577  0.6053 -0.3199 -0.0077
 1533SOL    HW116061   3.799   0.039   5.646 -0.7935 -0.4321  0.8059
 1533SOL    HW216062   3.671   0.110   5.618  0.1056 -1.7528 -0.2801
 1534SOL     OW16063   2.055   3.786   8.900 -0.5000 -0.0219  0.4062
 1534SOL    HW116064   2.103   3.841   8.838  1.6139 -1.3392  0.8351
 1534SOL    HW216065   2.058   3.703   8.852  3.6718  0.8613 -0.8672
 1535SOL     OW16066   1.881   0.630   3.322  0.5435  0.4160  0.4939
 1535SOL    HW116067   1.845   0.541   3.318 -0.7853  0.9723  0.1834
 1535SOL    HW216068   1.912   0.641   3.232 -1.4738  0.4175 -0.1989
 1536SOL     OW16069   3.537   3.683   8.384  0.3841 -0.0440  0.5256
 1536SOL    HW116070   3.624   3.702   8.419 -0.2453  0.6837  1.6912
 1536SOL    HW216071   3.533   3.589   8.397  1.0253 -0.0080  0.9658
 1537SOL     OW16072   3.665   2.159  10.969  0.3098 -0.0286 -0.4020
 1537SOL    HW116073   3.721   2.083  10.953 -0.4585 -0.9083  1.1718
 1537SOL    HW216074   3.586   2.113  10.995  0.2640  0.5642  0.4993
 1538SOL     OW16075   0.759   0.463  16.098  1.0870 -0.1756 -0.6805
 1538SOL    HW116076   0.773   0.390  16.038  2.3770  0.1776 -0.8285
 1538SOL    HW216077   0.850   0.482  16.123 -0.1254  2.6984  1.5344
 1539SOL     OW16078   1.879   3.128   9.132 -0.3245 -0.4042 -0.1408
 1539SOL    HW116079   1.873   3.068   9.206 -2.9739  1.0164  0.7704
 1539SOL    HW216080   1.971   3.155   9.127 -0.1604 -1.7985 -4.7814
 1540SOL     OW16081   2.838   0.528   7.249 -0.0662 -0.1314  0.3980
 1540SOL    HW116082   2.784   0.584   7.305  0.6055 -0.1392  1.0630
 1540SOL    HW216083   2.796   0.531   7.163 -1.8787 -0.0850  1.2751
 1541SOL     OW16084   0.628   1.084   8.286  0.6161  0.1752  0.1078
 1541SOL    HW116085   0.632   1.046   8.198 -0.6616  0.7937 -0.2249
 1541SOL    HW216086   0.572   1.161   8.278 -2.2328 -2.0217 -1.1258
 1542SOL     OW16087   0.241   4.215   3.313  0.3172 -0.0656  0.4324
 1542SOL    HW116088   0.334   4.225   3.292  0.0001 -0.8290 -1.2925
 1542SOL    HW216089   0.228   4.133   3.264 -2.0522  0.8856 -0.5028
 1543SOL     OW16090   4.669   2.083   6.208  0.2332 -0.1472  0.1314
 1543SOL    HW116091   4.721   2.006   6.184 -1.0472 -1.3082  1.0547
 1543SOL    HW216092   4.588   2.084   6.157 -0.6954 -0.3801  1.5966
 1544SOL     OW16093   2.180   1.511  16.826 -0.2804  0.0607  0.1251
 1544SOL    HW116094   2.183   1.564  16.746 -1.1842 -1.6820 -1.0694
 1544SOL    HW216095   2.202   1.583  16.885  1.7257 -2.0870  1.9456
 1545SOL     OW16096   3.208   4.267   8.035 -0.3968  0.0948  0.3131
 1545SOL    HW116097   3.232   4.177   8.056 -0.2435  0.1495  0.3703
 1545SOL    HW216098   3.295   4.305   8.042 -0.9193  1.7319 -2.1100
 1546SOL     OW16099   3.376   0.889   9.663  0.0054  0.1695 -0.2055
 1546SOL    HW116100   3.426   0.829   9.718 -1.3663 -1.8551 -1.1624
 1546SOL    HW216101   3.287   0.881   9.698  0.5121  0.8630  1.2438
 1547SOL     OW16102   3.071   3.170   0.175  0.5140  0.2671  0.5811
 1547SOL    HW116103   3.165   3.155   0.176  0.9732  3.2929  0.4488
 1547SOL    HW216104   3.039   3.152   0.264 -1.2233  2.1379  0.3344
 1548SOL     OW16105   3.318   4.642   0.619 -0.1623 -0.2962 -0.2258
 1548SOL    HW116106   3.374   4.632   0.697 -1.3051 -4.3276  0.0643
 1548SOL    HW216107   3.231   4.657   0.655 -0.1472  0.6369 -0.5797
 1549SOL     OW16108   2.897   1.767   6.682 -0.5882  0.4645  0.3209
 1549SOL    HW116109   2.811   1.803   6.701  0.3100  0.7598  3.7324
 1549SOL    HW216110   2.892   1.687   6.734  0.4558 -0.2616 -0.6887
 1550SOL     OW16111   3.677   2.712   5.815 -0.0629 -0.1289 -0.4165
 1550SOL    HW116112   3.685   2.745   5.726  2.3345  0.8791  0.1678
 1550SOL    HW216113   3.732   2.634   5.809 -0.2150 -0.3015  0.4188
 1551SOL     OW16114   4.006   4.074   6.614 -0.5799 -0.4197  0.4961
 1551SOL    HW116115   4.072   4.008   6.592 -0.1130  0.4125 -0.5656
 1551SOL    HW216116   3.946   4.081   6.540  0.0393  0.3978  0.0857
 1552SOL     OW16117   1.302   0.817   4.288 -0.1299  0.2567  0.4212
 1552SOL    HW116118   1.281   0.910   4.277 -0.4041  0.0191 -1.0579
 1552SOL    HW216119   1.224   0.772   4.257  0.0221  1.3031 -1.4815
 1553SOL     OW16120   4.463   1.289  16.149  0.4778  0.3142 -0.2952
 1553SOL    HW116121   4.384   1.331  16.114  0.0568  0.2931  0.6354
 1553SOL    HW216122   4.483   1.349  16.221 -0.6108  1.1796 -0.7148
 1554SOL     OW16123   0.127   2.304  17.125  0.5213  0.0785 -0.3976
 1554SOL    HW116124   0.045   2.331  17.085 -0.8457 -3.6021 -0.0239
 1554SOL    HW216125   0.184   2.381  17.115  0.2199  0.1116 -1.7998
 1555SOL     OW16126   2.320   3.176  15.357  0.1644  0.4016 -0.2664
 1555SOL    HW116127   2.253   3.244  15.350  0.1885  0.4173 -0.3413
 1555SOL    HW216128   2.357   3.185  15.270  0.3020 -2.6230 -0.5401
 1556SOL     OW16129   4.250   1.975   6.777 -0.3291 -0.5265 -0.3726
 1556SOL    HW116130   4.307   2.044   6.812 -0.1169  0.4682 -2.6911
 1556SOL    HW216131   4.302   1.925   6.714 -0.6950 -3.0240  1.3190
 1557SOL     OW16132   3.422   2.579   2.066  0.1406  0.9821 -0.0985
 1557SOL    HW116133   3.377   2.652   2.108  1.4883  0.7597  1.7239
 1557SOL    HW216134   3.340   2.537   2.041  0.7232 -0.4611  0.4225
 1558SOL     OW16135   2.175   2.780   4.808  0.2723  0.3761 -0.1422
 1558SOL    HW116136   2.224   2.860   4.787  0.7033  0.2423  0.3502
 1558SOL    HW216137   2.105   2.807   4.868 -1.0266 -2.0907 -0.5442
 1559SOL     OW16138   2.742   0.485  12.981 -0.3695  0.2999  0.4011
 1559SOL    HW116139   2.772   0.408  13.029  0.5574  2.5214  3.4458
 1559SOL    HW216140   2.650   0.464  12.997 -0.9525  3.3264  1.0053
 1560SOL     OW16141   3.265   3.304   2.972  0.2046  0.4330  0.0719
 1560SOL    HW116142   3.256   3.244   3.046  2.9124  0.6541  0.5790
 1560SOL    HW216143   3.356   3.289   2.946  0.0710 -0.9042  0.3768
 1561SOL     OW16144   3.885   1.408   7.298 -0.6004  0.5887 -0.5283
 1561SOL    HW116145   3.939   1.481   7.266  1.9202 -1.3887 -0.8099
 1561SOL    HW216146   3.942   1.390   7.373 -0.4470 -0.0479 -0.7943
 1562SOL     OW16147   4.355   3.705   5.846 -0.3229  0.1639  0.7988
 1562SOL    HW116148   4.300   3.777   5.818 -2.8157 -2.0081  0.1089
 1562SOL    HW216149   4.335   3.689   5.938 -1.6539 -1.4185  0.2333
 1563SOL     OW16150   4.537   1.613   3.619 -0.4388  0.0722  0.3208
 1563SOL    HW116151   4.499   1.592   3.534  1.7738 -0.2342 -0.5874
 1563SOL    HW216152   4.607   1.548   3.629 -1.0707 -0.8338 -1.2961
 1564SOL     OW16153   1.574   2.121   1.553 -0.4326  0.7831 -0.2187
 1564SOL    HW116154   1.604   2.135   1.643 -0.0052  0.0909 -0.2542
 1564SOL    HW216155   1.623   2.042   1.529  0.6520  2.1376 -2.4156
 1565SOL     OW16156   3.413   1.830   3.103 -0.1319 -0.9585  0.0849
 1565SOL    HW116157   3.352   1.849   3.032 -0.6506  0.2092  0.8539
 1565SOL    HW216158   3.392   1.736   3.110 -0.1489 -0.7459  2.8337
 1566SOL     OW16159   0.563   2.831   4.242 -0.4676  0.4341  0.9507
 1566SOL    HW116160   0.483   2.803   4.198  3.0156 -4.2535 -2.4813
 1566SOL    HW216161   0.582   2.756   4.299  0.9447 -0.1509 -0.2700
 1567SOL     OW16162   2.022   1.475   3.505 -0.2404  0.2156  0.0018
 1567SOL    HW116163   2.051   1.550   3.452  1.9626 -1.8320 -1.6844
 1567SOL    HW216164   1.934   1.464   3.468  0.5172 -2.3720 -0.9862
 1568SOL     OW16165   3.563   2.183   9.013  0.4754 -0.0859 -0.0252
 1568SOL    HW116166   3.540   2.136   9.093 -0.4447 -1.8172 -1.3196
 1568SOL    HW216167   3.495   2.250   9.013 -0.7598 -1.3426  0.5216
 1569SOL     OW16168   4.494   1.935  17.166  0.3148  0.0452  0.1108
 1569SOL    HW116169   4.490   2.030  17.160 -1.0846 -0.2818 -3.9678
 1569SOL    HW216170   4.544   1.935  17.248  0.0541  0.2113  0.2697
 1570SOL     OW16171   0.803   0.236   3.094  0.0168  0.2106 -0.4331
 1570SOL    HW116172   0.820   0.229   3.188 -0.4633  0.8224 -0.3049
 1570SOL    HW216173   0.877   0.183   3.062 -1.2740 -1.8710  0.0430
 1571SOL     OW16174   4.262   4.105  15.662  0.4325 -0.2054  0.1714
 1571SOL    HW116175   4.278   4.022  15.708 -2.2208 -1.6101 -1.4234
 1571SOL    HW216176   4.324   4.091  15.591 -2.7743 -0.3775 -2.5715
 1572SOL     OW16177   3.475   4.635   2.130 -0.2106  0.0839  0.0865
 1572SOL    HW116178   3.529   4.663   2.056 -0.7085 -1.0631 -0.7143
 1572SOL    HW216179   3.547   4.602   2.185  0.6600  1.7421 -0.0723
 1573SOL     OW16180   3.075   4.260   5.848 -0.1457 -0.0669  0.2870
 1573SOL    HW116181   3.076   4.170   5.814  0.9006  0.7145 -1.7241
 1573SOL    HW216182   3.111   4.305   5.772 -1.4471 -0.4345 -0.5569
 1574SOL     OW16183   1.754   0.835   1.684  0.4257 -0.1115  0.0002
 1574SOL    HW116184   1.730   0.909   1.628  0.0125 -1.3872 -1.5158
 1574SOL    HW216185   1.750   0.877   1.769 -2.4047 -0.3472 -0.0177
 1575SOL     OW16186   2.205   1.823   2.726  0.5564 -1.1684  0.2684
 1575SOL    HW116187   2.191   1.884   2.798 -1.1331 -0.2460 -0.8438
 1575SOL    HW216188   2.290   1.853   2.693 -0.1241 -1.1289 -1.4328
 1576SOL     OW16189   1.016   1.535   9.396 -0.2835 -0.2381  0.7476
 1576SOL    HW116190   0.958   1.519   9.321  1.1307 -1.7136 -0.0520
 1576SOL    HW216191   1.097   1.489   9.372  0.5007  0.8653  1.3255
 1577SOL     OW16192   3.440   3.644   3.703 -0.1864  0.4732 -0.9237
 1577SOL    HW116193   3.368   3.644   3.640 -0.1955  2.9102 -0.9269
 1577SOL    HW216194   3.405   3.714   3.758  0.4040  1.4354 -1.7813
 1578SOL     OW16195   2.596   4.273  10.164 -0.0703 -0.2393  0.4197
 1578SOL    HW116196   2.649   4.197  10.140  1.8901  1.2704  0.0111
 1578SOL    HW216197   2.555   4.291  10.080  1.7050 -1.4994 -0.7092
 1579SOL     OW16198   0.672   2.581  10.873 -0.3160  0.4183  0.0079
 1579SOL    HW116199   0.597   2.522  10.875  1.5369 -1.8359  3.5654
 1579SOL    HW216200   0.740   2.521  10.903  0.4708  0.5563 -1.4983
 1580SOL     OW16201   2.084   1.305  11.157 -0.3873  0.0479 -0.6405
 1580SOL    HW116202   2.143   1.353  11.216  1.7762 -0.1805 -2.6175
 1580SOL    HW216203   2.046   1.243  11.219 -0.4336  0.8865  0.1644
 1581SOL     OW16204   4.277   2.833  12.286  0.0316  0.2074 -0.2993
 1581SOL    HW116205   4.271   2.818  12.380 -1.3786  0.7935 -0.2923
 1581SOL    HW216206   4.185   2.823  12.262 -0.4765 -1.6912  2.5532
 1582SOL     OW16207   0.212   1.239  15.924  0.0506  0.4402 -0.2758
 1582SOL    HW116208   0.116   1.241  15.917  0.0724 -0.6639 -0.9011
 1582SOL    HW216209   0.248   1.237  15.835  0.9384 -1.8112  0.1211
 1583SOL     OW16210   2.838   4.691   0.529 -0.4318 -0.0510 -0.6387
 1583SOL    HW116211   2.891   4.689   0.449 -0.9410 -0.5127 -0.9631
 1583SOL    HW216212   2.751   4.719   0.501 -0.7360 -0.2992  0.0670
 1584SOL     OW16213   0.682   0.779   5.564 -0.3447  0.1013  0.4126
 1584SOL    HW116214   0.739   0.719   5.612  0.3334 -0.2440 -0.8291
 1584SOL    HW216215   0.706   0.859   5.611  0.7015 -0.3948  0.7255
 1585SOL     OW16216   4.537   0.948   9.268  0.8106 -0.5570 -0.2356
 1585SOL    HW116217   4.527   0.958   9.362  0.6319 -1.1154 -0.1966
 1585SOL    HW216218   4.501   0.860   9.266 -1.4085  0.3534 -0.6117
 1586SOL     OW16219   1.488   2.511   5.176  1.1687  0.0315 -0.3258
 1586SOL    HW116220   1.475   2.559   5.094 -1.8501 -0.2844 -0.0431
 1586SOL    HW216221   1.437   2.563   5.238  1.3288 -2.7655  2.1188
 1587SOL     OW16222   4.364   2.810   6.228 -0.4226  0.1334 -0.1491
 1587SOL    HW116223   4.285   2.757   6.217 -0.7084  0.8912 -1.7444
 1587SOL    HW216224   4.342   2.887   6.280  1.0937 -0.0907  0.8225
 1588SOL     OW16225   1.257   1.238   5.333 -0.1356 -0.0002 -0.2720
 1588SOL    HW116226   1.270   1.234   5.428 -0.3411 -0.9212 -0.2848
 1588SOL    HW216227   1.334   1.195   5.295  0.7685 -0.5328  2.1405
 1589SOL     OW16228   0.170   4.016   4.897 -0.3118  0.4979  0.3582
 1589SOL    HW116229   0.085   4.024   4.855 -0.9066  0.6940  1.6058
 1589SOL    HW216230   0.218   4.073   4.836  0.1705  1.0987  1.2863
 1590SOL     OW16231   1.123   2.830   0.604 -0.0390 -0.6300 -0.0398
 1590SOL    HW116232   1.170   2.912   0.618  2.4784 -1.9881 -0.5889
 1590SOL    HW216233   1.102   2.840   0.511 -1.7267  2.8063  0.7037
 1591SOL     OW16234   1.141   0.269   0.931 -0.0203 -0.3352 -0.0175
 1591SOL    HW116235   1.058   0.223   0.920  0.4887 -1.0571 -0.8065
 1591SOL    HW216236   1.205   0.201   0.952 -1.6265 -1.3376  1.5938
 1592SOL     OW16237   2.378   2.886   4.418  0.2655  0.4431 -0.5770
 1592SOL    HW116238   2.458   2.900   4.469 -0.0367 -1.5250  0.4320
 1592SOL    HW216239   2.369   2.794   4.444 -0.3926  0.3593 -1.1067
 1593SOL     OW16240   1.339   3.023   8.375  0.2174  1.2967 -0.1550
 1593SOL    HW116241   1.273   3.020   8.444  0.4375  1.3411  0.0561
 1593SOL    HW216242   1.291   2.990   8.299 -0.5847 -0.3551  1.0744
 1594SOL     OW16243   1.019   0.087   2.060  0.0464  0.4199 -0.5072
 1594SOL    HW116244   0.952   0.056   1.999  0.0341  1.5400 -1.0614
 1594SOL    HW216245   0.986   0.049   2.141  1.0230 -0.0455 -0.3189
 1595SOL     OW16246   1.906   0.600   7.362 -0.3995 -0.1246 -0.7204
 1595SOL    HW116247   1.893   0.625   7.271  1.6733 -3.8826 -2.0765
 1595SOL    HW216248   1.869   0.680   7.397  1.7410  0.0672  1.0761
 1596SOL     OW16249   2.996   2.949   6.697 -0.2003  0.3716 -0.0742
 1596SOL    HW116250   3.029   3.037   6.676  0.8126 -0.0960 -0.4049
 1596SOL    HW216251   2.929   2.942   6.628  1.5415 -0.4994 -1.6683
 1597SOL     OW16252   2.311   2.876   8.166  0.2904  0.0039 -0.0542
 1597SOL    HW116253   2.353   2.796   8.196  1.9011  1.6137  2.0206
 1597SOL    HW216254   2.346   2.895   8.079 -0.8729  1.0280 -0.3039
 1598SOL     OW16255   2.897   3.699  13.749  0.3542  0.2076 -0.3315
 1598SOL    HW116256   2.950   3.685  13.670 -0.8257 -2.4774 -0.6561
 1598SOL    HW216257   2.822   3.744  13.711 -0.2127 -1.3778 -1.1289
 1599SOL     OW16258   2.900   1.694   1.666 -0.1874 -0.1011 -0.1058
 1599SOL    HW116259   2.856   1.775   1.693  0.6072  0.6058 -0.9608
 1599SOL    HW216260   2.915   1.725   1.577  1.9624 -0.8525 -0.0091
 1600SOL     OW16261   4.630   3.161   8.408  0.0056  0.2920  0.2130
 1600SOL    HW116262   4.579   3.104   8.464 -0.4249  0.9640  0.4964
 1600SOL    HW216263   4.714   3.163   8.454 -1.2903 -3.4674  2.7195
 1601SOL     OW16264   2.505   1.408   3.652  0.1962 -0.3299  0.8754
 1601SOL    HW116265   2.445   1.357   3.598 -0.0582  0.4340  0.4448
 1601SOL    HW216266   2.483   1.498   3.631 -2.2961 -0.5159  2.6786
 1602SOL     OW16267   0.957   3.829   2.775  0.0047  0.0727 -0.5101
 1602SOL    HW116268   0.903   3.750   2.768  2.7551 -1.6545 -1.7799
 1602SOL    HW216269   0.970   3.839   2.869  0.8359 -1.3843 -0.4726
 1603SOL     OW16270   2.270   3.150   8.324  0.2028 -0.1054 -0.1304
 1603SOL    HW116271   2.187   3.127   8.366  0.7319 -0.6893  0.5960
 1603SOL    HW216272   2.295   3.075   8.271 -2.3722  0.0317 -1.5298
 1604SOL     OW16273   1.730   3.131  10.570 -0.4684 -0.1725 -0.0506
 1604SOL    HW116274   1.737   3.107  10.663 -1.5547 -1.5318 -0.3112
 1604SOL    HW216275   1.738   3.045  10.528  0.2093 -0.0678 -0.1407
 1605SOL     OW16276   3.598   0.251   1.859  0.0918 -0.2365  0.4062
 1605SOL    HW116277   3.591   0.165   1.901  2.1653 -0.7063 -0.1980
 1605SOL    HW216278   3.548   0.319   1.904  0.3894 -1.9599  3.2997
 1606SOL     OW16279   1.186   2.619   4.136 -0.0724 -0.1619 -0.1940
 1606SOL    HW116280   1.271   2.619   4.180 -0.7879 -1.7655  1.1773
 1606SOL    HW216281   1.181   2.525   4.117  0.2874 -0.0299 -0.9315
 1607SOL     OW16282   2.208   3.765  15.378 -0.0720 -0.0338  0.3729
 1607SOL    HW116283   2.206   3.831  15.308  1.2423  0.7440  1.0750
 1607SOL    HW216284   2.232   3.688  15.328  0.8337 -0.6211  1.7169
 1608SOL     OW16285   3.256   3.985   4.210 -0.4574 -0.3901  0.0165
 1608SOL    HW116286   3.336   3.964   4.161  1.2365 -0.1953  2.7414
 1608SOL    HW216287   3.244   4.074   4.176 -2.2151  0.1574  2.0899
 1609SOL     OW16288   1.913   3.312   4.755 -0.4553  0.6560  0.5482
 1609SOL    HW116289   1.929   3.406   4.750 -0.3859  0.6385  0.4626
 1609SOL    HW216290   1.818   3.310   4.743 -0.1251 -0.9917 -1.8316
 1610SOL     OW16291   2.584   0.466   0.053  0.2181 -0.9061  0.2982
 1610SOL    HW116292   2.659   0.519   0.080 -0.5011 -1.2970  3.0479
 1610SOL    HW216293   2.582   0.462  17.650 -2.4952  2.0412  0.2306
 1611SOL     OW16294   1.184   3.711   3.800 -0.1857  0.2564  0.0573
 1611SOL    HW116295   1.119   3.751   3.857  0.8360 -0.5333  1.7818
 1611SOL    HW216296   1.211   3.788   3.751  0.9199 -1.3811 -1.9070
 1612SOL     OW16297   1.346   1.947   3.199  0.5221  0.1800 -0.4395
 1612SOL    HW116298   1.263   1.912   3.232  0.9659 -0.7285 -0.2811
 1612SOL    HW216299   1.377   1.885   3.133  0.8292 -0.2510  0.1081
 1613SOL     OW16300   2.824   3.231   8.797  0.1204 -0.4979 -0.0859
 1613SOL    HW116301   2.748   3.183   8.763  0.3537 -0.6704 -0.3688
 1613SOL    HW216302   2.789   3.269   8.878  2.1435 -1.3968  1.2218
 1614SOL     OW16303   1.924   2.983  10.751 -0.5179 -0.6149 -0.1082
 1614SOL    HW116304   1.885   2.969  10.838 -2.5699  0.6933 -0.8123
 1614SOL    HW216305   1.971   3.065  10.767  0.5744 -1.2680  0.0302
 1615SOL     OW16306   2.837   4.329   5.569  0.0713 -0.5541  0.4864
 1615SOL    HW116307   2.797   4.243   5.578  0.6618 -0.8372  0.4412
 1615SOL    HW216308   2.839   4.359   5.660  0.9100  2.8066 -0.6543
 1616SOL     OW16309   0.865   1.485  10.895  0.5077  0.3208  0.1158
 1616SOL    HW116310   0.782   1.436  10.892  0.1408  0.9435  0.0074
 1616SOL    HW216311   0.834   1.569  10.861 -1.9815 -1.1590 -1.2578
 1617SOL     OW16312   1.876   2.485   9.190 -0.1579  0.4311  0.6715
 1617SOL    HW116313   1.939   2.415   9.172  1.1285  1.8731 -0.3991
 1617SOL    HW216314   1.922   2.568   9.178  1.8201 -0.8455 -0.6726
 1618SOL     OW16315   3.562   1.752   3.607 -0.2436 -0.2555 -0.3459
 1618SOL    HW116316   3.517   1.750   3.692  0.1364  0.5917 -0.1190
 1618SOL    HW216317   3.648   1.784   3.635 -0.6699  1.2709 -0.8163
 1619SOL     OW16318   1.580   3.550  11.393  0.2408  0.1724  0.0254
 1619SOL    HW116319   1.554   3.508  11.475 -0.3941  1.3361  0.4310
 1619SOL    HW216320   1.506   3.546  11.332  0.9648  1.2741 -0.9212
 1620SOL     OW16321   1.610   2.504   3.931  0.9446 -0.2723 -0.3723
 1620SOL    HW116322   1.566   2.419   3.927 -1.0118  0.7323  0.0389
 1620SOL    HW216323   1.618   2.513   3.836 -1.5282  1.4947 -0.3992
 1621SOL     OW16324   3.854   0.832  10.366  0.6865 -0.0048  0.0798
 1621SOL    HW116325   3.938   0.878  10.363  0.4354  0.4900  0.6350
 1621SOL    HW216326   3.787   0.900  10.375 -0.2891 -0.8471 -0.8029
 1622SOL     OW16327   4.561   3.378  15.448 -0.3018  0.3861  0.3107
 1622SOL    HW116328   4.607   3.462  15.457  0.1512  0.0128  1.5712
 1622SOL    HW216329   4.470   3.402  15.432 -0.8724 -1.1925  1.2089
 1623SOL     OW16330   3.520   2.899   9.962 -0.2522  0.6180  0.0734
 1623SOL    HW116331   3.427   2.878   9.970  0.0404 -0.0650  1.7881
 1623SOL    HW216332   3.513   2.943   9.877 -0.4862  1.4482  0.5210
 1624SOL     OW16333   1.348   0.605   5.016 -0.3621  0.1319  0.1978
 1624SOL    HW116334   1.361   0.700   5.012  2.2171 -0.2471 -0.6884
 1624SOL    HW216335   1.429   0.592   5.065 -0.3788  0.6123  0.3444
 1625SOL     OW16336   4.234   1.615   9.128 -0.3168 -0.1476 -0.4627
 1625SOL    HW116337   4.174   1.654   9.064 -0.0392 -0.6268 -1.0128
 1625SOL    HW216338   4.175   1.614   9.203  1.1437 -1.2593  0.6676
 1626SOL     OW16339   3.821   1.094   8.406  0.0192 -0.2156 -0.2658
 1626SOL    HW116340   3.838   1.029   8.475  1.5273 -0.2792 -0.6916
 1626SOL    HW216341   3.863   1.044   8.336  2.1529 -0.7742  1.4242
 1627SOL     OW16342   2.702   3.159  13.745 -0.2298  0.3979 -0.2023
 1627SOL    HW116343   2.649   3.204  13.679  0.8971  0.7310 -0.8765
 1627SOL    HW216344   2.692   3.225  13.814 -0.9363 -1.0230  1.0473
 1628SOL     OW16345   4.052   0.272  14.212 -0.2274  0.0988  0.4929
 1628SOL    HW116346   4.023   0.359  14.183 -2.0641 -0.5653  0.3191
 1628SOL    HW216347   3.969   0.229  14.190 -0.2612  1.3171 -1.8210
 1629SOL     OW16348   0.454   3.431   7.029  0.0504 -0.2865  0.0470
 1629SOL    HW116349   0.532   3.464   7.074 -2.6568  2.6200  2.5700
 1629SOL    HW216350   0.435   3.499   6.964  0.3546  0.4612  0.7420
 1630SOL     OW16351   2.424   3.418  14.965  1.0040  0.0137 -0.5952
 1630SOL    HW116352   2.434   3.359  14.890  1.5051  1.2223 -1.4908
 1630SOL    HW216353   2.334   3.447  14.949 -0.3158 -4.2662 -0.7233
 1631SOL     OW16354   0.472   1.754   9.985  0.3666 -0.8366 -0.3170
 1631SOL    HW116355   0.389   1.736  10.030 -1.6889  1.2387 -3.2566
 1631SOL    HW216356   0.480   1.689   9.915  2.4460 -0.7547 -0.1345
 1632SOL     OW16357   3.694   2.941  10.456 -0.4592 -0.1552  0.3625
 1632SOL    HW116358   3.608   2.958  10.495 -0.3270  1.6871 -0.1272
 1632SOL    HW216359   3.750   2.998  10.508  1.7279 -0.4680 -1.6066
 1633SOL     OW16360   1.324   2.604   5.934 -0.0438 -0.9420 -0.0574
 1633SOL    HW116361   1.361   2.520   5.906  2.4820 -0.3285  1.4760
 1633SOL    HW216362   1.302   2.585   6.025  0.4330 -5.3205 -0.8419
 1634SOL     OW16363   3.519   1.843  16.127 -0.2723  0.0933  0.8309
 1634SOL    HW116364   3.440   1.892  16.151 -0.7451  1.3542 -3.3433
 1634SOL    HW216365   3.517   1.844  16.032  0.6867 -0.3261  0.8029
 1635SOL     OW16366   4.223   0.213  10.442 -0.1611  0.9788 -0.0791
 1635SOL    HW116367   4.178   0.294  10.467 -1.5913  0.1675 -0.0233
 1635SOL    HW216368   4.288   0.203  10.511 -0.5408 -1.0943 -0.0324
 1636SOL     OW16369   2.234   2.214  10.173 -0.0814 -0.2242 -0.3990
 1636SOL    HW116370   2.327   2.197  10.160  0.1277  1.2832 -0.8938
 1636SOL    HW216371   2.193   2.128  10.181 -0.5674  0.2014  1.8079
 1637SOL     OW16372   2.040   1.732   1.433  0.7486 -0.0916  0.1049
 1637SOL    HW116373   1.971   1.708   1.494  0.6363 -3.2608 -1.2501
 1637SOL    HW216374   2.063   1.645   1.402 -2.7209 -0.7556 -0.5974
 1638SOL     OW16375   3.138   1.940   5.272 -0.1076  0.1842  0.0418
 1638SOL    HW116376   3.134   1.911   5.363 -0.1005  1.8383  0.5739
 1638SOL    HW216377   3.203   2.010   5.274  0.1310 -0.0386  0.1166
 1639SOL     OW16378   4.561   3.381   4.560  0.0900 -0.5097 -0.2638
 1639SOL    HW116379   4.609   3.420   4.633 -0.1797 -1.4482  0.4236
 1639SOL    HW216380   4.482   3.436   4.560  1.9033  2.0443 -1.4095
 1640SOL     OW16381   4.255   0.868   4.765 -0.1310 -0.0811 -0.3062
 1640SOL    HW116382   4.187   0.903   4.823 -0.0193 -0.2477 -0.0731
 1640SOL    HW216383   4.217   0.896   4.682 -2.3767 -2.7949 -0.1775
 1641SOL     OW16384   4.201   4.264   6.713 -0.0177 -0.1762 -0.3461
 1641SOL    HW116385   4.198   4.260   6.617 -0.2052  1.2537 -0.4020
 1641SOL    HW216386   4.172   4.177   6.738 -1.5162  0.8902  1.6125
 1642SOL     OW16387   2.250   1.554   2.702  0.0875  0.2460  0.0342
 1642SOL    HW116388   2.219   1.506   2.778  1.5194  0.2024  0.5875
 1642SOL    HW216389   2.206   1.636   2.723 -0.8504 -0.9068  2.5616
 1643SOL     OW16390   3.144   1.763   6.473 -0.1798  0.1471 -0.8952
 1643SOL    HW116391   3.063   1.717   6.494  0.3408  0.1225  1.0821
 1643SOL    HW216392   3.169   1.794   6.560  2.7084  0.3613 -1.7988
 1644SOL     OW16393   4.276   1.033   2.695  0.0258 -0.2076  0.6852
 1644SOL    HW116394   4.249   0.983   2.618  0.2212 -0.7129  0.9405
 1644SOL    HW216395   4.211   1.005   2.760 -0.6419 -3.7184 -1.5204
 1645SOL     OW16396   2.064   0.485   6.400  0.1005 -0.2685  0.1077
 1645SOL    HW116397   2.095   0.573   6.420  2.0295 -0.9737  0.2496
 1645SOL    HW216398   1.973   0.502   6.426 -0.1184  0.1323 -0.9133
 1646SOL     OW16399   0.128   3.417  13.027 -0.4983  1.0028 -0.4641
 1646SOL    HW116400   0.165   3.418  13.116  0.3581  1.4995 -0.8285
 1646SOL    HW216401   0.204   3.388  12.977 -1.5973 -0.5869 -1.2250
 1647SOL     OW16402   3.166   1.524   5.172  0.5785  0.5347  0.0579
 1647SOL    HW116403   3.184   1.441   5.128 -0.2994 -0.2128  1.1030
 1647SOL    HW216404   3.079   1.506   5.207 -0.1451 -0.1325 -2.1088
 1648SOL     OW16405   2.655   0.920  11.281 -0.1927 -0.3479 -0.2137
 1648SOL    HW116406   2.623   0.862  11.350 -2.4384  2.6898  1.3047
 1648SOL    HW216407   2.664   0.871  11.199 -2.7224  1.6083 -1.6507
 1649SOL     OW16408   3.716   3.186   3.891 -0.1622  0.0884  0.2850
 1649SOL    HW116409   3.662   3.116   3.928 -0.0387 -0.6365 -0.9244
 1649SOL    HW216410   3.655   3.216   3.824  1.6516  0.8290 -1.0377
 1650SOL     OW16411   2.126   4.167   0.463  0.1199 -0.4291 -0.3508
 1650SOL    HW116412   2.194   4.188   0.527  0.7797  0.8696 -1.4720
 1650SOL    HW216413   2.164   4.215   0.390  0.1497  0.8132  0.4738
 1651SOL     OW16414   3.632   2.484   3.566  0.0985  0.1708 -0.3410
 1651SOL    HW116415   3.559   2.440   3.522 -0.9948 -0.8383  2.4689
 1651SOL    HW216416   3.621   2.578   3.551  1.3335  0.3632  0.0073
 1652SOL     OW16417   2.432   1.932  10.792 -0.1981 -0.5336 -0.1256
 1652SOL    HW116418   2.507   1.913  10.737 -0.6814 -0.9625 -0.6363
 1652SOL    HW216419   2.442   1.865  10.860 -0.9343  1.0158  1.5265
 1653SOL     OW16420   3.433   0.234  12.311  0.3158 -0.6398 -0.5566
 1653SOL    HW116421   3.525   0.221  12.333  0.3487 -0.8636 -0.8427
 1653SOL    HW216422   3.394   0.245  12.398  1.7136  0.2090 -0.0310
 1654SOL     OW16423   3.421   4.281   1.844  0.4077  0.1741  0.1777
 1654SOL    HW116424   3.351   4.299   1.906 -0.3107  0.8618 -0.8384
 1654SOL    HW216425   3.473   4.213   1.889  0.5887  0.2018  0.0106
 1655SOL     OW16426   0.990   4.319   8.335 -0.8437 -0.3123 -0.3473
 1655SOL    HW116427   1.078   4.353   8.317 -1.7963  1.5497 -1.4393
 1655SOL    HW216428   0.992   4.228   8.304  2.1872  0.0706 -1.2983
 1656SOL     OW16429   3.950   0.242   4.424 -0.2048 -0.1267  0.1015
 1656SOL    HW116430   3.862   0.223   4.456 -0.0844  1.1913  1.2263
 1656SOL    HW216431   3.964   0.172   4.360  1.7426 -0.0468  0.4443
 1657SOL     OW16432   2.311   4.708  13.547 -0.0736 -0.5833 -0.4070
 1657SOL    HW116433   2.247   0.006  13.616  1.1296 -1.4707  0.9604
 1657SOL    HW216434   2.313   0.072  13.507 -0.0593  0.5832  2.0855
 1658SOL     OW16435   3.547   3.192   3.304 -0.9040  0.1857 -0.6325
 1658SOL    HW116436   3.626   3.241   3.279  0.0459  0.2120  2.4116
 1658SOL    HW216437   3.587   3.105   3.311  1.0781  1.1191 -0.2205
 1659SOL     OW16438   3.728   0.371   5.647  0.6854  0.3913 -0.1970
 1659SOL    HW116439   3.719   0.413   5.562  2.5343 -0.7271 -0.9577
 1659SOL    HW216440   3.704   0.279   5.632 -2.7833  1.3749 -0.5767
 1660SOL     OW16441   0.155   0.957   1.217  0.0341 -0.3902  0.3862
 1660SOL    HW116442   0.062   0.981   1.210  0.3795  0.6096 -0.7425
 1660SOL    HW216443   0.161   0.907   1.136  1.1694 -1.0571  0.8749
 1661SOL     OW16444   0.985   2.327   6.001  0.3856  0.0780 -0.3689
 1661SOL    HW116445   0.966   2.324   5.907  2.5262 -2.0036 -0.7224
 1661SOL    HW216446   1.001   2.420   6.011 -1.7392  0.3151  0.9860
 1662SOL     OW16447   2.317   3.573   1.094  0.2946 -0.2329  0.8987
 1662SOL    HW116448   2.384   3.513   1.062 -0.7125 -1.6377  1.4292
 1662SOL    HW216449   2.279   3.518   1.162 -0.0107 -1.3309 -0.1613
 1663SOL     OW16450   2.115   0.441   4.454  0.1561  0.8886 -0.2260
 1663SOL    HW116451   2.025   0.437   4.486  0.7332 -1.5720  1.0868
 1663SOL    HW216452   2.113   0.526   4.410  0.7048  0.9558 -0.1233
 1664SOL     OW16453   4.403   1.988  12.060  0.2489  0.0261  0.1386
 1664SOL    HW116454   4.360   1.908  12.031  0.2407  0.2023 -0.3413
 1664SOL    HW216455   4.328   2.043  12.083  0.4272 -0.2127  1.2827
 1665SOL     OW16456   2.299   1.317   4.557 -0.0778  0.3727 -0.0832
 1665SOL    HW116457   2.346   1.385   4.605 -0.9125  0.7222  0.2446
 1665SOL    HW216458   2.354   1.240   4.543 -0.5943 -0.0725  0.3590
 1666SOL     OW16459   1.000   4.271   0.249 -0.4151  0.7008  0.2560
 1666SOL    HW116460   1.075   4.307   0.296  0.1523  0.4221 -0.4360
 1666SOL    HW216461   1.049   4.215   0.188 -2.0067 -2.2972  1.7454
 1667SOL     OW16462   0.487   2.798  13.164 -0.0678  0.1451 -0.6044
 1667SOL    HW116463   0.541   2.856  13.217 -0.5289 -0.2115  0.2546
 1667SOL    HW216464   0.501   2.715  13.209  0.6192 -0.1080 -1.2979
 1668SOL     OW16465   0.695   3.888   2.144  0.2245 -0.3477 -0.0009
 1668SOL    HW116466   0.679   3.794   2.146 -0.1635 -0.2628  0.9439
 1668SOL    HW216467   0.783   3.890   2.181 -0.8537  2.9231  2.4641
 1669SOL     OW16468   4.181   1.655   3.421  0.1614 -0.0362  0.2037
 1669SOL    HW116469   4.166   1.663   3.515  3.3215  0.6583  0.6269
 1669SOL    HW216470   4.112   1.713   3.388  0.9123  1.3063  1.0357
 1670SOL     OW16471   3.832   4.409   2.392  0.4290 -0.0264  0.3940
 1670SOL    HW116472   3.858   4.427   2.302 -3.3002  1.7303 -0.3341
 1670SOL    HW216473   3.882   4.472   2.444  1.5296 -0.5300 -0.0738
 1671SOL     OW16474   0.046   3.824   5.291 -0.1759 -0.6105  0.1988
 1671SOL    HW116475   0.009   3.913   5.292  1.3908  0.0520 -1.9387
 1671SOL    HW216476   0.013   3.800   5.205 -1.7609 -4.5658  1.9062
 1672SOL     OW16477   0.278   2.510   8.664 -0.7785  0.1141  0.5356
 1672SOL    HW116478   0.242   2.584   8.713 -0.0012  0.5787  0.4039
 1672SOL    HW216479   0.361   2.508   8.712  1.2781  0.3045 -3.0209
 1673SOL     OW16480   0.229   4.458   0.224 -0.3422 -0.4513 -0.2366
 1673SOL    HW116481   0.237   4.405   0.304 -0.3615 -1.5206 -0.9395
 1673SOL    HW216482   0.136   4.452   0.202 -0.5855 -1.5577  1.0202
 1674SOL     OW16483   0.727   1.238   7.910 -1.0528  0.3000  0.5257
 1674SOL    HW116484   0.738   1.146   7.934 -0.9622 -0.5533 -2.8034
 1674SOL    HW216485   0.632   1.232   7.914 -1.2214  1.7556 -1.1821
 1675SOL     OW16486   3.904   3.974   6.857  0.1166  0.4291  0.1777
 1675SOL    HW116487   3.860   3.896   6.824 -0.9909  0.3523  1.8878
 1675SOL    HW216488   3.933   4.015   6.775 -0.3659 -2.3139 -1.3478
 1676SOL     OW16489   3.809   1.588   4.854 -0.1171  0.3785 -0.0982
 1676SOL    HW116490   3.727   1.573   4.902 -0.0520  0.3800  0.0146
 1676SOL    HW216491   3.810   1.682   4.835 -0.2568  0.3642 -0.1729
 1677SOL     OW16492   2.871   0.288   2.941 -0.3371 -0.3170  0.5801
 1677SOL    HW116493   2.811   0.355   2.907  1.0391 -0.5976 -2.3654
 1677SOL    HW216494   2.915   0.252   2.864  0.9360  0.4164  0.9495
 1678SOL     OW16495   0.105   0.251   4.057 -0.2569  0.0587 -0.2694
 1678SOL    HW116496   0.021   0.237   4.012 -0.4045 -1.5058  0.5254
 1678SOL    HW216497   0.163   0.203   3.998  2.3823  1.9499  0.7706
 1679SOL     OW16498   0.185   2.053   8.109 -0.7432  0.2883  0.2633
 1679SOL    HW116499   0.259   2.051   8.048 -0.0663  2.2865  1.0295
 1679SOL    HW216500   0.110   2.066   8.052 -0.3554  0.8148 -0.1223
 1680SOL     OW16501   3.024   3.364  12.047 -0.5755  0.3817  0.2978
 1680SOL    HW116502   3.013   3.279  12.004  1.8501  1.0090 -1.5279
 1680SOL    HW216503   2.981   3.425  11.988  1.0090  1.5273  0.3201
 1681SOL     OW16504   4.365   2.280   5.305 -0.0536 -0.0003  0.2595
 1681SOL    HW116505   4.437   2.338   5.329  0.6440 -1.3267  1.3956
 1681SOL    HW216506   4.291   2.337   5.325 -1.3631 -1.3123 -0.7484
 1682SOL     OW16507   2.526   3.671   6.002  0.0102  0.2022 -0.1904
 1682SOL    HW116508   2.600   3.675   5.942  1.0601  0.2587  1.1240
 1682SOL    HW216509   2.564   3.634   6.082 -0.2942  0.4432  0.0683
 1683SOL     OW16510   3.108   3.076   2.720 -0.3050 -0.2844  0.1194
 1683SOL    HW116511   3.177   3.137   2.748 -1.2672  0.2608  1.3476
 1683SOL    HW216512   3.151   2.991   2.723  1.5558  0.6914  1.1394
 1684SOL     OW16513   0.457   3.450   4.061  0.0582  0.2634  0.1373
 1684SOL    HW116514   0.463   3.511   3.987 -0.8909 -0.2678 -0.3875
 1684SOL    HW216515   0.547   3.419   4.061 -0.5461 -1.5052  0.9371
 1685SOL     OW16516   4.172   3.016   1.153  0.0825 -0.0350 -0.1336
 1685SOL    HW116517   4.099   2.960   1.179 -1.0075 -0.1161 -3.4259
 1685SOL    HW216518   4.230   3.000   1.227  1.1742 -0.0579 -0.9970
 1686SOL     OW16519   4.393   0.865   0.247 -0.3017 -0.6997 -0.1177
 1686SOL    HW116520   4.328   0.911   0.300  1.5494  0.3357  1.2535
 1686SOL    HW216521   4.366   0.773   0.252  1.6720 -1.2606  0.2388
 1687SOL     OW16522   0.204   4.037  11.832 -0.0649 -0.7456 -0.0687
 1687SOL    HW116523   0.287   4.025  11.879 -1.3379 -1.7777  1.9128
 1687SOL    HW216524   0.229   3.993  11.751  0.6871 -0.0593 -0.1999
 1688SOL     OW16525   0.649   2.251   2.828 -0.6321  0.4527 -0.6100
 1688SOL    HW116526   0.598   2.323   2.865  1.8147  2.3747 -0.9565
 1688SOL    HW216527   0.723   2.260   2.888 -0.7510  1.7475 -0.6658
 1689SOL     OW16528   1.900   3.452   7.043  0.0687 -0.1352 -0.5214
 1689SOL    HW116529   1.894   3.360   7.017  2.5633 -0.5710  0.4891
 1689SOL    HW216530   1.885   3.456   7.138  1.6426 -0.6619 -0.2456
 1690SOL     OW16531   4.346   0.114   7.496  0.1208 -0.1727  0.8045
 1690SOL    HW116532   4.363   0.135   7.588 -0.3859 -0.5481  0.9844
 1690SOL    HW216533   4.267   0.060   7.493 -0.5048  0.6699  2.1289
 1691SOL     OW16534   1.300   2.630  16.818  0.2619  0.2929  0.0854
 1691SOL    HW116535   1.382   2.665  16.854 -1.8040  2.3236  2.8448
 1691SOL    HW216536   1.283   2.539  16.842 -0.7418  0.1211 -1.2427
 1692SOL     OW16537   4.450   4.455   3.029  0.3469 -0.4634  0.6106
 1692SOL    HW116538   4.449   4.548   3.007 -0.8544 -0.8778 -0.9986
 1692SOL    HW216539   4.356   4.438   3.022  0.5593 -1.6224  0.5121
 1693SOL     OW16540   2.550   0.791   8.239 -0.0835 -0.3061 -0.1340
 1693SOL    HW116541   2.630   0.790   8.291  1.0611  0.9037 -1.9006
 1693SOL    HW216542   2.483   0.823   8.300  1.9733  2.9202  0.4310
 1694SOL     OW16543   1.130   4.428   5.012 -0.3363  0.6447 -0.2264
 1694SOL    HW116544   1.095   4.516   4.996 -0.5762  0.4799 -0.5999
 1694SOL    HW216545   1.166   4.445   5.100 -0.5943 -1.0173  0.2004
 1695SOL     OW16546   1.193   1.233   4.629 -0.5000  0.4444 -0.7757
 1695SOL    HW116547   1.287   1.226   4.611 -0.4092  1.8634 -0.8449
 1695SOL    HW216548   1.203   1.199   4.718 -1.3956 -0.2082 -0.9206
 1696SOL     OW16549   4.391   4.003   7.608 -0.4792 -0.0495  0.4639
 1696SOL    HW116550   4.399   3.946   7.685  0.1415  1.3716  1.4642
 1696SOL    HW216551   4.479   4.040   7.604 -0.3978 -0.5426 -1.8280
 1697SOL     OW16552   3.296   2.340  12.061 -0.3606 -0.0468  0.2054
 1697SOL    HW116553   3.346   2.345  11.979  0.8407 -2.8346  0.7839
 1697SOL    HW216554   3.209   2.329  12.025 -1.1169  0.8342  1.7561
 1698SOL     OW16555   1.897   2.071   2.532 -0.4550 -0.1491  0.2044
 1698SOL    HW116556   1.944   2.016   2.594  1.5189  0.5029 -0.7120
 1698SOL    HW216557   1.947   2.044   2.455 -1.4168  1.2548 -0.9208
 1699SOL     OW16558   1.276   2.879   4.874  0.4490 -0.0512 -0.0909
 1699SOL    HW116559   1.295   2.972   4.861 -0.3160  0.1267  0.0511
 1699SOL    HW216560   1.238   2.860   4.787  0.0562 -1.1081  0.3075
 1700SOL     OW16561   0.329   3.612   9.523 -0.1660  0.5626  0.1031
 1700SOL    HW116562   0.372   3.697   9.517 -1.1788  1.1399  1.0528
 1700SOL    HW216563   0.248   3.629   9.477 -0.2523 -0.5492 -0.1726
 1701SOL     OW16564   4.471   0.350   0.302  0.2393 -0.0412 -0.0857
 1701SOL    HW116565   4.430   0.403   0.234 -0.3613 -0.1280  0.2050
 1701SOL    HW216566   4.455   0.405   0.379 -0.4216 -1.1401  0.5631
 1702SOL     OW16567   1.624   3.056   7.545 -0.1604  0.0131 -0.2926
 1702SOL    HW116568   1.564   2.998   7.592  1.3665 -1.9542 -0.7577
 1702SOL    HW216569   1.627   3.137   7.595 -0.6330  1.5133 -2.6981
 1703SOL     OW16570   2.230   0.585   5.906 -0.3109 -0.2186  0.4024
 1703SOL    HW116571   2.250   0.492   5.910  1.5942  0.2070  0.8170
 1703SOL    HW216572   2.195   0.594   5.817 -1.1741 -2.2074  0.5346
 1704SOL     OW16573   3.732   4.099   2.613 -0.0716 -0.1521  0.9974
 1704SOL    HW116574   3.696   4.183   2.641 -2.6325 -1.0601  0.4336
 1704SOL    HW216575   3.815   4.119   2.569  0.2682 -0.4829  1.4932
 1705SOL     OW16576   1.921   3.540   4.516  0.6133 -0.0523  0.0239
 1705SOL    HW116577   1.838   3.500   4.489  0.1343  1.2801 -0.5001
 1705SOL    HW216578   1.899   3.565   4.606 -0.6162 -0.8831 -0.0460
 1706SOL     OW16579   2.368   3.722   1.588 -0.0441  0.1034 -0.0461
 1706SOL    HW116580   2.463   3.722   1.598 -0.0725 -2.5827  0.2745
 1706SOL    HW216581   2.367   3.627   1.574  0.4722  0.0924 -0.0140
 1707SOL     OW16582   1.866   2.302   1.503 -0.7105 -0.1837  0.5482
 1707SOL    HW116583   1.896   2.231   1.447 -1.4149  0.6465 -0.8783
 1707SOL    HW216584   1.918   2.300   1.583 -1.6273 -2.7616  1.0704
 1708SOL     OW16585   1.552   0.655   2.532  0.2022  0.2161 -0.4252
 1708SOL    HW116586   1.531   0.562   2.543  0.9018  0.0389 -0.5917
 1708SOL    HW216587   1.568   0.655   2.437  0.5803 -2.8671 -0.3719
 1709SOL     OW16588   3.494   2.387   6.898 -0.1857  0.4406  1.0058
 1709SOL    HW116589   3.555   2.457   6.920  1.8500 -0.5809 -1.3236
 1709SOL    HW216590   3.415   2.432   6.868 -0.7554 -1.7095 -0.7169
 1710SOL     OW16591   3.832   2.634   8.613  0.0482  0.1808  0.2400
 1710SOL    HW116592   3.795   2.548   8.629 -1.3890  1.1491  2.1635
 1710SOL    HW216593   3.749   2.680   8.628 -0.0130  0.1738 -0.0775
 1711SOL     OW16594   0.829   3.697   4.597 -0.2284 -0.0729 -0.1056
 1711SOL    HW116595   0.826   3.729   4.507 -3.2388 -3.2083 -1.1099
 1711SOL    HW216596   0.751   3.642   4.603  2.2021 -3.5060  0.3304
 1712SOL     OW16597   2.240   4.242   3.792  0.2542  0.0345 -0.3128
 1712SOL    HW116598   2.297   4.251   3.868  1.9361 -1.7774 -1.3808
 1712SOL    HW216599   2.229   4.337   3.779  1.1240  0.1233 -0.3815
 1713SOL     OW16600   2.014   1.765   7.892 -0.6726  0.6945 -0.3305
 1713SOL    HW116601   1.936   1.815   7.867 -2.1492 -0.6565  1.5837
 1713SOL    HW216602   1.988   1.674   7.904  3.2934 -0.5263 -0.9125
 1714SOL     OW16603   2.625   3.155   9.368 -0.1201 -0.2114 -0.3003
 1714SOL    HW116604   2.556   3.193   9.313  1.7936  0.6823 -2.0710
 1714SOL    HW216605   2.632   3.069   9.325  0.0749  0.7171 -2.1407
 1715SOL     OW16606   3.666   2.638   1.973  0.3104 -0.1568 -0.1782
 1715SOL    HW116607   3.683   2.556   1.926  1.5407  1.3769 -2.4061
 1715SOL    HW216608   3.575   2.621   1.996  1.1692 -3.6267  0.5905
 1716SOL     OW16609   2.112   3.056   3.617 -0.1817  0.6328  0.2835
 1716SOL    HW116610   2.174   3.123   3.645  1.0508 -1.1483  1.8192
 1716SOL    HW216611   2.035   3.113   3.614  1.7138  3.1806  0.4195
 1717SOL     OW16612   4.102   3.140   4.946 -0.3489  0.0726  0.2489
 1717SOL    HW116613   4.060   3.094   4.874  0.8683 -0.9608  0.2057
 1717SOL    HW216614   4.071   3.100   5.027 -2.7840 -1.7531 -1.5816
 1718SOL     OW16615   2.712   2.320   3.284 -0.1384 -0.3305 -0.0374
 1718SOL    HW116616   2.639   2.364   3.327 -1.4788 -1.7071 -0.8862
 1718SOL    HW216617   2.658   2.258   3.233 -0.0507  0.0022 -0.5384
 1719SOL     OW16618   1.348   2.668   7.507 -0.2853  0.0518 -0.0974
 1719SOL    HW116619   1.385   2.585   7.538  0.6682 -0.1386 -1.7409
 1719SOL    HW216620   1.257   2.650   7.528 -0.6037  2.0516  0.2730
 1720SOL     OW16621   0.104   2.509   6.919  0.2020 -0.5300  0.9199
 1720SOL    HW116622   0.158   2.567   6.866 -0.5788 -1.2630 -0.6965
 1720SOL    HW216623   0.145   2.425   6.898 -0.9146 -0.4720 -1.5592
 1721SOL     OW16624   0.913   2.371  12.429 -0.1989  0.5991 -0.0628
 1721SOL    HW116625   0.868   2.333  12.353  0.3342 -1.6650  0.7720
 1721SOL    HW216626   0.875   2.459  12.423  0.2361  0.8460  0.9481
 1722SOL     OW16627   2.339   4.503   5.135  0.4006 -0.1877  0.2491
 1722SOL    HW116628   2.314   4.520   5.045  1.9504 -0.4370 -0.2382
 1722SOL    HW216629   2.273   4.557   5.179 -0.2718  0.3251 -1.3857
 1723SOL     OW16630   1.472   0.445  11.899  0.5148 -0.6257 -0.1138
 1723SOL    HW116631   1.524   0.453  11.819  0.5485  1.3347  0.0928
 1723SOL    HW216632   1.409   0.376  11.878 -0.2081  0.2450 -0.8435
 1724SOL     OW16633   3.525   3.018   5.314 -0.3394 -0.4940 -0.4714
 1724SOL    HW116634   3.555   2.932   5.286 -2.1802 -0.9315 -1.1470
 1724SOL    HW216635   3.439   3.021   5.271 -0.0982  0.5182 -0.8726
 1725SOL     OW16636   3.979   2.241   0.853 -0.7023 -0.0043 -0.2175
 1725SOL    HW116637   3.969   2.152   0.818 -1.8896  0.8869 -2.1060
 1725SOL    HW216638   3.962   2.214   0.943 -2.6862  1.5493 -0.1563
 1726SOL     OW16639   3.369   2.929   6.325 -0.5648 -0.0064 -0.2638
 1726SOL    HW116640   3.371   2.836   6.348 -0.7817  0.4373  1.5282
 1726SOL    HW216641   3.340   2.964   6.409 -1.8518 -1.7735  0.0286
 1727SOL     OW16642   0.340   3.103   3.257 -0.0447  0.1134 -0.0742
 1727SOL    HW116643   0.404   3.145   3.201 -1.9535  3.7423  0.4857
 1727SOL    HW216644   0.291   3.061   3.186  0.7543  0.1330 -0.6344
 1728SOL     OW16645   3.718   2.053   4.110 -0.3797 -0.1328 -0.3647
 1728SOL    HW116646   3.763   2.053   4.025 -1.1284  0.4007 -0.7548
 1728SOL    HW216647   3.755   1.979   4.158  1.4389  0.3834 -0.9364
 1729SOL     OW16648   1.549   1.315   5.059 -0.1624 -0.5226  0.1754
 1729SOL    HW116649   1.593   1.392   5.023  1.6125 -1.4609  0.3692
 1729SOL    HW216650   1.590   1.245   5.009 -1.4231 -0.8381 -0.4286
 1730SOL     OW16651   1.988   4.338   4.006 -0.5554  0.0875 -0.0448
 1730SOL    HW116652   1.957   4.303   3.923 -2.0147  2.0766 -0.3483
 1730SOL    HW216653   2.026   4.259   4.045  1.5106 -0.3821 -3.0033
 1731SOL     OW16654   0.487   1.604   6.197  0.2406  0.7685  0.2691
 1731SOL    HW116655   0.504   1.525   6.145  2.3898  1.6326 -0.3266
 1731SOL    HW216656   0.557   1.580   6.257  1.1925 -0.6770 -1.4178
 1732SOL     OW16657   4.226   3.863   4.984  0.6147 -0.4159  0.0536
 1732SOL    HW116658   4.226   3.771   4.958  1.9592 -0.5656  0.5785
 1732SOL    HW216659   4.297   3.862   5.048 -2.1395 -0.3137  3.0975
 1733SOL     OW16660   0.397   4.432   3.169  0.1346 -0.3079  0.1524
 1733SOL    HW116661   0.430   4.483   3.094 -0.4515 -1.0435 -0.6110
 1733SOL    HW216662   0.330   4.374   3.131 -1.3838  2.1794 -0.9590
 1734SOL     OW16663   3.448   4.226  11.323  0.1376  0.1554  0.5246
 1734SOL    HW116664   3.379   4.214  11.257  0.2285 -1.0137  0.6380
 1734SOL    HW216665   3.487   4.304  11.283  0.2686 -0.3777 -0.3982
 1735SOL     OW16666   1.529   0.144   5.606  0.2719  0.0291  0.3484
 1735SOL    HW116667   1.488   0.230   5.616  0.0701 -0.0830  0.4837
 1735SOL    HW216668   1.598   0.154   5.671 -0.0999  1.5796  0.5103
 1736SOL     OW16669   4.315   0.584   5.985  0.3140  0.7396 -0.0994
 1736SOL    HW116670   4.318   0.503   5.935  0.2580  0.6310  0.0719
 1736SOL    HW216671   4.303   0.649   5.916 -0.5098  2.9829  2.1396
 1737SOL     OW16672   3.355   4.282   1.583 -0.4246 -0.2244  0.8844
 1737SOL    HW116673   3.261   4.289   1.568 -0.3668 -1.3435  0.0073
 1737SOL    HW216674   3.359   4.261   1.676 -0.1094 -1.4063  0.6029
 1738SOL     OW16675   1.376   2.488  15.488  0.4027  0.2500 -0.0148
 1738SOL    HW116676   1.464   2.486  15.450  0.6203  2.7920  0.3136
 1738SOL    HW216677   1.325   2.526  15.416  1.0650 -1.3208 -1.3259
 1739SOL     OW16678   2.899   0.962   4.140  0.1453 -0.3083  0.4795
 1739SOL    HW116679   2.804   0.952   4.146  0.1372 -0.7229 -0.3421
 1739SOL    HW216680   2.937   0.890   4.089  0.2663 -0.7794  1.2304
 1740SOL     OW16681   2.638   2.122   3.090 -0.0599 -0.3640 -0.2033
 1740SOL    HW116682   2.679   2.052   3.038 -2.8174 -1.9742 -0.2064
 1740SOL    HW216683   2.617   2.197   3.034  2.5639 -0.3568 -1.1944
 1741SOL     OW16684   2.738   0.576   6.979 -0.0005  0.4551  0.1694
 1741SOL    HW116685   2.800   0.569   6.907 -0.0667  1.1308  0.0517
 1741SOL    HW216686   2.676   0.503   6.980  1.8746 -1.1428 -2.3872
 1742SOL     OW16687   3.220   2.272   3.767 -0.0620 -0.4323 -0.3578
 1742SOL    HW116688   3.188   2.201   3.823  1.3671  1.2802  2.6619
 1742SOL    HW216689   3.288   2.224   3.720  0.3672 -0.3973  0.2255
 1743SOL     OW16690   0.754   3.373   3.677  0.2938  0.7474 -0.0134
 1743SOL    HW116691   0.797   3.345   3.596 -1.2544  1.1059 -0.9677
 1743SOL    HW216692   0.768   3.286   3.715 -0.7225  1.0922  1.1463
 1744SOL     OW16693   1.694   2.510   5.702  0.5010 -0.4010 -0.2399
 1744SOL    HW116694   1.758   2.440   5.711  1.3304  0.3311 -0.3704
 1744SOL    HW216695   1.610   2.474   5.730  0.6284 -0.3223  0.2421
 1745SOL     OW16696   3.376   4.083   8.356 -0.1547  0.1239 -0.5448
 1745SOL    HW116697   3.384   4.171   8.393  1.8250  0.0401 -0.7772
 1745SOL    HW216698   3.334   4.099   8.272 -1.2547 -0.1231 -0.0377
 1746SOL     OW16699   0.932   4.269   9.211  0.1698  0.4400 -0.2674
 1746SOL    HW116700   1.019   4.263   9.170 -0.2757 -0.3067 -1.0943
 1746SOL    HW216701   0.909   4.362   9.207  0.8485  0.6332  0.3477
 1747SOL     OW16702   2.032   3.873  10.084  0.4278  0.1804 -0.1926
 1747SOL    HW116703   2.019   3.807  10.152 -3.2416  1.5224  0.3850
 1747SOL    HW216704   2.116   3.914  10.102  1.3368 -1.9940  0.5615
 1748SOL     OW16705   0.911   0.541  17.111  0.1857  0.4635 -0.3529
 1748SOL    HW116706   0.956   0.463  17.140  0.5430  0.5262 -0.7456
 1748SOL    HW216707   0.874   0.576  17.192  1.3217  0.7003  0.0570
 1749SOL     OW16708   2.283   2.611   7.282 -0.2860 -0.5784 -0.6783
 1749SOL    HW116709   2.239   2.687   7.244 -0.9122 -1.3390 -1.4673
 1749SOL    HW216710   2.333   2.660   7.348 -1.5692 -1.6885  1.1022
 1750SOL     OW16711   3.447   0.872   8.074  0.0949  0.4633  0.1969
 1750SOL    HW116712   3.385   0.867   8.001  2.3457 -0.4968 -1.6837
 1750SOL    HW216713   3.441   0.790   8.123 -0.7046 -1.3983 -3.0400
 1751SOL     OW16714   4.560   1.268   7.408  0.3548 -0.3195  0.5744
 1751SOL    HW116715   4.530   1.218   7.484 -2.5339  1.1279  0.3725
 1751SOL    HW216716   4.578   1.357   7.436  2.2582 -0.8624  1.0737
 1752SOL     OW16717   4.545   0.470  15.305 -0.5229  0.3549  0.6963
 1752SOL    HW116718   4.612   0.501  15.366  0.4636  0.0846 -0.2666
 1752SOL    HW216719   4.490   0.548  15.313 -0.0786  0.8733 -1.5204
 1753SOL     OW16720   0.243   4.056   6.428 -0.8190 -0.3330 -0.1070
 1753SOL    HW116721   0.328   4.014   6.440 -0.4693 -0.7053 -3.9409
 1753SOL    HW216722   0.256   4.083   6.337 -1.8839  0.0741 -0.1390
 1754SOL     OW16723   2.937   3.862   9.573  0.6021 -0.1573  0.8383
 1754SOL    HW116724   2.909   3.871   9.664  0.5133 -0.6127  0.8532
 1754SOL    HW216725   2.874   3.796   9.544  1.9382 -1.3602  0.7168
 1755SOL     OW16726   4.135   3.802   5.347  0.0129 -0.5473  0.2786
 1755SOL    HW116727   4.160   3.714   5.321  1.1295  0.5993 -2.5061
 1755SOL    HW216728   4.092   3.787   5.432  0.1096 -2.8328 -0.0891
 1756SOL     OW16729   2.454   0.018  10.212 -0.1492 -0.1708 -0.0342
 1756SOL    HW116730   2.373   4.688  10.209  0.6446 -1.4075  0.0518
 1756SOL    HW216731   2.464   0.044  10.120  2.6990 -0.8882  0.0761
 1757SOL     OW16732   2.052   3.065  11.155  0.1481 -0.3015 -0.2477
 1757SOL    HW116733   2.044   3.123  11.079 -0.7184  0.0187  0.0788
 1757SOL    HW216734   2.092   2.986  11.121  0.2713  0.6395 -2.2913
 1758SOL     OW16735   2.420   1.460   5.306 -0.0469  0.7459 -0.9838
 1758SOL    HW116736   2.375   1.532   5.262 -0.9212  0.1590 -1.0385
 1758SOL    HW216737   2.491   1.516   5.338 -2.1401  2.8046  0.0297
 1759SOL     OW16738   0.903   3.641   6.155  0.1537  0.3632  0.0143
 1759SOL    HW116739   0.984   3.656   6.203  0.3589  0.7893 -0.4567
 1759SOL    HW216740   0.845   3.659   6.229  1.0974 -1.7937  1.2553
 1760SOL     OW16741   0.872   0.718  15.672 -0.5219 -0.2843 -0.5911
 1760SOL    HW116742   0.915   0.636  15.695  1.5051  0.5641 -1.3556
 1760SOL    HW216743   0.857   0.745  15.762 -0.8216 -1.4368 -0.2945
 1761SOL     OW16744   0.960   2.980   6.222  0.1309 -0.1072 -0.1148
 1761SOL    HW116745   1.028   2.996   6.288 -0.1167  0.2913  0.0410
 1761SOL    HW216746   0.912   2.907   6.260 -0.9062  0.1868 -0.8756
 1762SOL     OW16747   3.592   2.850   7.022 -0.0096 -0.4575 -0.3466
 1762SOL    HW116748   3.673   2.803   7.043  0.4376  1.3628  2.0003
 1762SOL    HW216749   3.534   2.793   7.072 -1.7664  0.5090 -1.2931
 1763SOL     OW16750   3.031   2.590   4.484 -0.2343 -0.6079  0.6245
 1763SOL    HW116751   3.045   2.515   4.426  0.7821  0.5424 -0.6187
 1763SOL    HW216752   2.985   2.645   4.420 -1.3017  0.6284  2.4644
 1764SOL     OW16753   1.031   4.433  10.623 -0.2443  0.8300 -0.2404
 1764SOL    HW116754   1.125   4.448  10.635  0.1144 -1.7639  0.2731
 1764SOL    HW216755   1.002   4.521  10.602 -0.9710  0.7992  0.6222
 1765SOL     OW16756   3.939   2.391   7.171  0.0049  0.2012  0.3273
 1765SOL    HW116757   3.970   2.429   7.089  0.1484  0.2933  0.4236
 1765SOL    HW216758   3.875   2.326   7.140  0.6219 -0.3652  0.2505
 1766SOL     OW16759   2.848   4.390   0.493 -0.1315  1.0538  0.0732
 1766SOL    HW116760   2.921   4.394   0.555  0.0042  1.5515 -0.1181
 1766SOL    HW216761   2.799   4.472   0.500 -0.9266  0.5572  0.4142
 1767SOL     OW16762   2.070   3.400   9.468  0.0610  0.8773  0.1454
 1767SOL    HW116763   2.162   3.392   9.496  0.4238  1.8484 -0.7797
 1767SOL    HW216764   2.057   3.486   9.509 -0.0538  1.7507 -1.7540
 1768SOL     OW16765   1.669   1.906   9.817  0.3200 -0.1478  0.4456
 1768SOL    HW116766   1.600   1.943   9.872  0.8101  0.9403  0.3244
 1768SOL    HW216767   1.677   1.979   9.755 -0.1652  1.1865  1.9665
 1769SOL     OW16768   0.052   1.796   6.866  0.0697 -0.3279 -0.3971
 1769SOL    HW116769   0.075   1.727   6.929 -1.3783  0.7863  1.3286
 1769SOL    HW216770   0.103   1.869   6.901  1.7496 -0.0218 -3.4379
 1770SOL     OW16771   4.440   4.448   9.436 -0.0274  0.3924 -0.1510
 1770SOL    HW116772   4.478   4.365   9.408  0.0390  0.1029  0.7982
 1770SOL    HW216773   4.472   4.445   9.526  0.3417 -0.3841 -0.3075
 1771SOL     OW16774   2.159   1.595  15.653  0.1740  0.7675 -0.2604
 1771SOL    HW116775   2.137   1.674  15.603 -1.5083  0.4919  0.0580
 1771SOL    HW216776   2.076   1.548  15.653  0.7722 -0.2987 -0.1492
 1772SOL     OW16777   1.497   3.291   4.311 -0.0315  0.0809 -0.1515
 1772SOL    HW116778   1.569   3.243   4.271 -1.2531 -1.6833 -0.2368
 1772SOL    HW216779   1.422   3.250   4.266 -0.1049 -0.7750  0.7659
 1773SOL     OW16780   0.103   0.771  17.596 -0.0377  0.1148 -0.4536
 1773SOL    HW116781   0.107   0.768  17.501  1.0878  3.1472 -0.4947
 1773SOL    HW216782   0.047   0.695  17.615  0.4776 -0.5420 -1.5712
 1774SOL     OW16783   2.878   2.178   3.551 -0.3030 -0.5597 -0.0294
 1774SOL    HW116784   2.870   2.163   3.645 -1.1201  0.6153  0.0855
 1774SOL    HW216785   2.929   2.259   3.553 -0.7574 -0.3139  1.1959
 1775SOL     OW16786   4.591   4.144  10.627  0.1245  0.3188  0.2447
 1775SOL    HW116787   4.658   4.213  10.632  2.2996 -1.8904  1.4872
 1775SOL    HW216788   4.626   4.083  10.692  0.2413 -0.3441 -0.4370
 1776SOL     OW16789   1.323   3.192  12.884 -0.4186  0.6057  0.1860
 1776SOL    HW116790   1.302   3.193  12.978  2.1248  2.2180  0.7494
 1776SOL    HW216791   1.409   3.151  12.884 -0.7842 -0.1445 -4.4445
 1777SOL     OW16792   0.450   3.415   3.630 -0.3072  0.3635 -0.1719
 1777SOL    HW116793   0.511   3.453   3.567 -1.0373  0.6085 -0.7357
 1777SOL    HW216794   0.468   3.466   3.709 -0.0536 -0.1469  0.0986
 1778SOL     OW16795   1.703   4.301  14.801 -0.5038  0.2923  0.5294
 1778SOL    HW116796   1.794   4.312  14.828 -0.4741  0.7446  0.2551
 1778SOL    HW216797   1.700   4.362  14.727  0.0658  1.0965  1.1763
 1779SOL     OW16798   2.183   0.966   8.855 -0.0701  0.3051  0.4008
 1779SOL    HW116799   2.276   0.988   8.840 -0.5803  0.7440 -2.1273
 1779SOL    HW216800   2.182   0.905   8.781 -0.5796  1.3994 -0.5137
 1780SOL     OW16801   2.380   2.945  11.964  0.4976 -0.1012  0.0915
 1780SOL    HW116802   2.465   2.927  11.924  1.2582  0.0456  1.6263
 1780SOL    HW216803   2.329   2.966  11.886  1.3232  0.6157 -0.2591
 1781SOL     OW16804   1.489   1.469  16.758  1.1085  0.2827 -0.8307
 1781SOL    HW116805   1.543   1.526  16.813 -0.2581  1.1450 -0.4034
 1781SOL    HW216806   1.460   1.392  16.808  0.4868  1.2151  0.2422
 1782SOL     OW16807   4.167   4.488   9.377 -0.7076  0.1504  0.2443
 1782SOL    HW116808   4.261   4.471   9.379 -0.7849 -0.2352  0.5050
 1782SOL    HW216809   4.161   4.501   9.472 -1.1057 -1.6790  0.4574
 1783SOL     OW16810   0.405   4.575   6.924 -0.2066  0.0273  0.2958
 1783SOL    HW116811   0.368   4.606   6.842 -0.0760  0.8099  0.5282
 1783SOL    HW216812   0.365   4.489   6.937 -0.0851 -0.5887 -3.4653
 1784SOL     OW16813   3.441   4.234   3.250  0.1477  0.3140 -0.0210
 1784SOL    HW116814   3.446   4.155   3.196  0.0157  0.4568 -0.2459
 1784SOL    HW216815   3.391   4.288   3.187 -2.4176  0.7996  2.4293
 1785SOL     OW16816   2.959   2.479  16.282  0.3975  0.5635  0.0758
 1785SOL    HW116817   2.876   2.479  16.330 -0.0954 -3.3427 -0.7246
 1785SOL    HW216818   2.954   2.556  16.226  0.0993 -0.3612 -1.1646
 1786SOL     OW16819   1.150   3.561   1.240  0.6331 -0.7715 -0.2450
 1786SOL    HW116820   1.058   3.583   1.221  0.8373 -0.0792 -0.4027
 1786SOL    HW216821   1.142   3.558   1.336  0.7017 -0.4761 -0.2325
 1787SOL     OW16822   2.434   1.713   1.074  0.5471 -0.3657  0.3197
 1787SOL    HW116823   2.458   1.653   1.003 -0.6429 -1.2739  0.6893
 1787SOL    HW216824   2.477   1.671   1.149  1.0497 -0.6820 -0.1405
 1788SOL     OW16825   4.367   2.009   7.640 -0.0965 -0.4228  0.1369
 1788SOL    HW116826   4.312   1.939   7.605 -2.0518  0.3273  1.7085
 1788SOL    HW216827   4.352   1.994   7.734  1.8756 -1.1703  0.3397
 1789SOL     OW16828   2.846   1.575   4.743  0.4165 -0.2224 -0.8679
 1789SOL    HW116829   2.786   1.525   4.686  1.9224 -4.2987  1.0952
 1789SOL    HW216830   2.795   1.653   4.767  2.8186  1.2537 -0.6555
 1790SOL     OW16831   1.987   3.683  14.734  0.0621  0.7706 -0.2360
 1790SOL    HW116832   2.015   3.626  14.663 -0.8187  0.6995 -0.5281
 1790SOL    HW216833   1.982   3.765  14.685 -2.4076  0.7802  0.0287
 1791SOL     OW16834   4.492   3.047   3.683 -0.4805 -0.2138 -0.6190
 1791SOL    HW116835   4.465   3.025   3.772  0.2429  0.4926 -0.2220
 1791SOL    HW216836   4.525   3.137   3.690 -0.7773 -0.1412 -0.1545
 1792SOL     OW16837   2.568   1.943  16.594 -0.6028  0.5550 -0.0759
 1792SOL    HW116838   2.661   1.925  16.611 -0.4581  0.2729 -1.1592
 1792SOL    HW216839   2.574   1.937  16.499  0.4793 -2.2656  0.1628
 1793SOL     OW16840   4.056   1.191  11.359 -0.1101 -0.1373  0.0551
 1793SOL    HW116841   4.058   1.130  11.285  0.5582  0.8340 -0.7204
 1793SOL    HW216842   3.978   1.244  11.343 -1.2605 -1.3913  1.4163
 1794SOL     OW16843   2.244   4.161  12.232  0.1303  0.1974 -0.2378
 1794SOL    HW116844   2.337   4.147  12.245  0.3978  1.0595 -1.1914
 1794SOL    HW216845   2.216   4.193  12.318 -0.9695  0.7029 -0.7801
 1795SOL     OW16846   1.249   1.242   6.199  0.1946 -0.2320 -0.2596
 1795SOL    HW116847   1.312   1.203   6.260 -2.3929  0.6589  3.0306
 1795SOL    HW216848   1.169   1.254   6.250 -1.0417 -0.7540 -2.0815
 1796SOL     OW16849   0.144   1.795   4.888  0.5628  0.2585 -0.1546
 1796SOL    HW116850   0.057   1.813   4.923  0.0169 -2.7859 -0.0152
 1796SOL    HW216851   0.168   1.881   4.852  1.2338  0.6190  1.1520
 1797SOL     OW16852   3.359   4.076   5.953  0.3108 -0.3152  0.2073
 1797SOL    HW116853   3.378   4.083   5.860 -3.4412  0.4585 -0.4976
 1797SOL    HW216854   3.379   4.167   5.977 -1.2465 -0.0493  0.5040
 1798SOL     OW16855   1.408   2.025   9.392  0.1686  0.5276  0.0892
 1798SOL    HW116856   1.319   2.021   9.358  0.6174  1.3482 -1.1961
 1798SOL    HW216857   1.385   2.054   9.481 -0.3865 -0.8362  0.3895
 1799SOL     OW16858   2.515   3.430   0.987  0.5176  0.2812 -0.0924
 1799SOL    HW116859   2.582   3.498   0.988  0.2902  0.5191 -1.1282
 1799SOL    HW216860   2.537   3.385   0.905 -0.5259  1.4952 -1.0312
 1800SOL     OW16861   4.243   3.565   6.055  0.2144 -0.1194 -0.6266
 1800SOL    HW116862   4.220   3.617   6.132 -0.6565 -0.1944 -0.8314
 1800SOL    HW216863   4.294   3.501   6.103  0.7023 -0.1615 -1.2053
 1801SOL     OW16864   1.059   2.796   8.519 -0.0285  0.6108 -0.5605
 1801SOL    HW116865   0.987   2.732   8.523  1.3700 -0.8593  0.7177
 1801SOL    HW216866   1.123   2.740   8.563 -1.8115 -0.6516  0.4617
 1802SOL     OW16867   1.972   3.516  13.831  0.2245 -0.2166  0.1655
 1802SOL    HW116868   2.008   3.432  13.804 -0.2451 -0.2380 -0.3880
 1802SOL    HW216869   1.974   3.550  13.741 -2.3815 -1.3507 -0.3121
 1803SOL     OW16870   1.749   2.523  16.633 -0.3335  0.1206 -0.8101
 1803SOL    HW116871   1.751   2.525  16.729  0.4474  1.4138 -0.8548
 1803SOL    HW216872   1.842   2.524  16.611 -0.0406 -1.4233  0.3445
 1804SOL     OW16873   3.765   0.526   2.781  0.2298  0.1509  0.1555
 1804SOL    HW116874   3.808   0.517   2.866  1.3935  0.9687 -0.3365
 1804SOL    HW216875   3.724   0.441   2.772 -0.8931  0.6013  1.0968
 1805SOL     OW16876   1.637   2.083   3.044 -0.1158  0.3454 -0.3875
 1805SOL    HW116877   1.596   2.156   3.091  0.0739 -0.3478  0.8567
 1805SOL    HW216878   1.561   2.044   3.000  0.0368  0.4736 -0.7656
 1806SOL     OW16879   1.288   4.247  10.628  0.2683  0.4090  0.3051
 1806SOL    HW116880   1.287   4.211  10.717 -0.2124  0.3555  0.2793
 1806SOL    HW216881   1.371   4.293  10.635 -0.1972  1.4813 -1.3867
 1807SOL     OW16882   4.056   1.175   3.551  0.0989 -0.1540  0.2710
 1807SOL    HW116883   4.150   1.180   3.537  0.0666  1.0541  0.5198
 1807SOL    HW216884   4.066   1.164   3.646 -2.7960 -3.1431  0.2505
 1808SOL     OW16885   1.643   2.873   1.404 -0.4278  0.3983  0.4158
 1808SOL    HW116886   1.667   2.781   1.414  1.0526  0.6889 -0.5040
 1808SOL    HW216887   1.727   2.916   1.417 -0.5153  0.5834  0.3726
 1809SOL     OW16888   3.415   0.953  16.569 -0.1694 -0.3342 -0.0315
 1809SOL    HW116889   3.381   0.887  16.509  3.1841  1.4335 -3.8461
 1809SOL    HW216890   3.352   0.939  16.641  1.3498 -0.6952  1.2218
 1810SOL     OW16891   3.819   2.508  13.940 -0.4084  0.2594  0.1987
 1810SOL    HW116892   3.858   2.509  13.852  0.8492  0.1624  0.7546
 1810SOL    HW216893   3.814   2.600  13.966 -1.1861 -0.2730  1.9332
 1811SOL     OW16894   0.462   2.664   3.363 -0.3452 -1.1507  0.1764
 1811SOL    HW116895   0.521   2.596   3.396 -0.6053 -1.3439  0.2415
 1811SOL    HW216896   0.524   2.721   3.318 -2.2792  1.2333  0.5242
 1812SOL     OW16897   3.219   4.081  17.302 -0.3280  0.0967  0.3261
 1812SOL    HW116898   3.200   4.053  17.391  0.3915  1.3249  0.8709
 1812SOL    HW216899   3.152   4.150  17.294 -0.9568 -0.1603  3.3861
 1813SOL     OW16900   2.104   1.647   6.021 -0.4671 -0.1302  0.3149
 1813SOL    HW116901   2.114   1.592   5.943  0.7096 -0.7584  0.9047
 1813SOL    HW216902   2.191   1.684   6.038 -0.1238 -0.4909 -0.6631
 1814SOL     OW16903   1.323   3.526   9.433 -0.0061 -0.4396 -0.5260
 1814SOL    HW116904   1.331   3.550   9.526  1.7638  1.0481 -1.0735
 1814SOL    HW216905   1.411   3.546   9.400 -0.4803  0.7624 -1.0393
 1815SOL     OW16906   3.994   0.682   1.755 -0.1846  0.2706  0.4133
 1815SOL    HW116907   3.994   0.660   1.662  0.1107 -3.4837  1.2952
 1815SOL    HW216908   4.050   0.759   1.755 -1.5078  1.2249  0.1210
 1816SOL     OW16909   4.099   2.387  17.162  0.0157  0.0077  0.2959
 1816SOL    HW116910   4.165   2.430  17.107  1.1368  0.9089  2.3612
 1816SOL    HW216911   4.145   2.345  17.234 -1.3895 -1.6632  0.1876
 1817SOL     OW16912   2.640   2.967   7.493  0.3958  0.2334 -0.4439
 1817SOL    HW116913   2.585   2.938   7.420 -1.4434  0.8423  0.6985
 1817SOL    HW216914   2.670   3.052   7.461 -1.5390  0.8499 -0.6021
 1818SOL     OW16915   2.137   1.069   2.744  0.0485  0.2765 -0.5060
 1818SOL    HW116916   2.171   0.981   2.733 -4.1220 -1.1285 -2.3428
 1818SOL    HW216917   2.122   1.108   2.657 -2.4230  2.0923  0.7504
 1819SOL     OW16918   3.460   3.854   0.742  0.2444  0.3081  0.0159
 1819SOL    HW116919   3.547   3.838   0.781  1.5313  0.4998 -2.7998
 1819SOL    HW216920   3.455   3.789   0.673 -0.1942  2.3503 -1.8682
 1820SOL     OW16921   0.583   1.527   3.306  0.1242  0.4621  0.5732
 1820SOL    HW116922   0.490   1.507   3.299 -0.3788  2.8448  0.6228
 1820SOL    HW216923   0.618   1.438   3.311  0.7263  0.6706  0.0157
 1821SOL     OW16924   1.575   2.418   4.477  0.1948 -1.2093  0.0707
 1821SOL    HW116925   1.603   2.509   4.484  0.1359 -1.2071  0.2653
 1821SOL    HW216926   1.603   2.372   4.556  0.0631 -1.1271  0.1652
 1822SOL     OW16927   0.870   1.759   8.041 -0.1532  0.0335  0.1612
 1822SOL    HW116928   0.814   1.688   8.010 -1.9627  0.8211  1.6304
 1822SOL    HW216929   0.880   1.731   8.132  0.9821  0.6915  0.2435
 1823SOL     OW16930   4.341   4.694   8.305  0.3598  0.3319 -0.6908
 1823SOL    HW116931   4.293   4.695   8.387  1.7623  1.6610  0.1054
 1823SOL    HW216932   4.323   0.058   8.269 -0.1589  0.6877  0.4259
 1824SOL     OW16933   4.411   1.532   3.404 -0.1913 -0.2570  0.0230
 1824SOL    HW116934   4.336   1.592   3.409  0.7248  0.9825 -1.2928
 1824SOL    HW216935   4.417   1.535   3.309  0.3485  3.5163  0.1950
 1825SOL     OW16936   2.397   0.944  13.864 -0.3041  0.4090  0.2814
 1825SOL    HW116937   2.434   1.026  13.831  2.3441 -0.5150  0.9732
 1825SOL    HW216938   2.471   0.884  13.874  0.0337  0.5084 -1.7468
 1826SOL     OW16939   2.981   3.875   6.791 -0.0773  0.2962 -0.0063
 1826SOL    HW116940   3.000   3.880   6.697  1.0875 -1.3691  0.1443
 1826SOL    HW216941   2.906   3.815   6.790  0.8609 -0.8300 -2.3424
 1827SOL     OW16942   3.279   1.837   2.842 -0.2152  0.4061 -0.0822
 1827SOL    HW116943   3.267   1.747   2.814  1.8208  0.7382 -2.0553
 1827SOL    HW216944   3.205   1.879   2.798 -0.5694  1.2348  1.2871
 1828SOL     OW16945   1.959   3.458   8.358  0.1056 -0.2458 -0.3727
 1828SOL    HW116946   1.954   3.425   8.269 -0.5572 -1.4674  0.1157
 1828SOL    HW216947   1.967   3.375   8.405  0.8683  0.2518  0.3866
 1829SOL     OW16948   3.601   1.063   7.129 -0.5199  0.1182  0.2135
 1829SOL    HW116949   3.592   1.158   7.118  0.8326 -0.0164 -2.0785
 1829SOL    HW216950   3.672   1.066   7.194  1.2736  0.2547 -1.7543
 1830SOL     OW16951   0.310   2.614  17.465  0.2001  0.1138  0.5274
 1830SOL    HW116952   0.379   2.602  17.400 -1.3913 -0.7598 -1.0098
 1830SOL    HW216953   0.267   2.529  17.453 -1.6834  1.0062  0.9984
 1831SOL     OW16954   2.319   3.508   8.896 -0.6713 -0.2310 -0.6252
 1831SOL    HW116955   2.365   3.579   8.852 -0.4262 -0.1305 -0.2132
 1831SOL    HW216956   2.238   3.502   8.846 -1.3717  2.0190  0.2844
 1832SOL     OW16957   0.172   0.136  14.576  0.1305 -0.1372 -0.2213
 1832SOL    HW116958   0.244   0.176  14.625  0.6936 -0.2339 -0.9559
 1832SOL    HW216959   0.183   0.044  14.599  1.5109  0.9933  3.5342
 1833SOL     OW16960   0.900   3.445   8.637  0.1823  0.0835 -0.5390
 1833SOL    HW116961   0.979   3.404   8.602  2.0993  1.8399  1.7272
 1833SOL    HW216962   0.928   3.489   8.717  1.3213 -1.7985  0.0785
 1834SOL     OW16963   3.869   0.640   8.356 -0.0309  0.2974 -0.2212
 1834SOL    HW116964   3.887   0.554   8.393 -4.0924 -0.5172 -0.1791
 1834SOL    HW216965   3.936   0.688   8.406 -0.3095  0.4373  0.0155
 1835SOL     OW16966   3.103   3.115   1.110  0.6480  0.3012 -0.1441
 1835SOL    HW116967   3.041   3.042   1.114 -0.3307  1.1381  0.0815
 1835SOL    HW216968   3.192   3.082   1.100 -0.3769 -1.8646 -2.0914
 1836SOL     OW16969   0.400   0.950   2.936 -0.3577 -0.1639  0.4338
 1836SOL    HW116970   0.397   1.022   3.000 -0.7285  0.1922  0.0157
 1836SOL    HW216971   0.456   0.983   2.866 -0.5039 -2.0748 -0.5775
 1837SOL     OW16972   2.984   2.755   3.816  0.4344 -0.7818  0.8857
 1837SOL    HW116973   2.959   2.766   3.907  3.2328  1.8920  1.3260
 1837SOL    HW216974   2.978   2.845   3.786  2.3834 -1.4638 -1.5811
 1838SOL     OW16975   2.382   3.579  10.983  0.1864 -0.4809 -0.2727
 1838SOL    HW116976   2.365   3.639  10.910 -1.7471 -2.2107 -1.2563
 1838SOL    HW216977   2.469   3.607  11.012 -0.2628  0.4265  0.1930
 1839SOL     OW16978   4.627   3.101  12.477  0.0280 -0.0171 -0.1919
 1839SOL    HW116979   4.537   3.091  12.445  0.5486  0.5110 -1.8560
 1839SOL    HW216980   4.671   3.127  12.396 -1.0380 -0.2235 -0.8360
 1840SOL     OW16981   4.180   4.225   7.880  0.6882 -0.0102  0.4371
 1840SOL    HW116982   4.092   4.220   7.844  1.1420  0.8621 -0.7615
 1840SOL    HW216983   4.186   4.133   7.908 -0.9475 -0.2024  0.1513
 1841SOL     OW16984   4.238   2.764   4.013  0.0180 -0.4796 -0.1276
 1841SOL    HW116985   4.166   2.737   3.956 -0.1575  0.6942 -0.4590
 1841SOL    HW216986   4.237   2.691   4.076 -0.5233  0.1982  0.6506
 1842SOL     OW16987   2.762   0.278   3.599  0.0795 -0.0972 -0.2948
 1842SOL    HW116988   2.810   0.195   3.609 -0.3333 -0.2865  0.1300
 1842SOL    HW216989   2.722   0.267   3.513 -0.2910 -2.1675  0.1333
 1843SOL     OW16990   2.705   0.006  13.584  0.0620  0.0604 -0.1404
 1843SOL    HW116991   2.648   0.044  13.518  0.7507  3.2444  1.0838
 1843SOL    HW216992   2.686   4.639  13.559  2.0045 -0.8339  1.5730
 1844SOL     OW16993   2.797   3.746   2.558  0.3496  0.0170 -0.5085
 1844SOL    HW116994   2.878   3.793   2.538  0.5919 -0.5676 -0.9229
 1844SOL    HW216995   2.804   3.728   2.652 -0.4339  0.2979 -0.3945
 1845SOL     OW16996   0.917   2.424   2.804 -0.1166  0.3838 -0.2077
 1845SOL    HW116997   0.974   2.348   2.793 -1.7163 -0.6718 -1.1537
 1845SOL    HW216998   0.898   2.445   2.712 -1.8965  0.9379  0.2822
 1846SOL     OW16999   1.998   0.035   2.957  0.0303  0.2787  0.7575
 1846SOL    HW117000   1.991   0.044   2.862 -0.7908 -1.6041  0.6400
 1846SOL    HW217001   1.982   0.123   2.991  2.2224  0.9023  0.1806
 1847SOL     OW17002   3.040   1.995   8.026 -0.4038  0.2193 -0.0480
 1847SOL    HW117003   3.069   2.082   8.053 -2.7241  1.3367 -1.1431
 1847SOL    HW217004   3.029   1.947   8.108 -1.7485 -2.1182 -1.6031
 1848SOL     OW17005   3.333   2.996   1.178  0.0423  1.4102 -0.7689
 1848SOL    HW117006   3.425   3.017   1.196  0.2374  0.6128 -0.8157
 1848SOL    HW217007   3.293   3.029   1.258 -1.6964  1.5423 -1.7102
 1849SOL     OW17008   3.537   0.086   9.786  0.2498 -0.2298  0.0571
 1849SOL    HW117009   3.631   0.093   9.770  0.5526 -1.2484  1.3455
 1849SOL    HW217010   3.501   0.085   9.697 -0.7818  0.1102  0.4721
 1850SOL     OW17011   2.329   4.627   5.673 -0.2782  0.1026 -0.2329
 1850SOL    HW117012   2.273   4.554   5.646 -2.5688  2.6535 -2.2733
 1850SOL    HW217013   2.262   4.685   5.710  0.5459 -0.5482  2.2612
 1851SOL     OW17014   2.384   1.887  15.359  0.0650 -0.1547 -0.0283
 1851SOL    HW117015   2.335   1.872  15.278  0.3660 -1.1082 -0.0440
 1851SOL    HW217016   2.356   1.976  15.378  0.3567  0.2023 -1.2315
 1852SOL     OW17017   3.611   4.565  11.799 -0.0707 -0.4490 -0.1260
 1852SOL    HW117018   3.646   4.563  11.710 -0.1198 -1.4155 -0.1228
 1852SOL    HW217019   3.670   4.498  11.834  1.3423 -0.4115 -2.4304
 1853SOL     OW17020   3.675   4.253   8.942 -0.0262  0.1955  0.3700
 1853SOL    HW117021   3.686   4.290   9.029 -0.7523  0.8458  0.1843
 1853SOL    HW217022   3.695   4.329   8.888  1.2039 -0.1083  0.3953
 1854SOL     OW17023   0.898   4.521   0.606  0.0276  0.3504  1.0082
 1854SOL    HW117024   0.986   4.503   0.639 -0.6341 -1.2599  1.9023
 1854SOL    HW217025   0.854   4.436   0.599 -0.3835  0.7265 -0.9082
 1855SOL     OW17026   4.594   0.951  12.949  0.0232 -0.4243 -0.3711
 1855SOL    HW117027   4.542   1.029  12.971  0.3302 -0.2406 -0.3016
 1855SOL    HW217028   4.685   0.975  12.966  0.1070 -0.0514 -1.3519
 1856SOL     OW17029   2.660   4.580  13.340  0.7883  0.2089 -0.7178
 1856SOL    HW117030   2.640   4.487  13.330  0.1551  0.3331 -0.5830
 1856SOL    HW217031   2.579   4.625  13.318  0.9484  0.6190 -0.4490
 1857SOL     OW17032   0.314   0.815   9.900  0.2105 -0.2068  0.8942
 1857SOL    HW117033   0.255   0.747   9.934 -0.9954 -0.0503 -0.8834
 1857SOL    HW217034   0.383   0.771   9.850  1.0130  0.5667  1.3211
 1858SOL     OW17035   4.000   1.927   9.199 -0.2041 -0.4794  0.1507
 1858SOL    HW117036   4.010   2.012   9.242  1.0229 -2.0504  2.9966
 1858SOL    HW217037   4.015   1.966   9.113 -0.8959 -0.3020  0.1146
 1859SOL     OW17038   3.046   0.919   8.254  0.4543  0.6658  0.4272
 1859SOL    HW117039   3.011   0.848   8.200 -0.6691  1.1041  0.5831
 1859SOL    HW217040   3.034   0.888   8.343 -1.3055 -0.2468 -0.1352
 1860SOL     OW17041   2.201   1.341   8.502  0.1101  0.2156  0.6804
 1860SOL    HW117042   2.142   1.392   8.446 -1.0218 -1.7966  0.0262
 1860SOL    HW217043   2.187   1.400   8.576  1.2022 -1.1632  1.9894
 1861SOL     OW17044   3.478   0.971   2.329  0.6403  0.3481  0.0928
 1861SOL    HW117045   3.526   1.052   2.344 -0.8928  1.0818  1.0646
 1861SOL    HW217046   3.472   0.944   2.421 -2.6429  0.8847  0.0377
 1862SOL     OW17047   1.975   1.709   6.541  0.4212  0.2028 -0.4137
 1862SOL    HW117048   1.958   1.646   6.611  2.0677 -0.9167 -1.0461
 1862SOL    HW217049   2.015   1.650   6.477 -0.7396  0.5404 -1.4475
 1863SOL     OW17050   2.571   3.105   8.431  0.0157  0.5133 -0.2807
 1863SOL    HW117051   2.486   3.075   8.461 -0.6554 -1.7616 -4.3531
 1863SOL    HW217052   2.631   3.082   8.502  1.0296  1.2469 -0.8886
 1864SOL     OW17053   0.933   3.844   7.252 -0.3921 -0.3705 -0.2421
 1864SOL    HW117054   0.852   3.892   7.267  0.7906  0.2410  4.0097
 1864SOL    HW217055   0.965   3.813   7.337 -0.4379 -1.9183 -0.7757
 1865SOL     OW17056   0.096   4.184   2.375  0.4869  0.1294 -0.1660
 1865SOL    HW117057   0.067   4.219   2.459  0.0405  1.1248 -0.7375
 1865SOL    HW217058   0.189   4.204   2.376 -0.0278  2.3630  1.8271
 1866SOL     OW17059   3.960   1.557   5.746  0.1421 -0.7120  0.0259
 1866SOL    HW117060   3.954   1.469   5.783  0.7613 -0.8451 -0.1957
 1866SOL    HW217061   4.047   1.589   5.772 -1.0547 -0.3349  3.5939
 1867SOL     OW17062   1.899   3.539  15.206 -0.2626 -0.0674  0.1394
 1867SOL    HW117063   1.807   3.517  15.217 -0.4187  0.8340  0.6059
 1867SOL    HW217064   1.920   3.492  15.125 -0.4651 -2.8564  1.7037
 1868SOL     OW17065   2.906   2.443   3.744  0.1393 -0.2174  0.4821
 1868SOL    HW117066   2.884   2.409   3.831  1.9829 -1.4887  0.4586
 1868SOL    HW217067   2.832   2.502   3.732 -1.9151 -3.0375 -0.7867
 1869SOL     OW17068   2.306   0.392  13.237 -0.2219 -0.0915 -0.1832
 1869SOL    HW117069   2.319   0.467  13.295 -0.5221  1.1160 -1.6991
 1869SOL    HW217070   2.282   0.324  13.300  1.1934 -1.8307 -1.5145
 1870SOL     OW17071   0.314   1.788   3.799 -0.6954 -0.3647 -0.2692
 1870SOL    HW117072   0.247   1.776   3.733 -1.2121  0.3672  0.1147
 1870SOL    HW217073   0.256   1.804   3.874  0.1975 -1.7160  0.7117
 1871SOL     OW17074   1.717   3.747  13.206  0.1477  0.2726  0.0042
 1871SOL    HW117075   1.625   3.737  13.182 -0.0756 -0.4746  1.1385
 1871SOL    HW217076   1.713   3.801  13.285 -0.6567 -1.5296  1.2083
 1872SOL     OW17077   0.218   4.056  11.356 -0.0508 -0.0061 -0.4264
 1872SOL    HW117078   0.148   4.031  11.296 -1.8253  0.6625  1.3938
 1872SOL    HW217079   0.266   4.127  11.313 -2.4672  1.8591  0.0075
 1873SOL     OW17080   3.526   2.863   2.369  0.6150 -0.2470 -0.2374
 1873SOL    HW117081   3.599   2.806   2.346 -1.1014 -2.9999  1.1963
 1873SOL    HW217082   3.467   2.856   2.294  0.6493  1.3915 -0.4148
 1874SOL     OW17083   3.744   1.783   4.127  0.5377 -0.1727 -0.8080
 1874SOL    HW117084   3.733   1.735   4.045  0.9142 -0.8349 -0.4687
 1874SOL    HW217085   3.726   1.717   4.195 -3.8119 -0.3049 -2.1048
 1875SOL     OW17086   4.550   4.302   8.638  0.2925 -0.1443  0.0716
 1875SOL    HW117087   4.636   4.264   8.657  0.0497 -0.6872  0.0838
 1875SOL    HW217088   4.569   4.373   8.577 -1.0929 -1.1990 -1.5604
 1876SOL     OW17089   1.495   0.492   6.064  0.1214 -0.3036 -0.6376
 1876SOL    HW117090   1.531   0.527   6.146  1.1936  1.0811 -1.6908
 1876SOL    HW217091   1.576   0.459   6.025  0.3639 -3.2368  2.3368
 1877SOL     OW17092   4.591   2.956   5.689 -0.1977  0.3968 -0.0254
 1877SOL    HW117093   4.616   3.031   5.743 -0.1026 -0.1403  0.6840
 1877SOL    HW217094   4.616   2.993   5.604  0.4218  1.0996  0.4642
 1878SOL     OW17095   0.786   0.056   3.563  0.2214  0.5678 -0.6440
 1878SOL    HW117096   0.796   0.080   3.656  1.1716  0.9446 -0.8411
 1878SOL    HW217097   0.731   4.701   3.560  2.8553 -1.3023  0.0197
 1879SOL     OW17098   4.722   2.986  11.920  0.1966 -0.5008  0.0278
 1879SOL    HW117099   4.675   2.946  11.847 -1.1271 -2.0234  1.7186
 1879SOL    HW217100   0.053   2.915  11.956 -0.1929  0.5121  2.5846
 1880SOL     OW17101   3.958   0.539   4.781  0.8388 -0.2545  0.1293
 1880SOL    HW117102   3.880   0.591   4.801  0.8961  0.3722 -1.3036
 1880SOL    HW217103   3.974   0.559   4.689 -0.8409 -0.0131 -0.1176
 1881SOL     OW17104   0.009   1.717   6.346  0.7297 -0.3384 -0.0191
 1881SOL    HW117105   4.684   1.767   6.280 -1.6817 -2.0037  0.4791
 1881SOL    HW217106   0.073   1.785   6.368  0.8626 -0.1189 -1.0849
 1882SOL     OW17107   0.775   0.119   6.825 -0.0558 -0.0048 -0.5784
 1882SOL    HW117108   0.737   0.197   6.785  1.6505  1.3718  0.4691
 1882SOL    HW217109   0.700   0.094   6.879  0.7810 -0.3093  0.4606
 1883SOL     OW17110   3.255   0.315  13.124 -0.5081  0.4932  0.3199
 1883SOL    HW117111   3.340   0.358  13.113  0.3791 -1.6257 -1.0227
 1883SOL    HW217112   3.268   0.237  13.070  0.4085  0.5331  0.4878
 1884SOL     OW17113   3.443   1.591   9.623 -0.0401  0.4648  0.2283
 1884SOL    HW117114   3.493   1.554   9.550  0.4849  1.3084  0.1652
 1884SOL    HW217115   3.447   1.526   9.693 -2.9280 -0.7537 -0.7277
 1885SOL     OW17116   2.977   3.359   7.511 -0.2147  0.5788 -0.2494
 1885SOL    HW117117   2.951   3.289   7.451 -2.9249  0.4994  1.0547
 1885SOL    HW217118   2.917   3.427   7.482 -0.6240  0.5820  0.6137
 1886SOL     OW17119   3.850   3.278  13.646 -0.0513 -0.4934 -0.4797
 1886SOL    HW117120   3.799   3.356  13.625 -0.1140 -0.7618 -1.3427
 1886SOL    HW217121   3.938   3.315  13.654  0.0564 -0.7122 -0.6598
 1887SOL     OW17122   4.292   2.168  16.822 -0.4266  0.5739 -0.0524
 1887SOL    HW117123   4.261   2.259  16.822 -2.1531 -0.0349 -0.4746
 1887SOL    HW217124   4.221   2.121  16.779  1.5164 -1.1733 -1.3903
 1888SOL     OW17125   1.535   3.912  11.408  0.3567 -0.5807  0.5850
 1888SOL    HW117126   1.446   3.945  11.396  0.1803 -0.8054  1.2863
 1888SOL    HW217127   1.540   3.841  11.344  0.3614  0.1203 -0.1867
 1889SOL     OW17128   3.366   2.434  11.814  0.0963  0.2697  0.1934
 1889SOL    HW117129   3.278   2.457  11.784 -1.0338 -2.3353  1.5264
 1889SOL    HW217130   3.416   2.510  11.787 -0.2344  0.2964 -0.3508
 1890SOL     OW17131   1.744   0.638  17.220 -0.0526 -0.2569 -0.0383
 1890SOL    HW117132   1.821   0.680  17.259 -0.3392  1.6875 -1.5223
 1890SOL    HW217133   1.736   0.692  17.141  1.1318 -0.0383 -0.0033
 1891SOL     OW17134   1.655   4.113  15.595 -0.1492  0.2463 -0.0159
 1891SOL    HW117135   1.655   4.106  15.690  1.6915 -0.5311 -0.0846
 1891SOL    HW217136   1.738   4.157  15.575 -0.2180  0.5911  0.4788
 1892SOL     OW17137   3.081   0.309  17.539  0.0390 -0.2523  0.0565
 1892SOL    HW117138   3.046   0.258  17.612 -2.8285  0.6092 -0.7544
 1892SOL    HW217139   3.070   0.242  17.472  0.0475  0.2190 -0.4155
 1893SOL     OW17140   4.162   3.127   4.453 -0.3535  0.3240  0.1188
 1893SOL    HW117141   4.189   3.082   4.533 -0.7142  0.7438  0.4827
 1893SOL    HW217142   4.156   3.051   4.395 -0.8641  0.8039 -0.4553
 1894SOL     OW17143   2.507   0.707  16.023  0.3254 -0.2069 -0.4292
 1894SOL    HW117144   2.503   0.711  16.118  0.7825  1.5340 -0.4920
 1894SOL    HW217145   2.581   0.762  15.998  0.8536 -0.1967  1.1682
 1895SOL     OW17146   3.053   3.216   8.917 -0.3654  0.0737  0.3678
 1895SOL    HW117147   2.972   3.209   8.868  0.2925 -0.7401 -0.6047
 1895SOL    HW217148   3.105   3.156   8.863  0.5917  1.1186  0.1006
 1896SOL     OW17149   1.297   0.476   7.393  0.1084 -0.7995 -0.1330
 1896SOL    HW117150   1.209   0.448   7.419 -0.9061  0.1302 -2.5650
 1896SOL    HW217151   1.323   0.502   7.481  0.1520  0.3257 -0.4760
 1897SOL     OW17152   3.444   3.665   0.548  0.0112 -0.3004 -0.0227
 1897SOL    HW117153   3.534   3.643   0.525  0.6160  0.6445  1.4344
 1897SOL    HW217154   3.395   3.611   0.485 -0.9032  2.1089 -1.3875
 1898SOL     OW17155   3.817   3.952   9.167 -0.6489 -0.8878  0.0920
 1898SOL    HW117156   3.751   3.914   9.225 -0.4920  0.4699  1.1812
 1898SOL    HW217157   3.890   3.970   9.226 -1.6828 -1.6544  1.5969
 1899SOL     OW17158   1.151   3.274   8.246 -0.2825 -0.0947  0.6060
 1899SOL    HW117159   1.188   3.288   8.159  0.3283 -1.7176  0.5931
 1899SOL    HW217160   1.225   3.228   8.287  1.6938  3.4633  0.9864
 1900SOL     OW17161   4.363   4.158   3.534  0.0084  0.0695 -0.1356
 1900SOL    HW117162   4.416   4.153   3.454  1.6008 -0.2165  0.9297
 1900SOL    HW217163   4.368   4.251   3.555  2.0673 -0.7830  3.1024
 1901SOL     OW17164   1.106   0.610   6.936 -0.5718 -1.1704  0.6436
 1901SOL    HW117165   1.095   0.643   7.025  1.3426 -0.1644  0.5086
 1901SOL    HW217166   1.139   0.522   6.956 -0.4126 -1.1580  0.4469
 1902SOL     OW17167   0.866   3.056   3.424  0.2638  0.4618  0.3615
 1902SOL    HW117168   0.839   2.974   3.466  1.3803 -0.8732 -1.4981
 1902SOL    HW217169   0.959   3.061   3.446  0.2906 -0.2671  0.4071
 1903SOL     OW17170   3.617   4.704   1.923 -0.4395  0.1271  0.1456
 1903SOL    HW117171   3.709   4.679   1.926 -0.1338  1.6376  2.8974
 1903SOL    HW217172   3.574   4.658   1.851  0.7182 -1.5972  0.5553
 1904SOL     OW17173   3.578   1.992   7.074 -0.0783 -0.1158 -0.1727
 1904SOL    HW117174   3.590   2.007   6.980  1.0126  2.6722  0.4427
 1904SOL    HW217175   3.483   1.983   7.067 -0.1975  1.3094 -0.3049
 1905SOL     OW17176   3.487   4.328   2.256 -0.0241 -0.1941 -0.2755
 1905SOL    HW117177   3.472   4.233   2.254 -0.4189 -0.0905 -3.7677
 1905SOL    HW217178   3.460   4.359   2.169 -3.7998 -1.4520  0.4311
 1906SOL     OW17179   0.131   2.344   6.101 -0.7922  0.2280 -0.1700
 1906SOL    HW117180   0.097   2.323   6.187 -0.2531  0.6639  0.1534
 1906SOL    HW217181   0.218   2.374   6.129 -0.5403 -1.8776  1.2898
 1907SOL     OW17182   1.082   2.483  16.992 -0.3600  0.2952 -0.5190
 1907SOL    HW117183   0.995   2.491  17.031  0.2428  1.0854  0.6811
 1907SOL    HW217184   1.132   2.515  17.068 -0.2803 -1.2590  0.0843
 1908SOL     OW17185   4.361   3.298  13.928 -0.0916 -0.5329 -0.1331
 1908SOL    HW117186   4.332   3.207  13.926  0.0327 -0.6175  1.8677
 1908SOL    HW217187   4.436   3.290  13.868 -0.9332 -1.3872 -1.0751
 1909SOL     OW17188   4.015   2.366   3.050 -0.0968 -0.4771 -0.7785
 1909SOL    HW117189   3.987   2.387   3.139  3.2795  1.0073 -0.0715
 1909SOL    HW217190   4.069   2.287   3.058 -0.1014 -0.5249 -1.2619
 1910SOL     OW17191   1.743   4.164   7.213  0.1389 -0.2632 -0.1776
 1910SOL    HW117192   1.710   4.079   7.243  1.5085 -0.4758  0.7482
 1910SOL    HW217193   1.663   4.215   7.212  1.2350  1.4460 -0.3106
 1911SOL     OW17194   2.982   3.659   4.856 -0.6881  0.2567  0.2514
 1911SOL    HW117195   2.967   3.753   4.844  0.7597  0.5100  0.3687
 1911SOL    HW217196   3.006   3.651   4.948 -2.6431 -0.6330  0.6711
 1912SOL     OW17197   2.132   2.948   2.686 -0.2998 -0.4599  0.4677
 1912SOL    HW117198   2.223   2.957   2.714 -0.4598  0.8173  0.6075
 1912SOL    HW217199   2.109   3.041   2.678  2.4281  0.4342  2.9045
 1913SOL     OW17200   0.685   2.331  10.169 -0.3549  0.4263 -0.1145
 1913SOL    HW117201   0.639   2.335  10.086  2.1159 -0.6046 -1.5495
 1913SOL    HW217202   0.605   2.333  10.221 -0.4724  0.0950 -0.2849
 1914SOL     OW17203   2.031   0.572  13.266 -0.0814  0.6932  0.4723
 1914SOL    HW117204   1.962   0.621  13.222  2.4142  1.1003 -3.0342
 1914SOL    HW217205   2.084   0.648  13.291  1.5897 -0.5074  0.6207
 1915SOL     OW17206   1.210   2.927   8.135 -0.2043  0.0545  0.1366
 1915SOL    HW117207   1.237   2.837   8.148 -0.0036 -0.1148 -1.5030
 1915SOL    HW217208   1.121   2.918   8.169  0.1269  0.8623  1.2435
 1916SOL     OW17209   0.253   0.240   2.556  0.1778  0.3760 -0.5222
 1916SOL    HW117210   0.272   0.254   2.649 -1.7550  0.6193 -0.1654
 1916SOL    HW217211   0.336   0.280   2.529  0.2734 -0.8888 -2.1456
 1917SOL     OW17212   4.551   2.724   3.400 -0.3754  0.2991  0.0810
 1917SOL    HW117213   4.481   2.666   3.372 -0.0203 -0.2147  0.2471
 1917SOL    HW217214   4.573   2.772   3.320 -0.6503  1.7902  0.8970
 1918SOL     OW17215   1.676   1.744   2.962  0.0128  0.3411  0.5479
 1918SOL    HW117216   1.766   1.723   2.938 -1.0525 -2.9496 -0.5599
 1918SOL    HW217217   1.622   1.699   2.896 -0.8643  0.7047  1.0194
 1919SOL     OW17218   3.725   3.471  13.508 -0.0191 -0.2397  0.7351
 1919SOL    HW117219   3.745   3.563  13.526  0.3106 -0.7921  3.1506
 1919SOL    HW217220   3.637   3.486  13.475 -1.0265 -4.8431  1.2852
 1920SOL     OW17221   4.073   3.496   4.251  0.4293 -0.0297  0.1469
 1920SOL    HW117222   4.032   3.553   4.316  2.6399 -0.4805  1.9226
 1920SOL    HW217223   4.007   3.427   4.240 -0.4186  0.6767  0.7959
 1921SOL     OW17224   3.239   1.873  16.041  0.4600  0.5576 -0.4924
 1921SOL    HW117225   3.180   1.890  16.114  1.4418 -0.8582  0.6057
 1921SOL    HW217226   3.208   1.940  15.980  0.7488 -0.7342 -2.0646
 1922SOL     OW17227   2.431   0.532   3.028  0.0009  0.4342  0.1787
 1922SOL    HW117228   2.423   0.494   2.940  2.2320 -0.4341  0.3586
 1922SOL    HW217229   2.386   0.614   3.009  1.2091  1.3780  1.3738
 1923SOL     OW17230   0.058   1.667  16.689 -0.5242  0.3064 -0.1374
 1923SOL    HW117231   0.148   1.696  16.676  0.5138 -1.9373  2.0911
 1923SOL    HW217232   0.069   1.629  16.776 -0.8396  1.2427  0.3051
 1924SOL     OW17233   1.438   2.460  13.060  0.4609  0.1066  0.3617
 1924SOL    HW117234   1.490   2.492  13.133  1.2069  1.3436 -0.7183
 1924SOL    HW217235   1.490   2.389  13.022 -0.1870  0.3637 -1.0327
 1925SOL     OW17236   2.578   2.207   1.089 -0.0556 -0.0709  0.1641
 1925SOL    HW117237   2.595   2.184   0.997  0.7203 -1.0028  0.5411
 1925SOL    HW217238   2.533   2.127   1.116 -0.7058 -0.5151 -2.2284
 1926SOL     OW17239   3.175   3.692   6.942 -0.1104 -0.4440 -0.2358
 1926SOL    HW117240   3.103   3.742   6.904  1.0759  0.7231 -0.9416
 1926SOL    HW217241   3.151   3.605   6.910  0.4904 -0.2664 -1.1572
 1927SOL     OW17242   2.192   2.795  10.141 -0.3491  0.5365  0.2301
 1927SOL    HW117243   2.279   2.756  10.149 -0.8776 -1.0716 -1.6374
 1927SOL    HW217244   2.163   2.760  10.057  0.9085 -0.2331  0.1080
 1928SOL     OW17245   3.244   0.338   2.638  0.0417  0.1728 -0.3068
 1928SOL    HW117246   3.284   0.392   2.570 -1.4503 -0.3027 -1.5504
 1928SOL    HW217247   3.282   0.378   2.717  0.3681 -0.4018 -0.1741
 1929SOL     OW17248   1.605   4.688   6.990 -0.2033  0.5077  0.0540
 1929SOL    HW117249   1.612   4.632   6.913  2.1849  0.5718  0.2319
 1929SOL    HW217250   1.632   4.636   7.066 -1.3017  1.2583  0.9552
 1930SOL     OW17251   3.746   4.147  10.907  0.2673 -0.5201  0.0472
 1930SOL    HW117252   3.808   4.213  10.875  1.7969 -2.6999 -1.4945
 1930SOL    HW217253   3.771   4.070  10.856 -2.5951 -1.3280 -0.1646
 1931SOL     OW17254   3.555   2.042   5.319  0.2040 -0.3081  0.5190
 1931SOL    HW117255   3.626   2.077   5.265 -1.3901  1.4267 -0.4787
 1931SOL    HW217256   3.476   2.058   5.267 -1.5124 -2.4429  2.4572
 1932SOL     OW17257   0.155   0.144  16.328 -0.1871 -0.1236 -0.8237
 1932SOL    HW117258   0.221   0.210  16.305 -2.7408  2.1366 -1.5640
 1932SOL    HW217259   0.124   0.121  16.240 -1.3552  1.4238 -0.8048
 1933SOL     OW17260   2.409   0.477  10.374  0.1204 -0.2495 -0.3498
 1933SOL    HW117261   2.324   0.460  10.334  0.1199 -0.5936 -0.1959
 1933SOL    HW217262   2.458   0.413  10.324  2.8030  2.2170 -0.8634
 1934SOL     OW17263   4.406   3.249  15.141  0.1151 -0.3246  0.5190
 1934SOL    HW117264   4.430   3.306  15.068 -1.3861 -1.1359 -0.5890
 1934SOL    HW217265   4.448   3.297  15.214  0.5863  1.2384 -0.7848
 1935SOL     OW17266   3.206   0.405   3.574  0.8703 -0.0608 -0.1800
 1935SOL    HW117267   3.141   0.407   3.504  0.4375  0.9791  0.2422
 1935SOL    HW217268   3.201   0.311   3.592 -0.2350 -0.2291 -1.4096
 1936SOL     OW17269   1.208   0.747   3.447 -0.3384 -0.8402  0.2446
 1936SOL    HW117270   1.279   0.693   3.413  1.3660  1.7433 -0.2646
 1936SOL    HW217271   1.132   0.702   3.410  0.0294 -1.3283  0.0770
 1937SOL     OW17272   4.385   4.334   5.896 -0.3978 -0.1930  0.4663
 1937SOL    HW117273   4.412   4.403   5.835  2.9542  0.4625  2.7425
 1937SOL    HW217274   4.376   4.259   5.837  1.3096  0.9157 -1.1788
 1938SOL     OW17275   1.681   3.621   3.958 -0.3732  0.1983 -0.5130
 1938SOL    HW117276   1.619   3.684   3.996 -1.1809 -0.4353 -0.7830
 1938SOL    HW217277   1.741   3.606   4.031 -1.7226  0.0492  0.5815
 1939SOL     OW17278   3.764   4.157   3.286  0.3748  0.1513 -0.1387
 1939SOL    HW117279   3.703   4.171   3.214 -1.9039  2.5906  2.3054
 1939SOL    HW217280   3.774   4.062   3.278 -1.0751  0.0187 -0.3101
 1940SOL     OW17281   3.508   2.635  11.694 -0.2942  0.1791  0.0877
 1940SOL    HW117282   3.550   2.693  11.759 -0.4665  0.5621 -0.1451
 1940SOL    HW217283   3.437   2.688  11.660 -1.1236 -0.7744  0.3365
 1941SOL     OW17284   2.081   0.149  16.333 -0.1419  0.0834 -0.3010
 1941SOL    HW117285   2.133   0.206  16.276 -0.5751  0.8476  0.0586
 1941SOL    HW217286   2.070   0.196  16.416 -0.7810 -1.1614  0.3202
 1942SOL     OW17287   3.835   1.782   2.524 -0.4943 -0.2269 -0.5371
 1942SOL    HW117288   3.769   1.736   2.472 -1.2383 -1.3002  1.3547
 1942SOL    HW217289   3.888   1.706   2.548 -0.5302 -0.0337  0.1386
 1943SOL     OW17290   3.297   0.510   4.333  0.0332 -0.0071 -0.1693
 1943SOL    HW117291   3.332   0.434   4.286  0.9271  0.7001 -0.6474
 1943SOL    HW217292   3.358   0.576   4.300  1.6409 -1.4628 -0.0629
 1944SOL     OW17293   3.587   0.588   2.002  0.1685 -0.3763  0.3825
 1944SOL    HW117294   3.630   0.577   1.917  1.0829 -1.5806  0.9886
 1944SOL    HW217295   3.610   0.679   2.020 -0.2036  0.0707 -1.4138
 1945SOL     OW17296   3.943   2.729  16.905 -0.3127 -0.0029  0.6919
 1945SOL    HW117297   3.847   2.721  16.911 -0.4827  0.4450 -1.6784
 1945SOL    HW217298   3.967   2.686  16.987 -2.1643 -2.1181  0.1384
 1946SOL     OW17299   4.206   0.101   3.665 -0.6062 -0.6190 -0.3740
 1946SOL    HW117300   4.201   0.196   3.679  1.1258 -0.5551 -0.2389
 1946SOL    HW217301   4.300   0.089   3.655 -0.3064 -0.4565  2.4181
 1947SOL     OW17302   1.924   0.024   8.621 -0.8517 -0.3348 -0.0905
 1947SOL    HW117303   1.847   0.011   8.677 -2.3295 -0.2434 -2.1289
 1947SOL    HW217304   1.916   4.680   8.553 -2.6179  0.0358 -0.2461
 1948SOL     OW17305   1.696   4.661  16.102 -0.1139  0.3340  0.0073
 1948SOL    HW117306   1.785   4.693  16.092  0.4025 -1.0551  0.1884
 1948SOL    HW217307   1.668   4.630  16.015  0.7402  2.0199 -0.8658
 1949SOL     OW17308   3.625   0.076   3.083  0.5811 -0.7388  0.0616
 1949SOL    HW117309   3.566   0.120   3.023 -0.3164  0.4075  1.7655
 1949SOL    HW217310   3.633   0.140   3.154  1.9038 -0.5255 -0.2700
 1950SOL     OW17311   4.712   1.128  14.909 -0.3484  0.9218 -0.7733
 1950SOL    HW117312   4.674   1.041  14.903  0.2550  0.5862  0.2951
 1950SOL    HW217313   4.696   1.161  14.997 -1.3157  2.1075 -1.3963
 1951SOL     OW17314   3.706   3.659   1.303  0.0689  0.4249 -0.0904
 1951SOL    HW117315   3.657   3.588   1.259  0.7488  0.8281 -1.4976
 1951SOL    HW217316   3.780   3.615   1.345 -0.3512 -0.9464 -0.7637
 1952SOL     OW17317   1.881   4.086   6.960 -0.2226 -0.4159 -0.1733
 1952SOL    HW117318   1.961   4.121   6.999 -0.9143 -1.6871  2.3896
 1952SOL    HW217319   1.821   4.096   7.035 -2.2047 -0.2728 -1.7862
 1953SOL     OW17320   2.059   2.914   3.991 -0.0705  0.0944  0.0643
 1953SOL    HW117321   2.044   2.868   3.908 -0.3404 -0.1070  0.2253
 1953SOL    HW217322   2.143   2.879   4.017  0.9968  2.7082  0.1682
 1954SOL     OW17323   2.505   1.045   8.870  0.2949  0.1819 -0.6505
 1954SOL    HW117324   2.459   0.993   8.937  0.5515  1.7576  0.7648
 1954SOL    HW217325   2.578   1.087   8.916  1.3967 -1.7667 -0.6265
 1955SOL     OW17326   1.426   0.804  11.137  0.1022 -0.1232  0.1633
 1955SOL    HW117327   1.458   0.796  11.047  1.1449 -0.0815  0.5301
 1955SOL    HW217328   1.342   0.838  11.107 -0.0714 -0.4064  0.3293
 1956SOL     OW17329   0.873   4.030   6.129  0.0249 -0.2372  0.1655
 1956SOL    HW117330   0.942   4.096   6.132 -1.4364  1.2215  1.7402
 1956SOL    HW217331   0.913   3.948   6.101  0.8824  0.2638 -0.0535
 1957SOL     OW17332   2.145   2.668   3.140 -0.0811  0.1055  0.1752
 1957SOL    HW117333   2.069   2.727   3.144  0.3623  0.6914 -0.0917
 1957SOL    HW217334   2.176   2.675   3.050 -0.5977 -1.7857 -0.1399
 1958SOL     OW17335   0.688   2.332   5.569 -0.1375 -0.5518 -0.5031
 1958SOL    HW117336   0.600   2.336   5.531 -0.5669  0.3542  0.5842
 1958SOL    HW217337   0.688   2.415   5.617 -1.8820 -0.0638 -1.3581
 1959SOL     OW17338   4.482   1.227   3.249  0.0701  0.2021  0.0026
 1959SOL    HW117339   4.438   1.288   3.191 -0.0807  1.3781  1.3518
 1959SOL    HW217340   4.430   1.226   3.330 -0.9321 -0.0777 -0.6435
 1960SOL     OW17341   3.257   2.795  13.769  0.2879  0.3146 -0.2514
 1960SOL    HW117342   3.162   2.792  13.776  0.2874 -0.6357 -0.6134
 1960SOL    HW217343   3.278   2.802  13.862  1.5419  1.6920 -0.6410
 1961SOL     OW17344   3.595   3.880  12.426  0.0014  0.2918  0.1964
 1961SOL    HW117345   3.630   3.950  12.481  0.9143 -2.0290  2.5501
 1961SOL    HW217346   3.530   3.930  12.376  0.5752  0.3861 -0.4630
 1962SOL     OW17347   0.726   1.622   7.620 -0.1653 -0.0577 -0.3286
 1962SOL    HW117348   0.818   1.640   7.640 -0.8767  2.0569  0.9709
 1962SOL    HW217349   0.734   1.564   7.545 -0.6933  0.1364 -0.5344
 1963SOL     OW17350   4.058   3.194   8.186  0.4869 -0.0285 -0.8245
 1963SOL    HW117351   4.023   3.275   8.222  0.8578 -0.5370  0.6801
 1963SOL    HW217352   4.148   3.201   8.218  0.6119  3.0084 -1.8600
 1964SOL     OW17353   1.006   4.418   2.104 -0.4577 -0.1988 -0.1409
 1964SOL    HW117354   1.015   4.358   2.179  1.4356  1.1676  0.7513
 1964SOL    HW217355   1.093   4.434   2.067 -0.1161 -0.1229  0.6940
 1965SOL     OW17356   0.927   0.687   1.680  0.3524  0.1524  0.2669
 1965SOL    HW117357   1.009   0.665   1.635 -0.0003  1.2688 -0.9392
 1965SOL    HW217358   0.899   0.758   1.621  0.4719 -0.7451 -0.8827
 1966SOL     OW17359   2.277   2.140   5.505  0.4539  0.0686 -0.1591
 1966SOL    HW117360   2.205   2.186   5.548 -0.1734 -0.0361 -1.0863
 1966SOL    HW217361   2.250   2.048   5.508 -0.5011  0.3764  0.6865
 1967SOL     OW17362   0.008   1.006  12.647  0.8167 -0.0806 -0.4834
 1967SOL    HW117363   4.683   1.036  12.569 -0.6571  1.5084  1.0329
 1967SOL    HW217364   0.093   1.047  12.631  1.5115 -1.5882 -0.6373
 1968SOL     OW17365   3.154   0.932   3.835  0.4524  0.4794  0.0700
 1968SOL    HW117366   3.131   0.860   3.777 -0.5735  0.0559  1.0038
 1968SOL    HW217367   3.178   1.004   3.776  3.9881 -0.6246  0.1741
 1969SOL     OW17368   0.846   1.378   7.524  0.3260 -0.1543 -0.0304
 1969SOL    HW117369   0.892   1.355   7.605  0.3865  0.3017  0.0643
 1969SOL    HW217370   0.764   1.329   7.528  0.6291 -0.6683  0.0153
 1970SOL     OW17371   3.914   4.060   1.396  0.4730 -0.3568 -0.2721
 1970SOL    HW117372   3.935   4.092   1.484  2.3923  0.6588 -1.1073
 1970SOL    HW217373   3.991   4.007   1.372 -0.3893 -1.6685 -0.1465
 1971SOL     OW17374   0.376   0.963  17.393 -0.0279  0.3313 -0.0391
 1971SOL    HW117375   0.312   0.970  17.322  1.5081 -0.9269 -1.5374
 1971SOL    HW217376   0.333   1.021  17.456  1.8464  1.8419 -0.1301
 1972SOL     OW17377   4.267   3.592   5.179 -0.5022  0.5034 -0.0055
 1972SOL    HW117378   4.323   3.668   5.197  0.7464 -0.2977 -0.4848
 1972SOL    HW217379   4.289   3.589   5.086 -0.8843 -0.2738 -0.0725
 1973SOL     OW17380   3.645   4.286  14.909  0.2126  0.0606  0.1931
 1973SOL    HW117381   3.591   4.285  14.830 -0.3790 -2.1374  0.6228
 1973SOL    HW217382   3.735   4.299  14.878 -0.1575 -2.2006 -1.8386
 1974SOL     OW17383   0.540   2.518   6.404 -0.0139 -0.0339 -0.4129
 1974SOL    HW117384   0.563   2.610   6.389 -1.5881  0.4212 -0.0533
 1974SOL    HW217385   0.493   2.498   6.323 -0.2231  2.8892 -1.0270
 1975SOL     OW17386   3.892   4.540   9.343  0.7844 -0.8585 -0.3346
 1975SOL    HW117387   3.980   4.509   9.321  1.0990 -1.6342  2.0188
 1975SOL    HW217388   3.906   4.634   9.357 -3.8537 -0.3468  0.8188
 1976SOL     OW17389   2.476   0.024   6.719 -0.2554  0.1968 -0.0544
 1976SOL    HW117390   2.393   4.719   6.681  1.1180 -1.4076 -1.8430
 1976SOL    HW217391   2.497   0.093   6.656  1.9377  1.1524  1.6874
 1977SOL     OW17392   3.407   0.285   9.163 -0.0351  0.0866 -0.0754
 1977SOL    HW117393   3.357   0.211   9.128  2.0820 -0.9098 -1.0020
 1977SOL    HW217394   3.444   0.253   9.245  2.1413  0.9857 -0.7135
 1978SOL     OW17395   2.215   2.945   5.114 -0.4108 -0.3858  0.2862
 1978SOL    HW117396   2.136   2.981   5.074 -1.2616  2.7315  4.8346
 1978SOL    HW217397   2.282   3.008   5.086  0.5104 -1.5460 -0.1371
 1979SOL     OW17398   3.224   0.198   1.970  0.6576 -0.1397  0.6558
 1979SOL    HW117399   3.220   0.162   2.059 -1.2690  0.8535  0.9940
 1979SOL    HW217400   3.205   0.122   1.917 -0.9502 -1.1574  2.6735
 1980SOL     OW17401   0.775   3.287   7.176 -0.3222  0.2168  0.2757
 1980SOL    HW117402   0.707   3.354   7.181 -0.9154 -0.3335 -0.4583
 1980SOL    HW217403   0.719   3.211   7.188  1.6917 -1.4462 -0.9632
 1981SOL     OW17404   4.233   3.325   6.923  0.2430 -0.5252  0.1398
 1981SOL    HW117405   4.224   3.310   6.829 -5.2176 -0.8505  0.6858
 1981SOL    HW217406   4.152   3.287   6.958  0.4155 -0.0317  1.0797
 1982SOL     OW17407   4.040   0.514   8.647  0.3907 -0.2584  0.4101
 1982SOL    HW117408   3.993   0.512   8.730 -0.4192 -0.8234 -0.0628
 1982SOL    HW217409   4.047   0.609   8.633  2.0601 -0.5801 -0.9753
 1983SOL     OW17410   2.482   3.435   6.902 -0.0105 -0.0462 -0.1032
 1983SOL    HW117411   2.557   3.464   6.954 -0.1327  0.5300 -0.2454
 1983SOL    HW217412   2.401   3.477   6.930 -1.6232 -1.9025 -1.9337
 1984SOL     OW17413   0.118   1.519   1.050 -0.1245  0.8317 -0.3162
 1984SOL    HW117414   0.203   1.562   1.042  0.0736  0.4085 -0.4828
 1984SOL    HW217415   0.119   1.489   1.141  3.4237 -0.1063 -0.6711
 1985SOL     OW17416   3.214   3.957   4.591 -0.0403  0.3772 -0.0752
 1985SOL    HW117417   3.208   3.929   4.682 -0.1095 -0.9325 -0.4886
 1985SOL    HW217418   3.308   3.971   4.577 -0.1005 -0.9243 -1.7694
 1986SOL     OW17419   3.253   2.741   4.127 -0.1847 -0.0030 -0.6928
 1986SOL    HW117420   3.310   2.773   4.057 -0.2041 -2.3235 -1.7894
 1986SOL    HW217421   3.210   2.817   4.165 -0.2539 -0.7654  0.7523
 1987SOL     OW17422   4.331   4.211  14.794 -0.0579 -0.3128  0.0416
 1987SOL    HW117423   4.313   4.301  14.822 -0.5439 -0.1051 -0.9392
 1987SOL    HW217424   4.408   4.187  14.845 -1.0851  0.2261  1.8724
 1988SOL     OW17425   0.594   0.386   6.093 -0.0986 -0.0789  0.0305
 1988SOL    HW117426   0.671   0.331   6.093 -0.4914 -0.6482  4.3123
 1988SOL    HW217427   0.557   0.379   6.181 -1.1606  1.2377 -0.3048
 1989SOL     OW17428   4.629   2.991  13.630 -0.2519 -0.6512  0.0185
 1989SOL    HW117429   4.720   3.015  13.648 -0.3215 -0.3909  0.0242
 1989SOL    HW217430   4.617   3.007  13.536 -0.3429  0.0516  0.1532
 1990SOL     OW17431   1.304   3.465   3.755 -0.2236  0.6971  0.1354
 1990SOL    HW117432   1.346   3.441   3.672  1.6303  1.0306  0.9827
 1990SOL    HW217433   1.299   3.560   3.744 -2.6155  0.6039  0.3643
 1991SOL     OW17434   3.254   1.603   4.393 -0.4181 -0.1767  0.1781
 1991SOL    HW117435   3.285   1.538   4.456 -3.0346 -0.3119  1.3254
 1991SOL    HW217436   3.218   1.665   4.456 -1.1401 -0.6018  0.1829
 1992SOL     OW17437   1.052   4.197   5.834  0.4107 -0.4337 -0.8685
 1992SOL    HW117438   1.083   4.249   5.908  1.4203  1.1050 -2.3716
 1992SOL    HW217439   1.099   4.115   5.850 -0.6898 -1.2650 -1.9276
 1993SOL     OW17440   2.191   1.818   4.889  0.9571 -0.3351  0.5261
 1993SOL    HW117441   2.273   1.803   4.843  0.7582  1.6508 -0.4823
 1993SOL    HW217442   2.228   1.875   4.956  1.5993  0.2414 -0.3212
 1994SOL     OW17443   2.533   1.457  14.416 -0.0394  0.4337  0.0082
 1994SOL    HW117444   2.487   1.372  14.413 -1.1006  0.9444  1.5942
 1994SOL    HW217445   2.471   1.503  14.360 -0.9128 -0.6053  0.1114
 1995SOL     OW17446   4.081   3.824   8.655 -0.2352  0.1702 -0.2378
 1995SOL    HW117447   4.018   3.821   8.727  0.1355  0.7085  0.1072
 1995SOL    HW217448   4.161   3.827   8.707 -0.9534  3.9670  0.6364
 1996SOL     OW17449   0.490   3.599   3.832  0.4552 -0.0858 -0.1783
 1996SOL    HW117450   0.412   3.651   3.851 -0.0941 -0.5696 -1.0588
 1996SOL    HW217451   0.540   3.661   3.778 -1.4918  1.3721 -0.3136
 1997SOL     OW17452   3.265   1.649  13.959 -0.5152  0.2942  0.1949
 1997SOL    HW117453   3.226   1.702  13.889  0.6776 -1.4631 -1.8225
 1997SOL    HW217454   3.346   1.697  13.970  0.6338 -1.7219  0.4310
 1998SOL     OW17455   4.644   4.100   6.557  0.5467  0.2433  0.3095
 1998SOL    HW117456   0.016   4.090   6.562  0.4423 -1.9207 -1.9729
 1998SOL    HW217457   4.635   4.175   6.616 -1.0444  0.0108  0.3766
 1999SOL     OW17458   3.390   4.124   4.419 -0.4933 -0.3597  0.0325
 1999SOL    HW117459   3.339   4.174   4.482  0.5342  0.7837 -0.0491
 1999SOL    HW217460   3.331   4.101   4.347 -1.5020 -1.1311  1.1219
 2000SOL     OW17461   0.886   4.268  17.392  0.3522 -0.3540  0.2725
 2000SOL    HW117462   0.902   4.314  17.310 -0.8476  2.1770  1.4673
 2000SOL    HW217463   0.818   4.212  17.353  0.5304 -0.2508 -0.1857
 2001SOL     OW17464   0.066   0.716   2.817  0.0767 -0.2616 -0.0837
 2001SOL    HW117465   4.698   0.699   2.790  0.4750  1.0012 -2.2654
 2001SOL    HW217466   0.096   0.630   2.789  0.0325 -0.7224  1.2712
 2002SOL     OW17467   2.165   1.043   6.457 -0.0099  0.9192 -0.0916
 2002SOL    HW117468   2.108   1.117   6.476 -0.7578  0.2676  0.2224
 2002SOL    HW217469   2.217   1.078   6.385  2.4267 -0.3050  1.0881
 2003SOL     OW17470   3.620   0.783   6.298  0.2322 -0.4638  0.3641
 2003SOL    HW117471   3.537   0.735   6.288 -0.6592  1.1959 -0.2209
 2003SOL    HW217472   3.591   0.874   6.292  1.2218 -0.1706  0.1605
 2004SOL     OW17473   4.640   2.201   8.516  0.5534 -0.2583 -0.4601
 2004SOL    HW117474   4.696   2.208   8.593  0.6061  1.0423 -0.6118
 2004SOL    HW217475   4.707   2.195   8.449 -0.8208  0.4310 -1.9072
 2005SOL     OW17476   0.195   3.073   8.206  0.4105  0.2233 -0.4126
 2005SOL    HW117477   0.217   3.020   8.283  2.5918  1.1895 -0.3614
 2005SOL    HW217478   0.211   3.159   8.244  0.7270  0.7405 -1.6973
 2006SOL     OW17479   2.429   2.170   9.337 -0.2414 -0.0557 -0.3861
 2006SOL    HW117480   2.370   2.117   9.391  1.1846 -1.6550 -0.4096
 2006SOL    HW217481   2.516   2.134   9.355 -0.2558  0.7694  1.3729
 2007SOL     OW17482   4.225   0.746   9.328  0.3701  0.1593  0.4159
 2007SOL    HW117483   4.255   0.740   9.238 -0.0677 -0.1873  0.2987
 2007SOL    HW217484   4.308   0.757   9.375  1.3744  1.9102 -1.7936
 2008SOL     OW17485   3.742   2.142  14.328  0.4850  0.0344  0.5956
 2008SOL    HW117486   3.801   2.138  14.404 -1.2091 -0.7013  1.8677
 2008SOL    HW217487   3.772   2.220  14.281  1.7632 -0.6924  0.1884
 2009SOL     OW17488   4.372   2.014   5.388  0.2008  0.3499  0.2160
 2009SOL    HW117489   4.359   2.107   5.370  0.4827  0.3373 -0.0407
 2009SOL    HW217490   4.461   1.996   5.356 -0.3395  0.2333 -1.1856
 2010SOL     OW17491   0.170   4.644   7.375 -0.0835 -0.0323 -1.2335
 2010SOL    HW117492   0.080   4.633   7.408  0.9379  0.7331  1.7891
 2010SOL    HW217493   0.185   4.566   7.321 -2.1149 -2.9863  2.4840
 2011SOL     OW17494   3.140   3.575  11.845  0.2912  0.6314 -0.5459
 2011SOL    HW117495   3.191   3.567  11.926 -0.6006 -2.4603 -0.3002
 2011SOL    HW217496   3.150   3.668  11.827 -1.9662  0.8657 -0.4974
 2012SOL     OW17497   1.457   4.366  12.169  0.2877  0.3978  0.3690
 2012SOL    HW117498   1.537   4.319  12.192  1.0699  0.7496 -1.6288
 2012SOL    HW217499   1.451   4.429  12.242 -2.2608 -1.1118  1.4592
 2013SOL     OW17500   3.940   2.405   8.355 -0.3682  0.1801  0.2587
 2013SOL    HW117501   3.967   2.318   8.385 -2.8024 -0.6340  0.1395
 2013SOL    HW217502   3.987   2.466   8.412  0.7935 -0.8062  0.3537
 2014SOL     OW17503   1.165   0.543   6.417  0.2387 -0.7280 -0.8711
 2014SOL    HW117504   1.129   0.585   6.495  1.5348  0.7467 -1.0620
 2014SOL    HW217505   1.097   0.483   6.385 -0.8686 -0.4299  0.9710
 2015SOL     OW17506   2.335   2.212   8.463 -0.3379 -0.1789 -0.6879
 2015SOL    HW117507   2.420   2.171   8.473 -0.7559 -0.8047  0.2876
 2015SOL    HW217508   2.279   2.135   8.458 -0.2389 -0.2478 -0.7241
 2016SOL     OW17509   2.838   3.731   6.306 -0.4710 -0.4224  0.1094
 2016SOL    HW117510   2.798   3.663   6.252 -3.5970  0.0744  1.8058
 2016SOL    HW217511   2.929   3.710   6.286 -0.1245 -1.1183  2.4524
 2017SOL     OW17512   4.290   4.426   5.205  0.2631  0.4937  0.4277
 2017SOL    HW117513   4.208   4.377   5.194  0.0199  0.6501  1.6023
 2017SOL    HW217514   4.272   4.514   5.173  0.0530  0.7191  1.1708
 2018SOL     OW17515   1.412   1.544  14.674 -0.2292  0.3829 -0.4697
 2018SOL    HW117516   1.391   1.531  14.582  0.4083 -2.4021 -0.2051
 2018SOL    HW217517   1.452   1.631  14.674  3.1851 -1.1935 -2.5941
 2019SOL     OW17518   2.476   2.861  17.619 -0.4887 -0.3465  0.2325
 2019SOL    HW117519   2.472   2.947  17.660 -0.8097  0.1029 -0.7233
 2019SOL    HW217520   2.471   2.809   0.006 -1.4261  0.9369  0.9974
 2020SOL     OW17521   0.341   0.449   6.723  0.1574  0.1269  0.4829
 2020SOL    HW117522   0.297   0.428   6.640 -0.6331  0.5896  0.7872
 2020SOL    HW217523   0.275   0.424   6.787  0.0698 -0.7033  0.0685
 2021SOL     OW17524   0.784   2.779   6.293 -0.0228  0.4135  0.1753
 2021SOL    HW117525   0.830   2.695   6.297 -0.8256 -0.0060  0.6399
 2021SOL    HW217526   0.733   2.780   6.374 -0.6610 -0.3667 -0.2238
 2022SOL     OW17527   3.290   0.196   7.292 -0.0757 -0.6128  0.1444
 2022SOL    HW117528   3.200   0.228   7.305  0.3021 -0.1231  1.5423
 2022SOL    HW217529   3.319   0.208   7.383 -0.5586 -0.9931  0.3497
 2023SOL     OW17530   2.194   1.265   4.810  0.6981 -0.2853  0.0382
 2023SOL    HW117531   2.235   1.277   4.725  0.6402  0.4261  0.1136
 2023SOL    HW217532   2.203   1.170   4.816 -0.2853 -0.4192 -0.5807
 2024SOL     OW17533   3.725   0.606   1.775  0.4136  0.2627  0.5231
 2024SOL    HW117534   3.723   0.522   1.729 -2.6146 -0.4921  2.0761
 2024SOL    HW217535   3.817   0.632   1.767  1.1866 -1.9396  2.4155
 2025SOL     OW17536   0.067   0.573   5.019 -0.0591  0.1942 -0.7467
 2025SOL    HW117537   0.026   0.566   5.105 -0.1008  1.7510 -0.6502
 2025SOL    HW217538   0.143   0.514   5.019 -3.2288 -3.8995 -2.9672
 2026SOL     OW17539   3.052   1.264   8.157  0.3451 -0.0316 -0.2916
 2026SOL    HW117540   3.052   1.322   8.080 -0.5581 -0.4356 -0.5893
 2026SOL    HW217541   3.092   1.189   8.112  2.5771  1.6114 -1.0650
 2027SOL     OW17542   3.557   0.207  16.505  0.2860  0.1113  0.3964
 2027SOL    HW117543   3.480   0.198  16.449  1.0655  2.2931 -1.0659
 2027SOL    HW217544   3.513   0.232  16.586  0.4827 -0.0896  0.5646
 2028SOL     OW17545   0.522   1.570   5.529  0.2034  0.0326 -0.2618
 2028SOL    HW117546   0.614   1.587   5.509  0.4959 -0.5893  0.5617
 2028SOL    HW217547   0.518   1.478   5.504 -2.5105  0.6677 -2.1959
 2029SOL     OW17548   4.030   3.721   7.517 -0.1969 -0.5366 -0.2282
 2029SOL    HW117549   3.965   3.710   7.447 -1.5691  2.1109  0.6697
 2029SOL    HW217550   3.984   3.687   7.594 -2.3854  0.6841 -1.0158
 2030SOL     OW17551   4.181   4.287   3.838  0.0402 -0.2715  0.3069
 2030SOL    HW117552   4.176   4.245   3.752 -0.5711  1.5939 -0.5692
 2030SOL    HW217553   4.217   4.214   3.889  0.1336 -0.0826  0.5144
 2031SOL     OW17554   1.796   4.302   4.821  0.0517  0.0888  0.1859
 2031SOL    HW117555   1.760   4.370   4.879  0.4277  1.4909 -1.2494
 2031SOL    HW217556   1.865   4.340   4.767 -0.2519 -1.5203 -1.3143
 2032SOL     OW17557   1.231   4.475   8.336 -0.3318 -0.0840 -0.4888
 2032SOL    HW117558   1.290   4.551   8.334 -1.3441  0.7535  1.4500
 2032SOL    HW217559   1.196   4.488   8.424  1.7933 -1.3081  0.5265
 2033SOL     OW17560   2.961   3.794   7.586 -0.0522  0.8494  0.6817
 2033SOL    HW117561   2.918   3.758   7.663  0.3120  0.9416  0.9279
 2033SOL    HW217562   2.889   3.845   7.547  0.0060 -0.0422 -0.6173
 2034SOL     OW17563   3.105   4.543   3.532  0.4576  0.5422  0.1794
 2034SOL    HW117564   3.194   4.510   3.541 -0.3008 -1.5208  0.2843
 2034SOL    HW217565   3.092   4.538   3.437  0.6847 -0.3408  0.1895
 2035SOL     OW17566   1.100   3.624   5.281  0.3931  0.8068  0.4520
 2035SOL    HW117567   1.051   3.673   5.214 -1.7478 -0.4823  1.0512
 2035SOL    HW217568   1.136   3.555   5.226 -1.7823 -0.4456  0.5983
 2036SOL     OW17569   1.344   4.175   8.858  0.4151 -0.7882  0.0304
 2036SOL    HW117570   1.299   4.187   8.941 -1.4950 -2.2127 -0.7916
 2036SOL    HW217571   1.281   4.126   8.804 -2.1080  1.5507  0.8769
 2037SOL     OW17572   1.697   0.707  10.103 -0.0502 -0.6240  0.2374
 2037SOL    HW117573   1.741   0.646  10.044  0.3918  0.1438 -0.2278
 2037SOL    HW217574   1.623   0.651  10.127  0.3616 -1.7375 -1.1059
 2038SOL     OW17575   0.540   2.929   6.959  0.2408  0.2734 -0.1200
 2038SOL    HW117576   0.484   2.902   6.887 -1.0722 -2.4052  1.8911
 2038SOL    HW217577   0.620   2.948   6.911 -0.1889  1.1009 -0.5064
 2039SOL     OW17578   3.783   3.548   0.113 -0.3575  0.2859 -0.2546
 2039SOL    HW117579   3.852   3.614   0.119 -0.1063 -0.0543  0.5864
 2039SOL    HW217580   3.782   3.532   0.019  0.1891 -1.1977 -0.0082
 2040SOL     OW17581   0.040   3.427  11.227  0.5874  0.1931  0.4564
 2040SOL    HW117582   0.015   3.404  11.317  0.7579 -1.7175  0.0117
 2040SOL    HW217583   0.117   3.480  11.248  0.7884 -0.1700  0.6326
 2041SOL     OW17584   4.259   4.161   6.447 -0.0108  0.1379 -0.4251
 2041SOL    HW117585   4.284   4.108   6.371  0.1067 -1.3785  0.6623
 2041SOL    HW217586   4.314   4.237   6.426  1.0981 -1.1350 -2.1224
 2042SOL     OW17587   0.888   0.979  13.152  0.5906  0.2080 -0.1247
 2042SOL    HW117588   0.883   1.020  13.238  1.7527 -3.0750  1.5289
 2042SOL    HW217589   0.917   0.889  13.172  0.8143  0.3700  0.2796
 2043SOL     OW17590   2.867   3.075   4.326 -0.4054 -0.4965 -0.4791
 2043SOL    HW117591   2.882   3.139   4.395 -0.3867  2.8181 -3.5374
 2043SOL    HW217592   2.775   3.086   4.300 -1.0621 -2.4831  0.9910
 2044SOL     OW17593   0.370   4.378  14.692  0.0395  0.0174  0.2850
 2044SOL    HW117594   0.403   4.302  14.741 -1.9370  0.9737  3.1212
 2044SOL    HW217595   0.450   4.431  14.691 -1.9408  2.9429 -2.9390
 2045SOL     OW17596   3.652   3.195   2.055  0.3764  0.1265  1.0592
 2045SOL    HW117597   3.620   3.168   1.968  1.1275  0.7199  0.6004
 2045SOL    HW217598   3.739   3.232   2.042  0.6555  0.0494  2.7852
 2046SOL     OW17599   0.361   1.904   8.711  0.2677 -0.7040  0.5607
 2046SOL    HW117600   0.436   1.852   8.739 -1.0046 -3.0908 -0.4903
 2046SOL    HW217601   0.286   1.872   8.762  0.3470 -1.0385  0.4669
 2047SOL     OW17602   1.314   3.431   6.702 -0.0565 -0.2099  0.4403
 2047SOL    HW117603   1.390   3.382   6.671 -1.6688 -1.4583 -1.5238
 2047SOL    HW217604   1.348   3.453   6.788  1.7216  2.5252 -0.9459
 2048SOL     OW17605   3.375   3.619  10.885 -0.1081  0.4147  0.2457
 2048SOL    HW117606   3.408   3.595  10.798  2.3523 -0.4974  1.4250
 2048SOL    HW217607   3.446   3.670  10.923 -0.4265  0.1574  1.1908
 2049SOL     OW17608   3.912   1.083  17.680  0.8461 -0.1740 -0.5157
 2049SOL    HW117609   3.872   1.014   0.041 -0.7581 -0.2554 -1.8180
 2049SOL    HW217610   3.842   1.149  17.680  0.8113 -0.1866  1.3289
 2050SOL     OW17611   4.201   4.395  14.427 -0.5379 -0.0978 -1.2576
 2050SOL    HW117612   4.283   4.369  14.468 -1.7574 -1.0860  0.5800
 2050SOL    HW217613   4.139   4.393  14.500  0.1806 -0.0282 -0.6422
 2051SOL     OW17614   0.122   0.378   1.982  0.2287  0.1973  0.0384
 2051SOL    HW117615   0.052   0.343   2.038  1.0380 -0.6125  0.5502
 2051SOL    HW217616   0.123   0.472   1.998  0.4411  0.0792  0.7115
 2052SOL     OW17617   1.785   2.560   7.676  0.1170 -0.2359 -0.0286
 2052SOL    HW117618   1.816   2.481   7.721  0.7681 -1.8582 -3.3502
 2052SOL    HW217619   1.806   2.621   7.747  0.8113 -0.9168  0.3492
 2053SOL     OW17620   4.167   3.913   5.798  0.2517  0.1559 -0.2409
 2053SOL    HW117621   4.091   3.947   5.845  1.5749  2.2264  0.4217
 2053SOL    HW217622   4.203   3.998   5.773 -0.4075  0.5178  0.0476
 2054SOL     OW17623   1.433   1.899  14.919 -0.7399 -0.4563  0.4878
 2054SOL    HW117624   1.398   1.983  14.950  0.2227  0.0911  0.0698
 2054SOL    HW217625   1.355   1.845  14.905 -0.3531  0.0477 -3.5050
 2055SOL     OW17626   1.597   0.418   8.219 -0.3151 -0.1021  0.2044
 2055SOL    HW117627   1.577   0.358   8.291 -0.8848 -2.1082 -1.6208
 2055SOL    HW217628   1.516   0.468   8.219 -0.8748 -1.0067  0.5605
 2056SOL     OW17629   3.978   0.976   1.488  0.0177 -0.6926 -0.1832
 2056SOL    HW117630   3.924   0.977   1.567  0.5358  2.3532  0.1493
 2056SOL    HW217631   4.002   0.883   1.491 -0.0460 -0.7595 -1.6760
 2057SOL     OW17632   2.822   3.072   4.782  0.0326  0.0045 -0.4310
 2057SOL    HW117633   2.838   3.135   4.853 -1.9295  1.8670 -1.6599
 2057SOL    HW217634   2.727   3.059   4.788  0.2894 -0.9290  1.7294
 2058SOL     OW17635   2.846   2.614   2.725 -0.2923  0.6136  0.2271
 2058SOL    HW117636   2.892   2.574   2.651  0.9339 -1.0459  1.8699
 2058SOL    HW217637   2.867   2.544   2.787 -1.1388  0.8248  0.7604
 2059SOL     OW17638   1.036   1.768   1.801 -0.0114  0.5772  0.4064
 2059SOL    HW117639   0.969   1.744   1.737  0.0202 -3.1637  1.7590
 2059SOL    HW217640   1.090   1.835   1.759  0.0294  0.2913  0.0102
 2060SOL     OW17641   3.905   0.091   5.324  0.0427  0.2151  0.7337
 2060SOL    HW117642   3.872   0.068   5.411 -0.6703  1.8911  0.9033
 2060SOL    HW217643   3.956   0.170   5.338  0.1938  0.3174 -0.3368
 2061SOL     OW17644   1.267   3.758   3.004 -0.5976  0.0662 -0.3278
 2061SOL    HW117645   1.184   3.710   3.003  0.7746 -2.2679 -0.8715
 2061SOL    HW217646   1.305   3.740   2.918 -1.2432  2.1813 -1.0642
 2062SOL     OW17647   0.684   0.412   4.339 -0.0318  0.2956 -0.5013
 2062SOL    HW117648   0.652   0.409   4.429 -0.9071 -1.4888 -0.8764
 2062SOL    HW217649   0.732   0.329   4.341  0.1999  0.4078 -1.1655
 2063SOL     OW17650   1.607   2.811  15.549  0.0494 -0.1592 -0.0620
 2063SOL    HW117651   1.666   2.881  15.578  0.6258  0.0794 -1.7956
 2063SOL    HW217652   1.527   2.855  15.577  0.0617  0.0617 -0.3716
 2064SOL     OW17653   1.161   4.058   7.287  0.1844 -0.4103 -0.5160
 2064SOL    HW117654   1.077   4.102   7.273 -0.7009 -2.4314 -1.4530
 2064SOL    HW217655   1.198   4.094   7.368  1.4402 -0.9810 -0.8274
 2065SOL     OW17656   0.386   2.407   8.035  0.0995 -0.0558  0.2999
 2065SOL    HW117657   0.370   2.440   7.947 -2.5582 -2.1801 -0.0113
 2065SOL    HW217658   0.313   2.447   8.082 -1.7375 -2.1969 -0.7176
 2066SOL     OW17659   3.155   2.202  14.240 -0.3266  0.4946  0.4843
 2066SOL    HW117660   3.153   2.107  14.243 -0.7643  0.5170  0.8861
 2066SOL    HW217661   3.067   2.219  14.273 -1.3495 -1.9424 -1.0016
 2067SOL     OW17662   0.432   2.296   4.895 -0.3780  0.0304  0.6184
 2067SOL    HW117663   0.503   2.325   4.837  0.4918 -0.7384  1.2815
 2067SOL    HW217664   0.360   2.300   4.832  2.2450 -0.5747 -2.4219
 2068SOL     OW17665   0.227   0.292   6.449  0.2216  0.3271  0.2612
 2068SOL    HW117666   0.190   0.380   6.447  0.9678  0.6591  0.8418
 2068SOL    HW217667   0.187   0.255   6.528 -0.6322  0.1243 -0.2757
 2069SOL     OW17668   4.564   3.127  11.203  0.0133 -0.1614  0.2233
 2069SOL    HW117669   4.584   3.190  11.134  2.9732  2.5377  3.4844
 2069SOL    HW217670   4.650   3.094  11.227 -0.2628 -0.0631  1.3901
 2070SOL     OW17671   1.121   2.995   1.100  0.0366  0.1406  0.6203
 2070SOL    HW117672   1.111   3.090   1.104 -1.2335 -0.0078  1.2427
 2070SOL    HW217673   1.089   2.970   1.187 -1.1094  0.7383  0.3828
 2071SOL     OW17674   1.260   1.126  12.259  0.1436 -0.1412  0.0896
 2071SOL    HW117675   1.165   1.125  12.257  0.1658 -2.2361  0.1059
 2071SOL    HW217676   1.276   1.033  12.242 -0.5505 -0.2617  0.0955
 2072SOL     OW17677   1.519   1.217   2.935 -0.0937  0.7980  0.1592
 2072SOL    HW117678   1.614   1.212   2.929 -0.1846 -2.8663  1.5525
 2072SOL    HW217679   1.515   1.300   2.981 -1.8539 -0.4205  2.2372
 2073SOL     OW17680   0.336   0.562   3.439 -0.0997 -0.1335  0.9631
 2073SOL    HW117681   0.272   0.633   3.440  1.7935  1.5968 -0.8020
 2073SOL    HW217682   0.340   0.541   3.533  1.0954  0.3229  1.0229
 2074SOL     OW17683   2.767   3.908   5.026  0.3221  0.1761 -0.2028
 2074SOL    HW117684   2.781   3.995   5.064 -0.4587  0.0768  0.3228
 2074SOL    HW217685   2.823   3.913   4.949 -0.3541  0.1792 -0.6891
 2075SOL     OW17686   1.178   3.546  12.981 -0.5102  0.2834 -0.1387
 2075SOL    HW117687   1.265   3.509  12.997 -0.8686 -0.6517 -0.3536
 2075SOL    HW217688   1.199   3.640  12.984 -0.3901  0.1398  3.3515
 2076SOL     OW17689   3.497   1.797  11.977 -0.3683  0.6908  0.6964
 2076SOL    HW117690   3.531   1.710  11.956 -0.4965  0.9070 -0.4053
 2076SOL    HW217691   3.419   1.763  12.021 -0.6490  0.5021  0.0491
 2077SOL     OW17692   3.780   3.321   3.304  0.6344 -0.3582 -0.0463
 2077SOL    HW117693   3.839   3.353   3.372  0.6520  0.8782 -0.6365
 2077SOL    HW217694   3.830   3.286   3.230  0.6966  0.7333 -0.5129
 2078SOL     OW17695   0.260   1.712  15.712 -0.1557  0.1561 -0.1823
 2078SOL    HW117696   0.290   1.760  15.635 -0.3771  0.4580 -0.0841
 2078SOL    HW217697   0.306   1.629  15.707  2.5882  1.5598  1.5344
 2079SOL     OW17698   4.000   3.638   8.455 -0.2778  0.5002  0.6679
 2079SOL    HW117699   3.924   3.687   8.488 -0.5395 -0.6598  1.8169
 2079SOL    HW217700   4.043   3.628   8.540  2.6799  4.5282 -0.3752
 2080SOL     OW17701   2.281   3.373   9.623 -0.5898  0.4717  0.2821
 2080SOL    HW117702   2.302   3.439   9.689 -0.6234  0.4591  0.3058
 2080SOL    HW217703   2.333   3.297   9.648 -0.3034  0.0717 -1.4783
 2081SOL     OW17704   4.265   2.928   7.276 -0.0277  0.3360  0.3079
 2081SOL    HW117705   4.292   2.904   7.365 -0.1024  0.3671  0.3385
 2081SOL    HW217706   4.217   2.849   7.252  0.7739 -0.0150 -0.1511
 2082SOL     OW17707   1.180   2.091   2.381  0.5432  0.7258 -0.4532
 2082SOL    HW117708   1.135   2.040   2.314  0.6784  1.6801 -1.2812
 2082SOL    HW217709   1.117   2.162   2.393  0.4751  0.6170 -0.1751
 2083SOL     OW17710   3.851   2.323   4.926 -0.8273  0.0253  0.1639
 2083SOL    HW117711   3.904   2.351   5.000 -1.4980  2.3927 -0.2321
 2083SOL    HW217712   3.832   2.403   4.877 -0.8567  0.0449  0.2070
 2084SOL     OW17713   2.171   3.900  13.247  0.2328  0.3032 -0.4005
 2084SOL    HW117714   2.136   3.952  13.174 -0.8996 -0.2879 -0.2792
 2084SOL    HW217715   2.255   3.945  13.262  1.0970 -1.8802  1.3022
 2085SOL     OW17716   3.114   2.343   7.256 -0.2024 -0.1542 -0.8512
 2085SOL    HW117717   3.174   2.404   7.301 -2.2371  0.2171  1.3664
 2085SOL    HW217718   3.024   2.361   7.283  0.3282  0.9907  0.1695
 2086SOL     OW17719   3.882   0.284   7.955 -0.0997 -0.5418 -0.3682
 2086SOL    HW117720   3.882   0.190   7.936  0.2708 -0.3331 -1.3761
 2086SOL    HW217721   3.818   0.328   7.900  1.0479  3.3209  1.3518
 2087SOL     OW17722   0.902   3.961   8.622 -0.1058  0.3508  0.2022
 2087SOL    HW117723   0.877   3.884   8.571 -0.5769  1.6512 -1.5344
 2087SOL    HW217724   0.914   3.921   8.708  0.5443  1.3226  0.5621
 2088SOL     OW17725   0.506   2.466   8.779 -0.2993 -0.0542 -0.0643
 2088SOL    HW117726   0.586   2.418   8.800  0.1929  0.9642  0.4031
 2088SOL    HW217727   0.547   2.548   8.753  0.5573  0.3564  2.5785
 2089SOL     OW17728   3.612   1.246   6.730 -0.3942 -0.4876 -0.2876
 2089SOL    HW117729   3.559   1.237   6.651 -1.1407  1.2197  0.0002
 2089SOL    HW217730   3.681   1.182   6.714 -0.3708 -1.5195  3.7733
 2090SOL     OW17731   0.444   2.728   2.489 -0.3974  0.1863  0.3956
 2090SOL    HW117732   0.371   2.778   2.453 -0.4581  0.4424  0.8784
 2090SOL    HW217733   0.499   2.795   2.529  1.6612  0.5918 -3.1188
 2091SOL     OW17734   2.328   0.503  10.637  0.3532 -0.8022  0.3165
 2091SOL    HW117735   2.252   0.464  10.594  2.0411 -2.0029 -1.5671
 2091SOL    HW217736   2.392   0.481  10.569 -0.3886 -0.9537 -0.3320
 2092SOL     OW17737   3.037   1.611   3.873  1.1045 -0.1983  0.1645
 2092SOL    HW117738   3.102   1.660   3.824  0.6324  0.0929 -0.1635
 2092SOL    HW217739   3.069   1.641   3.958 -0.2117 -2.3079  1.4060
 2093SOL     OW17740   2.006   3.369   7.314  0.3136 -0.3926  0.4979
 2093SOL    HW117741   1.918   3.370   7.351  0.8890 -0.1106  1.8404
 2093SOL    HW217742   2.053   3.390   7.395  0.0799  1.1865  0.2152
 2094SOL     OW17743   3.587   0.943   5.799 -0.3861  0.0101  0.0088
 2094SOL    HW117744   3.553   0.990   5.874  0.7390 -1.5995  1.5301
 2094SOL    HW217745   3.681   0.946   5.817 -0.3925 -0.4068  0.1107
 2095SOL     OW17746   1.174   1.640   3.704 -0.0519 -0.6858 -0.1578
 2095SOL    HW117747   1.160   1.560   3.653 -0.4911  1.0088 -2.7150
 2095SOL    HW217748   1.086   1.678   3.713  0.3658  0.5268 -1.1221
 2096SOL     OW17749   1.370   4.591   5.876 -0.3856  0.1200  0.6693
 2096SOL    HW117750   1.448   4.614   5.926  1.0378  1.1158 -1.9908
 2096SOL    HW217751   1.379   4.496   5.865  0.9026  0.1270  1.6443
 2097SOL     OW17752   1.124   2.410   4.548 -0.4334 -0.6024  0.2221
 2097SOL    HW117753   1.202   2.370   4.510 -0.5408 -1.5604  1.0197
 2097SOL    HW217754   1.127   2.493   4.500 -0.1577 -0.3343  0.6947
 2098SOL     OW17755   1.929   1.330   3.210  0.6160  0.6754 -0.3285
 2098SOL    HW117756   1.906   1.310   3.300 -1.2445 -2.6595 -1.5629
 2098SOL    HW217757   2.016   1.293   3.201  2.2855  4.3280  0.7405
 2099SOL     OW17758   3.083   2.097   4.174 -0.2224 -0.2313 -0.5114
 2099SOL    HW117759   3.000   2.059   4.147 -0.4116  0.0344 -0.2980
 2099SOL    HW217760   3.142   2.021   4.170 -1.3402 -1.1252  0.1452
 2100SOL     OW17761   2.881   3.307   3.075  0.0882  0.3464 -0.3131
 2100SOL    HW117762   2.843   3.293   2.988  0.2329  0.1066 -0.3354
 2100SOL    HW217763   2.941   3.381   3.060  2.0597 -0.9851  1.0862
 2101SOL     OW17764   2.117   3.506   7.531  0.3278 -0.2854  0.1917
 2101SOL    HW117765   2.201   3.542   7.558  0.0325 -1.1424  2.2519
 2101SOL    HW217766   2.058   3.580   7.541 -0.8368 -1.4060  1.6790
 2102SOL     OW17767   0.021   3.861  11.237  0.1999  0.6290  0.2354
 2102SOL    HW117768   4.655   3.837  11.212  0.0399 -0.9815  2.3582
 2102SOL    HW217769   0.008   3.856  11.332  0.9623 -0.1406  0.3025
 2103SOL     OW17770   2.172   3.424  15.258  0.2699 -0.5050  0.7699
 2103SOL    HW117771   2.142   3.354  15.201 -0.6471  1.2610 -0.9051
 2103SOL    HW217772   2.091   3.471  15.275  0.0188  0.4162 -2.9724
 2104SOL     OW17773   3.134   3.479   3.342  0.2171 -0.3475  0.2034
 2104SOL    HW117774   3.048   3.460   3.379 -0.4223  0.6489 -0.7374
 2104SOL    HW217775   3.172   3.391   3.340 -0.0700 -0.4468 -1.4896
 2105SOL     OW17776   0.935   0.700   3.732  0.0731  0.0083 -0.5491
 2105SOL    HW117777   0.889   0.765   3.679 -1.3225 -1.2519 -0.8690
 2105SOL    HW217778   0.866   0.687   3.797  0.7891  1.3946  0.4939
 2106SOL     OW17779   3.189   1.765   5.489  0.0891 -0.3597  0.1801
 2106SOL    HW117780   3.180   1.758   5.584 -0.6309 -3.0330 -0.0861
 2106SOL    HW217781   3.284   1.761   5.495  0.1276  0.1760 -0.0371
 2107SOL     OW17782   3.567   3.807  10.863  0.3453 -0.6267 -0.1301
 2107SOL    HW117783   3.660   3.826  10.850  0.8091 -3.3058 -0.7651
 2107SOL    HW217784   3.544   3.882  10.919  1.5729 -0.6592  0.4248
 2108SOL     OW17785   4.268   2.829   9.474  0.1173  0.5192 -0.1299
 2108SOL    HW117786   4.224   2.756   9.432  1.3853 -0.2634 -0.1031
 2108SOL    HW217787   4.194   2.889   9.486  0.5370  0.9892  0.0987
 2109SOL     OW17788   3.015   2.581   8.108  0.2137 -0.2597 -0.1760
 2109SOL    HW117789   2.949   2.519   8.139 -1.5374  0.7711 -1.7955
 2109SOL    HW217790   3.068   2.604   8.184 -3.4100 -0.3736  2.3765
 2110SOL     OW17791   0.232   2.844  12.757  0.3950 -0.0534  0.3370
 2110SOL    HW117792   0.261   2.884  12.675 -0.8729 -0.3257 -0.2489
 2110SOL    HW217793   0.297   2.865  12.825  0.9004  1.3981 -0.5948
 2111SOL     OW17794   0.192   3.893  11.027  0.1659 -0.8481  0.2978
 2111SOL    HW117795   0.171   3.809  10.986 -2.0581 -0.3132  0.3537
 2111SOL    HW217796   0.140   3.875  11.106 -0.9025 -0.8751 -0.4209
 2112SOL     OW17797   2.637   4.095   2.524 -0.1914  0.3016  0.5344
 2112SOL    HW117798   2.727   4.098   2.491 -1.4421 -1.2007 -2.9986
 2112SOL    HW217799   2.617   4.186   2.545  1.2867  0.9187 -0.7092
 2113SOL     OW17800   0.442   2.978   2.203 -0.4071  0.0086  0.1816
 2113SOL    HW117801   0.408   2.909   2.145  0.2667 -1.6592  1.7557
 2113SOL    HW217802   0.522   2.936   2.236 -0.9145 -0.5687  0.6680
 2114SOL     OW17803   2.108   0.603   3.537 -0.0143  0.1300  0.1767
 2114SOL    HW117804   2.152   0.524   3.570 -0.6284  0.3281  1.4310
 2114SOL    HW217805   2.029   0.554   3.517  0.2690 -0.0337 -0.5704
 2115SOL     OW17806   4.454   2.263   3.979 -0.2365 -0.1021 -0.5707
 2115SOL    HW117807   4.545   2.287   3.993  0.0981 -0.5809 -1.9112
 2115SOL    HW217808   4.423   2.346   3.943 -2.6999 -1.7849 -2.3674
 2116SOL     OW17809   1.591   0.859   4.890 -0.0598 -0.1040  0.2296
 2116SOL    HW117810   1.510   0.901   4.861  0.0849  1.1899  1.6325
 2116SOL    HW217811   1.604   0.788   4.828 -0.8062  0.2057 -0.2811
 2117SOL     OW17812   3.169   4.321   2.114 -0.0201  1.1938 -0.3005
 2117SOL    HW117813   3.177   4.344   2.206  2.1063  2.3660 -0.7956
 2117SOL    HW217814   3.184   4.404   2.070 -0.0437  0.0266 -2.5325
 2118SOL     OW17815   3.713   4.542   6.276 -0.0638  0.0940 -0.2030
 2118SOL    HW117816   3.792   4.511   6.321  1.7933  2.3540 -1.8838
 2118SOL    HW217817   3.693   4.613   6.337 -1.6138 -1.1854  0.7862
 2119SOL     OW17818   1.649   3.830   8.834  0.4908 -0.4962  0.1294
 2119SOL    HW117819   1.576   3.801   8.780 -0.5329  2.0760  0.1294
 2119SOL    HW217820   1.642   3.925   8.828  0.2033 -0.4700  1.0148
 2120SOL     OW17821   0.952   3.587   7.117  0.3115 -0.1391 -0.1867
 2120SOL    HW117822   0.961   3.672   7.161 -2.6451 -0.7511  1.6117
 2120SOL    HW217823   1.043   3.560   7.112 -0.4381 -2.9495  1.5811
 2121SOL     OW17824   0.119   1.533  11.652 -0.5046 -0.1402 -0.3642
 2121SOL    HW117825   0.094   1.618  11.614  1.1894  1.9646  3.2151
 2121SOL    HW217826   0.180   1.564  11.719 -1.6939  0.8146  0.2738
 2122SOL     OW17827   4.365   4.423   1.445 -0.5997  0.0382  0.1960
 2122SOL    HW117828   4.425   4.382   1.384  0.8067 -0.1543  1.7058
 2122SOL    HW217829   4.282   4.407   1.399 -0.4376 -2.0090  0.6126
 2123SOL     OW17830   0.082   3.529   8.576 -0.1409 -0.2733  0.2550
 2123SOL    HW117831   0.058   3.601   8.635 -0.0264  0.9918 -1.2384
 2123SOL    HW217832   0.118   3.569   8.497 -1.1786  0.6526  0.2541
 2124SOL     OW17833   1.466   1.833   6.992 -0.1668 -0.2953 -0.0728
 2124SOL    HW117834   1.373   1.855   7.001  0.2219  0.0885  3.0056
 2124SOL    HW217835   1.476   1.747   7.033 -0.6982  1.1716  3.1653
 2125SOL     OW17836   0.229   3.161   0.241 -0.1664  0.0951 -0.2156
 2125SOL    HW117837   0.183   3.106   0.304  0.3508  1.3425  1.2636
 2125SOL    HW217838   0.317   3.153   0.278 -0.8599 -3.3499  0.7157
 2126SOL     OW17839   2.515   2.323   6.651 -0.0502  0.2948  0.1221
 2126SOL    HW117840   2.525   2.246   6.594  3.2047 -0.8809  2.2448
 2126SOL    HW217841   2.590   2.311   6.710 -0.2288 -0.8040  0.1324
 2127SOL     OW17842   1.421   2.548   7.835  0.2618  0.4853  0.0031
 2127SOL    HW117843   1.430   2.576   7.926 -0.9186 -1.1113  0.6147
 2127SOL    HW217844   1.330   2.518   7.837  0.2865  0.5312  1.3428
 2128SOL     OW17845   0.706   1.689   1.842 -0.5822  0.4147  0.1116
 2128SOL    HW117846   0.765   1.663   1.913 -0.4512  2.1511  0.6238
 2128SOL    HW217847   0.739   1.644   1.764  1.1670 -0.9194  1.6156
 2129SOL     OW17848   0.617   1.337   0.988  0.5814 -0.0371 -0.0312
 2129SOL    HW117849   0.526   1.307   0.981  0.4013  0.4781  0.1243
 2129SOL    HW217850   0.638   1.359   0.897 -0.0869  0.4035 -0.0768
 2130SOL     OW17851   3.867   0.607  17.692  0.3429  0.1791 -0.7317
 2130SOL    HW117852   3.864   0.646  17.605 -1.3480 -0.6559 -1.0717
 2130SOL    HW217853   3.800   0.538  17.685  0.1541  0.1761  1.1916
 2131SOL     OW17854   1.495   0.168  10.389  0.0065  0.5174 -0.2683
 2131SOL    HW117855   1.515   0.234  10.323  1.4493  0.4955  0.1348
 2131SOL    HW217856   1.560   0.182  10.457  0.9465  1.4163 -1.3582
 2132SOL     OW17857   0.084   2.837   3.517  0.0082  0.0530 -0.2623
 2132SOL    HW117858   0.133   2.757   3.539 -0.9227 -0.6188 -0.6085
 2132SOL    HW217859   4.716   2.805   3.511 -1.3753  3.9257  0.0429
 2133SOL     OW17860   0.901   4.603   6.771  0.7025 -0.0481  0.6513
 2133SOL    HW117861   0.885   4.556   6.689  0.1246 -2.1107  1.9327
 2133SOL    HW217862   0.859   4.686   6.752 -0.3886 -0.6759  0.3441
 2134SOL     OW17863   1.604   1.462   3.058 -0.0745 -0.3787 -0.1766
 2134SOL    HW117864   1.646   1.526   3.002 -0.4962 -1.5166 -1.8178
 2134SOL    HW217865   1.679   1.402   3.065  0.5733  0.7169  2.2541
 2135SOL     OW17866   1.083   0.329   7.223  0.1161 -0.2879 -0.3744
 2135SOL    HW117867   1.165   0.373   7.200  0.0949 -0.4097 -0.6855
 2135SOL    HW217868   1.039   0.328   7.138 -0.2222  0.1619 -0.2071
 2136SOL     OW17869   2.112   0.658   2.428  0.3524 -0.3703 -0.1419
 2136SOL    HW117870   2.032   0.704   2.403  0.2935 -0.7882 -0.7324
 2136SOL    HW217871   2.098   0.572   2.388  1.0076 -0.4270 -0.2501
 2137SOL     OW17872   1.631   3.658   4.855  0.4913 -0.0728 -0.6520
 2137SOL    HW117873   1.610   3.725   4.919  0.4075  0.6458 -1.4297
 2137SOL    HW217874   1.552   3.607   4.837  1.1192 -1.6185  0.9950
 2138SOL     OW17875   1.545   3.541   8.303 -0.4671  0.5162  0.3735
 2138SOL    HW117876   1.455   3.568   8.322 -0.2965  1.4577 -0.1457
 2138SOL    HW217877   1.527   3.448   8.292  1.4635  0.0914  0.7746
 2139SOL     OW17878   2.246   4.108  11.339 -0.5590 -0.2126  0.0333
 2139SOL    HW117879   2.192   4.033  11.364 -1.6482 -0.0176 -1.7139
 2139SOL    HW217880   2.324   4.060  11.315 -0.7587 -1.1625  1.2958
 2140SOL     OW17881   2.687   1.718  13.538  0.4017  0.4836 -0.2143
 2140SOL    HW117882   2.773   1.680  13.522  1.7529  2.5517  2.1797
 2140SOL    HW217883   2.694   1.795  13.481 -1.0486  0.2527 -0.7155
 2141SOL     OW17884   4.047   4.254   9.224 -0.3504 -0.0330 -0.0824
 2141SOL    HW117885   4.045   4.178   9.283 -0.5563  0.2156  0.2330
 2141SOL    HW217886   4.116   4.305   9.267 -1.0321  1.4986 -0.7881
 2142SOL     OW17887   0.234   3.809  15.852  0.6098 -0.0673  0.4066
 2142SOL    HW117888   0.234   3.824  15.947  1.1399  0.3813  0.3323
 2142SOL    HW217889   0.290   3.732  15.843  2.6854  1.7321 -1.8189
 2143SOL     OW17890   2.825   3.614   2.817 -0.0010  0.0493  0.2478
 2143SOL    HW117891   2.771   3.538   2.837  1.4237 -1.2594 -0.8745
 2143SOL    HW217892   2.879   3.621   2.895  0.3272 -1.2739  0.1342
 2144SOL     OW17893   3.698   4.074  15.373  0.0060 -0.0535 -0.0173
 2144SOL    HW117894   3.790   4.047  15.381 -0.0593 -0.5003 -0.8620
 2144SOL    HW217895   3.693   4.093  15.279  2.2172  0.6185 -0.0106
 2145SOL     OW17896   0.889   1.966  15.928 -0.0086 -0.3819 -0.4634
 2145SOL    HW117897   0.882   1.882  15.883  2.0169 -0.0898 -1.2816
 2145SOL    HW217898   0.868   2.034  15.865 -0.1120 -0.8233 -0.9040
 2146SOL     OW17899   3.482   3.721   3.172 -0.1957 -0.4061  0.3991
 2146SOL    HW117900   3.464   3.683   3.086  0.6652  2.0854 -0.8910
 2146SOL    HW217901   3.577   3.723   3.168 -0.2501 -0.3651 -1.2060
 2147SOL     OW17902   1.091   1.507   2.567 -0.2433 -0.0582  0.5597
 2147SOL    HW117903   1.083   1.561   2.489  1.7042 -3.8488 -2.2735
 2147SOL    HW217904   1.176   1.543   2.593 -0.6039  1.4057 -0.3060
 2148SOL     OW17905   4.153   1.018   9.327 -0.2639 -0.2425 -0.2942
 2148SOL    HW117906   4.173   0.925   9.317  1.2591  0.0023  0.5230
 2148SOL    HW217907   4.174   1.042   9.236  2.3843  0.2704  0.4431
 2149SOL     OW17908   0.381   2.985   3.606 -0.5040  0.0317  0.1576
 2149SOL    HW117909   0.446   3.051   3.584  0.3599 -0.5825  0.9058
 2149SOL    HW217910   0.400   2.970   3.698 -0.6050  2.9573  0.6362
 2150SOL     OW17911   0.470   0.786   2.245 -0.1254  0.1009  0.0856
 2150SOL    HW117912   0.447   0.763   2.156  1.3266 -0.7523 -0.0628
 2150SOL    HW217913   0.401   0.740   2.293 -0.1522 -0.7131 -0.7402
 2151SOL     OW17914   3.206   1.307   8.422 -0.0786 -0.2833  0.3213
 2151SOL    HW117915   3.112   1.293   8.406 -0.1476 -1.2141  1.5228
 2151SOL    HW217916   3.244   1.277   8.339 -0.0242 -0.5612  0.4469
 2152SOL     OW17917   0.866   1.924   9.947 -0.6078 -0.2730 -0.5041
 2152SOL    HW117918   0.868   1.977   9.867 -0.3568  0.3814 -0.0590
 2152SOL    HW217919   0.839   1.990  10.011 -0.2371 -0.7226  0.1188
 2153SOL     OW17920   0.706   4.168   8.204  0.3020  0.9400  0.0756
 2153SOL    HW117921   0.750   4.175   8.119  2.0051 -2.0589  0.7017
 2153SOL    HW217922   0.691   4.259   8.231  0.6740  0.5593  1.6026
 2154SOL     OW17923   3.701   3.934  14.241 -0.4263 -0.2534  0.4051
 2154SOL    HW117924   3.647   3.880  14.183  0.1920 -0.8385  0.3723
 2154SOL    HW217925   3.749   3.861  14.280 -1.1949 -0.3303  1.2325
 2155SOL     OW17926   3.531   0.959   8.332 -0.2784  0.0345 -0.4394
 2155SOL    HW117927   3.459   0.896   8.325  0.3311 -0.9259  1.6999
 2155SOL    HW217928   3.603   0.901   8.306 -1.0789 -0.6396 -1.1441
 2156SOL     OW17929   2.906   4.127   6.330  1.2445 -0.1714  0.2304
 2156SOL    HW117930   2.880   4.218   6.348 -0.8817 -0.5056 -1.1675
 2156SOL    HW217931   2.957   4.135   6.250  1.9560  1.1288  0.8114
 2157SOL     OW17932   3.717   2.281   3.732 -0.2877  0.5925  0.0668
 2157SOL    HW117933   3.799   2.263   3.686 -0.2205 -0.8933  0.7705
 2157SOL    HW217934   3.681   2.355   3.683  2.1089  0.4099 -1.9834
 2158SOL     OW17935   1.029   2.654   1.206  0.8186  0.0480  0.5641
 2158SOL    HW117936   1.104   2.597   1.189 -0.4800 -0.3747 -3.7714
 2158SOL    HW217937   0.963   2.613   1.151 -0.6929  0.0958  2.3465
 2159SOL     OW17938   2.510   1.472  16.575  0.1251 -0.2843 -0.1504
 2159SOL    HW117939   2.525   1.432  16.490  0.8124  2.5202 -1.3386
 2159SOL    HW217940   2.519   1.394  16.630  0.2778 -1.3492 -1.6749
 2160SOL     OW17941   4.528   3.165   4.753 -0.2154 -0.2247  0.0085
 2160SOL    HW117942   4.453   3.206   4.796  1.1778  1.0336  1.2136
 2160SOL    HW217943   4.593   3.235   4.744 -1.1664  0.8632  1.5323
 2161SOL     OW17944   4.186   1.748   6.373  0.2754 -0.1288 -0.0383
 2161SOL    HW117945   4.209   1.655   6.364 -0.3041 -0.2990  0.2657
 2161SOL    HW217946   4.170   1.776   6.283 -0.0589  0.2461  0.1394
 2162SOL     OW17947   1.339   1.742  13.156  0.1144 -0.2123 -0.1443
 2162SOL    HW117948   1.386   1.825  13.156  1.2348 -0.8403  1.7449
 2162SOL    HW217949   1.293   1.754  13.239  1.4300  1.2606  0.3807
 2163SOL     OW17950   0.353   0.328   7.952  0.1003 -0.5819 -0.2111
 2163SOL    HW117951   0.394   0.376   7.880  1.0987 -1.5641 -0.2920
 2163SOL    HW217952   0.304   0.263   7.901 -1.9306 -0.4180  1.5186
 2164SOL     OW17953   1.700   2.182   7.969  0.2071 -0.3541  0.1493
 2164SOL    HW117954   1.667   2.099   8.005 -1.2825  0.6073  1.0141
 2164SOL    HW217955   1.774   2.148   7.920  0.8046 -1.6355  1.9455
 2165SOL     OW17956   3.317   0.820   5.738  0.2339 -0.2287  0.0096
 2165SOL    HW117957   3.284   0.822   5.827 -0.9902 -0.2201 -0.4500
 2165SOL    HW217958   3.376   0.745   5.745  2.1634  1.4880  1.8884
 2166SOL     OW17959   1.686   3.819   4.622 -0.2134  0.0174 -0.9476
 2166SOL    HW117960   1.701   3.905   4.662  0.3937 -0.6613  0.2886
 2166SOL    HW217961   1.678   3.778   4.708  0.0818  0.6302 -0.6260
 2167SOL     OW17962   0.690   0.244  12.359 -0.0122  0.0662 -0.2034
 2167SOL    HW117963   0.627   0.173  12.369 -1.5781  1.5000  0.0427
 2167SOL    HW217964   0.630   0.315  12.336  2.3531  2.7094  1.6420
 2168SOL     OW17965   3.491   0.459  13.135 -0.0501  0.3057 -0.2649
 2168SOL    HW117966   3.545   0.522  13.182  0.9965  1.2764 -2.7588
 2168SOL    HW217967   3.555   0.388  13.136  0.9994  1.2434 -1.5107
 2169SOL     OW17968   1.121   2.304  10.527 -0.1796 -0.6146 -0.7679
 2169SOL    HW117969   1.063   2.285  10.601 -0.0582 -0.7168 -0.6993
 2169SOL    HW217970   1.058   2.317  10.456  1.8930  0.9080 -2.3054
 2170SOL     OW17971   3.369   3.218   9.420  0.6020 -0.8146  0.4124
 2170SOL    HW117972   3.353   3.273   9.497 -0.6803  0.7952 -1.0145
 2170SOL    HW217973   3.278   3.187   9.413  0.4776 -0.3470  0.0245
 2171SOL     OW17974   3.266   0.489  16.953 -0.3736 -0.4261 -0.0070
 2171SOL    HW117975   3.348   0.473  16.999 -0.1364 -1.2752 -0.7409
 2171SOL    HW217976   3.290   0.555  16.888 -2.3067 -0.7546 -1.0749
 2172SOL     OW17977   3.774   3.754   2.569  0.4258  0.4366 -0.1495
 2172SOL    HW117978   3.724   3.804   2.634  0.2342  2.7419 -2.0828
 2172SOL    HW217979   3.723   3.676   2.549  2.2498 -1.2047  1.6541
 2173SOL     OW17980   3.005   1.942  16.749  0.3339 -0.2321  0.2579
 2173SOL    HW117981   3.060   1.882  16.799  2.7294  1.1367 -0.7343
 2173SOL    HW217982   3.062   1.964  16.675  0.5895  1.1438  0.8595
 2174SOL     OW17983   0.357   2.337   3.665  0.1776  0.6065 -0.1824
 2174SOL    HW117984   0.267   2.304   3.661  0.8273 -1.3845  1.8574
 2174SOL    HW217985   0.337   2.419   3.709 -0.4289  1.2177 -1.5970
 2175SOL     OW17986   2.019   1.221   5.849 -0.4254 -0.2121  0.6696
 2175SOL    HW117987   2.007   1.177   5.765  0.0376 -0.7387  0.8765
 2175SOL    HW217988   1.962   1.291   5.818  1.3394  1.1532  0.5113
 2176SOL     OW17989   4.347   0.612  11.322  0.1204 -0.3315 -0.1723
 2176SOL    HW117990   4.261   0.647  11.299  0.7794  0.5189 -1.3044
 2176SOL    HW217991   4.329   0.556  11.398  3.5065 -0.4754  0.5192
 2177SOL     OW17992   0.453   1.755   6.614  0.4176 -0.0235  0.3202
 2177SOL    HW117993   0.358   1.749   6.604  0.8175 -0.6135 -3.1026
 2177SOL    HW217994   0.467   1.662   6.594  0.4831 -0.5301  2.6870
 2178SOL     OW17995   2.698   0.488   2.486  0.0784  0.0203 -0.2350
 2178SOL    HW117996   2.643   0.540   2.427 -0.8012  0.3657  0.8877
 2178SOL    HW217997   2.770   0.466   2.427  0.2409  0.4612 -0.1988
 2179SOL     OW17998   2.961   1.845   4.408  0.0939 -0.2175  0.3225
 2179SOL    HW117999   2.920   1.786   4.345 -1.8369  0.2266  1.1500
 2179SOL    HW218000   2.912   1.926   4.391 -1.1415 -0.5063  2.4685
 2180SOL     OW18001   1.759   3.498  17.223 -0.3276  0.3199  0.4505
 2180SOL    HW118002   1.710   3.580  17.211  1.1395  0.8164 -2.1144
 2180SOL    HW218003   1.685   3.438  17.216 -0.2403  0.0830  1.6979
 2181SOL     OW18004   2.673   1.170  11.613  0.1917 -0.3696 -0.1153
 2181SOL    HW118005   2.749   1.220  11.583 -0.2979  0.4133 -0.0512
 2181SOL    HW218006   2.621   1.185  11.534 -0.2740  0.3081  0.3107
 2182SOL     OW18007   4.513   0.719   2.891 -0.3525 -0.0125 -0.0105
 2182SOL    HW118008   4.431   0.669   2.884 -0.0127 -0.5337 -0.2560
 2182SOL    HW218009   4.530   0.699   2.983  1.4986 -2.6544 -0.9221
 2183SOL     OW18010   1.229   2.889   4.601 -0.1487  0.3783 -0.4814
 2183SOL    HW118011   1.189   2.845   4.526  1.9992  0.1048 -1.4852
 2183SOL    HW218012   1.320   2.882   4.571 -0.5385  0.4864 -1.6848
 2184SOL     OW18013   0.767   1.859   4.548  0.0584  0.1818  0.2044
 2184SOL    HW118014   0.772   1.848   4.642  0.1186 -0.8886  0.0758
 2184SOL    HW218015   0.813   1.780   4.522  0.8587  0.9379 -0.6853
 2185SOL     OW18016   4.056   3.032   6.320 -0.2986 -0.9207 -0.0481
 2185SOL    HW118017   4.032   3.123   6.304 -1.7723 -1.4987 -1.0897
 2185SOL    HW218018   4.045   2.996   6.232  1.7735  0.9275 -1.0548
 2186SOL     OW18019   3.951   4.662   1.823  0.2368  0.8717 -0.3849
 2186SOL    HW118020   3.926   4.584   1.773 -1.0252  1.6146 -0.9049
 2186SOL    HW218021   4.016   4.696   1.762  0.8372  0.2814 -0.0724
 2187SOL     OW18022   4.554   3.747   0.612 -0.5895  0.1574 -0.1050
 2187SOL    HW118023   4.571   3.802   0.536  0.8712 -1.4690 -0.9841
 2187SOL    HW218024   4.459   3.754   0.601 -0.4778  2.3024  0.3856
 2188SOL     OW18025   4.509   3.628   6.626 -0.2408  0.1157  0.5566
 2188SOL    HW118026   4.543   3.549   6.582  1.5385 -0.6442  3.2591
 2188SOL    HW218027   4.456   3.593   6.698 -0.2848  0.1546  0.5424
 2189SOL     OW18028   1.276   2.483   7.009  0.1740 -0.0577  0.1676
 2189SOL    HW118029   1.372   2.486   7.019  0.0396  1.3871  0.9942
 2189SOL    HW218030   1.243   2.393   7.011 -1.5961  0.5820 -0.3641
 2190SOL     OW18031   4.695   3.201   0.955 -0.0012  0.5352  0.1782
 2190SOL    HW118032   4.668   3.251   0.877 -1.0784  1.7475  1.3312
 2190SOL    HW218033   4.610   3.180   0.994  0.3560 -1.9163 -0.3528
 2191SOL     OW18034   1.612   1.225   7.823 -0.5259  0.2174  0.2550
 2191SOL    HW118035   1.701   1.191   7.815 -0.6282  0.4567 -2.0092
 2191SOL    HW218036   1.559   1.146   7.817 -1.2722  0.9921 -3.4770
 2192SOL     OW18037   2.953   1.569   8.701  0.2085  0.1654 -0.2058
 2192SOL    HW118038   2.862   1.545   8.680  0.4158 -0.7451 -0.0546
 2192SOL    HW218039   2.964   1.508   8.774  0.0959  0.1561 -0.1956
 2193SOL     OW18040   0.983   4.692  10.559  0.4405 -0.4607 -0.4447
 2193SOL    HW118041   1.058   0.023  10.585  0.6181 -0.5312 -0.8107
 2193SOL    HW218042   0.959   0.020  10.481 -0.7261  1.9594  1.4699
 2194SOL     OW18043   2.032   1.498   2.398  0.3971  0.3220  0.9390
 2194SOL    HW118044   1.957   1.500   2.458  0.1662  1.8750  0.6058
 2194SOL    HW218045   2.115   1.503   2.443 -0.3979  1.5549  2.2454
 2195SOL     OW18046   1.441   3.059   6.110 -0.2323 -0.2476 -0.5702
 2195SOL    HW118047   1.485   3.035   6.191  1.4207  2.3379 -0.7144
 2195SOL    HW218048   1.385   3.128   6.147 -0.3768 -1.1364  0.8766
 2196SOL     OW18049   2.013   3.701   5.022  0.1727  0.2425 -0.0183
 2196SOL    HW118050   2.044   3.737   4.939 -0.1399 -1.8981 -1.0767
 2196SOL    HW218051   2.029   3.774   5.082  0.4896 -1.7472  2.3324
 2197SOL     OW18052   2.645   2.283   7.927  0.1049 -0.8494  0.3989
 2197SOL    HW118053   2.587   2.282   7.851  1.4042  1.9416 -0.6341
 2197SOL    HW218054   2.728   2.257   7.887 -0.6423  0.5423 -2.0859
 2198SOL     OW18055   1.366   1.897   9.871  0.4708  0.0665 -0.4330
 2198SOL    HW118056   1.289   1.903   9.814 -0.1620  2.3161  0.6556
 2198SOL    HW218057   1.368   1.805   9.898 -1.1357  0.1370 -0.0168
 2199SOL     OW18058   4.488   0.443   3.253 -0.3005  0.2766  0.0612
 2199SOL    HW118059   4.430   0.385   3.302 -0.0080 -0.9297 -1.0207
 2199SOL    HW218060   4.549   0.472   3.321 -1.0205  0.7047  0.5252
 2200SOL     OW18061   2.104   3.654   2.408 -0.3908 -0.2556  0.2177
 2200SOL    HW118062   2.025   3.706   2.415 -0.0719  0.5649 -2.4420
 2200SOL    HW218063   2.134   3.649   2.499 -1.9016  0.7333  0.7681
 2201SOL     OW18064   4.483   2.048   9.798 -0.4490 -0.7010 -0.2335
 2201SOL    HW118065   4.527   1.983   9.852  0.6593  0.8887  0.7927
 2201SOL    HW218066   4.553   2.111   9.781  0.7733 -2.2399 -0.8893
 2202SOL     OW18067   2.064   4.270   6.396 -0.3176  0.1400 -0.4468
 2202SOL    HW118068   1.987   4.326   6.402 -0.0479  0.4146  0.5676
 2202SOL    HW218069   2.125   4.337   6.365  2.0862 -1.0659  1.6135
 2203SOL     OW18070   1.209   2.169  15.311  0.2121  0.2831 -0.1689
 2203SOL    HW118071   1.127   2.124  15.291  0.0178  0.1281  0.9755
 2203SOL    HW218072   1.186   2.258  15.285 -0.3981  0.0172 -0.5447
 2204SOL     OW18073   2.816   2.230   2.563 -0.5186  0.2635 -0.2410
 2204SOL    HW118074   2.897   2.181   2.577  0.2341  1.6252  0.1667
 2204SOL    HW218075   2.867   2.309   2.543 -0.3098  0.0912 -0.3900
 2205SOL     OW18076   2.078   3.253   5.899 -0.1319  0.1703 -0.3276
 2205SOL    HW118077   2.099   3.298   5.817  2.2535  1.6964  1.1226
 2205SOL    HW218078   2.159   3.239   5.947 -0.9211 -0.6098  0.7751
 2206SOL     OW18079   2.976   1.222   4.949  0.3967  0.3187 -0.0964
 2206SOL    HW118080   2.979   1.134   4.986  1.0323  0.1072 -0.6631
 2206SOL    HW218081   2.924   1.204   4.871 -0.0101  0.1524  0.2100
 2207SOL     OW18082   1.880   1.243   2.270  0.3372 -0.1741  0.3995
 2207SOL    HW118083   1.860   1.322   2.220  0.7922 -0.1841  0.1971
 2207SOL    HW218084   1.795   1.200   2.280  0.9108 -1.4077 -0.0969
 2208SOL     OW18085   4.588   2.850  12.591  0.1255 -0.2034 -0.6582
 2208SOL    HW118086   4.505   2.841  12.543  0.5321  1.7005 -1.7280
 2208SOL    HW218087   4.604   2.942  12.568 -1.3069  0.5656  1.4695
 2209SOL     OW18088   3.425   2.442  12.260 -0.6060  0.8126 -0.3541
 2209SOL    HW118089   3.398   2.411  12.174 -2.0747  0.7204  0.1527
 2209SOL    HW218090   3.365   2.389  12.312 -0.9683 -0.4999 -2.1050
 2210SOL     OW18091   0.033   4.118   5.155  0.1080 -0.1689  0.2027
 2210SOL    HW118092   4.692   4.116   5.083 -1.3728 -1.8569  1.5419
 2210SOL    HW218093   0.111   4.098   5.104  1.8697  0.1812  2.7517
 2211SOL     OW18094   2.362   4.153   4.468 -0.2000  0.0830  0.0029
 2211SOL    HW118095   2.455   4.176   4.466  0.2683 -1.9488 -2.7367
 2211SOL    HW218096   2.355   4.103   4.550  0.6601  0.0410  0.0531
 2212SOL     OW18097   2.971   0.456   0.069  0.4385  0.2422 -0.2621
 2212SOL    HW118098   2.979   0.503  17.679 -0.4620  0.5005 -0.1905
 2212SOL    HW218099   2.918   0.378   0.051 -0.3732  1.1400 -1.7173
 2213SOL     OW18100   2.750   1.944  12.463 -0.1238  0.2500 -0.1233
 2213SOL    HW118101   2.655   1.949  12.474 -0.0270  1.4635  0.0967
 2213SOL    HW218102   2.769   2.037  12.462 -0.3097  0.3351  4.2914
 2214SOL     OW18103   1.196   0.802  11.009  0.6151 -0.1952 -0.0997
 2214SOL    HW118104   1.205   0.750  10.929  0.8464  0.6594 -0.6195
 2214SOL    HW218105   1.106   0.833  11.004  1.4742  1.9440 -2.1644
 2215SOL     OW18106   3.545   0.206   7.592 -0.2281  0.1062  0.4618
 2215SOL    HW118107   3.555   0.268   7.664  1.4827 -1.2670  1.4215
 2215SOL    HW218108   3.455   0.221   7.565 -0.5712 -1.0051  0.9645
 2216SOL     OW18109   3.328   3.556   8.889  0.3547 -0.4789 -0.2375
 2216SOL    HW118110   3.252   3.611   8.908  0.7755 -0.2631  0.8333
 2216SOL    HW218111   3.346   3.533   8.980 -0.4195 -0.0327  0.0238
 2217SOL     OW18112   2.230   3.504   5.076  0.3294  0.5410 -0.7388
 2217SOL    HW118113   2.175   3.560   5.021 -3.2801 -1.2473  1.0717
 2217SOL    HW218114   2.165   3.434   5.081  0.9538  0.1023  1.1908
 2218SOL     OW18115   3.747   4.716   8.060  0.2784  0.4416 -0.2355
 2218SOL    HW118116   3.691   0.012   8.136  0.2211 -0.0238 -0.1589
 2218SOL    HW218117   3.834   4.695   8.093 -0.3354  0.5064  1.4597
 2219SOL     OW18118   2.071   4.701   9.978  0.1044  0.3900 -0.0001
 2219SOL    HW118119   2.128   0.047  10.011  1.9749 -1.4931  0.7020
 2219SOL    HW218120   1.986   0.020   9.995  0.5485  0.0795  3.0345
 2220SOL     OW18121   4.201   2.308  10.371  0.3145 -0.1049  0.1316
 2220SOL    HW118122   4.221   2.389  10.418 -1.3790 -0.8554  2.1703
 2220SOL    HW218123   4.198   2.251  10.449 -0.8713 -1.4145 -0.8644
 2221SOL     OW18124   3.903   0.097   8.607 -0.4990 -0.5317 -0.1057
 2221SOL    HW118125   3.956   0.134   8.536  0.3407 -0.6097  0.4734
 2221SOL    HW218126   3.970   0.067   8.668 -0.0444 -2.6794 -1.6707
 2222SOL     OW18127   4.383   0.334   2.857 -0.3707  0.3013  0.5005
 2222SOL    HW118128   4.393   0.335   2.762  1.5769  1.3563  0.7141
 2222SOL    HW218129   4.466   0.371   2.886 -0.0280  0.7087 -1.0013
 2223SOL     OW18130   4.574   4.220   9.392 -0.1735  0.2669 -0.7426
 2223SOL    HW118131   4.573   4.125   9.385  4.5092  0.0897  0.6004
 2223SOL    HW218132   4.668   4.234   9.408  0.5089 -1.2975 -3.2197
 2224SOL     OW18133   2.206   4.506   3.788  0.0247  0.4873 -0.2799
 2224SOL    HW118134   2.210   4.551   3.873  1.1062 -2.8534  1.4201
 2224SOL    HW218135   2.156   4.567   3.733 -1.5936 -0.7034 -0.1331
 2225SOL     OW18136   3.241   3.692   3.502  0.3940  0.0719 -0.4062
 2225SOL    HW118137   3.165   3.642   3.474 -2.0139  2.3308  2.0263
 2225SOL    HW218138   3.212   3.784   3.499  0.3818  0.0808 -0.0040
 2226SOL     OW18139   2.004   2.364   5.357  0.5650  0.5545  0.1134
 2226SOL    HW118140   2.014   2.302   5.429 -3.5469  1.0933  1.1516
 2226SOL    HW218141   2.021   2.442   5.411 -1.0150  0.1987  1.1406
 2227SOL     OW18142   4.625   0.865   7.967  0.3229 -0.0752 -0.1443
 2227SOL    HW118143   4.583   0.914   8.038  0.6817 -0.6976  0.5034
 2227SOL    HW218144   4.563   0.792   7.969  0.5584 -0.2752 -0.1543
 2228SOL     OW18145   3.989   1.592  16.273  0.3533 -0.4048  0.2179
 2228SOL    HW118146   3.917   1.624  16.219 -0.1287 -1.6153  0.1434
 2228SOL    HW218147   4.044   1.670  16.277  1.5957 -1.2364 -0.7856
 2229SOL     OW18148   2.681   2.009   9.328  0.3155  0.0100  0.1264
 2229SOL    HW118149   2.691   1.964   9.244  0.9902 -2.5757  1.5769
 2229SOL    HW218150   2.719   1.940   9.383 -0.4371 -2.5391 -2.5261
 2230SOL     OW18151   4.475   0.798   1.116 -0.0496 -0.1635 -0.3087
 2230SOL    HW118152   4.405   0.859   1.138  1.5435  2.1069 -1.5529
 2230SOL    HW218153   4.475   0.725   1.178 -0.3362  0.9417  0.9647
 2231SOL     OW18154   3.916   0.345   2.189  0.5995  0.0962 -0.2231
 2231SOL    HW118155   3.871   0.294   2.257  3.4222  0.4405  1.9081
 2231SOL    HW218156   3.882   0.291   2.118 -1.2213 -1.4660  1.8688
 2232SOL     OW18157   4.361   1.096   5.461 -0.1258 -0.6421  0.6164
 2232SOL    HW118158   4.434   1.039   5.438  0.3525  0.8989 -1.6683
 2232SOL    HW218159   4.359   1.148   5.381  0.0788 -0.0119  1.0210
 2233SOL     OW18160   1.939   3.573   6.218 -0.0319 -0.1840 -0.9045
 2233SOL    HW118161   1.919   3.601   6.129 -2.2022  0.9556 -0.0678
 2233SOL    HW218162   1.879   3.630   6.266  0.1226 -1.2152  0.5071
 2234SOL     OW18163   2.477   3.183   4.480 -0.5207  0.0249 -0.2729
 2234SOL    HW118164   2.487   3.205   4.573 -0.3603  0.0491 -0.2948
 2234SOL    HW218165   2.545   3.246   4.456  2.3474 -2.1264  2.2698
 2235SOL     OW18166   2.448   0.874   5.871  0.0738  0.1355  0.1658
 2235SOL    HW118167   2.357   0.883   5.898  0.1529 -0.9228  0.8212
 2235SOL    HW218168   2.443   0.811   5.799 -2.5497  0.9607 -0.3571
 2236SOL     OW18169   0.543   3.013   6.489 -0.6838 -0.2327 -0.5195
 2236SOL    HW118170   0.504   3.055   6.413 -1.7057  0.9651  0.6768
 2236SOL    HW218171   0.560   3.090   6.543  0.2018 -1.7194  1.3500
 2237SOL     OW18172   2.709   2.347   4.963 -0.4909 -0.0170 -0.0422
 2237SOL    HW118173   2.692   2.420   4.903  0.4880  0.0624 -0.2213
 2237SOL    HW218174   2.804   2.339   4.961 -0.4902  0.2678 -1.7551
 2238SOL     OW18175   4.395   4.408  10.602 -0.0617  0.3616  0.2068
 2238SOL    HW118176   4.453   4.438  10.673 -0.6621  0.2651  0.7399
 2238SOL    HW218177   4.460   4.356  10.555  1.1999  1.8494  0.2590
 2239SOL     OW18178   0.119   0.921  15.293 -0.5678 -0.2070  0.0050
 2239SOL    HW118179   0.034   0.934  15.250 -0.1553  1.9932 -0.1769
 2239SOL    HW218180   0.124   0.826  15.304 -0.3953  0.0604  2.2543
 2240SOL     OW18181   0.585   0.176   2.217  0.3389  0.1812 -0.0016
 2240SOL    HW118182   0.536   0.112   2.166 -2.2565  1.1472  1.2590
 2240SOL    HW218183   0.621   0.240   2.157 -0.2131  0.7413  0.2714
 2241SOL     OW18184   3.237   2.792  16.202 -0.4252 -0.3388  0.4500
 2241SOL    HW118185   3.294   2.854  16.248 -1.3848  1.6258 -1.0164
 2241SOL    HW218186   3.272   2.711  16.240  0.0357 -0.0563  0.6292
 2242SOL     OW18187   4.299   4.268   8.414 -0.8784  0.2407 -0.1954
 2242SOL    HW118188   4.368   4.291   8.476 -0.3205  2.2535 -1.5492
 2242SOL    HW218189   4.296   4.178   8.446  0.5349  0.5411  0.7995
 2243SOL     OW18190   1.739   0.763   7.516  0.1318 -0.3469  0.0612
 2243SOL    HW118191   1.680   0.837   7.501 -0.4576 -0.0518  3.7989
 2243SOL    HW218192   1.749   0.776   7.610 -0.7486  0.4124  0.0489
 2244SOL     OW18193   2.795   4.485   6.566 -0.3432 -0.0163  0.7100
 2244SOL    HW118194   2.710   4.468   6.606 -0.7453 -0.0341 -0.1584
 2244SOL    HW218195   2.791   4.580   6.558 -1.4046  0.1022  2.6317
 2245SOL     OW18196   0.963   3.926   2.491 -0.2799  0.4747 -0.1940
 2245SOL    HW118197   0.974   3.849   2.546  0.5834  1.0584  0.4453
 2245SOL    HW218198   0.921   3.888   2.414  0.7633 -0.5588 -0.2540
 2246SOL     OW18199   3.334   1.511   1.792 -0.3048  0.0208  0.2823
 2246SOL    HW118200   3.338   1.543   1.702  0.8709  0.5076  0.5108
 2246SOL    HW218201   3.240   1.511   1.813 -0.2322  0.9453  0.6017
 2247SOL     OW18202   2.812   1.922   7.578 -0.7705  0.0959  0.4881
 2247SOL    HW118203   2.879   1.920   7.647 -0.6808  1.5059  0.4420
 2247SOL    HW218204   2.855   1.977   7.512  0.8677 -0.0222  1.4408
 2248SOL     OW18205   3.508   3.171   6.245  0.0851 -0.1058 -0.5384
 2248SOL    HW118206   3.567   3.147   6.317  1.5930  1.1796 -1.3356
 2248SOL    HW218207   3.436   3.116   6.275  0.3620  0.1818  0.6609
 2249SOL     OW18208   0.511   1.578  10.550 -0.0548 -0.0905 -0.0945
 2249SOL    HW118209   0.540   1.595  10.461  0.1036 -0.8173 -0.1754
 2249SOL    HW218210   0.534   1.486  10.556  0.4934 -0.0023 -0.8325
 2250SOL     OW18211   2.723   4.039  12.129  0.3788 -0.4993  0.0228
 2250SOL    HW118212   2.759   3.952  12.145 -0.7598 -0.8709  0.5195
 2250SOL    HW218213   2.795   4.089  12.168  0.2533  0.3182 -0.7939
 2251SOL     OW18214   4.094   3.615   1.121  0.5103  0.2288  1.2577
 2251SOL    HW118215   4.099   3.536   1.174  0.3332  0.3591  1.4662
 2251SOL    HW218216   4.139   3.585   1.042  1.3983  0.2507  1.7577
 2252SOL     OW18217   0.767   1.124   3.679  0.0548 -0.0865  0.2123
 2252SOL    HW118218   0.679   1.107   3.646 -0.1430 -0.4547  0.9358
 2252SOL    HW218219   0.755   1.189   3.749  0.5327  1.5165 -1.1859
 2253SOL     OW18220   4.400   1.693  16.641  0.2712 -0.6903 -0.7386
 2253SOL    HW118221   4.377   1.652  16.724  0.2016  0.0345 -0.3922
 2253SOL    HW218222   4.316   1.704  16.597 -0.9808  0.2667  1.8689
 2254SOL     OW18223   4.631   3.654  14.966 -0.3799 -0.1072  1.1392
 2254SOL    HW118224   4.684   3.677  14.890 -1.4814 -0.1172  0.3577
 2254SOL    HW218225   4.551   3.663  14.913 -0.4570 -2.3481  0.8670
 2255SOL     OW18226   1.126   1.501   4.536 -0.0024 -0.1829 -0.0689
 2255SOL    HW118227   1.147   1.427   4.593  1.6414  0.2712 -0.0886
 2255SOL    HW218228   1.210   1.533   4.503  0.5472 -1.8215 -0.2787
 2256SOL     OW18229   2.513   1.490   5.583  0.0340  0.3490 -0.3916
 2256SOL    HW118230   2.589   1.437   5.560 -0.0604  0.3855 -0.7740
 2256SOL    HW218231   2.563   1.567   5.611  0.8775 -0.1211 -0.6117
 2257SOL     OW18232   2.987   3.387  15.899  0.3343 -0.1592  0.0386
 2257SOL    HW118233   2.924   3.435  15.952 -0.8784 -1.9095  0.1788
 2257SOL    HW218234   2.944   3.396  15.814 -1.8632 -0.6557  1.0899
 2258SOL     OW18235   0.273   0.784   1.011 -0.5270  0.2346 -0.3558
 2258SOL    HW118236   0.337   0.726   1.053  0.3517  0.0859 -1.9072
 2258SOL    HW218237   0.323   0.839   0.951 -0.7010 -1.6281 -2.2032
 2259SOL     OW18238   3.932   0.908   4.721 -0.0590 -0.1905 -0.5681
 2259SOL    HW118239   3.847   0.931   4.683 -1.3884 -2.5326  0.9372
 2259SOL    HW218240   3.993   0.906   4.648 -1.0109 -0.5444 -1.3546
 2260SOL     OW18241   1.272   2.170   0.386  0.5710  0.1032 -0.1480
 2260SOL    HW118242   1.177   2.181   0.381  0.9377  3.5465 -0.2127
 2260SOL    HW218243   1.282   2.153   0.479 -0.5464 -1.2100 -0.2742
 2261SOL     OW18244   3.673   3.897  16.775  0.2729  0.4542 -0.7209
 2261SOL    HW118245   3.714   3.825  16.727 -0.1741 -0.8078  0.7889
 2261SOL    HW218246   3.587   3.865  16.799 -0.2098 -0.2086 -3.3567
 2262SOL     OW18247   1.991   0.761   1.557  0.1197 -0.1487 -0.0009
 2262SOL    HW118248   1.916   0.784   1.612  1.5266  1.5220  1.2258
 2262SOL    HW218249   1.992   0.833   1.495 -1.0386  0.1344  0.3152
 2263SOL     OW18250   4.694   4.200   9.701 -0.2252 -0.3282  0.6628
 2263SOL    HW118251   4.635   4.127   9.687 -2.6809  1.6450  0.7613
 2263SOL    HW218252   0.022   4.186   9.621 -2.5909 -0.0843 -0.8512
 2264SOL     OW18253   1.412   3.547   0.048  0.0414 -0.4482 -0.2041
 2264SOL    HW118254   1.444   3.551  17.650  1.1123  0.0161  0.1943
 2264SOL    HW218255   1.415   3.638   0.076  0.1611 -0.0132 -1.5939
 2265SOL     OW18256   0.108   3.262   5.495 -0.2072  0.0283  0.0062
 2265SOL    HW118257   0.018   3.232   5.505 -0.3088  0.8481  1.5872
 2265SOL    HW218258   0.106   3.346   5.540 -1.4202 -0.2015  0.3674
 2266SOL     OW18259   1.476   4.451   6.177  0.6148  0.0449 -0.6050
 2266SOL    HW118260   1.513   4.520   6.123  5.0217 -0.3260  1.9397
 2266SOL    HW218261   1.459   4.390   6.105  0.4947 -1.9449  1.1301
 2267SOL     OW18262   1.858   3.230   9.490 -0.0370  0.4099 -0.7399
 2267SOL    HW118263   1.941   3.275   9.476 -0.1302  0.9580  0.4399
 2267SOL    HW218264   1.800   3.274   9.428  0.4202  1.3048 -0.5235
 2268SOL     OW18265   0.247   2.962   8.483  0.1232 -0.0195 -0.4073
 2268SOL    HW118266   0.163   2.926   8.511 -0.3476  0.0173 -1.7730
 2268SOL    HW218267   0.246   3.044   8.532  0.7293 -1.0757  1.3658
 2269SOL     OW18268   1.211   1.080   7.426 -0.3415  0.2797  0.1085
 2269SOL    HW118269   1.251   1.124   7.350  2.3252  1.4223  2.1690
 2269SOL    HW218270   1.126   1.060   7.387 -0.2950  1.9470 -0.8542
 2270SOL     OW18271   3.261   3.304   5.154  0.4137  0.1902  0.2542
 2270SOL    HW118272   3.186   3.362   5.170 -0.3904 -0.8188  0.1913
 2270SOL    HW218273   3.266   3.318   5.060  2.3163 -1.0408  0.1710
 2271SOL     OW18274   3.681   4.010   5.401 -0.7253  0.1311  0.0658
 2271SOL    HW118275   3.676   4.002   5.497 -0.4544 -1.0992 -0.0270
 2271SOL    HW218276   3.771   3.985   5.380 -0.3624  0.5870  1.0715
 2272SOL     OW18277   2.199   3.700  12.916 -0.2067  0.4027  0.1415
 2272SOL    HW118278   2.212   3.785  12.873 -0.0615 -0.1249 -0.8554
 2272SOL    HW218279   2.178   3.649  12.838  2.8698  0.9588 -1.0351
 2273SOL     OW18280   3.023   2.406   5.537  0.4009 -0.1704 -0.1886
 2273SOL    HW118281   2.993   2.450   5.616  0.3743 -0.2549 -0.1515
 2273SOL    HW218282   2.934   2.391   5.505  0.1058 -0.0021  0.5556
 2274SOL     OW18283   3.869   1.758   7.400  0.4546 -0.1617 -0.3240
 2274SOL    HW118284   3.912   1.684   7.359  0.8857 -0.9102  1.4876
 2274SOL    HW218285   3.858   1.822   7.331 -0.6975  0.8389  0.7758
 2275SOL     OW18286   2.130   3.294  13.772  0.1710  0.4613  0.1805
 2275SOL    HW118287   2.140   3.218  13.716 -2.5123 -1.2045  1.9735
 2275SOL    HW218288   2.207   3.278  13.827 -1.3258 -0.2570  2.0689
 2276SOL     OW18289   3.595   0.591   1.297  0.1147 -0.0445  0.1451
 2276SOL    HW118290   3.533   0.528   1.260 -1.7803  2.6069 -1.1426
 2276SOL    HW218291   3.546   0.673   1.301  2.0055  0.9782  2.5252
 2277SOL     OW18292   2.466   2.789   6.893 -0.0808  0.2568  0.3963
 2277SOL    HW118293   2.451   2.854   6.962 -0.4570  0.5380  0.0481
 2277SOL    HW218294   2.396   2.728   6.917  0.4322  0.1247  1.5309
 2278SOL     OW18295   1.292   1.257   7.212 -0.1867 -0.6657  0.6122
 2278SOL    HW118296   1.330   1.258   7.125  0.2808 -1.5519  0.8152
 2278SOL    HW218297   1.201   1.283   7.199  0.3210  0.5929 -0.4703
 2279SOL     OW18298   4.620   0.697   4.142  0.3717  0.6479  0.2142
 2279SOL    HW118299   4.683   0.752   4.187  0.8921  0.4798 -0.3120
 2279SOL    HW218300   4.559   0.748   4.088 -0.5713  0.7826  1.3946
 2280SOL     OW18301   4.579   0.305   5.312 -0.0818  0.2238 -0.0881
 2280SOL    HW118302   4.604   0.396   5.295  0.8607 -0.4904 -2.5677
 2280SOL    HW218303   4.485   0.313   5.322 -0.1545 -0.4566 -0.2205
 2281SOL     OW18304   3.957   1.434   6.565  0.0506  0.2781  0.3111
 2281SOL    HW118305   4.032   1.416   6.509  0.5632  2.1893  0.3765
 2281SOL    HW218306   4.009   1.481   6.631  0.0381 -0.9817  1.2266
 2282SOL     OW18307   1.212   4.581   1.155 -0.6232 -0.4923  0.1288
 2282SOL    HW118308   1.252   4.655   1.200 -1.3413 -0.3082  0.4643
 2282SOL    HW218309   1.194   4.529   1.233  0.1667 -0.0329  0.6166
 2283SOL     OW18310   3.882   0.465  13.823  0.0169  0.1466  0.1543
 2283SOL    HW118311   3.858   0.485  13.913 -0.7226  2.4350 -0.5547
 2283SOL    HW218312   3.945   0.534  13.803 -1.4208  2.0725  2.3218
 2284SOL     OW18313   0.895   0.386   4.980  0.2562 -0.5816 -0.0953
 2284SOL    HW118314   0.890   0.295   4.951  2.8798 -0.7649 -0.0033
 2284SOL    HW218315   0.984   0.410   4.955  0.1451 -1.7168 -1.5851
 2285SOL     OW18316   0.118   1.247  10.201  0.5404 -0.0712  0.1786
 2285SOL    HW118317   0.125   1.201  10.285  1.4752  0.8535  0.5969
 2285SOL    HW218318   0.207   1.281  10.198 -1.2190  4.2794 -2.1613
 2286SOL     OW18319   0.769   0.627   8.043 -0.2108 -0.7331 -0.5748
 2286SOL    HW118320   0.712   0.663   8.111 -2.2711 -2.0302 -1.6368
 2286SOL    HW218321   0.784   0.540   8.079  2.3720 -0.0432  0.0689
 2287SOL     OW18322   2.305   1.935   8.677 -0.0168 -0.2845  0.3206
 2287SOL    HW118323   2.253   1.919   8.598 -0.6832 -2.8282  1.2775
 2287SOL    HW218324   2.230   1.958   8.731 -0.1301 -1.2693  0.5693
 2288SOL     OW18325   0.085   4.635  16.688 -0.4733  0.0135  0.0119
 2288SOL    HW118326   0.074   4.672  16.775 -0.2985 -1.2831  0.5795
 2288SOL    HW218327   0.139   4.707  16.654 -1.3662  1.0574  0.7994
 2289SOL     OW18328   2.894   1.674   5.069 -0.2386  0.0618 -0.1512
 2289SOL    HW118329   2.964   1.681   5.135 -1.5816  0.3144  1.2377
 2289SOL    HW218330   2.869   1.585   5.096  2.2182 -0.8339 -0.7447
 2290SOL     OW18331   3.974   1.512  14.533 -0.1096  0.2539  0.5795
 2290SOL    HW118332   3.914   1.579  14.563 -3.2491 -1.5648 -1.6602
 2290SOL    HW218333   3.995   1.463  14.613  1.0044 -1.7521 -0.9322
 2291SOL     OW18334   1.067   3.613   4.305 -0.2303 -0.6047 -0.6026
 2291SOL    HW118335   1.107   3.634   4.389  1.2740  0.1290 -1.5055
 2291SOL    HW218336   1.052   3.519   4.320  0.9884 -0.7654 -0.3730
 2292SOL     OW18337   0.630   3.050   5.872 -0.4764  0.1278 -0.0033
 2292SOL    HW118338   0.616   3.005   5.956  0.5901 -0.6732 -0.2631
 2292SOL    HW218339   0.705   3.100   5.905  0.2304 -1.1380  0.3222
 2293SOL     OW18340   2.141   1.174  12.328 -0.2216  0.2420 -0.6006
 2293SOL    HW118341   2.087   1.096  12.312  0.7570 -0.2965 -1.2572
 2293SOL    HW218342   2.186   1.183  12.245 -0.0974  0.1471 -0.5435
 2294SOL     OW18343   1.409   4.327  13.639  0.0583  0.1910  0.0067
 2294SOL    HW118344   1.446   4.409  13.671 -0.5667 -0.9348  3.5839
 2294SOL    HW218345   1.315   4.346  13.646  0.4355  1.9586  0.3814
 2295SOL     OW18346   0.602   2.858  13.614  0.1216  0.1539 -0.2514
 2295SOL    HW118347   0.596   2.831  13.522  1.4193 -0.7981 -0.0652
 2295SOL    HW218348   0.671   2.798  13.644 -1.4142 -0.6496  1.6679
 2296SOL     OW18349   4.484   3.432   7.740 -0.1364 -0.0498  0.2013
 2296SOL    HW118350   4.417   3.435   7.807 -0.6652  0.8521 -0.3652
 2296SOL    HW218351   4.566   3.455   7.783 -0.2543  1.7320 -0.5173
 2297SOL     OW18352   1.512   4.628   2.395  0.1111 -0.0723  0.0392
 2297SOL    HW118353   1.421   4.609   2.372 -0.3194  2.2088 -0.0994
 2297SOL    HW218354   1.518   4.636   2.490  1.6219  1.9405 -0.2204
 2298SOL     OW18355   2.917   4.156  12.279  0.4102  0.4800 -0.5845
 2298SOL    HW118356   2.900   4.167  12.372 -0.7267  0.7874 -0.8272
 2298SOL    HW218357   3.000   4.108  12.281  0.4612  0.5739 -0.4931
 2299SOL     OW18358   4.673   0.094   9.209  0.3054 -0.8805 -0.5259
 2299SOL    HW118359   4.597   0.044   9.240  0.2991  0.2887  1.3044
 2299SOL    HW218360   4.696   0.139   9.290 -1.0842 -0.9582 -0.0924
 2300SOL     OW18361   3.168   3.183   9.819  0.2928  0.0876  0.7562
 2300SOL    HW118362   3.087   3.195   9.868 -0.5587 -0.4364 -0.5235
 2300SOL    HW218363   3.173   3.088   9.825 -0.2258 -0.0870 -1.3830
 2301SOL     OW18364   3.805   2.335  14.149  0.3120 -0.4504 -0.3404
 2301SOL    HW118365   3.881   2.370  14.195  1.3269 -1.1608 -1.4912
 2301SOL    HW218366   3.804   2.382  14.065 -1.6354 -1.6004 -0.9645
 2302SOL     OW18367   2.820   3.154   2.032  0.0244  0.2813  0.0738
 2302SOL    HW118368   2.845   3.246   2.034  0.7840  0.0256  2.7239
 2302SOL    HW218369   2.771   3.153   2.115  0.0887  1.3369  0.1308
 2303SOL     OW18370   3.687   0.620  15.544 -0.0952 -0.3166 -0.3333
 2303SOL    HW118371   3.752   0.585  15.483  0.2933  1.9199 -1.1931
 2303SOL    HW218372   3.706   0.555  15.612 -0.1247 -1.1726 -1.1444
 2304SOL     OW18373   2.708   1.007  10.877 -0.2788 -0.1966  0.2121
 2304SOL    HW118374   2.721   1.079  10.939  1.3831 -0.5683  0.2852
 2304SOL    HW218375   2.618   0.975  10.879  1.1211 -4.0500  1.5109
 2305SOL     OW18376   1.944   1.583   4.006  0.1719  0.1245  0.1876
 2305SOL    HW118377   1.861   1.625   3.984 -0.0149 -0.9774 -1.2467
 2305SOL    HW218378   1.957   1.525   3.931  2.1746 -0.5478  1.0656
 2306SOL     OW18379   0.581   2.295  17.068  0.2357 -0.5111  0.4034
 2306SOL    HW118380   0.543   2.331  16.988  0.0502 -1.2694  0.1504
 2306SOL    HW218381   0.656   2.355  17.078 -0.5805  0.8090 -1.4559
 2307SOL     OW18382   0.954   1.845  15.093 -0.2582  0.2689  0.3604
 2307SOL    HW118383   1.031   1.821  15.042  0.2427  1.8569  0.3589
 2307SOL    HW218384   0.896   1.893  15.034  2.9618  1.8473 -1.5466
 2308SOL     OW18385   2.997   2.109   8.846 -0.0333  0.2956  0.4416
 2308SOL    HW118386   2.913   2.070   8.821  0.7691 -1.2350  0.1248
 2308SOL    HW218387   3.044   2.030   8.873 -2.0652 -0.5777  1.3973
 2309SOL     OW18388   0.029   1.815   5.534 -0.5911 -0.3614 -0.4147
 2309SOL    HW118389   0.119   1.788   5.513 -0.5842  0.6885 -1.7436
 2309SOL    HW218390   0.046   1.848   5.622  0.3318 -0.2778 -0.6145
 2310SOL     OW18391   0.968   2.066   5.243 -0.2456 -0.2701  0.0434
 2310SOL    HW118392   1.044   2.122   5.228 -0.4526  0.6124  2.2407
 2310SOL    HW218393   0.952   2.074   5.337  1.1865 -0.9118  0.3483
 2311SOL     OW18394   1.733   2.838   0.067 -0.6094 -0.5709 -0.7261
 2311SOL    HW118395   1.821   2.864   0.093  0.3089 -0.8121 -3.5622
 2311SOL    HW218396   1.696   2.926   0.061  1.5026  0.2928 -1.3356
 2312SOL     OW18397   4.332   0.659  12.790  0.2064 -0.0938  0.0783
 2312SOL    HW118398   4.330   0.755  12.783 -2.4841 -0.1327  0.3275
 2312SOL    HW218399   4.334   0.639  12.697 -2.4898  0.4933 -0.1262
 2313SOL     OW18400   1.120   1.007   3.379 -0.1348  0.6981 -0.5467
 2313SOL    HW118401   1.203   1.053   3.364  0.7281 -1.1666 -1.5150
 2313SOL    HW218402   1.151   0.919   3.402  0.1407  0.3323 -2.3213
 2314SOL     OW18403   0.296   0.066   0.761 -0.6476  0.1633  0.2778
 2314SOL    HW118404   0.274   0.023   0.678  3.5706 -0.7288 -0.3826
 2314SOL    HW218405   0.294   4.716   0.823 -1.0816  0.0893  0.1773
 2315SOL     OW18406   1.030   1.254   2.660  0.4777 -0.3600 -0.4171
 2315SOL    HW118407   0.998   1.345   2.661  0.5990 -0.3508  1.5593
 2315SOL    HW218408   1.120   1.270   2.687 -0.2252 -0.6551  2.0715
 2316SOL     OW18409   0.246   3.837  16.406 -0.5211 -0.0540 -0.1950
 2316SOL    HW118410   0.200   3.771  16.457  2.4481 -0.7927  1.5252
 2316SOL    HW218411   0.270   3.913  16.458  0.9623  1.0921 -2.5290
 2317SOL     OW18412   2.178   4.091   9.676 -0.0807  0.0589  0.1302
 2317SOL    HW118413   2.227   4.012   9.698  0.0375 -0.0972 -0.6840
 2317SOL    HW218414   2.154   4.130   9.760  2.0546  0.2495  0.6294
 2318SOL     OW18415   2.820   4.696   3.922 -0.1216  0.0574  0.3222
 2318SOL    HW118416   2.789   0.033   3.990  1.4794 -1.4139  2.3393
 2318SOL    HW218417   2.889   4.642   3.960 -0.7168 -0.9924 -0.0988
 2319SOL     OW18418   1.339   0.203   6.189 -0.1075 -0.1248  0.1095
 2319SOL    HW118419   1.289   0.238   6.263 -0.7917  0.9240 -0.8401
 2319SOL    HW218420   1.395   0.135   6.226  0.0424 -0.3076 -0.4587
 2320SOL     OW18421   3.868   4.597   5.748  0.6214 -0.4372 -0.5051
 2320SOL    HW118422   3.846   4.652   5.824  0.4696 -0.3517 -0.6110
 2320SOL    HW218423   3.931   4.537   5.787  1.6180  1.2912  0.5736
 2321SOL     OW18424   1.565   1.100  14.950  0.1588  0.2470 -0.4145
 2321SOL    HW118425   1.614   1.182  14.960 -0.6032  0.4315  1.9917
 2321SOL    HW218426   1.646   1.051  14.934  1.0895  2.1607 -1.5621
 2322SOL     OW18427   1.067   2.696   0.823 -0.8129  0.4507 -0.8293
 2322SOL    HW118428   1.080   2.752   0.746 -0.5642  0.3175 -0.8846
 2322SOL    HW218429   1.006   2.748   0.876  0.0518  0.5589  0.0544
 2323SOL     OW18430   1.363   3.654   1.798 -0.3252  0.0221 -0.3493
 2323SOL    HW118431   1.434   3.614   1.849 -1.2822  1.4510  2.0567
 2323SOL    HW218432   1.374   3.621   1.709 -1.8741 -0.4060 -0.3692
 2324SOL     OW18433   0.910   2.571   9.009  0.1336  0.5664  0.4831
 2324SOL    HW118434   0.987   2.567   9.066  0.4767 -1.2190 -0.1009
 2324SOL    HW218435   0.946   2.624   8.939 -1.9636 -1.7149 -2.3241
 2325SOL     OW18436   3.118   4.511   7.817  0.0174 -0.1386  0.0416
 2325SOL    HW118437   3.079   4.542   7.899  1.7023  1.5253  0.2007
 2325SOL    HW218438   3.207   4.497   7.848 -0.0080 -1.5450 -0.5172
 2326SOL     OW18439   3.857   0.719   7.616 -0.0858  0.0050  0.2267
 2326SOL    HW118440   3.781   0.732   7.560 -1.1510  0.1191  1.6914
 2326SOL    HW218441   3.837   0.780   7.687  0.4943  0.9348 -0.4160
 2327SOL     OW18442   0.692   2.000   8.890  0.2130 -0.1930  0.0750
 2327SOL    HW118443   0.603   1.969   8.906  0.8289 -0.4911  2.9066
 2327SOL    HW218444   0.750   1.936   8.930 -0.3189 -2.6301 -3.0314
 2328SOL     OW18445   4.504   1.941  17.461 -0.1242 -0.2835  0.1832
 2328SOL    HW118446   4.431   1.918  17.518  0.5892 -0.3162  1.0837
 2328SOL    HW218447   4.567   1.872  17.478  1.4439  0.9315 -0.6371
 2329SOL     OW18448   1.875   3.296   5.343  0.3416  0.1248 -0.2510
 2329SOL    HW118449   1.785   3.266   5.361  0.1790  0.4664 -0.4917
 2329SOL    HW218450   1.854   3.382   5.307  1.4426  1.6829  2.8340
 2330SOL     OW18451   1.574   3.678   2.708 -0.0408 -0.2504  0.1799
 2330SOL    HW118452   1.658   3.717   2.732  0.1710 -0.1005 -0.8005
 2330SOL    HW218453   1.506   3.742   2.733 -0.3221 -0.6465  0.4229
 2331SOL     OW18454   3.787   1.519   8.918 -0.3835 -0.3274  0.2787
 2331SOL    HW118455   3.776   1.498   8.825 -2.7447  2.4216 -0.0699
 2331SOL    HW218456   3.700   1.549   8.944  0.3666  0.9338  1.3168
 2332SOL     OW18457   0.438   4.307   0.467 -0.2859  0.6256  0.2519
 2332SOL    HW118458   0.492   4.382   0.442  0.8044  0.0277  0.7931
 2332SOL    HW218459   0.493   4.276   0.539 -1.5891 -1.5105  0.3117
 2333SOL     OW18460   4.161   0.212   4.778 -0.1240 -0.1983 -0.1408
 2333SOL    HW118461   4.119   0.126   4.770 -0.7899  0.2973 -2.0628
 2333SOL    HW218462   4.145   0.251   4.692  0.5414  1.2613  0.3999
 2334SOL     OW18463   4.159   2.130   3.020  0.1196  0.2522  0.3137
 2334SOL    HW118464   4.157   2.036   3.035 -0.7162  0.0289 -1.1356
 2334SOL    HW218465   4.218   2.171   3.083  2.2018 -3.9079  1.0170
 2335SOL     OW18466   4.337   3.230   8.294 -0.1924  0.2705 -0.2539
 2335SOL    HW118467   4.361   3.147   8.336  1.6388  1.1371  0.3992
 2335SOL    HW218468   4.426   3.265   8.291 -1.0853  2.4262 -1.5946
 2336SOL     OW18469   3.396   3.389   4.176 -0.2182 -0.3287 -0.3935
 2336SOL    HW118470   3.381   3.336   4.098 -0.8133 -1.2682  0.3543
 2336SOL    HW218471   3.412   3.472   4.132  1.7121  0.0097  0.9093
 2337SOL     OW18472   2.546   4.031   4.865  0.3152  0.8060 -0.6929
 2337SOL    HW118473   2.616   3.978   4.903 -0.1085  1.3972  0.9242
 2337SOL    HW218474   2.543   3.993   4.778 -0.5204 -1.9655  0.5416
 2338SOL     OW18475   1.216   1.146  15.819  0.1588  0.3069  0.0405
 2338SOL    HW118476   1.145   1.198  15.856  0.4156  0.1668  0.7247
 2338SOL    HW218477   1.286   1.175  15.877 -1.7755  1.6825  1.6781
 2339SOL     OW18478   1.155   2.322   7.350 -0.2250  0.5336 -0.0581
 2339SOL    HW118479   1.064   2.345   7.333  0.1057  1.8137 -0.1211
 2339SOL    HW218480   1.168   2.397   7.409  0.6056 -0.0246  0.4710
 2340SOL     OW18481   3.970   1.278   5.423 -0.2041 -0.0631 -0.4586
 2340SOL    HW118482   4.053   1.317   5.451  0.2452 -0.4812 -1.2160
 2340SOL    HW218483   3.904   1.335   5.463  1.1602 -0.6725  2.6340
 2341SOL     OW18484   3.817   4.578   5.198 -0.1042  0.1963 -0.1600
 2341SOL    HW118485   3.872   4.512   5.241 -1.3761  0.6255  2.1360
 2341SOL    HW218486   3.876   4.646   5.230  2.2970 -1.0157 -2.0569
 2342SOL     OW18487   1.311   1.694   2.655 -0.0580 -0.0011 -0.5173
 2342SOL    HW118488   1.321   1.745   2.735  1.6076 -1.9248  0.4907
 2342SOL    HW218489   1.285   1.762   2.592  1.2618  1.4637  0.5145
 2343SOL     OW18490   2.479   0.383   5.194  0.2603 -0.0483  0.2096
 2343SOL    HW118491   2.527   0.462   5.218 -1.4871  1.5538 -1.5297
 2343SOL    HW218492   2.447   0.358   5.280  0.4882  1.3374  0.6998
 2344SOL     OW18493   1.202   0.132  14.815 -0.2313 -0.5312 -0.4056
 2344SOL    HW118494   1.129   0.083  14.775 -1.7534  0.3508  1.2988
 2344SOL    HW218495   1.280   0.121  14.761  0.6301 -2.3340  1.2057
 2345SOL     OW18496   0.244   1.860  16.836 -0.0718  0.3287 -0.2005
 2345SOL    HW118497   0.229   1.877  16.929  1.7230  1.6678 -0.1683
 2345SOL    HW218498   0.277   1.947  16.814 -1.4478  0.7465 -0.6214
 2346SOL     OW18499   2.377   1.955   4.460 -0.1870 -0.2689  0.2134
 2346SOL    HW118500   2.331   1.917   4.385  2.1764  0.2706 -1.5061
 2346SOL    HW218501   2.343   2.045   4.462 -0.7749 -0.4756 -0.6042
 2347SOL     OW18502   0.366   3.900   0.462 -0.1879  0.0910  0.2988
 2347SOL    HW118503   0.362   3.973   0.525 -1.0206 -0.3454  0.7536
 2347SOL    HW218504   0.288   3.855   0.494  0.0614  1.0611  2.2916
 2348SOL     OW18505   3.574   0.323   2.819 -0.4075  0.5421 -0.2861
 2348SOL    HW118506   3.495   0.304   2.870 -1.4970 -0.4097 -2.3176
 2348SOL    HW218507   3.542   0.374   2.744  0.5331 -0.4769 -1.3653
 2349SOL     OW18508   0.554   0.848   1.454 -0.3150  0.7970  0.5633
 2349SOL    HW118509   0.459   0.846   1.437  0.0211  1.1647 -1.3996
 2349SOL    HW218510   0.570   0.757   1.430  1.2293  1.6970 -1.8341
 2350SOL     OW18511   3.697   1.258  17.692  0.1341  0.5623  0.0789
 2350SOL    HW118512   3.616   1.208  17.682 -0.5125  1.8139 -0.8284
 2350SOL    HW218513   3.713   1.294  17.605 -0.6585  1.4866  0.3215
 2351SOL     OW18514   2.237   2.487   3.328  0.4313  0.1114 -0.1941
 2351SOL    HW118515   2.218   2.559   3.269  0.1369 -1.0186 -1.4769
 2351SOL    HW218516   2.226   2.411   3.271 -0.7993 -1.8758  2.6935
 2352SOL     OW18517   1.246   0.511   5.341  0.5088 -0.2917  0.3281
 2352SOL    HW118518   1.154   0.506   5.365  1.0062  0.2866  2.3150
 2352SOL    HW218519   1.289   0.500   5.426  2.4135  1.3834 -0.3946
 2353SOL     OW18520   4.080   1.782  15.749  0.0288 -0.7271  0.3979
 2353SOL    HW118521   4.102   1.875  15.760 -0.3517 -0.3857 -1.7479
 2353SOL    HW218522   3.988   1.780  15.772  0.4669 -0.3053  2.1657
 2354SOL     OW18523   0.325   3.380   7.439  0.1547  0.2008  0.4129
 2354SOL    HW118524   0.236   3.363   7.471 -0.4359 -0.2924 -1.4486
 2354SOL    HW218525   0.297   3.452   7.382  1.5321  0.2496 -0.1873
 2355SOL     OW18526   4.044   2.105   7.423 -0.3470  0.4557  0.3187
 2355SOL    HW118527   4.094   2.098   7.342  0.3967  1.2048  0.7173
 2355SOL    HW218528   4.112   2.145   7.477  0.7733 -0.3429 -0.4978
 2356SOL     OW18529   3.542   1.927   3.372 -0.2616 -0.0546  0.6168
 2356SOL    HW118530   3.521   1.862   3.439 -0.5346 -2.5793 -1.9390
 2356SOL    HW218531   3.509   1.885   3.293 -2.4973  0.2024  1.4127
 2357SOL     OW18532   2.488   1.342  11.415 -0.3408  0.0256  0.2971
 2357SOL    HW118533   2.471   1.249  11.428 -0.3955 -0.2028 -1.4103
 2357SOL    HW218534   2.577   1.348  11.379 -0.8527 -0.0640 -0.9701
 2358SOL     OW18535   2.169   1.490   7.581 -0.0059  0.0343 -0.5589
 2358SOL    HW118536   2.078   1.482   7.608  0.0011 -0.4423 -0.6804
 2358SOL    HW218537   2.200   1.402   7.602 -2.8565 -1.6643 -3.5115
 2359SOL     OW18538   4.020   0.597   2.362  0.0229 -0.0704 -0.5395
 2359SOL    HW118539   3.965   0.551   2.299  1.2201 -1.2406 -0.7339
 2359SOL    HW218540   4.051   0.665   2.304  0.4324 -0.1717 -0.4347
 2360SOL     OW18541   0.470   0.436  15.677 -0.0182  0.2853  0.2126
 2360SOL    HW118542   0.525   0.503  15.637  3.1387 -1.3161  1.9412
 2360SOL    HW218543   0.468   0.464  15.769  0.4454 -0.6478  0.5062
 2361SOL     OW18544   3.517   0.647   5.759 -0.0593  0.4138 -0.3745
 2361SOL    HW118545   3.561   0.719   5.804  0.7780 -1.7327  2.2667
 2361SOL    HW218546   3.581   0.612   5.697 -1.7977  0.4673 -2.2001
 2362SOL     OW18547   4.472   4.074  15.493 -0.6854 -0.5644  0.2816
 2362SOL    HW118548   4.484   4.046  15.402 -0.3836  1.0428 -0.1636
 2362SOL    HW218549   4.474   4.169  15.485  3.8217 -0.5090  2.2691
 2363SOL     OW18550   2.576   1.781   5.621  0.1347  0.4805 -0.0551
 2363SOL    HW118551   2.545   1.806   5.708  0.9836  0.8104  0.1502
 2363SOL    HW218552   2.552   1.857   5.568 -2.1655  0.1878  0.5817
 2364SOL     OW18553   0.749   3.644   8.499 -0.5879  0.1892 -0.4098
 2364SOL    HW118554   0.810   3.569   8.501 -0.9690 -0.1398 -1.2410
 2364SOL    HW218555   0.692   3.623   8.573 -0.3544 -1.2312 -0.6308
 2365SOL     OW18556   4.376   3.889   5.476 -0.0747  1.1394 -0.2845
 2365SOL    HW118557   4.415   3.805   5.451 -1.5537  0.0589  1.0616
 2365SOL    HW218558   4.297   3.877   5.423 -0.4653 -2.4784  1.1685
 2366SOL     OW18559   2.284   0.025   8.582 -0.2327 -0.5013 -0.4194
 2366SOL    HW118560   2.310   4.669   8.534  2.1288 -0.7742  1.3046
 2366SOL    HW218561   2.268   0.094   8.517 -0.5823  0.3511  0.5602
 2367SOL     OW18562   3.335   0.750   9.399 -0.5293 -0.4579  0.0676
 2367SOL    HW118563   3.331   0.664   9.357 -2.7863  0.9466 -2.6160
 2367SOL    HW218564   3.256   0.753   9.453  0.0041 -0.4393  0.8520
 2368SOL     OW18565   1.831   2.122   5.058 -0.0994 -0.3264 -0.0866
 2368SOL    HW118566   1.882   2.196   5.091 -1.1127 -0.6673  2.2249
 2368SOL    HW218567   1.901   2.071   5.017 -0.5891  0.1451 -1.5144
 2369SOL     OW18568   2.110   1.953  15.783 -0.3161 -0.1796 -0.3284
 2369SOL    HW118569   2.197   1.917  15.802 -0.9912 -0.9083  1.3732
 2369SOL    HW218570   2.102   1.919  15.694 -0.8496 -3.5456  0.9940
 2370SOL     OW18571   0.715   1.786   0.954  0.1356 -0.0058  0.4380
 2370SOL    HW118572   0.739   1.771   0.863  0.5145  0.8827  0.3930
 2370SOL    HW218573   0.658   1.860   0.932  1.1625  1.3344  2.3251
 2371SOL     OW18574   1.614   3.500   2.465  0.0262 -0.2308 -0.1373
 2371SOL    HW118575   1.580   3.431   2.521 -0.1578  0.8504  1.0950
 2371SOL    HW218576   1.629   3.574   2.525 -0.8995 -1.0723  1.1178
 2372SOL     OW18577   2.584   1.670  17.409 -0.3444  0.1170 -0.3162
 2372SOL    HW118578   2.663   1.719  17.383 -0.2315  1.2672  2.1991
 2372SOL    HW218579   2.612   1.578  17.412 -0.3160  0.1148 -0.6162
 2373SOL     OW18580   4.667   2.420   5.924 -0.4815  0.1016  0.2307
 2373SOL    HW118581   4.614   2.452   5.998  2.1259  1.5303  1.4664
 2373SOL    HW218582   0.020   2.383   5.969 -1.0216  0.7879  1.7125
 2374SOL     OW18583   4.680   2.861   3.823  0.0800 -0.1631 -0.1272
 2374SOL    HW118584   4.608   2.887   3.880  0.2846  2.3716 -1.0234
 2374SOL    HW218585   4.625   2.817   3.759 -0.0279  0.0721 -0.1956
 2375SOL     OW18586   2.568   4.564   5.766 -0.1599  0.2991  0.4289
 2375SOL    HW118587   2.485   4.601   5.736  0.0877  0.2216 -0.3607
 2375SOL    HW218588   2.552   4.470   5.759 -0.7413  0.5533 -1.6165
 2376SOL     OW18589   0.395   4.377   7.801  0.6145 -0.1813 -0.4021
 2376SOL    HW118590   0.444   4.300   7.832 -1.5391 -2.2229 -2.1203
 2376SOL    HW218591   0.458   4.433   7.755  0.8196  1.1398  1.4905
 2377SOL     OW18592   1.211   4.334   0.721 -0.1205 -0.0751  0.3570
 2377SOL    HW118593   1.162   4.405   0.763  1.1675  0.7430  0.4768
 2377SOL    HW218594   1.249   4.292   0.798 -0.8918 -0.3260  0.6014
 2378SOL     OW18595   4.080   1.149   8.546  0.1667  0.0068 -0.6162
 2378SOL    HW118596   4.090   1.088   8.474 -3.0714  1.1496 -2.0358
 2378SOL    HW218597   4.132   1.111   8.618  0.9610 -0.6608 -1.5486
 2379SOL     OW18598   0.753   3.161   8.707  0.5263  0.0896  0.1759
 2379SOL    HW118599   0.826   3.214   8.676  1.2689 -1.0588 -0.0542
 2379SOL    HW218600   0.706   3.157   8.624 -1.6702  0.5767  1.4168
 2380SOL     OW18601   1.005   0.732   7.920  0.4299 -0.0961 -0.1596
 2380SOL    HW118602   1.009   0.791   7.994 -1.2254  1.3524 -1.2329
 2380SOL    HW218603   0.923   0.686   7.940 -0.0857 -0.7226 -3.7119
 2381SOL     OW18604   3.498   0.700  17.286 -0.0442 -0.7776  0.1984
 2381SOL    HW118605   3.432   0.734  17.346  0.2599 -0.7350  0.5054
 2381SOL    HW218606   3.574   0.757  17.284 -2.6397  2.6627 -1.5220
 2382SOL     OW18607   3.842   3.165  17.037 -0.1881 -0.2493 -0.3147
 2382SOL    HW118608   3.806   3.076  17.042  0.3185 -0.4910 -0.8354
 2382SOL    HW218609   3.762   3.213  17.057 -0.2978 -0.0945 -1.1108
 2383SOL     OW18610   2.575   2.104   2.591 -0.5433  0.0231  0.2061
 2383SOL    HW118611   2.532   2.160   2.526  1.5216  0.7312 -0.5824
 2383SOL    HW218612   2.665   2.139   2.588 -0.1785 -0.6823  3.8126
 2384SOL     OW18613   2.324   3.120   1.493 -0.1557  0.4500 -0.6554
 2384SOL    HW118614   2.359   3.048   1.546 -0.0006  0.5311 -0.6459
 2384SOL    HW218615   2.342   3.095   1.403 -3.4375 -0.0379 -1.1692
 2385SOL     OW18616   2.768   1.172   5.778 -0.6102  0.6297  0.3808
 2385SOL    HW118617   2.797   1.098   5.831  1.2111  1.8661  1.1244
 2385SOL    HW218618   2.688   1.128   5.750  1.9584 -1.9823 -2.9758
 2386SOL     OW18619   4.075   2.960   2.142 -0.0210  0.0134  0.5345
 2386SOL    HW118620   4.104   2.911   2.218 -1.5257 -0.9312  0.5101
 2386SOL    HW218621   3.984   2.929   2.134 -0.9722  2.7224  0.8883
 2387SOL     OW18622   4.008   3.125   7.050  0.3814 -0.5550 -0.1241
 2387SOL    HW118623   3.915   3.135   7.028  0.6506  1.5423 -0.2401
 2387SOL    HW218624   4.002   3.165   7.137 -0.6855  1.9167 -1.3542
 2388SOL     OW18625   1.883   2.154   7.392 -0.2791  0.7042 -0.5330
 2388SOL    HW118626   1.823   2.123   7.459 -0.3911  1.0167 -0.4884
 2388SOL    HW218627   1.942   2.211   7.441  0.7206 -1.4870  0.7917
 2389SOL     OW18628   1.044   2.193  13.196 -0.2210 -0.3221 -0.1564
 2389SOL    HW118629   1.111   2.142  13.150  0.0777 -0.4238  0.3890
 2389SOL    HW218630   1.087   2.278  13.181  0.2887 -0.0200  3.1305
 2390SOL     OW18631   4.003   3.224   1.064  0.2087  0.7980 -0.0295
 2390SOL    HW118632   4.056   3.147   1.085 -2.0246 -0.7662 -0.1356
 2390SOL    HW218633   4.060   3.301   1.070  1.8609 -0.4600  0.3685
 2391SOL     OW18634   2.800   1.794  16.848  0.2231 -0.1931  0.8026
 2391SOL    HW118635   2.847   1.866  16.806 -1.0920 -0.1948 -0.6879
 2391SOL    HW218636   2.765   1.751  16.770  1.6290  0.4672 -0.2010
 2392SOL     OW18637   2.701   1.050   6.508  0.0811  0.1078 -0.4713
 2392SOL    HW118638   2.677   1.042   6.416 -1.1388 -1.4078 -0.0203
 2392SOL    HW218639   2.613   1.035   6.543  0.7348  1.7943  1.8807
 2393SOL     OW18640   3.326   2.319   8.988  0.5566  0.1054 -0.2886
 2393SOL    HW118641   3.264   2.274   9.046  0.5615 -0.1764 -0.5019
 2393SOL    HW218642   3.289   2.319   8.900  0.7561 -1.1184 -0.3729
 2394SOL     OW18643   1.617   3.604   9.624 -0.5239  0.0906 -0.0556
 2394SOL    HW118644   1.545   3.545   9.647 -1.8342  0.9211 -2.0029
 2394SOL    HW218645   1.621   3.645   9.710 -1.2449  0.3360 -0.1369
 2395SOL     OW18646   0.524   3.775  15.283  0.3740  0.1301  0.2399
 2395SOL    HW118647   0.525   3.680  15.266 -3.1713  0.3416 -0.9547
 2395SOL    HW218648   0.455   3.786  15.347 -0.5085  1.1019 -0.8814
 2396SOL     OW18649   3.922   2.795   4.293 -0.3823 -0.1243 -0.2170
 2396SOL    HW118650   4.014   2.819   4.305 -0.9765  2.1142 -0.1077
 2396SOL    HW218651   3.933   2.708   4.254  1.5802 -1.1353  2.5972
 2397SOL     OW18652   4.105   2.447   3.729  0.1601  0.2889 -0.4341
 2397SOL    HW118653   4.078   2.355   3.722  0.2489  0.2934 -0.8555
 2397SOL    HW218654   4.036   2.487   3.781  1.8545  3.4524 -0.6448
 2398SOL     OW18655   3.354   2.736   1.274 -0.1370 -0.0692 -0.0628
 2398SOL    HW118656   3.333   2.815   1.223 -0.8029 -0.3413 -0.2114
 2398SOL    HW218657   3.378   2.770   1.360 -0.6005  0.1589 -0.0222
 2399SOL     OW18658   2.459   0.518   3.895 -0.1928  0.2695 -0.1433
 2399SOL    HW118659   2.486   0.435   3.856 -0.7728  0.6694 -1.3846
 2399SOL    HW218660   2.525   0.523   3.964 -0.8998  1.0181  0.4771
 2400SOL     OW18661   3.574   1.251   3.198 -0.0167  0.0175  0.1354
 2400SOL    HW118662   3.625   1.171   3.208 -0.4760 -0.1686  0.9951
 2400SOL    HW218663   3.486   1.214   3.210 -0.4087  0.5628 -0.9893
 2401SOL     OW18664   1.139   2.336  16.134 -0.4180  0.5130 -0.1773
 2401SOL    HW118665   1.197   2.397  16.087 -0.3856 -0.1290 -0.9770
 2401SOL    HW218666   1.197   2.308  16.205  2.6190 -0.6429 -3.1285
 2402SOL     OW18667   3.389   4.288   6.546 -0.3588 -0.2449  0.2136
 2402SOL    HW118668   3.323   4.220   6.558  1.2862 -1.9400 -0.3538
 2402SOL    HW218669   3.466   4.238   6.520 -0.2411 -1.0549  2.0813
 2403SOL     OW18670   3.638   1.497  11.202 -0.2033 -1.0033 -0.0136
 2403SOL    HW118671   3.661   1.590  11.215 -1.5416 -0.6334 -0.3423
 2403SOL    HW218672   3.566   1.483  11.263 -2.6788  2.8930 -2.0490
 2404SOL     OW18673   0.341   2.537   2.212 -0.2993  0.3468  0.2151
 2404SOL    HW118674   0.374   2.485   2.138 -3.5114  0.3405 -1.1891
 2404SOL    HW218675   0.391   2.618   2.200 -1.2333  0.9507  0.4382
 2405SOL     OW18676   4.560   3.068   3.421 -0.1691 -0.2485  0.2258
 2405SOL    HW118677   4.520   3.039   3.503  1.0964 -3.9237 -0.4541
 2405SOL    HW218678   4.652   3.065   3.447 -0.1440 -2.4174 -0.0972
 2406SOL     OW18679   4.520   2.814  12.967 -0.2828 -0.8208  0.2841
 2406SOL    HW118680   4.600   2.798  12.918 -1.0604 -1.2346 -0.8397
 2406SOL    HW218681   4.459   2.852  12.904 -0.8559  0.2969  1.5085
 2407SOL     OW18682   1.645   0.381  17.223  0.1367  0.8420  0.5756
 2407SOL    HW118683   1.673   0.468  17.251  0.3788  1.0977 -0.4593
 2407SOL    HW218684   1.670   0.389  17.131  0.0133 -1.4837  0.3464
 2408SOL     OW18685   1.364   4.355   8.628 -0.1632  0.0218 -0.2113
 2408SOL    HW118686   1.380   4.325   8.717 -0.3370  1.0614  0.1752
 2408SOL    HW218687   1.348   4.447   8.647 -3.4452 -0.3889 -0.9185
 2409SOL     OW18688   1.956   2.516   7.936  0.1859  0.1237 -0.2734
 2409SOL    HW118689   1.900   2.512   8.013  0.8225  1.5818  0.2613
 2409SOL    HW218690   2.041   2.534   7.976 -0.5122  0.6808  0.9456
 2410SOL     OW18691   2.086   2.353   4.803 -0.3091  0.2998  0.7585
 2410SOL    HW118692   2.067   2.365   4.896 -0.8799  0.0999  0.6705
 2410SOL    HW218693   2.072   2.259   4.790 -2.0910  0.8634 -1.4377
 2411SOL     OW18694   0.829   4.655  15.499 -0.7559 -0.5254  0.3468
 2411SOL    HW118695   0.781   4.716  15.444  0.5841  0.5847  0.3963
 2411SOL    HW218696   0.770   4.580  15.494 -1.1779 -0.1893  0.2803
 2412SOL     OW18697   2.269   2.439   1.604 -0.6483  0.4912 -0.2649
 2412SOL    HW118698   2.294   2.499   1.674  0.8639  0.9683 -1.2168
 2412SOL    HW218699   2.181   2.473   1.585 -1.7947 -0.9159  2.5942
 2413SOL     OW18700   2.558   2.190   7.430 -0.4866  0.3901  0.1538
 2413SOL    HW118701   2.571   2.168   7.522 -2.2932 -1.9311 -0.1415
 2413SOL    HW218702   2.549   2.286   7.424 -0.2093  0.4778  1.2467
 2414SOL     OW18703   3.678   4.361  11.173 -0.0073 -0.1465  0.3848
 2414SOL    HW118704   3.605   4.421  11.186 -0.7788 -1.1016  0.4387
 2414SOL    HW218705   3.753   4.417  11.196 -0.0116  0.3570 -0.8402
 2415SOL     OW18706   2.987   4.549  11.380  0.0714  0.3283  0.6283
 2415SOL    HW118707   2.975   4.545  11.475  0.1886 -2.7228  0.5040
 2415SOL    HW218708   3.048   4.479  11.359  0.0507  0.4395  0.1867
 2416SOL     OW18709   2.674   4.376   4.276  0.1988 -0.2040 -0.1614
 2416SOL    HW118710   2.739   4.360   4.208  0.4242 -0.3597  0.0889
 2416SOL    HW218711   2.668   4.471   4.263 -1.9486 -0.3317 -0.1020
 2417SOL     OW18712   0.628   4.552   4.884  0.0440 -0.0887 -0.1069
 2417SOL    HW118713   0.681   4.581   4.958  0.2412 -2.5627  0.7348
 2417SOL    HW218714   0.540   4.574   4.914 -0.4630 -1.8781 -0.2501
 2418SOL     OW18715   3.099   0.889  10.464  0.0159 -0.1151 -0.1296
 2418SOL    HW118716   3.131   0.937  10.387  0.9362 -1.6998 -0.7401
 2418SOL    HW218717   3.005   0.906  10.460 -0.7826 -4.3390  0.8161
 2419SOL     OW18718   1.403   0.765  13.525 -0.3787 -0.6692  0.5666
 2419SOL    HW118719   1.364   0.748  13.611 -0.5122 -0.5348  0.5337
 2419SOL    HW218720   1.362   0.848  13.500  1.3966 -0.4073 -1.4017
 2420SOL     OW18721   2.252   3.441   7.157 -0.6970 -0.0858  0.7953
 2420SOL    HW118722   2.194   3.405   7.224 -1.0778  1.3380  1.2237
 2420SOL    HW218723   2.188   3.453   7.087 -1.3817 -0.2992  1.3831
 2421SOL     OW18724   1.152   2.438  15.252 -0.4534  0.5108 -0.1249
 2421SOL    HW118725   1.224   2.495  15.223 -0.2093  0.5164  0.4996
 2421SOL    HW218726   1.096   2.428  15.175 -1.5858  0.9421  0.6465
 2422SOL     OW18727   0.045   3.315  11.527 -0.0986 -0.1923 -0.5976
 2422SOL    HW118728   4.673   3.313  11.541 -0.3977  1.2347 -2.4547
 2422SOL    HW218729   0.070   3.224  11.544 -3.9341 -0.7424  2.0909
 2423SOL     OW18730   4.585   3.630   6.138 -0.7550  0.2650 -0.0476
 2423SOL    HW118731   4.536   3.711   6.126  0.1156  1.0107  1.4118
 2423SOL    HW218732   4.510   3.571   6.148 -0.9781  0.3639 -1.2069
 2424SOL     OW18733   2.187   1.740   3.995 -0.4183 -0.2538 -0.3093
 2424SOL    HW118734   2.109   1.683   3.998 -2.4717  2.4811 -1.6230
 2424SOL    HW218735   2.158   1.813   3.940  0.0586 -1.1360 -1.7266
 2425SOL     OW18736   0.714   0.619   6.005 -0.1604 -0.3353 -0.7944
 2425SOL    HW118737   0.707   0.641   6.098  0.9346  1.2432 -1.0828
 2425SOL    HW218738   0.664   0.538   6.013 -0.6559 -0.0238 -0.7224
 2426SOL     OW18739   1.625   0.037   0.622  0.0308  0.5524  0.4816
 2426SOL    HW118740   1.572   4.700   0.674 -0.8526  0.3703 -0.6203
 2426SOL    HW218741   1.565   0.112   0.615  0.9438  1.2425 -0.0112
 2427SOL     OW18742   0.084   2.291   8.741  0.1375  0.0462 -0.9704
 2427SOL    HW118743   0.176   2.311   8.729  0.8922 -2.2131  0.9739
 2427SOL    HW218744   0.045   2.377   8.730  0.8603  0.6379  1.0192
 2428SOL     OW18745   0.557   3.328   9.493 -0.3451  0.4358  0.0260
 2428SOL    HW118746   0.634   3.352   9.441 -0.6528 -0.8374 -1.0364
 2428SOL    HW218747   0.490   3.381   9.451 -1.2599 -1.9340 -1.5128
 2429SOL     OW18748   3.365   4.066   0.887  0.1375 -0.0489 -0.4515
 2429SOL    HW118749   3.397   3.999   0.825 -2.7432 -0.8107 -1.1081
 2429SOL    HW218750   3.449   4.100   0.917 -0.3625 -0.7203  1.6927
 2430SOL     OW18751   1.792   3.536   5.169 -0.1573  0.0164  0.1416
 2430SOL    HW118752   1.868   3.556   5.115  0.6556  2.3963  2.1386
 2430SOL    HW218753   1.729   3.502   5.106  1.2418 -0.0812 -1.1807
 2431SOL     OW18754   2.365   3.840   4.113 -0.1198  0.7528  0.2096
 2431SOL    HW118755   2.311   3.852   4.035 -2.6736 -2.0961  1.5446
 2431SOL    HW218756   2.442   3.893   4.094  0.7779 -0.8356 -0.6316
 2432SOL     OW18757   0.556   0.897   8.570 -0.6036 -0.1543 -0.1880
 2432SOL    HW118758   0.477   0.937   8.607  0.3627 -0.8292  2.6417
 2432SOL    HW218759   0.621   0.966   8.557 -0.5659 -0.4561 -1.5400
 2433SOL     OW18760   0.680   2.638   7.625 -0.1556  0.2017  0.1871
 2433SOL    HW118761   0.748   2.572   7.639 -1.2994 -1.4893 -2.0601
 2433SOL    HW218762   0.717   2.680   7.548 -0.0853 -2.4808 -1.2707
 2434SOL     OW18763   0.730   3.433   3.938 -0.3095 -0.1472  0.1800
 2434SOL    HW118764   0.816   3.403   3.968 -0.0116  2.1739  1.7094
 2434SOL    HW218765   0.737   3.416   3.845 -0.5292  0.3574  0.0720
 2435SOL     OW18766   1.150   0.517   2.184  0.2366  0.1606  0.4790
 2435SOL    HW118767   1.139   0.538   2.091 -1.1068 -2.5902  0.0246
 2435SOL    HW218768   1.242   0.492   2.194  0.0025 -0.6633  0.5630
 2436SOL     OW18769   3.542   0.676   2.850  0.0842 -0.1329 -0.8972
 2436SOL    HW118770   3.624   0.636   2.819 -0.4233 -0.2047 -2.1614
 2436SOL    HW218771   3.499   0.675   2.764 -2.5185 -0.8755  0.4198
 2437SOL     OW18772   4.668   2.048  10.381 -0.0752 -0.4056 -0.4462
 2437SOL    HW118773   4.632   2.028  10.468 -3.0242  2.9644 -0.8769
 2437SOL    HW218774   0.025   2.092  10.409  0.4533 -0.1989 -2.2653
 2438SOL     OW18775   3.084   1.856   9.849  0.2395 -0.9021  0.3665
 2438SOL    HW118776   3.096   1.762   9.866 -1.2810 -1.4261 -1.3920
 2438SOL    HW218777   3.173   1.891   9.847 -0.6702  1.2986 -1.1189
 2439SOL     OW18778   2.866   0.131   7.297  0.4004 -0.2747  0.1986
 2439SOL    HW118779   2.831   0.153   7.211  3.1437 -0.2491 -0.9153
 2439SOL    HW218780   2.789   0.146   7.351 -0.1692 -0.3462 -0.5991
 2440SOL     OW18781   1.510   3.522   7.079 -0.2715 -0.0797  0.6555
 2440SOL    HW118782   1.572   3.453   7.055 -1.1236 -0.6684  0.1090
 2440SOL    HW218783   1.535   3.582   7.009 -0.6348  1.1858  1.5992
 2441SOL     OW18784   1.419   2.190  15.788 -0.2876 -0.0380  0.1797
 2441SOL    HW118785   1.401   2.207  15.696  0.2517 -0.5339 -0.0134
 2441SOL    HW218786   1.349   2.129  15.812 -0.1742 -0.5604 -0.8279
 2442SOL     OW18787   2.741   2.287   6.815  0.0573  0.2044 -0.0000
 2442SOL    HW118788   2.762   2.201   6.851 -0.2605  0.8142  1.6411
 2442SOL    HW218789   2.717   2.330   6.897  0.8228  0.7693 -0.0662
 2443SOL     OW18790   3.900   0.908   6.712  0.0033 -0.1919 -0.5345
 2443SOL    HW118791   3.909   0.981   6.773 -1.5515 -0.2315 -0.2533
 2443SOL    HW218792   3.808   0.890   6.729 -0.1641  0.7675 -0.4377
 2444SOL     OW18793   1.296   2.123   3.536  0.8903  0.2657  0.5759
 2444SOL    HW118794   1.331   2.167   3.459 -0.6655 -0.5241 -0.5669
 2444SOL    HW218795   1.343   2.040   3.542  0.8907  0.2731  0.6798
 2445SOL     OW18796   1.860   3.600   2.197  0.4936 -0.2611 -0.2572
 2445SOL    HW118797   1.927   3.609   2.266  0.4545 -1.0098 -0.1236
 2445SOL    HW218798   1.905   3.656   2.134 -3.0352  1.6082 -1.0818
 2446SOL     OW18799   2.685   4.528   9.812 -0.2903  0.4947 -0.7207
 2446SOL    HW118800   2.752   4.480   9.861 -0.8520 -0.8907 -1.3077
 2446SOL    HW218801   2.712   4.502   9.724 -0.3742  0.9091 -0.8670
 2447SOL     OW18802   3.292   3.225   8.073  0.4174  0.1798 -0.0894
 2447SOL    HW118803   3.256   3.313   8.063 -1.4196 -0.7789 -1.9711
 2447SOL    HW218804   3.386   3.235   8.093 -0.2118  2.9801  1.5620
 2448SOL     OW18805   1.783   0.716   4.446 -0.4631 -0.5870 -0.2383
 2448SOL    HW118806   1.722   0.673   4.387 -1.1542 -2.2469  1.6848
 2448SOL    HW218807   1.871   0.690   4.418 -0.7570  0.2186 -1.8722
 2449SOL     OW18808   4.632   0.365  11.867  0.6189 -0.2800  0.5582
 2449SOL    HW118809   4.541   0.370  11.836  0.3999 -1.8202  0.9199
 2449SOL    HW218810   4.675   0.342  11.784 -0.4687 -1.9903  0.4591
 2450SOL     OW18811   1.997   2.581   5.549 -0.7322  0.3452  0.4827
 2450SOL    HW118812   1.995   2.672   5.580  1.0684  0.0198  1.5517
 2450SOL    HW218813   2.060   2.537   5.606  0.1438  2.5997  1.2457
 2451SOL     OW18814   0.278   1.860   2.897 -0.6706 -0.1767 -0.1221
 2451SOL    HW118815   0.271   1.921   2.823 -0.4387  0.5834  0.4859
 2451SOL    HW218816   0.365   1.880   2.931  0.1265 -0.8228 -1.7424
 2452SOL     OW18817   4.222   4.681   7.132  0.0142 -0.1432 -0.2633
 2452SOL    HW118818   4.301   4.707   7.084 -1.3530  0.0898 -2.3937
 2452SOL    HW218819   4.260   4.647   7.213 -1.6758  2.1819  1.4787
 2453SOL     OW18820   3.653   1.576   7.672  0.3343 -0.5228  0.3466
 2453SOL    HW118821   3.633   1.565   7.579  0.2161 -4.0069  0.7869
 2453SOL    HW218822   3.593   1.512   7.708 -1.7972  0.6764 -1.0469
 2454SOL     OW18823   4.230   1.751   7.171 -0.4257  0.1508  0.0980
 2454SOL    HW118824   4.176   1.759   7.092  0.1568 -0.2937 -0.3368
 2454SOL    HW218825   4.239   1.844   7.194 -0.8620 -0.1095  1.3227
 2455SOL     OW18826   1.107   3.363  10.361  0.1070  0.2988  0.0285
 2455SOL    HW118827   1.026   3.412  10.348  0.4741  0.0013 -3.4674
 2455SOL    HW218828   1.098   3.305  10.285 -1.0217  0.0939  0.3232
 2456SOL     OW18829   0.515   4.100  11.391 -0.3268  0.7311 -0.2722
 2456SOL    HW118830   0.501   4.168  11.326  0.5541  0.4893 -0.7104
 2456SOL    HW218831   0.430   4.056  11.402 -1.0914  1.5288 -3.1080
 2457SOL     OW18832   0.139   3.326   5.224  0.2059  0.4698 -0.1059
 2457SOL    HW118833   0.121   3.328   5.318  1.9229 -0.5712  0.2540
 2457SOL    HW218834   0.235   3.331   5.217  0.3077 -2.1983 -0.7765
 2458SOL     OW18835   3.668   1.001   1.041  0.2599 -0.7468 -0.5436
 2458SOL    HW118836   3.713   0.985   1.123  0.8133  0.5456 -0.5957
 2458SOL    HW218837   3.579   1.016   1.074  0.7982  0.1609  0.4695
 2459SOL     OW18838   0.554   1.039   2.705  0.1325  0.0964  0.0626
 2459SOL    HW118839   0.560   0.987   2.625 -0.1084  2.1560 -1.3051
 2459SOL    HW218840   0.645   1.063   2.724 -0.3648  0.1048  2.4137
 2460SOL     OW18841   3.407   2.441   6.594  0.9256  0.4269 -0.3650
 2460SOL    HW118842   3.373   2.506   6.656 -0.0093 -0.8731  0.4854
 2460SOL    HW218843   3.332   2.393   6.558 -0.3073  1.4528  0.8139
 2461SOL     OW18844   1.805   3.335  13.550 -0.6202 -0.3848  0.5174
 2461SOL    HW118845   1.711   3.351  13.558 -0.6050  0.7904 -1.6356
 2461SOL    HW218846   1.842   3.423  13.555  1.3751 -1.2327  0.8228
 2462SOL     OW18847   4.657   3.607  13.155  0.5830  0.0764 -0.1462
 2462SOL    HW118848   4.602   3.618  13.077 -0.1331  1.9956  0.6350
 2462SOL    HW218849   0.005   3.546  13.133 -0.6774 -0.6321 -2.2883
 2463SOL     OW18850   1.728   2.344  17.499  0.1643 -0.3444 -0.3023
 2463SOL    HW118851   1.649   2.398  17.500 -0.3293 -1.0799  0.1362
 2463SOL    HW218852   1.737   2.350  17.594  1.2613  0.1447 -0.4413
 2464SOL     OW18853   2.114   1.415   8.089  0.6103 -0.6379  0.4499
 2464SOL    HW118854   2.027   1.454   8.090 -0.3642 -2.8099 -0.8891
 2464SOL    HW218855   2.112   1.366   8.007 -1.2248 -0.3554  0.3393
 2465SOL     OW18856   2.746   4.499   8.423 -0.1422  0.3026 -0.5937
 2465SOL    HW118857   2.797   4.420   8.405 -0.3800  0.0571 -0.1853
 2465SOL    HW218858   2.748   4.514   8.517  0.7782  0.4592 -0.6345
 2466SOL     OW18859   0.725   4.098  17.256 -0.5399 -0.5233 -0.7134
 2466SOL    HW118860   0.763   4.015  17.227  2.5689 -0.6289  3.7809
 2466SOL    HW218861   0.660   4.118  17.188  0.9024  2.5506 -1.1764
 2467SOL     OW18862   4.472   0.314   6.958  0.0146 -0.6047 -0.2831
 2467SOL    HW118863   4.384   0.352   6.959  0.6316  0.7790  1.3541
 2467SOL    HW218864   4.479   0.283   6.868  0.9790 -0.5233 -0.2326
 2468SOL     OW18865   2.722   2.883  12.660  0.1075  0.6917  0.1229
 2468SOL    HW118866   2.801   2.884  12.714 -0.7530 -2.8827  1.4182
 2468SOL    HW218867   2.663   2.867  12.734 -0.1591  0.3487 -0.1658
 2469SOL     OW18868   4.013   1.151   2.149  0.0275  0.1353 -0.2089
 2469SOL    HW118869   4.029   1.242   2.175 -0.3674 -0.4213  1.9705
 2469SOL    HW218870   4.098   1.118   2.177  0.8875  2.7828  0.3474
 2470SOL     OW18871   0.875   3.320  14.671 -0.0191  0.3282 -0.4038
 2470SOL    HW118872   0.903   3.400  14.625 -0.1052 -0.5834 -2.0496
 2470SOL    HW218873   0.884   3.252  14.604  0.0196 -1.1719  1.1427
 2471SOL     OW18874   1.227   1.520  12.560  0.7403  0.3163  0.2814
 2471SOL    HW118875   1.133   1.525  12.578  0.4411  0.7805 -1.4082
 2471SOL    HW218876   1.251   1.511  12.653  1.0142 -1.2443  0.0515
 2472SOL     OW18877   3.029   2.054  15.610  0.5362  0.4623 -0.1122
 2472SOL    HW118878   3.113   2.038  15.568  0.1714 -1.8302  0.0406
 2472SOL    HW218879   3.004   1.961  15.614  0.2551  0.5976  1.3635
 2473SOL     OW18880   4.583   0.142   0.882 -0.1372  0.4479 -0.0538
 2473SOL    HW118881   4.603   0.234   0.898  2.7082 -0.2683  0.5681
 2473SOL    HW218882   4.588   0.107   0.971  0.2208 -0.4393 -0.4137
 2474SOL     OW18883   3.323   2.999   0.504 -0.5564 -0.1647  0.0705
 2474SOL    HW118884   3.255   3.064   0.521 -1.2609 -1.1921  1.2439
 2474SOL    HW218885   3.403   3.051   0.508 -0.2087 -0.6993  0.1962
 2475SOL     OW18886   2.175   1.104   3.695  0.0333  0.2844 -0.1234
 2475SOL    HW118887   2.154   1.122   3.787 -0.5098  0.1005 -0.2100
 2475SOL    HW218888   2.199   1.013   3.709 -1.0971 -0.3973 -2.6055
 2476SOL     OW18889   0.904   1.101   0.865  0.3172  0.0979  0.2701
 2476SOL    HW118890   0.836   1.098   0.933  0.8276  1.3056  0.8197
 2476SOL    HW218891   0.924   1.194   0.852  0.2049 -0.2578 -2.5884
 2477SOL     OW18892   0.192   2.861  14.397 -0.4483  0.3656 -0.2341
 2477SOL    HW118893   0.267   2.887  14.452 -1.4550 -1.6439  2.0986
 2477SOL    HW218894   0.201   2.766  14.391 -0.4765  0.1298  3.3588
 2478SOL     OW18895   2.604   4.402   3.811  0.0347  0.1670 -0.1315
 2478SOL    HW118896   2.583   4.326   3.756 -0.6915  0.7085 -0.6060
 2478SOL    HW218897   2.546   4.395   3.887  1.0748 -1.3322  0.5285
 2479SOL     OW18898   0.915   4.307   4.418 -0.8710 -0.4355  0.3298
 2479SOL    HW118899   1.004   4.342   4.424 -0.9890 -0.2975  1.2131
 2479SOL    HW218900   0.898   4.258   4.498 -2.1627  0.3039  0.5033
 2480SOL     OW18901   4.005   0.619   1.488  0.6561  0.9205 -0.1231
 2480SOL    HW118902   4.078   0.573   1.445 -1.6040 -1.1805 -1.7095
 2480SOL    HW218903   3.951   0.651   1.415  2.3384  2.5412 -0.6753
 2481SOL     OW18904   1.306   4.447  13.279 -0.4776 -0.0424  0.2061
 2481SOL    HW118905   1.331   4.539  13.289 -0.9270  0.1559 -0.5225
 2481SOL    HW218906   1.216   4.457  13.248 -0.0452  0.4766 -0.9166
 2482SOL     OW18907   2.172   1.898   3.287 -0.9201  0.3292  0.4957
 2482SOL    HW118908   2.090   1.943   3.266  0.2134  2.4082  0.5386
 2482SOL    HW218909   2.233   1.970   3.274 -1.7086  0.4335 -2.8959
 2483SOL     OW18910   3.112   0.228   7.858 -0.7690  0.5837 -0.3093
 2483SOL    HW118911   3.180   0.170   7.894 -0.9964  0.0898 -0.6901
 2483SOL    HW218912   3.063   0.166   7.804  1.4137  1.6009 -3.4400
 2484SOL     OW18913   0.885   0.513   3.002 -0.5614  0.0853 -0.4277
 2484SOL    HW118914   0.846   0.426   3.009 -0.9418  0.4034  1.3664
 2484SOL    HW218915   0.854   0.558   3.080 -1.7020 -0.3820 -0.6101
 2485SOL     OW18916   2.390   3.033   1.250  0.5715  0.4542  0.1222
 2485SOL    HW118917   2.407   2.962   1.188  0.7771  0.4601  0.1728
 2485SOL    HW218918   2.307   3.065   1.216 -1.1241 -3.1796  0.7531
 2486SOL     OW18919   2.317   1.300  16.797  0.0235 -0.5215  0.0541
 2486SOL    HW118920   2.329   1.314  16.703  0.2836  1.1129  0.3437
 2486SOL    HW218921   2.240   1.356  16.808  1.0618  1.0766 -0.7573
 2487SOL     OW18922   3.222   0.103   9.107 -0.3461  0.1611 -0.9476
 2487SOL    HW118923   3.191   0.107   9.017  0.0026  0.3079 -1.0568
 2487SOL    HW218924   3.173   0.181   9.134  1.2651  0.2782  1.5964
 2488SOL     OW18925   2.775   0.749  15.841  0.2589  0.4015 -0.4781
 2488SOL    HW118926   2.810   0.822  15.891 -1.4632  0.6243  0.4108
 2488SOL    HW218927   2.768   0.780  15.751 -0.9083  3.0931  0.5507
 2489SOL     OW18928   1.067   4.678   4.962  0.2940 -0.8251 -0.2205
 2489SOL    HW118929   0.995   0.015   4.942  1.6841  0.9954  0.1721
 2489SOL    HW218930   1.115   0.002   5.030 -1.2959  1.1027 -0.4335
 2490SOL     OW18931   1.964   3.255  10.482  0.1815 -0.1597 -0.3587
 2490SOL    HW118932   1.869   3.249  10.475  0.2159  0.7381 -1.6316
 2490SOL    HW218933   1.987   3.339  10.444  1.3607 -0.1548  0.3680
 2491SOL     OW18934   0.370   0.375  14.497  0.2506  0.0928  0.0457
 2491SOL    HW118935   0.405   0.405  14.413 -0.4623 -0.1219 -0.3243
 2491SOL    HW218936   0.443   0.386  14.558  0.3956 -0.8746  0.0570
 2492SOL     OW18937   1.198   3.721   1.016  0.1184  0.0994 -0.3279
 2492SOL    HW118938   1.122   3.768   0.983  1.3059  1.4850 -1.0944
 2492SOL    HW218939   1.174   3.649   1.076  1.1332 -0.5633 -0.7182
 2493SOL     OW18940   1.749   3.629   6.879  0.0922 -0.3703  0.2912
 2493SOL    HW118941   1.784   3.580   6.953  1.0048 -0.0023  0.1084
 2493SOL    HW218942   1.792   3.713   6.894 -0.4231 -0.0143 -0.2156
 2494SOL     OW18943   1.994   2.665   5.269  0.0156 -0.0674  0.4686
 2494SOL    HW118944   1.916   2.627   5.310  1.8796 -1.4577  2.7233
 2494SOL    HW218945   2.060   2.635   5.332  2.0543  1.3462 -0.9685
 2495SOL     OW18946   2.338   1.456   2.470 -0.2611  0.1820  0.3130
 2495SOL    HW118947   2.354   1.534   2.416 -0.7708 -0.0970 -0.2329
 2495SOL    HW218948   2.317   1.486   2.558 -1.2141  1.2921 -0.2985
 2496SOL     OW18949   0.154   2.451   5.139 -0.0797 -0.0101 -0.6112
 2496SOL    HW118950   0.108   2.368   5.130  0.8127 -0.5924  0.3489
 2496SOL    HW218951   0.079   2.508   5.120 -0.6582 -0.7185 -0.4684
 2497SOL     OW18952   3.801   0.853   8.187 -0.1855 -0.1779  0.0332
 2497SOL    HW118953   3.846   0.815   8.112  1.5637 -0.6660  1.3242
 2497SOL    HW218954   3.798   0.773   8.240  3.9075 -0.8486 -0.7931
 2498SOL     OW18955   1.578   2.385   0.639  0.7486  0.3399  0.5487
 2498SOL    HW118956   1.590   2.442   0.563  1.1943 -0.6337 -0.1108
 2498SOL    HW218957   1.558   2.298   0.604  0.4658  0.1279  1.2477
 2499SOL     OW18958   2.356   3.552   5.643 -0.2550 -0.1863  0.3267
 2499SOL    HW118959   2.378   3.460   5.628 -0.3803 -0.1935  0.1807
 2499SOL    HW218960   2.383   3.595   5.562  1.0212 -0.8565  0.4085
 2500SOL     OW18961   1.353   2.109   8.660  0.5829 -0.0638 -0.1740
 2500SOL    HW118962   1.426   2.055   8.691  1.5651  0.9877 -0.6604
 2500SOL    HW218963   1.379   2.199   8.676 -1.9947  0.7372 -0.4211
 2501SOL     OW18964   1.163   0.747  11.863  0.2366  0.3284 -0.0112
 2501SOL    HW118965   1.202   0.758  11.950 -1.4596 -0.3558  0.8360
 2501SOL    HW218966   1.116   0.665  11.878 -0.7390  0.6069 -1.5436
 2502SOL     OW18967   1.724   2.693   5.326 -0.4096  0.1121  0.2114
 2502SOL    HW118968   1.677   2.626   5.275  0.8630  0.1381 -0.9971
 2502SOL    HW218969   1.713   2.765   5.264 -0.8629  0.4265  0.6610
 2503SOL     OW18970   2.718   1.814  17.097 -0.0031  0.2718  0.3519
 2503SOL    HW118971   2.629   1.846  17.081 -0.2817  0.2803  1.8580
 2503SOL    HW218972   2.757   1.829  17.011 -0.6662 -0.9628 -0.1558
 2504SOL     OW18973   1.791   0.515   5.871 -0.3050  0.3638 -0.5935
 2504SOL    HW118974   1.854   0.571   5.825 -0.0156  1.7376  1.4837
 2504SOL    HW218975   1.720   0.530   5.808  0.8255  0.7457 -1.7738
 2505SOL     OW18976   0.370   3.435   8.520  0.4148 -0.2495 -0.0293
 2505SOL    HW118977   0.461   3.464   8.517  0.0981  0.7402 -0.1121
 2505SOL    HW218978   0.321   3.514   8.498 -0.6683 -1.1705 -0.8892
 2506SOL     OW18979   2.853   3.262  11.829  0.1516 -0.0003 -0.6553
 2506SOL    HW118980   2.823   3.172  11.817 -2.3285  0.8144 -0.4780
 2506SOL    HW218981   2.777   3.319  11.823  0.4664  0.7830  2.4633
 2507SOL     OW18982   2.836   2.816   5.262 -0.0664 -0.2937  0.0902
 2507SOL    HW118983   2.913   2.789   5.212 -0.1519 -0.9868  0.3267
 2507SOL    HW218984   2.872   2.781   5.344  1.8575  0.5128 -0.4015
 2508SOL     OW18985   1.600   4.450   9.401  0.0810  0.5774 -0.0109
 2508SOL    HW118986   1.545   4.403   9.338  0.8564 -1.6485  0.9736
 2508SOL    HW218987   1.614   4.383   9.468  0.3616  0.9903  0.3458
 2509SOL     OW18988   0.579   1.633   2.710  0.0486  0.0509 -0.4668
 2509SOL    HW118989   0.673   1.623   2.698  0.7323  1.7821  3.2426
 2509SOL    HW218990   0.569   1.636   2.805 -1.5558  0.6747 -0.6509
 2510SOL     OW18991   0.896   2.162   8.734 -0.5313 -0.2096 -0.0875
 2510SOL    HW118992   0.955   2.089   8.756  0.4985  0.3571 -0.9582
 2510SOL    HW218993   0.822   2.138   8.789 -0.9125  3.6363  1.1039
 2511SOL     OW18994   3.308   1.929   7.023  0.3274  0.1301 -0.4595
 2511SOL    HW118995   3.219   1.902   7.046  0.4966  0.2181  0.3060
 2511SOL    HW218996   3.302   2.025   7.027  0.9954  0.0206  3.5015
 2512SOL     OW18997   0.005   2.439   8.233 -0.1186  0.3547  0.2455
 2512SOL    HW118998   0.009   2.359   8.285  2.8708 -0.9197 -1.9539
 2512SOL    HW218999   0.095   2.467   8.250 -0.6592  1.9992  0.4629
 2513SOL     OW19000   1.927   4.607   3.539 -0.1843  0.2561 -0.3798
 2513SOL    HW119001   1.832   4.612   3.554  0.0962 -0.2449  1.6316
 2513SOL    HW219002   1.949   4.515   3.552  1.1057  0.4898 -0.9374
 2514SOL     OW19003   0.463   3.129  13.580  0.1833  0.0749  0.2055
 2514SOL    HW119004   0.537   3.189  13.573  1.7397 -1.8067  0.4663
 2514SOL    HW219005   0.502   3.041  13.579 -4.7032 -2.1240  0.7809
 2515SOL     OW19006   2.933   1.138   6.140  0.0881  0.0515 -0.0568
 2515SOL    HW119007   2.843   1.128   6.108  0.0494 -0.4401  0.2011
 2515SOL    HW219008   2.923   1.133   6.235 -0.3199 -1.0309 -0.1483
 2516SOL     OW19009   1.905   1.339  10.966 -0.2942 -0.6075 -0.5949
 2516SOL    HW119010   1.935   1.334  11.057 -1.0085  0.1277 -0.3206
 2516SOL    HW219011   1.936   1.253  10.936 -1.2238 -0.2474 -2.5908
 2517SOL     OW19012   4.453   1.987   7.030 -0.7104  0.3464  0.1222
 2517SOL    HW119013   4.480   2.020   6.944 -3.1433 -0.5230 -0.9594
 2517SOL    HW219014   4.489   1.899   7.024 -2.8179 -0.4451 -0.6562
 2518SOL     OW19015   2.384   0.447   6.760 -0.2446 -0.3845 -0.6050
 2518SOL    HW119016   2.289   0.433   6.765 -0.1195 -0.8096  0.6005
 2518SOL    HW219017   2.380   0.539   6.788 -0.6350 -0.5515 -0.1191
 2519SOL     OW19018   2.334   2.682   6.582  0.1953 -0.1230 -0.1123
 2519SOL    HW119019   2.280   2.695   6.504  0.2689 -0.6305 -0.2434
 2519SOL    HW219020   2.275   2.645   6.648 -0.9706 -0.2566 -1.2293
 2520SOL     OW19021   2.276   1.449  11.274 -0.0483  0.6426 -0.3931
 2520SOL    HW119022   2.331   1.494  11.209  0.7711 -0.5948 -0.5498
 2520SOL    HW219023   2.333   1.439  11.350  0.6753 -2.7848 -1.4041
 2521SOL     OW19024   1.966   2.598   0.997  0.3751  0.7675 -0.7454
 2521SOL    HW119025   2.061   2.609   1.002  0.5363 -0.6940 -0.6740
 2521SOL    HW219026   1.936   2.681   1.034  2.2451  0.5267  1.3147
 2522SOL     OW19027   3.898   4.109  14.353 -0.0958 -0.1184  0.3197
 2522SOL    HW119028   3.831   4.059  14.308 -0.2787  1.8484 -1.5987
 2522SOL    HW219029   3.977   4.076  14.311  0.0712 -1.1961  1.4910
 2523SOL     OW19030   4.343   0.195   1.553  0.8270 -0.3982 -0.4203
 2523SOL    HW119031   4.325   0.103   1.571 -1.0058  0.0744  0.1825
 2523SOL    HW219032   4.313   0.231   1.636 -0.7383 -0.4325 -0.9613
 2524SOL     OW19033   3.928   3.395   2.408  0.1121  0.1366 -0.3430
 2524SOL    HW119034   3.997   3.458   2.430  1.4937 -1.2690 -0.6164
 2524SOL    HW219035   3.979   3.369   2.331  1.5214 -0.1365  0.6757
 2525SOL     OW19036   4.482   1.786   5.971 -0.0436  0.3969  0.1861
 2525SOL    HW119037   4.484   1.844   5.894 -3.6306  0.4215  0.1122
 2525SOL    HW219038   4.463   1.701   5.932  1.5011 -0.4205  1.2400
 2526SOL     OW19039   0.498   1.489   6.567  0.0109 -0.5343  0.5955
 2526SOL    HW119040   0.425   1.447   6.522 -0.1204 -0.6173  0.8924
 2526SOL    HW219041   0.558   1.414   6.574 -0.5408 -1.1688 -1.3762
 2527SOL     OW19042   1.289   0.861   1.618 -0.4375  0.2072  0.0717
 2527SOL    HW119043   1.291   0.909   1.535 -1.3400  1.3288  0.7003
 2527SOL    HW219044   1.281   0.771   1.586 -0.9953  0.4941 -0.5906
 2528SOL     OW19045   1.319   4.499  17.157 -0.1447 -0.9396 -0.1487
 2528SOL    HW119046   1.405   4.522  17.192 -0.4460  0.4478 -0.3354
 2528SOL    HW219047   1.262   4.492  17.234  0.0828 -1.7689 -0.0470
 2529SOL     OW19048   0.198   3.631   1.776 -0.2990 -0.1259 -0.5030
 2529SOL    HW119049   0.230   3.593   1.694 -0.0568 -0.7302 -0.1256
 2529SOL    HW219050   0.117   3.679   1.759 -1.6010 -1.9372  0.5999
 2530SOL     OW19051   3.388   1.209   0.994 -0.1583 -0.1428  0.1625
 2530SOL    HW119052   3.337   1.285   1.021  0.9464  0.6327  0.0694
 2530SOL    HW219053   3.455   1.218   1.062 -0.6503  2.4650  0.3002
 2531SOL     OW19054   2.388   4.277   7.164  0.3098  0.9017  0.2515
 2531SOL    HW119055   2.306   4.265   7.116 -0.2462  1.3931  1.0760
 2531SOL    HW219056   2.446   4.208   7.131  0.5418 -0.2082  2.9312
 2532SOL     OW19057   3.460   3.301  16.156 -0.4701  0.1514  0.2273
 2532SOL    HW119058   3.458   3.357  16.079 -3.2592  1.3637  1.1795
 2532SOL    HW219059   3.442   3.372  16.217  2.1716  1.0143  0.0075
 2533SOL     OW19060   1.743   0.635   2.956  0.1788  0.0517 -0.5248
 2533SOL    HW119061   1.811   0.660   2.893  1.8762 -0.8243  0.9504
 2533SOL    HW219062   1.725   0.718   3.000 -1.0323 -0.3930 -0.2033
 2534SOL     OW19063   3.409   0.454   1.152  0.1766  0.5186 -0.6804
 2534SOL    HW119064   3.447   0.416   1.073  1.9330 -1.8875  1.3054
 2534SOL    HW219065   3.318   0.464   1.127 -0.2537 -1.3973  0.0793
 2535SOL     OW19066   1.424   2.747  17.248  0.2083 -0.2924 -0.0849
 2535SOL    HW119067   1.336   2.713  17.262 -0.0852  0.6528  0.3560
 2535SOL    HW219068   1.472   2.747  17.331  1.4324 -0.0932 -0.7848
 2536SOL     OW19069   2.968   0.300   4.454 -0.4457 -0.2224 -0.1734
 2536SOL    HW119070   3.026   0.288   4.529  0.1732  1.7262 -0.3389
 2536SOL    HW219071   2.903   0.351   4.503 -0.6244 -0.0134 -0.6284
 2537SOL     OW19072   3.688   3.665  15.970 -0.0797 -0.4050  0.9887
 2537SOL    HW119073   3.687   3.751  15.928  1.4682 -0.4755  0.7957
 2537SOL    HW219074   3.759   3.617  15.928 -1.6273  0.0069 -2.0622
 2538SOL     OW19075   4.354   0.246   8.247  0.4286 -0.6620 -0.3893
 2538SOL    HW119076   4.435   0.268   8.201  0.6241 -1.4978 -0.4346
 2538SOL    HW219077   4.299   0.269   8.172 -0.6967 -1.1102  0.3006
 2539SOL     OW19078   0.513   3.733   5.420 -0.7662 -0.1955 -0.3789
 2539SOL    HW119079   0.457   3.771   5.352 -2.0645  0.4508  1.0411
 2539SOL    HW219080   0.506   3.804   5.484  1.6824 -1.6010  1.4450
 2540SOL     OW19081   1.446   0.807   7.280 -0.1942 -0.1737  0.3876
 2540SOL    HW119082   1.388   0.799   7.356 -1.6072  0.9237 -0.5503
 2540SOL    HW219083   1.392   0.856   7.217  2.1120  0.6219 -0.9894
 2541SOL     OW19084   4.681   2.278   9.799  0.2191 -0.2180  0.7597
 2541SOL    HW119085   4.622   2.345   9.834 -0.7476 -1.3269  1.2404
 2541SOL    HW219086   4.684   2.312   9.709  3.1000  0.6090  1.1657
 2542SOL     OW19087   1.727   4.638   1.198 -0.0137 -0.2303  0.0131
 2542SOL    HW119088   1.694   4.704   1.259  0.5916 -0.0663  0.1601
 2542SOL    HW219089   1.685   4.665   1.116  0.4204  1.5233  0.3551
 2543SOL     OW19090   1.831   3.432  14.929  0.4953  0.1725  0.5127
 2543SOL    HW119091   1.769   3.384  14.984 -0.4287 -0.6696 -1.2430
 2543SOL    HW219092   1.772   3.437  14.853  1.0949 -2.2009 -0.0871
 2544SOL     OW19093   3.339   2.120   5.623  0.2604 -0.5559  0.8103
 2544SOL    HW119094   3.294   2.083   5.547  2.4496 -1.6660  0.0737
 2544SOL    HW219095   3.262   2.165   5.659  1.5647  0.5645  2.2028
 2545SOL     OW19096   3.008   1.137  13.504 -0.7707  0.3742 -0.0647
 2545SOL    HW119097   2.961   1.194  13.564  1.5255  1.1249  1.0423
 2545SOL    HW219098   3.095   1.132  13.544 -1.2121  0.0758  0.8500
 2546SOL     OW19099   1.588   2.894   4.193  0.0820 -0.2365 -0.0998
 2546SOL    HW119100   1.628   2.912   4.279  0.4728 -0.0913 -0.3100
 2546SOL    HW219101   1.649   2.939   4.135 -0.4556  1.5971  0.7465
 2547SOL     OW19102   1.834   4.116   2.794 -0.4584 -0.4273  0.3286
 2547SOL    HW119103   1.835   4.146   2.885  0.3572 -2.0666  0.8498
 2547SOL    HW219104   1.880   4.186   2.748  0.0019  0.7913  2.6268
 2548SOL     OW19105   3.756   2.304   5.744  0.1308 -0.1533 -0.0873
 2548SOL    HW119106   3.675   2.310   5.692  1.0648 -0.7276 -1.6157
 2548SOL    HW219107   3.728   2.232   5.801  2.4733 -0.2308  0.9395
 2549SOL     OW19108   4.129   3.150  15.163 -0.4605 -0.3019  0.1709
 2549SOL    HW119109   4.078   3.132  15.084 -3.6506 -1.5671  2.5131
 2549SOL    HW219110   4.125   3.243  15.183  2.7812 -0.1307  0.0946
 2550SOL     OW19111   3.940   3.402   1.729  0.4359 -0.3550  0.0686
 2550SOL    HW119112   3.998   3.478   1.725 -0.0547 -0.0145 -0.6181
 2550SOL    HW219113   3.859   3.445   1.701  0.2737  0.4098  1.7251
 2551SOL     OW19114   3.846   0.674   0.948 -0.0098 -0.0917  0.6425
 2551SOL    HW119115   3.753   0.661   0.928  0.4757 -1.0683 -1.0338
 2551SOL    HW219116   3.866   0.758   0.906 -2.6946  1.4668  2.4366
 2552SOL     OW19117   1.841   0.037   6.876 -0.0147 -0.0707  0.5232
 2552SOL    HW119118   1.814   0.042   6.785  2.8009  0.1593 -0.2827
 2552SOL    HW219119   1.756   0.025   6.919  0.5038 -2.5139  0.8450
 2553SOL     OW19120   0.368   2.726  15.183 -0.1184 -0.1185  0.6146
 2553SOL    HW119121   0.360   2.699  15.091  0.9661  2.6149 -0.3072
 2553SOL    HW219122   0.431   2.798  15.177  2.6446 -2.5035  0.9429
 2554SOL     OW19123   2.768   3.501   7.725  0.3861 -0.2346 -0.3372
 2554SOL    HW119124   2.727   3.532   7.645 -0.5619 -1.9277 -0.4860
 2554SOL    HW219125   2.741   3.412   7.707  0.1977 -0.2448 -0.0075
 2555SOL     OW19126   0.273   0.286   7.560  0.1035  0.0313  0.0342
 2555SOL    HW119127   0.253   0.230   7.635 -1.2058  1.4508  0.7566
 2555SOL    HW219128   0.188   0.298   7.517  0.6922  0.1956 -1.0730
 2556SOL     OW19129   3.921   2.627  17.177 -0.5571 -0.0527 -0.0005
 2556SOL    HW119130   3.949   2.552  17.229 -0.3129  0.1856  0.2061
 2556SOL    HW219131   3.825   2.626  17.169 -0.7350  1.2139  2.0614
 2557SOL     OW19132   4.145   1.691   3.676 -0.0247  0.5477  0.0172
 2557SOL    HW119133   4.180   1.619   3.728 -1.3607 -1.7460 -2.2249
 2557SOL    HW219134   4.072   1.727   3.727  0.0408  0.0563  0.4550
 2558SOL     OW19135   0.987   2.707   5.067  0.4116 -0.2706  0.3354
 2558SOL    HW119136   0.986   2.743   4.979 -1.3895  1.7977  1.2070
 2558SOL    HW219137   1.051   2.761   5.113 -0.9937 -0.4625  2.5238
 2559SOL     OW19138   0.944   2.480  10.171 -0.4150  0.0572  0.1387
 2559SOL    HW119139   0.956   2.402  10.227  0.5181  0.1859  0.1229
 2559SOL    HW219140   0.855   2.465  10.139  0.6098 -0.0911 -2.6248
 2560SOL     OW19141   0.881   0.706   6.268 -0.1094 -0.2057 -0.1093
 2560SOL    HW119142   0.879   0.610   6.268  1.9437 -0.2516  1.8673
 2560SOL    HW219143   0.786   0.709   6.253 -0.1150  0.4535  0.0887
 2561SOL     OW19144   0.573   3.584   8.704  0.0798  0.5027 -0.1466
 2561SOL    HW119145   0.600   3.515   8.765 -0.6272 -1.5771 -2.1738
 2561SOL    HW219146   0.478   3.571   8.715  0.0954 -0.5054 -1.1228
 2562SOL     OW19147   1.659   2.873   2.734 -0.6544  0.6605 -0.3756
 2562SOL    HW119148   1.631   2.805   2.673  0.5890 -1.4790  1.4370
 2562SOL    HW219149   1.726   2.828   2.786 -0.4476  0.0278 -1.1934
 2563SOL     OW19150   1.083   0.731  13.648 -0.0735  0.1247  0.2830
 2563SOL    HW119151   1.120   0.724  13.560 -0.4154 -0.0307  0.1499
 2563SOL    HW219152   1.153   0.701  13.706 -1.5182 -2.0316  0.8836
 2564SOL     OW19153   1.513   0.526   4.041 -0.3869  0.1742  0.0573
 2564SOL    HW119154   1.568   0.500   3.967  0.1959  1.0986  0.1755
 2564SOL    HW219155   1.433   0.478   4.018  1.7581 -2.5543 -1.8389
 2565SOL     OW19156   4.022   4.370  14.242  0.0206  0.5665 -0.0344
 2565SOL    HW119157   4.103   4.381  14.291 -1.3253 -0.0691  2.3487
 2565SOL    HW219158   3.988   4.289  14.281  0.1529  0.1629 -0.7718
 2566SOL     OW19159   0.506   1.889   0.551  0.0225  0.0394  0.4135
 2566SOL    HW119160   0.556   1.959   0.593 -0.2614 -0.3596  1.4025
 2566SOL    HW219161   0.455   1.939   0.488 -1.6593 -2.3032 -0.0828
 2567SOL     OW19162   2.701   4.165  17.538 -0.6069 -0.2030  0.2270
 2567SOL    HW119163   2.635   4.098  17.557 -0.5563  0.1602  1.7014
 2567SOL    HW219164   2.760   4.117  17.480  0.3695  1.6717 -0.3200
 2568SOL     OW19165   2.947   2.296   4.301 -0.0231  0.1274  0.5115
 2568SOL    HW119166   2.918   2.224   4.357  0.7811 -0.2209  0.4904
 2568SOL    HW219167   2.994   2.242   4.236 -0.3999  1.5655 -0.9526
 2569SOL     OW19168   3.854   3.134   9.640  0.0275  0.2357  0.3472
 2569SOL    HW119169   3.826   3.046   9.664  1.0027  0.2681  1.6336
 2569SOL    HW219170   3.772   3.169   9.607 -0.0523 -0.4831 -0.1982
 2570SOL     OW19171   4.353   2.226   1.131 -0.3654  0.1715  0.0083
 2570SOL    HW119172   4.355   2.132   1.115  1.5480  0.2624 -0.3297
 2570SOL    HW219173   4.317   2.257   1.047 -0.5964 -2.6304 -0.9195
 2571SOL     OW19174   3.332   0.810  11.644 -0.1188  0.2909 -0.1120
 2571SOL    HW119175   3.350   0.894  11.687 -0.6028 -0.3678  1.3726
 2571SOL    HW219176   3.403   0.748  11.659  1.8852  1.5026 -4.5867
 2572SOL     OW19177   3.297   2.301   4.527  0.4553  0.3403  0.1055
 2572SOL    HW119178   3.269   2.320   4.438  0.2647  0.9842  0.3025
 2572SOL    HW219179   3.296   2.206   4.540  0.3757  0.1479 -1.3033
 2573SOL     OW19180   2.476   0.251   5.885  0.5182 -0.3848  0.0484
 2573SOL    HW119181   2.390   0.282   5.913  0.5013 -0.1177 -0.2991
 2573SOL    HW219182   2.499   0.176   5.940  1.3729 -0.9546 -1.0780
 2574SOL     OW19183   3.476   3.488   5.831  0.2870 -0.4781  0.0174
 2574SOL    HW119184   3.546   3.423   5.830  1.7122  1.0756 -0.3635
 2574SOL    HW219185   3.402   3.427   5.835  0.2378 -0.3484  1.3271
 2575SOL     OW19186   1.368   2.138   9.681  0.2865 -0.3311  0.2887
 2575SOL    HW119187   1.276   2.129   9.707  0.3763  2.3809  1.5096
 2575SOL    HW219188   1.419   2.136   9.762  1.1924 -2.0268 -0.3165
 2576SOL     OW19189   4.619   4.311   2.244  0.7413 -0.0060  0.0862
 2576SOL    HW119190   4.563   4.339   2.316 -0.8944 -2.2925 -0.2979
 2576SOL    HW219191   4.692   4.271   2.292  0.1631  0.1411  1.0841
 2577SOL     OW19192   3.186   0.318   0.204 -0.0169  0.3366 -0.1707
 2577SOL    HW119193   3.202   0.237   0.156  1.2016  1.5067 -1.7172
 2577SOL    HW219194   3.135   0.374   0.146  0.2624  1.8231  0.9953
 2578SOL     OW19195   0.083   1.720   4.035 -0.2984  0.1665 -0.2322
 2578SOL    HW119196   0.038   1.802   4.015 -0.9530 -0.6345 -2.0717
 2578SOL    HW219197   0.078   1.720   4.130 -3.6859  3.3419 -0.4370
 2579SOL     OW19198   3.930   1.214   4.496  0.1978 -0.0075 -0.2189
 2579SOL    HW119199   3.928   1.304   4.528 -0.9514 -0.2177  0.2987
 2579SOL    HW219200   4.023   1.192   4.487 -0.5619 -2.7005 -1.3232
 2580SOL     OW19201   3.407   2.687   6.433 -0.0096  0.6740  0.2320
 2580SOL    HW119202   3.314   2.665   6.431 -0.0689  0.9380  0.1735
 2580SOL    HW219203   3.445   2.601   6.454 -0.0395 -0.2086 -3.1874
 2581SOL     OW19204   0.838   2.343   3.643  0.5133  0.1446 -0.2207
 2581SOL    HW119205   0.903   2.311   3.705 -0.0535  1.3506  1.0116
 2581SOL    HW219206   0.894   2.350   3.566  0.0753  2.1069 -0.3793
 2582SOL     OW19207   2.387   0.597   8.715  0.4336 -0.4721 -0.2638
 2582SOL    HW119208   2.316   0.654   8.684  1.2377  0.1327 -0.9835
 2582SOL    HW219209   2.421   0.643   8.791 -1.1818 -0.1332  0.2676
 2583SOL     OW19210   0.018   2.939   9.939 -0.1400  0.5126 -0.1462
 2583SOL    HW119211   0.039   2.929   9.847  0.2854 -0.4529  0.0551
 2583SOL    HW219212   0.056   3.025   9.961 -0.3763  0.5006  0.3229
 2584SOL     OW19213   0.282   4.344   5.069 -0.8531  0.5438  0.2734
 2584SOL    HW119214   0.228   4.362   4.993  0.5654  0.3609 -0.7823
 2584SOL    HW219215   0.267   4.415   5.131  0.5590  1.1812 -0.1086
 2585SOL     OW19216   4.174   2.671  16.763  0.3325  0.6485  0.4282
 2585SOL    HW119217   4.098   2.708  16.808  0.1634 -0.0214  0.6912
 2585SOL    HW219218   4.193   2.751  16.714  0.2816  0.2343 -0.2680
 2586SOL     OW19219   1.700   2.499  16.906 -0.4037 -0.0688  0.1934
 2586SOL    HW119220   1.620   2.526  16.950  1.4860  2.5576  2.0230
 2586SOL    HW219221   1.763   2.553  16.954 -1.1453 -0.5891  1.7418
 2587SOL     OW19222   1.255   2.586   5.318  0.1024 -0.3278  0.2929
 2587SOL    HW119223   1.160   2.574   5.327  0.0981  0.3652  1.1531
 2587SOL    HW219224   1.263   2.649   5.246  0.3396  0.4939  1.0477
 2588SOL     OW19225   1.106   2.651  11.109  0.3719  0.3315  0.2434
 2588SOL    HW119226   1.193   2.689  11.098  0.6991 -0.8138 -1.1650
 2588SOL    HW219227   1.067   2.714  11.170  0.9852  0.4720  0.4896
 2589SOL     OW19228   1.766   3.134  12.674  1.0447  0.2500 -0.0784
 2589SOL    HW119229   1.790   3.140  12.582 -0.4304 -0.4107 -0.5215
 2589SOL    HW219230   1.771   3.225  12.701 -0.0706  0.6007 -1.0485
 2590SOL     OW19231   2.889   2.531  11.353 -0.1986  0.4485 -0.1221
 2590SOL    HW119232   2.899   2.437  11.338  0.1417  0.3148  0.9873
 2590SOL    HW219233   2.805   2.532  11.400  0.4378 -0.7349  1.0412
 2591SOL     OW19234   0.216   0.997   2.174 -0.1916  0.0712  0.1236
 2591SOL    HW119235   0.262   0.986   2.091  0.0693 -1.9799  0.5396
 2591SOL    HW219236   0.285   1.045   2.220  1.0682 -0.0263 -1.7051
 2592SOL     OW19237   2.163   4.616  16.330 -0.1839 -0.9456 -0.4841
 2592SOL    HW119238   2.105   4.585  16.399 -2.2473  0.6603 -1.5173
 2592SOL    HW219239   2.142   4.710  16.332  2.2472 -0.4080  0.6977
 2593SOL     OW19240   1.817   3.046  11.574 -0.0109  0.5535  0.5395
 2593SOL    HW119241   1.828   3.139  11.554  2.5564 -0.4751 -2.8686
 2593SOL    HW219242   1.823   3.057  11.669  1.3982  2.2704  0.2521
 2594SOL     OW19243   3.918   0.511   3.716 -0.2210 -0.0322  0.0347
 2594SOL    HW119244   3.846   0.515   3.653  1.2651  2.5614 -1.4998
 2594SOL    HW219245   3.994   0.494   3.661 -0.3809  1.0144 -0.5090
 2595SOL     OW19246   1.027   4.704  17.527 -0.7084  0.1614  0.1074
 2595SOL    HW119247   0.977   0.050  17.572 -3.4642 -0.7895 -1.5279
 2595SOL    HW219248   0.961   4.635  17.528  0.0885 -0.5898  0.8411
 2596SOL     OW19249   2.277   3.552   3.022  0.6498  0.5863  0.3484
 2596SOL    HW119250   2.214   3.623   3.014 -0.3503 -0.5966 -2.2805
 2596SOL    HW219251   2.340   3.586   2.959  1.1973  1.6009  1.4317
 2597SOL     OW19252   1.040   3.373  12.730  0.3712  0.8086 -0.2745
 2597SOL    HW119253   0.985   3.417  12.795  1.5639  0.8257  0.7165
 2597SOL    HW219254   1.015   3.411  12.646  0.8954  1.2550 -0.2325
 2598SOL     OW19255   2.532   0.790   2.591 -0.0442 -0.2200 -0.1621
 2598SOL    HW119256   2.484   0.708   2.581  0.0912 -0.5544  1.7931
 2598SOL    HW219257   2.481   0.832   2.522  1.2697  2.4103  0.4831
 2599SOL     OW19258   2.191   0.870   5.971 -0.5825  0.1199  0.1458
 2599SOL    HW119259   2.114   0.916   6.003  0.5537  1.4487  0.9534
 2599SOL    HW219260   2.160   0.780   5.960 -0.1461  0.0421 -0.5125
 2600SOL     OW19261   0.976   0.949   6.299  0.7434  0.1194  0.4220
 2600SOL    HW119262   0.949   0.857   6.293  3.1748 -0.5907  0.0070
 2600SOL    HW219263   1.002   0.962   6.208  0.2579  1.4780  0.4811
 2601SOL     OW19264   0.584   0.763   6.899  0.0099  0.3602  0.5960
 2601SOL    HW119265   0.646   0.694   6.923  1.0182  1.3464  0.8401
 2601SOL    HW219266   0.631   0.844   6.917  1.8906 -0.5182 -0.3935
 2602SOL     OW19267   2.596   3.868   2.682  0.3119  0.4198 -0.1445
 2602SOL    HW119268   2.653   3.801   2.643 -1.9365 -1.4015 -0.3222
 2602SOL    HW219269   2.589   3.940   2.620  0.7918 -0.4833 -1.2584
 2603SOL     OW19270   1.853   1.380  12.984  0.1809  0.3598  0.0331
 2603SOL    HW119271   1.868   1.303  13.039  1.1058  1.4431  1.2842
 2603SOL    HW219272   1.918   1.442  13.016 -0.7772  1.4836 -0.2395
 2604SOL     OW19273   2.990   4.693   2.184 -0.1623  0.3079 -0.2194
 2604SOL    HW119274   2.966   0.056   2.150 -1.1884 -0.5246 -1.6156
 2604SOL    HW219275   2.953   4.641   2.113 -0.2909  1.6414 -1.1206
 2605SOL     OW19276   1.713   1.433   9.219 -0.1859  0.6884 -0.1376
 2605SOL    HW119277   1.694   1.395   9.305 -0.7059  2.6520  0.6158
 2605SOL    HW219278   1.792   1.387   9.194 -1.2982 -0.2537 -1.8842
 2606SOL     OW19279   3.408   1.352   4.536  0.5635  0.0607 -0.3116
 2606SOL    HW119280   3.445   1.340   4.624  0.5882  1.8666 -0.0655
 2606SOL    HW219281   3.472   1.306   4.481  0.2556 -0.4815 -0.2144
 2607SOL     OW19282   2.729   2.447   4.232 -0.2800  0.5094 -0.0857
 2607SOL    HW119283   2.794   2.401   4.285 -0.3356 -0.4397 -0.8466
 2607SOL    HW219284   2.670   2.475   4.302  0.5337  1.0833  0.3708
 2608SOL     OW19285   4.181   1.316  17.665 -0.0611 -0.5859 -0.0369
 2608SOL    HW119286   4.233   1.356   0.043 -0.4151 -0.5585  0.2083
 2608SOL    HW219287   4.127   1.387  17.630 -0.2802 -0.7385 -0.0060
 2609SOL     OW19288   3.583   3.552   5.553  0.0087  0.1568  0.6701
 2609SOL    HW119289   3.566   3.459   5.569 -1.0464  0.0686 -0.9078
 2609SOL    HW219290   3.626   3.577   5.634  0.5828  3.3769 -0.6365
 2610SOL     OW19291   0.999   2.691  15.119  0.1167 -0.0100 -0.5879
 2610SOL    HW119292   0.983   2.602  15.087 -0.8755 -0.8158  2.1853
 2610SOL    HW219293   0.917   2.726  15.155  0.0474 -1.4907  0.6979
 2611SOL     OW19294   0.362   2.639   7.495 -0.3542  0.2260 -0.0620
 2611SOL    HW119295   0.331   2.728   7.512  0.1768  0.2224  0.8854
 2611SOL    HW219296   0.452   2.656   7.522  0.0696 -0.0941 -1.2503
 2612SOL     OW19297   3.618   4.256   1.498 -0.3129 -0.8339 -0.3423
 2612SOL    HW119298   3.523   4.270   1.496 -0.2203  0.1739  3.1369
 2612SOL    HW219299   3.635   4.163   1.515 -1.8005 -1.5543 -2.7688
 2613SOL     OW19300   4.161   2.621   5.256 -0.3905  0.2283 -0.9405
 2613SOL    HW119301   4.181   2.705   5.297 -4.2596 -0.1240  1.7012
 2613SOL    HW219302   4.158   2.556   5.327  4.3167 -0.3727 -1.2704
 2614SOL     OW19303   1.852   3.285   4.164  0.1188  0.5308 -0.1683
 2614SOL    HW119304   1.905   3.227   4.217 -1.1130 -0.6811 -0.2725
 2614SOL    HW219305   1.851   3.234   4.083  1.6235 -0.2137  0.2761
 2615SOL     OW19306   2.489   1.079   7.585 -0.0363 -0.2926  0.1489
 2615SOL    HW119307   2.534   1.087   7.669  1.3705 -2.6767 -0.3776
 2615SOL    HW219308   2.543   1.126   7.522 -0.5815  1.4137  0.9536
 2616SOL     OW19309   4.022   2.389   4.639 -0.5162 -0.3589  0.3052
 2616SOL    HW119310   4.015   2.318   4.575 -0.3213  0.1190 -0.2558
 2616SOL    HW219311   4.104   2.366   4.682 -0.0590  0.3993 -0.1566
 2617SOL     OW19312   4.676   1.329   5.365 -0.4629  0.2074 -0.0146
 2617SOL    HW119313   4.603   1.272   5.341  1.7691 -1.3075 -3.1973
 2617SOL    HW219314   4.650   1.406   5.316 -0.2509  0.7502  0.7232
 2618SOL     OW19315   2.629   3.863   7.711  0.0620 -0.3826  0.4127
 2618SOL    HW119316   2.679   3.887   7.633 -0.8736  0.4641  0.0804
 2618SOL    HW219317   2.613   3.954   7.736  1.5331  0.0807 -0.3430
 2619SOL     OW19318   2.240   2.124   6.155 -0.8066  0.0598 -0.1228
 2619SOL    HW119319   2.225   2.210   6.195  1.8919  0.9408 -0.9847
 2619SOL    HW219320   2.266   2.137   6.064 -2.5958 -1.2337 -0.8058
 2620SOL     OW19321   4.263   4.510   7.380 -0.8084  0.3150  0.1522
 2620SOL    HW119322   4.331   4.468   7.328 -1.9813 -0.7127 -0.5703
 2620SOL    HW219323   4.286   4.463   7.460 -0.8696 -0.0911 -0.0692
 2621SOL     OW19324   4.708   2.240   5.127  0.5161 -0.2788  0.0164
 2621SOL    HW119325   0.042   2.172   5.163 -0.7813 -0.8643  0.9552
 2621SOL    HW219326   4.657   2.275   5.199 -1.6838 -1.1730 -1.1242
 2622SOL     OW19327   2.226   0.818   2.695  0.0442 -0.3113 -0.4211
 2622SOL    HW119328   2.289   0.813   2.624  1.8078  1.5652  1.0072
 2622SOL    HW219329   2.226   0.735   2.741  0.4433 -0.3468 -0.4859
 2623SOL     OW19330   0.221   3.951  10.483  0.1699  0.2614  0.1613
 2623SOL    HW119331   0.165   3.894  10.431  0.4067 -1.7019  2.0614
 2623SOL    HW219332   0.270   3.903  10.550 -1.3893  1.5266  2.1884
 2624SOL     OW19333   2.698   0.778   3.495 -0.3132 -0.2235  0.3662
 2624SOL    HW119334   2.627   0.777   3.559  0.6382 -0.0622  1.4184
 2624SOL    HW219335   2.745   0.857   3.524 -1.3607  0.3786  0.4065
 2625SOL     OW19336   0.575   4.361   6.633 -0.2125  0.0056  0.4403
 2625SOL    HW119337   0.573   4.429   6.700 -1.8118 -3.0729  3.5337
 2625SOL    HW219338   0.571   4.286   6.693  3.6332  1.5498  2.5999
 2626SOL     OW19339   2.765   2.207   6.101 -0.3928 -0.7659  0.1284
 2626SOL    HW119340   2.727   2.206   6.189 -0.2940 -1.5522  0.1651
 2626SOL    HW219341   2.717   2.133   6.062 -2.4750  0.2999  0.6707
 2627SOL     OW19342   4.310   0.897   6.051  0.1190 -0.4567 -0.1890
 2627SOL    HW119343   4.260   0.817   6.065  2.8728 -2.2203 -0.5891
 2627SOL    HW219344   4.363   0.902   6.130  0.0408  2.4303 -0.3008
 2628SOL     OW19345   0.887   0.225  12.570 -0.4753 -0.0954  0.6050
 2628SOL    HW119346   0.832   0.264  12.502 -0.7295 -0.2627  0.7177
 2628SOL    HW219347   0.864   0.132  12.568 -3.0117  0.5497 -0.2818
 2629SOL     OW19348   3.440   2.973   8.911 -0.2789 -0.5833  0.7490
 2629SOL    HW119349   3.421   3.057   8.952 -0.0997  0.3451 -1.0493
 2629SOL    HW219350   3.372   2.913   8.940 -0.7183 -0.2441  0.4275
 2630SOL     OW19351   1.239   2.890   7.112 -0.4328 -0.0282  0.0244
 2630SOL    HW119352   1.209   2.912   7.200 -0.5634  1.0474 -0.2873
 2630SOL    HW219353   1.334   2.880   7.120 -0.3737  1.6913  1.5067
 2631SOL     OW19354   0.624   2.240   6.978  0.1860 -0.1573 -0.5176
 2631SOL    HW119355   0.581   2.243   7.063 -0.5833 -2.5829 -0.8125
 2631SOL    HW219356   0.695   2.179   6.997 -0.6717 -0.6075  1.2057
 2632SOL     OW19357   3.040   3.430   2.655 -0.3540  0.8571 -0.2268
 2632SOL    HW119358   2.951   3.463   2.667 -1.6987 -2.9849  0.2845
 2632SOL    HW219359   3.037   3.381   2.573  0.3551 -2.3980  1.6970
 2633SOL     OW19360   2.007   1.638   0.991 -0.1187 -0.1104 -0.2601
 2633SOL    HW119361   2.012   1.721   1.039  1.4882  0.3218 -1.1591
 2633SOL    HW219362   2.012   1.661   0.898  1.5126  0.8276  0.0497
 2634SOL     OW19363   1.100   3.320   5.668  0.6886 -0.0378  0.3829
 2634SOL    HW119364   1.159   3.364   5.729 -1.6562  2.5404  0.7713
 2634SOL    HW219365   1.077   3.241   5.718 -1.3194 -0.7347 -1.6073
 2635SOL     OW19366   2.701   2.571  16.366 -0.3964 -0.0215 -0.2390
 2635SOL    HW119367   2.656   2.591  16.284  2.0039 -1.5927 -1.9495
 2635SOL    HW219368   2.656   2.633  16.422 -0.9500 -1.3577  0.8021
 2636SOL     OW19369   3.210   1.022   4.088 -0.0638 -0.3970  0.2767
 2636SOL    HW119370   3.164   0.996   4.009  0.3906 -2.4133  0.6601
 2636SOL    HW219371   3.161   1.095   4.126  1.2458  0.8187 -0.3897
 2637SOL     OW19372   4.247   1.819  11.917 -0.2854  0.0230  0.1378
 2637SOL    HW119373   4.276   1.773  11.838 -0.7273  1.0925 -0.6444
 2637SOL    HW219374   4.229   1.743  11.972  0.8912 -0.5087 -0.2109
 2638SOL     OW19375   0.175   0.147   7.771  0.2160  0.4335  0.2751
 2638SOL    HW119376   0.226   0.075   7.734 -2.2596 -1.1084 -0.0918
 2638SOL    HW219377   0.107   0.100   7.821  0.1773 -0.0800 -0.2628
 2639SOL     OW19378   4.111   2.619   8.416 -0.4837 -0.6935  0.1906
 2639SOL    HW119379   4.138   2.632   8.507 -0.4374 -1.6054  0.3119
 2639SOL    HW219380   4.076   2.703   8.388  0.7449 -0.0808  0.5047
 2640SOL     OW19381   4.409   0.783   8.166  0.1781 -0.3090  0.5427
 2640SOL    HW119382   4.393   0.700   8.121 -0.9145 -0.8448  1.9224
 2640SOL    HW219383   4.442   0.741   8.245  1.6871 -0.8375 -0.3785
 2641SOL     OW19384   1.057   4.694   6.409  0.1815  0.6543 -0.7005
 2641SOL    HW119385   1.096   4.669   6.493  1.3068  1.2430 -1.0468
 2641SOL    HW219386   0.975   0.008   6.444  1.4305  1.9115  0.9557
 2642SOL     OW19387   3.389   0.616  13.879  0.3953  0.2248 -0.6783
 2642SOL    HW119388   3.427   0.535  13.845 -0.1550 -0.0541 -0.6279
 2642SOL    HW219389   3.396   0.674  13.803  1.6177  0.3336 -0.4773
 2643SOL     OW19390   4.713   0.460   6.338  0.2988  0.6795 -0.8641
 2643SOL    HW119391   0.019   0.549   6.360 -0.8004  1.1882 -1.5139
 2643SOL    HW219392   4.675   0.479   6.252  0.3140  0.3815 -0.9344
 2644SOL     OW19393   0.091   3.351   0.664  0.1744 -0.3956 -1.1126
 2644SOL    HW119394   0.157   3.404   0.620  0.7206 -0.5790 -0.4936
 2644SOL    HW219395   0.112   3.262   0.634 -4.0413 -0.8107 -3.0004
 2645SOL     OW19396   2.187   2.249   7.836 -0.0768 -0.2169  0.0320
 2645SOL    HW119397   2.185   2.334   7.791  1.8990 -1.0455 -1.5668
 2645SOL    HW219398   2.263   2.204   7.800  1.1111 -0.6505  3.0683
 2646SOL     OW19399   0.141   0.479   6.923  0.0046  0.0821  0.0404
 2646SOL    HW119400   0.138   0.575   6.923 -0.4200  0.0759  2.9736
 2646SOL    HW219401   0.063   0.463   6.977  0.4232  0.8451  0.8682
 2647SOL     OW19402   2.697   2.674   6.818 -0.1600 -0.4502 -0.0078
 2647SOL    HW119403   2.705   2.614   6.744  1.9263 -0.9960  0.6567
 2647SOL    HW219404   2.607   2.703   6.802  0.0949  0.8183  0.9389
 2648SOL     OW19405   1.258   2.657   8.181 -0.1521 -0.3387 -0.2062
 2648SOL    HW119406   1.267   2.584   8.242  3.2746 -1.2415 -1.7562
 2648SOL    HW219407   1.165   2.642   8.166 -0.3721  1.9293 -1.2238
 2649SOL     OW19408   0.671   1.858   6.905 -0.5253  0.0459 -0.0119
 2649SOL    HW119409   0.686   1.783   6.847  1.8650 -0.0706  0.7474
 2649SOL    HW219410   0.757   1.898   6.888 -0.4220 -0.7889 -1.5027
 2650SOL     OW19411   3.155   3.824   5.099  0.0254  0.8167 -0.5885
 2650SOL    HW119412   3.129   3.895   5.157  3.8653  2.0753 -0.4318
 2650SOL    HW219413   3.130   3.849   5.010 -0.3009 -1.0149 -1.0264
 2651SOL     OW19414   2.667   0.029   9.485  0.0123  0.0226  0.4491
 2651SOL    HW119415   2.651   4.657   9.484 -3.0521  0.5499 -1.3056
 2651SOL    HW219416   2.674   0.042   9.580  1.1967  4.3626 -0.2346
 2652SOL     OW19417   1.599   2.116  16.952 -0.0395  0.1013  0.3138
 2652SOL    HW119418   1.659   2.150  16.886  0.5161  1.0696  1.3221
 2652SOL    HW219419   1.630   2.153  17.034  0.2045 -0.8454  0.6534
 2653SOL     OW19420   2.001   3.613   9.850 -0.1632 -0.3194  0.2682
 2653SOL    HW119421   2.071   3.616   9.916 -1.1366  4.3627  1.0954
 2653SOL    HW219422   1.980   3.706   9.841  0.7721 -0.2250 -0.9967
 2654SOL     OW19423   3.114   3.496   5.293 -0.8398 -0.2486 -0.0673
 2654SOL    HW119424   3.198   3.542   5.285 -0.3044 -0.9966  1.2707
 2654SOL    HW219425   3.077   3.544   5.367 -0.3183  1.5008 -0.9329
 2655SOL     OW19426   0.652   3.175   8.441  0.0229 -0.1553  0.1492
 2655SOL    HW119427   0.596   3.158   8.365 -0.0735 -1.6722  0.5519
 2655SOL    HW219428   0.735   3.179   8.392  0.8784 -0.3746  1.6055
 2656SOL     OW19429   3.836   0.165   0.855  0.7150  0.4108 -0.0094
 2656SOL    HW119430   3.774   0.104   0.896 -0.1049 -0.1530 -2.0373
 2656SOL    HW219431   3.781   0.195   0.782  1.3905  1.2621 -0.1640
 2657SOL     OW19432   4.119   3.828   3.842  0.3119  0.5828 -0.2009
 2657SOL    HW119433   4.046   3.867   3.794  1.4508  1.0394 -1.5574
 2657SOL    HW219434   4.078   3.776   3.911  0.5782  1.2161  0.4367
 2658SOL     OW19435   3.093   2.043  17.337  0.1293 -0.1412  0.2352
 2658SOL    HW119436   3.020   2.086  17.292  0.3373  0.3068  0.3192
 2658SOL    HW219437   3.162   2.106  17.315 -0.5640  0.6715  0.3858
 2659SOL     OW19438   1.406   4.237   1.819  0.1579 -0.2022  0.0564
 2659SOL    HW119439   1.410   4.215   1.912  1.9433 -0.4417 -0.0851
 2659SOL    HW219440   1.329   4.184   1.799  1.1683 -0.7557 -2.2398
 2660SOL     OW19441   1.957   3.634  16.182  0.3760  0.5107 -0.3033
 2660SOL    HW119442   1.887   3.699  16.189 -0.7404 -0.2235 -4.4880
 2660SOL    HW219443   2.026   3.697  16.199  1.7513 -0.5240 -2.0492
 2661SOL     OW19444   2.629   3.037   3.138  0.2656  0.0344  0.5669
 2661SOL    HW119445   2.620   3.072   3.227 -2.5450 -0.6080  0.5426
 2661SOL    HW219446   2.724   3.037   3.132  0.3321  1.6010  1.7225
 2662SOL     OW19447   2.253   3.831   9.733 -0.2636  0.3285  0.4712
 2662SOL    HW119448   2.311   3.838   9.657  0.4002  2.1357  1.1638
 2662SOL    HW219449   2.299   3.879   9.801  0.1278  3.2216 -1.8564
 2663SOL     OW19450   2.165   0.990   4.771 -0.4845  0.1447  0.3435
 2663SOL    HW119451   2.190   0.976   4.679  1.2042 -3.2491  1.3409
 2663SOL    HW219452   2.238   0.954   4.821  0.4119 -1.1669 -1.8782
 2664SOL     OW19453   0.745   3.938   5.553 -0.2934 -0.0417 -0.1898
 2664SOL    HW119454   0.768   4.014   5.606  3.1259  0.5502 -2.5456
 2664SOL    HW219455   0.776   3.956   5.464  0.4115 -0.0359  0.0591
 2665SOL     OW19456   3.761   2.428   2.148 -0.0808 -0.2339 -0.0378
 2665SOL    HW119457   3.715   2.350   2.178  0.2929  0.3381  2.0199
 2665SOL    HW219458   3.849   2.421   2.186 -0.2037 -1.4077  0.0309
 2666SOL     OW19459   3.923   1.773   0.114  0.5175 -0.5753 -0.4033
 2666SOL    HW119460   3.994   1.837   0.124  0.2550 -0.3308 -0.0952
 2666SOL    HW219461   3.893   1.786   0.024 -1.2320  1.0363  0.4050
 2667SOL     OW19462   0.979   1.185   8.445  0.0929 -0.2655  0.2505
 2667SOL    HW119463   0.952   1.236   8.369 -1.3608 -0.5780  0.5744
 2667SOL    HW219464   1.068   1.218   8.463 -0.7068  2.7810 -1.3387
 2668SOL     OW19465   2.074   0.560   7.990 -0.2139  0.2757 -0.2241
 2668SOL    HW119466   2.107   0.614   7.918 -0.1069  3.4705  2.2329
 2668SOL    HW219467   2.003   0.505   7.957 -0.2503 -0.4006  0.9954
 2669SOL     OW19468   1.142   0.689  16.470  0.3150  0.3017  0.0979
 2669SOL    HW119469   1.101   0.603  16.476  1.0901 -0.0487  0.4438
 2669SOL    HW219470   1.152   0.704  16.376  0.1176 -1.1226 -0.1386
 2670SOL     OW19471   1.140   2.404   6.397  0.5868  0.4163  0.3303
 2670SOL    HW119472   1.223   2.357   6.401  0.3562 -0.0608 -0.5637
 2670SOL    HW219473   1.123   2.425   6.489 -0.0541 -0.2123  0.3518
 2671SOL     OW19474   3.220   2.308   3.081 -0.3866  0.1487 -0.8081
 2671SOL    HW119475   3.259   2.301   3.168 -3.1909  1.0782  0.5217
 2671SOL    HW219476   3.281   2.248   3.038 -0.8993 -0.3519 -0.8418
 2672SOL     OW19477   1.730   2.043   4.337  0.0570 -0.2914 -0.7009
 2672SOL    HW119478   1.727   2.076   4.427  0.2778 -1.6430 -0.1926
 2672SOL    HW219479   1.778   2.112   4.292 -0.4817  1.7494  1.8201
 2673SOL     OW19480   3.727   3.440  14.068  0.4860 -0.2384  0.4752
 2673SOL    HW119481   3.778   3.395  14.135  2.7588  1.6264 -0.0153
 2673SOL    HW219482   3.788   3.436  13.995  1.2192 -1.6869  1.1808
 2674SOL     OW19483   2.414   0.854  12.177  0.1379 -0.0949 -0.0367
 2674SOL    HW119484   2.453   0.940  12.161 -1.3428  0.3835 -1.0732
 2674SOL    HW219485   2.400   0.830  12.086  0.5832 -1.3915  0.2355
 2675SOL     OW19486   1.507   2.390   8.195 -0.1803  0.0143 -0.5192
 2675SOL    HW119487   1.500   2.295   8.197 -0.0693  0.0428  1.0424
 2675SOL    HW219488   1.480   2.410   8.284  0.2389 -1.7541 -0.0019
 2676SOL     OW19489   2.963   1.302   2.838 -0.3160  0.7095 -0.5898
 2676SOL    HW119490   2.988   1.338   2.753 -0.5064  0.5044 -0.7322
 2676SOL    HW219491   3.035   1.239   2.850  0.3837  1.2896 -1.7407
 2677SOL     OW19492   4.214   1.060   4.120 -0.1301 -0.1842  0.2356
 2677SOL    HW119493   4.223   0.967   4.100  1.4887  0.1509 -0.5509
 2677SOL    HW219494   4.268   1.059   4.199 -0.6700 -2.0466  0.5937
 2678SOL     OW19495   0.878   3.782   8.835  1.0727  0.1810 -0.2287
 2678SOL    HW119496   0.788   3.763   8.862  1.4028  0.8330  1.2824
 2678SOL    HW219497   0.922   3.701   8.860  1.5470 -0.9040 -4.5801
 2679SOL     OW19498   2.535   2.981   7.753 -0.6525  0.4817 -0.1947
 2679SOL    HW119499   2.573   2.961   7.668  0.2087  0.2820  0.2385
 2679SOL    HW219500   2.606   2.958   7.813 -0.4417  0.2348 -0.5384
 2680SOL     OW19501   3.734   3.002   2.890  0.0504  0.0779  0.0404
 2680SOL    HW119502   3.753   2.930   2.950 -0.9956  1.3427  1.8855
 2680SOL    HW219503   3.724   2.964   2.803  0.2968  0.4931 -0.1669
 2681SOL     OW19504   0.160   3.688   4.669 -0.0132 -0.4370 -0.0471
 2681SOL    HW119505   0.232   3.680   4.606 -0.6475 -0.7190 -0.7363
 2681SOL    HW219506   0.087   3.671   4.610 -0.7327 -1.2867  1.0872
 2682SOL     OW19507   0.743   3.947   3.243 -0.5713  0.3072 -0.2466
 2682SOL    HW119508   0.748   3.982   3.332  1.9291  0.1050 -0.3071
 2682SOL    HW219509   0.817   3.997   3.208  0.4803 -0.7878  0.4398
 2683SOL     OW19510   3.085   0.914   1.934 -0.3188 -1.0641  0.0544
 2683SOL    HW119511   3.170   0.953   1.911 -0.1686 -1.9946 -0.9631
 2683SOL    HW219512   3.077   0.939   2.026  0.1195  0.9907 -0.4614
 2684SOL     OW19513   2.724   1.847   4.647 -0.1940  0.8761 -0.2189
 2684SOL    HW119514   2.732   1.862   4.742 -0.6261  0.0050 -0.0419
 2684SOL    HW219515   2.814   1.842   4.617  0.0096  0.8434  0.3866
 2685SOL     OW19516   4.665   0.950   8.312 -0.2750  0.2232  0.3950
 2685SOL    HW119517   4.705   0.931   8.397  0.0726 -0.5522  0.0578
 2685SOL    HW219518   4.638   0.863   8.283  0.6436 -0.7178  2.3228
 2686SOL     OW19519   1.876   4.364  15.876 -0.8223 -0.4330 -0.1243
 2686SOL    HW119520   1.915   4.300  15.816  0.5238 -0.2932  0.6064
 2686SOL    HW219521   1.929   4.349  15.954 -0.9114 -0.1738 -0.0115
 2687SOL     OW19522   0.653   2.979   0.514 -0.0511 -0.0694  0.2455
 2687SOL    HW119523   0.568   2.954   0.551 -0.3059 -0.6101 -0.7018
 2687SOL    HW219524   0.672   2.917   0.443 -0.7084 -0.4599  0.4085
 2688SOL     OW19525   0.241   4.079  15.548 -0.7299  0.5250 -0.1665
 2688SOL    HW119526   0.155   4.109  15.577 -0.8968  2.0735 -2.2735
 2688SOL    HW219527   0.283   4.067  15.634 -1.4580 -0.3821  0.0566
 2689SOL     OW19528   0.302   3.787  15.460 -0.0124  0.4423 -0.0153
 2689SOL    HW119529   0.266   3.875  15.475 -2.6878 -0.4645 -1.1715
 2689SOL    HW219530   0.252   3.730  15.517  1.5183  1.2911  2.1682
 2690SOL     OW19531   3.610   3.146   2.494  0.1180 -0.2673 -0.3802
 2690SOL    HW119532   3.676   3.101   2.547 -0.6269 -1.6988 -0.6899
 2690SOL    HW219533   3.654   3.169   2.412  0.3941  0.6823  0.0316
 2691SOL     OW19534   4.295   0.183   4.211  0.3826 -0.1210 -0.0987
 2691SOL    HW119535   4.314   0.216   4.299 -1.6937  0.5515  0.0950
 2691SOL    HW219536   4.357   0.110   4.204  1.8440  0.9455  1.5247
 2692SOL     OW19537   3.062   0.748   3.647 -0.2230  0.1364  0.0887
 2692SOL    HW119538   3.019   0.804   3.583 -1.5081  1.2519  1.9419
 2692SOL    HW219539   3.013   0.666   3.644  3.0909 -1.7859 -1.5776
 2693SOL     OW19540   3.861   1.202   3.839 -0.1464 -0.2011 -0.0270
 2693SOL    HW119541   3.925   1.158   3.894 -1.4863 -0.1570  1.5710
 2693SOL    HW219542   3.780   1.154   3.860 -0.5356  0.0846 -0.8641
 2694SOL     OW19543   1.828   2.446   0.845  0.3238  0.4743 -0.1406
 2694SOL    HW119544   1.857   2.512   0.907  1.5177 -0.3363  0.1831
 2694SOL    HW219545   1.739   2.431   0.876  0.4555 -1.5810 -0.7469
 2695SOL     OW19546   0.645   0.346   1.996 -0.0684  0.2203 -0.1833
 2695SOL    HW119547   0.605   0.321   1.913  1.0386 -0.5885 -0.4717
 2695SOL    HW219548   0.731   0.370   1.963  0.5831 -4.1254 -1.5714
 2696SOL     OW19549   3.130   2.657   6.469 -0.2246 -0.4172 -0.4031
 2696SOL    HW119550   3.084   2.616   6.542 -0.8131  2.6371  0.9489
 2696SOL    HW219551   3.070   2.724   6.437 -1.1788 -1.7095 -1.3244
 2697SOL     OW19552   3.226   2.532  16.325  0.4953  0.1612 -0.1885
 2697SOL    HW119553   3.244   2.507  16.416 -1.2522 -0.0082  0.1122
 2697SOL    HW219554   3.137   2.497  16.321 -0.3167  2.1627  0.3643
 2698SOL     OW19555   4.062   4.559   7.805  0.6209 -0.1973 -0.0147
 2698SOL    HW119556   4.001   4.487   7.792 -0.7084  0.9318  0.0441
 2698SOL    HW219557   4.106   4.531   7.885 -0.4194 -0.1046  0.5834
 2699SOL     OW19558   2.396   2.332   2.400  0.3091  0.3757 -0.8368
 2699SOL    HW119559   2.413   2.382   2.321 -0.1491  1.1277 -0.4585
 2699SOL    HW219560   2.344   2.261   2.363 -0.6770  0.4570  0.3807
 2700SOL     OW19561   4.447   2.431   4.987 -0.3744  0.1531 -0.4762
 2700SOL    HW119562   4.454   2.478   5.070 -2.6220  1.5648 -1.0957
 2700SOL    HW219563   4.500   2.489   4.932  1.8329 -0.7008  0.7399
 2701SOL     OW19564   2.201   0.216  16.079  0.1236 -0.0000 -0.0968
 2701SOL    HW119565   2.200   0.267  15.998  1.6502 -1.0599 -0.7839
 2701SOL    HW219566   2.204   0.124  16.052 -1.3320 -0.0020 -0.2200
 2702SOL     OW19567   0.792   0.860   2.921  0.4729  0.1760 -0.4897
 2702SOL    HW119568   0.793   0.937   2.864 -0.1454  0.7940  0.3471
 2702SOL    HW219569   0.704   0.825   2.904  0.2187  0.1772  0.8669
 2703SOL     OW19570   3.100   0.475   4.677 -0.5053 -0.0628 -0.3027
 2703SOL    HW119571   3.170   0.429   4.631 -0.1774  1.5373 -1.3707
 2703SOL    HW219572   3.116   0.426   4.759  0.3062 -0.6615 -0.8195
 2704SOL     OW19573   2.391   2.977  13.338 -0.4716  0.6996 -0.8813
 2704SOL    HW119574   2.302   2.944  13.347  0.1912 -1.3508 -1.7886
 2704SOL    HW219575   2.409   3.033  13.414 -0.7394  1.6542 -1.5215
 2705SOL     OW19576   0.544   1.567   9.288 -0.0979  0.3804 -0.9025
 2705SOL    HW119577   0.588   1.482   9.291 -1.6037 -0.4292 -2.5764
 2705SOL    HW219578   0.453   1.561   9.317  0.2832 -0.1048  0.1873
 2706SOL     OW19579   2.166   1.855   5.800  0.2616  0.5985  0.6165
 2706SOL    HW119580   2.087   1.841   5.748  0.7013  0.8364 -0.1189
 2706SOL    HW219581   2.161   1.949   5.818  2.0880  1.3390 -2.6094
 2707SOL     OW19582   3.955   3.052   3.913 -0.1403  0.0852  0.5312
 2707SOL    HW119583   3.979   3.057   4.005  1.8074  1.1626 -0.0263
 2707SOL    HW219584   3.874   3.103   3.912  1.1776  2.2383  1.4330
 2708SOL     OW19585   0.222   4.456   3.819  0.0328  0.1031  0.4353
 2708SOL    HW119586   0.201   4.402   3.743  3.2555  1.8862 -1.7338
 2708SOL    HW219587   0.300   4.415   3.857  0.6321  1.6708  0.8849
 2709SOL     OW19588   3.346   0.851   2.136  0.0885 -0.2486 -0.0631
 2709SOL    HW119589   3.397   0.875   2.214 -0.0236  1.5882 -0.5683
 2709SOL    HW219590   3.255   0.847   2.166  0.1179  1.3496  0.2585
 2710SOL     OW19591   4.330   3.439   4.248  0.1238  0.1147 -0.6353
 2710SOL    HW119592   4.244   3.470   4.221  0.3024  0.0265 -1.3132
 2710SOL    HW219593   4.314   3.441   4.342 -0.4247  1.0014 -0.7549
 2711SOL     OW19594   1.860   0.382   7.862  0.1947 -0.1442 -0.1122
 2711SOL    HW119595   1.925   0.335   7.810 -0.5159 -2.1664  0.7960
 2711SOL    HW219596   1.845   0.313   7.927  1.0990 -1.6522 -1.5149
 2712SOL     OW19597   1.723   1.623   6.899 -0.5521 -0.3770  0.4954
 2712SOL    HW119598   1.757   1.576   6.975 -0.3142 -2.8701 -1.1526
 2712SOL    HW219599   1.754   1.710   6.925  2.1131 -0.8084 -1.2663
 2713SOL     OW19600   4.267   0.793  11.561  0.1312 -0.0517  0.0068
 2713SOL    HW119601   4.240   0.766  11.649 -0.5730 -0.4931 -0.3461
 2713SOL    HW219602   4.361   0.786  11.577 -0.2892  1.1973  2.9871
 2714SOL     OW19603   2.285   2.635   6.992 -0.1394 -0.2366  0.0953
 2714SOL    HW119604   2.247   2.572   6.931  0.9348  0.9649 -1.8038
 2714SOL    HW219605   2.311   2.581   7.067 -0.6172 -0.7624 -0.1153
 2715SOL     OW19606   0.177   3.740   6.311  0.2163 -0.0228 -0.1047
 2715SOL    HW119607   0.122   3.778   6.379 -2.5965 -2.6038 -0.9583
 2715SOL    HW219608   0.224   3.819   6.285  2.6424 -1.6098 -0.5448
 2716SOL     OW19609   2.002   0.479   9.229 -0.3877 -0.1799  0.0485
 2716SOL    HW119610   1.965   0.393   9.252  0.6495 -0.7953 -0.5461
 2716SOL    HW219611   2.096   0.470   9.241 -0.3915  0.6407  0.6227
 2717SOL     OW19612   4.095   0.313  15.266  0.0634  0.1786 -0.5677
 2717SOL    HW119613   4.181   0.287  15.300 -0.0163  2.0412  1.0065
 2717SOL    HW219614   4.074   0.380  15.330 -0.6654  1.8373 -2.5568
 2718SOL     OW19615   0.443   2.505   5.580  0.7612  0.1951 -0.6289
 2718SOL    HW119616   0.371   2.565   5.563  1.4521  1.5092  1.1917
 2718SOL    HW219617   0.440   2.457   5.497  0.0096 -0.5898 -0.1410
 2719SOL     OW19618   3.855   1.681   6.258  0.4640  0.8086  0.4976
 2719SOL    HW119619   3.777   1.705   6.208  1.6657  1.7603 -0.9464
 2719SOL    HW219620   3.897   1.629   6.189 -0.6850 -0.6163  0.8764
 2720SOL     OW19621   3.413   2.035  16.513  0.2986  0.9958  0.4025
 2720SOL    HW119622   3.380   1.960  16.563 -0.2523  2.4914  2.2813
 2720SOL    HW219623   3.430   1.990  16.430 -0.8548  1.0641  0.1332
 2721SOL     OW19624   3.960   1.776  13.811 -0.2605  0.5590  0.3023
 2721SOL    HW119625   3.918   1.858  13.838 -0.9582  0.2460  0.1718
 2721SOL    HW219626   3.980   1.734  13.895 -0.9748 -1.8791 -0.7578
 2722SOL     OW19627   3.091   4.149   6.127  0.1180 -0.4365 -0.4434
 2722SOL    HW119628   3.113   4.057   6.122 -1.5292 -0.8180 -0.7071
 2722SOL    HW219629   3.119   4.173   6.039  2.9031 -0.1096  0.5323
 2723SOL     OW19630   1.161   0.167   4.062  0.2159 -0.3135  0.0757
 2723SOL    HW119631   1.186   0.075   4.052 -0.4565 -0.6218  1.2488
 2723SOL    HW219632   1.066   0.166   4.072  0.5436 -1.3778  3.0593
 2724SOL     OW19633   3.992   2.328   1.988  0.3485 -0.1429 -0.7249
 2724SOL    HW119634   4.011   2.361   2.076 -1.8100 -0.4606 -0.1356
 2724SOL    HW219635   3.939   2.386   1.933 -1.2907 -0.4419  0.5295
 2725SOL     OW19636   4.516   1.769   7.316  0.0217 -0.5743  0.9161
 2725SOL    HW119637   4.506   1.688   7.366 -1.9175  0.8658  2.8571
 2725SOL    HW219638   4.432   1.758   7.271  1.1911 -1.0334 -1.1196
 2726SOL     OW19639   1.208   4.181   4.359  0.3616  0.2550 -0.0194
 2726SOL    HW119640   1.209   4.238   4.436 -1.9767  2.1451 -1.3639
 2726SOL    HW219641   1.269   4.234   4.308  0.1353 -0.1629 -0.7176
 2727SOL     OW19642   2.723   4.623   2.745  0.4382 -0.0902 -0.1220
 2727SOL    HW119643   2.739   4.632   2.651  1.2986 -0.6734 -0.0252
 2727SOL    HW219644   2.706   4.715   2.767 -1.0730 -0.7801  1.6080
 2728SOL     OW19645   0.680   2.044   4.157 -0.1274  0.0113  0.7377
 2728SOL    HW119646   0.678   2.040   4.253 -0.5014  1.8257  0.8080
 2728SOL    HW219647   0.627   1.965   4.150 -0.6653  0.1764  2.7139
 2729SOL     OW19648   2.150   4.202   5.724 -0.2725  0.3574 -0.0714
 2729SOL    HW119649   2.097   4.248   5.789 -0.9362 -0.5152 -0.0029
 2729SOL    HW219650   2.234   4.210   5.769 -0.5662  1.7746  0.2321
 2730SOL     OW19651   0.691   1.299   3.870  0.1653  0.2395  0.3703
 2730SOL    HW119652   0.608   1.346   3.873 -1.8392 -3.3270  0.8624
 2730SOL    HW219653   0.758   1.363   3.894  1.4227 -1.1958  0.6946
 2731SOL     OW19654   3.356   2.787   5.021 -0.0249  0.2848 -0.3680
 2731SOL    HW119655   3.316   2.855   5.075 -1.7052  0.7901 -2.2443
 2731SOL    HW219656   3.449   2.811   5.028 -0.5133  1.9081  0.6142
 2732SOL     OW19657   1.736   4.507   1.448  0.0637 -0.4358  0.0791
 2732SOL    HW119658   1.642   4.520   1.446  0.1162  0.0982  0.9331
 2732SOL    HW219659   1.746   4.415   1.425 -1.0278 -0.5841  0.2407
 2733SOL     OW19660   2.669   0.265   6.140  0.2011  0.0920  0.1861
 2733SOL    HW119661   2.595   0.314   6.177  1.0983  1.5604  0.0363
 2733SOL    HW219662   2.619   0.189   6.112  0.9032 -0.1206 -0.4880
 2734SOL     OW19663   4.000   2.522  17.411  0.5506  0.0436 -0.0874
 2734SOL    HW119664   3.983   2.538  17.504  1.9658  2.1821 -0.2192
 2734SOL    HW219665   4.008   2.427  17.402 -0.3443 -0.1918  1.4400
 2735SOL     OW19666   2.064   1.972   8.151  0.1349 -0.3552 -0.0774
 2735SOL    HW119667   2.157   1.989   8.133  0.4279 -0.6214  1.1591
 2735SOL    HW219668   2.042   1.898   8.095 -2.3556 -1.2879  2.1790
 2736SOL     OW19669   4.638   1.023   1.609  0.5352 -0.4943 -0.4013
 2736SOL    HW119670   4.576   1.037   1.680  0.8930 -0.2248 -0.1417
 2736SOL    HW219671   4.598   0.942   1.576  0.8486 -0.6932 -0.3002
 2737SOL     OW19672   4.422   4.155   3.960 -0.7070  0.0303 -0.0496
 2737SOL    HW119673   4.467   4.207   4.027 -2.8698 -1.4678  2.6000
 2737SOL    HW219674   4.484   4.159   3.888  0.4187 -1.4533  0.8245
 2738SOL     OW19675   1.457   2.300  14.887  0.2308  0.3237 -0.4221
 2738SOL    HW119676   1.414   2.307  14.972 -0.2836  1.0866 -0.7453
 2738SOL    HW219677   1.378   2.287  14.835 -1.1762  3.2275  1.0172
 2739SOL     OW19678   4.449   4.184  17.175  0.3692 -0.2869  0.4947
 2739SOL    HW119679   4.448   4.090  17.155 -0.0955 -0.1258 -0.2277
 2739SOL    HW219680   4.382   4.182  17.243  0.3764 -2.7041  0.4332
 2740SOL     OW19681   2.428   3.600  13.048 -0.0635  0.2742 -0.3651
 2740SOL    HW119682   2.361   3.659  13.015 -0.2042  0.3810  0.1148
 2740SOL    HW219683   2.452   3.559  12.965 -2.5494  0.7817 -1.3340
 2741SOL     OW19684   2.269   4.419   5.902 -0.4525 -0.0321  0.0875
 2741SOL    HW119685   2.262   4.420   5.997 -1.9458  0.4414 -0.0309
 2741SOL    HW219686   2.337   4.353   5.887  0.0652  0.7890 -1.1583
 2742SOL     OW19687   3.026   1.888   7.077 -0.4781  0.8368 -0.0164
 2742SOL    HW119688   2.996   1.924   7.161  0.0189  0.1973  0.4467
 2742SOL    HW219689   2.937   1.894   7.041 -0.3718  0.2256 -0.3851
 2743SOL     OW19690   3.419   2.160  11.709  0.3751  0.1261 -0.1110
 2743SOL    HW119691   3.434   2.249  11.742  1.5738 -0.0817 -0.0848
 2743SOL    HW219692   3.417   2.110  11.790 -0.3768 -0.8158 -0.7125
 2744SOL     OW19693   2.483   4.186   8.087 -0.2835  0.8127  0.0493
 2744SOL    HW119694   2.524   4.266   8.053  0.5407  0.4871  0.2690
 2744SOL    HW219695   2.423   4.164   8.016 -0.2185 -0.7686  0.4899
 2745SOL     OW19696   3.287   3.074   7.007  0.1478  0.1347  0.1066
 2745SOL    HW119697   3.369   3.078   6.958 -0.2741  0.5995 -0.5596
 2745SOL    HW219698   3.326   3.095   7.092 -0.5829  1.8758  0.0158
 2746SOL     OW19699   0.833   2.446   5.115 -0.0458  0.1241  0.5118
 2746SOL    HW119700   0.767   2.511   5.142  0.0386  0.3397  0.1942
 2746SOL    HW219701   0.780   2.381   5.070 -1.3060  0.5730  1.3198
 2747SOL     OW19702   0.282   2.515  17.078 -0.0337 -0.1292  0.0720
 2747SOL    HW119703   0.366   2.538  17.117  0.4673 -2.5491  0.4373
 2747SOL    HW219704   0.289   2.553  16.991  0.8044  1.2009  0.7199
 2748SOL     OW19705   4.122   4.017   7.457  0.2191  0.0950  0.1913
 2748SOL    HW119706   4.061   3.947   7.478  2.3219 -1.7343  0.1627
 2748SOL    HW219707   4.198   3.979   7.500  0.7526  0.5754 -0.3150
 2749SOL     OW19708   4.311   0.202  14.131  0.0403 -0.0712 -0.3104
 2749SOL    HW119709   4.221   0.208  14.164  1.0275  0.1730  2.3758
 2749SOL    HW219710   4.354   0.187  14.216 -2.0106  0.9773  0.9308
 2750SOL     OW19711   0.682   3.036  11.873  0.4258  0.4201 -0.6823
 2750SOL    HW119712   0.634   3.116  11.891  2.2073  1.2131  0.5059
 2750SOL    HW219713   0.760   3.071  11.829  1.3258  0.4629  0.9484
 2751SOL     OW19714   0.175   2.338  17.425  0.0618  0.6555 -0.0624
 2751SOL    HW119715   0.152   2.335  17.332  0.9760 -1.9320 -0.2044
 2751SOL    HW219716   0.096   2.296  17.459  0.2351  0.3381 -0.0492
 2752SOL     OW19717   3.772   4.090   1.835  0.8564 -0.2475  0.1224
 2752SOL    HW119718   3.708   4.028   1.800  0.5464 -0.0496  0.3359
 2752SOL    HW219719   3.769   4.053   1.923  0.3168  0.3933  0.3819
 2753SOL     OW19720   1.758   2.741   7.116  0.3034 -0.9240 -0.4170
 2753SOL    HW119721   1.676   2.778   7.149  0.3676 -2.9591  2.0231
 2753SOL    HW219722   1.787   2.676   7.181  1.7811 -1.6417 -1.7996
 2754SOL     OW19723   4.260   2.262   9.406 -0.1400  0.1519 -0.1522
 2754SOL    HW119724   4.265   2.180   9.457  1.4713  0.6604  0.5147
 2754SOL    HW219725   4.211   2.234   9.329 -1.6086  3.0038 -0.2426
 2755SOL     OW19726   1.548   4.404   3.524  0.4775  0.3338  0.1230
 2755SOL    HW119727   1.558   4.309   3.516 -1.7520  0.2794 -1.6734
 2755SOL    HW219728   1.455   4.415   3.545  0.2722  1.2693 -1.3518
 2756SOL     OW19729   3.407   1.362  17.567  0.3531 -0.1289  0.0682
 2756SOL    HW119730   3.428   1.298  17.634  0.1276 -0.1471  0.1209
 2756SOL    HW219731   3.384   1.305  17.493 -0.8008 -0.3385  0.6042
 2757SOL     OW19732   0.339   0.647   6.170 -0.3743 -0.0985 -0.4326
 2757SOL    HW119733   0.300   0.572   6.126 -1.3180  0.4460 -0.5262
 2757SOL    HW219734   0.337   0.716   6.104 -1.0195 -0.4616 -0.7854
 2758SOL     OW19735   0.380   0.313  16.050  0.2072  0.2756 -0.4064
 2758SOL    HW119736   0.356   0.254  15.978  0.4463 -1.4873  0.9730
 2758SOL    HW219737   0.422   0.384  16.000  2.3674 -1.1347 -0.5700
 2759SOL     OW19738   2.676   0.558   8.668 -0.3911  0.4723 -0.4877
 2759SOL    HW119739   2.635   0.629   8.716 -0.5767 -0.0416  0.1084
 2759SOL    HW219740   2.630   0.481   8.702 -0.0184 -0.0071 -1.0645
 2760SOL     OW19741   3.266   0.797  17.393  0.8928  0.2687 -0.1472
 2760SOL    HW119742   3.213   0.864  17.437 -0.9489 -1.3123  0.0607
 2760SOL    HW219743   3.229   0.714  17.424 -0.2380  0.9122  0.2503
 2761SOL     OW19744   4.624   1.947  12.230  0.5408  0.6203  0.3977
 2761SOL    HW119745   4.545   1.969  12.181 -0.1347  0.2043  1.2969
 2761SOL    HW219746   4.675   1.909  12.159  0.0863  0.4874  0.1468
 2762SOL     OW19747   3.100   0.210  16.687  0.3999 -0.0193  0.0070
 2762SOL    HW119748   3.124   0.121  16.660  0.1109  0.1744 -0.8859
 2762SOL    HW219749   3.190   0.241  16.699  1.4100 -1.8515 -2.7319
 2763SOL     OW19750   4.033   1.474  11.530 -0.4547  0.1341 -0.5195
 2763SOL    HW119751   4.026   1.426  11.447  0.8186 -1.1943  0.1471
 2763SOL    HW219752   3.944   1.459  11.561 -0.9470  0.7352 -1.6552
 2764SOL     OW19753   1.001   1.121   5.398 -0.0614 -0.0951 -0.3927
 2764SOL    HW119754   1.039   1.034   5.415  0.7964  0.5051  0.7966
 2764SOL    HW219755   1.044   1.133   5.314  1.4153 -3.1553 -0.0983
 2765SOL     OW19756   2.988   4.591  15.434  0.2553 -0.2143 -0.2142
 2765SOL    HW119757   3.053   4.645  15.479 -0.8617 -0.1460  1.2872
 2765SOL    HW219758   3.043   4.527  15.389 -1.3164 -0.9030 -1.1488
 2766SOL     OW19759   3.979   1.925   5.063 -0.3518 -0.3741 -0.4936
 2766SOL    HW119760   3.996   1.831   5.069  0.5430 -0.1825 -0.0524
 2766SOL    HW219761   3.897   1.923   5.014 -0.1363 -2.1956 -0.8008
 2767SOL     OW19762   3.343   4.666   5.127 -0.4690 -0.2854  0.6464
 2767SOL    HW119763   3.424   4.667   5.177  0.8611  0.4554 -1.5247
 2767SOL    HW219764   3.366   4.609   5.053  1.3559  2.6637 -1.0517
 2768SOL     OW19765   4.149   4.496  10.762  0.0254 -0.1246  0.2633
 2768SOL    HW119766   4.216   4.464  10.701  0.9781  1.4262  0.4944
 2768SOL    HW219767   4.077   4.510  10.701  1.0845  1.3593 -0.6508
 2769SOL     OW19768   2.781   2.735   2.372  0.1947  0.1234  0.2612
 2769SOL    HW119769   2.715   2.783   2.321  0.6521  1.0342  0.5238
 2769SOL    HW219770   2.735   2.651   2.365 -1.5431  1.2140 -1.5852
 2770SOL     OW19771   3.057   2.651   6.188 -0.0921  0.2347 -0.5470
 2770SOL    HW119772   3.112   2.607   6.253 -1.5656  0.4626  0.8625
 2770SOL    HW219773   3.119   2.685   6.124 -1.6598  3.4309 -0.3471
 2771SOL     OW19774   3.284   4.004   8.071  0.2372  0.0973 -0.7149
 2771SOL    HW119775   3.247   3.955   7.998  1.9309  0.3481 -1.7257
 2771SOL    HW219776   3.362   3.951   8.090  0.8769  1.1319 -0.4370
 2772SOL     OW19777   3.601   1.662   9.063  0.0654 -0.0903  0.3139
 2772SOL    HW119778   3.535   1.667   9.132  1.1246  0.7285  1.2820
 2772SOL    HW219779   3.668   1.708   9.114  0.0299 -0.8652  1.0734
 2773SOL     OW19780   4.521   2.726   9.302 -0.1058  0.1660  0.0929
 2773SOL    HW119781   4.601   2.705   9.253 -1.1816 -0.5309 -1.3774
 2773SOL    HW219782   4.473   2.778   9.238  0.3366 -1.4620 -1.5850
 2774SOL     OW19783   3.862   4.657  10.495  0.0427 -0.1738 -0.9291
 2774SOL    HW119784   3.929   4.696  10.552 -0.8620 -0.2274  0.1841
 2774SOL    HW219785   3.780   4.674  10.541  0.2773  1.1749 -0.9910
 2775SOL     OW19786   0.903   1.387   6.718 -0.4472 -0.0188  0.3949
 2775SOL    HW119787   0.892   1.376   6.812 -0.5575 -1.0903  0.2617
 2775SOL    HW219788   0.979   1.333   6.693 -0.4561 -0.0003  0.3270
 2776SOL     OW19789   3.717   2.338  15.590  0.1502  0.4849 -0.1314
 2776SOL    HW119790   3.631   2.317  15.554 -1.0681  2.2749  1.7726
 2776SOL    HW219791   3.711   2.431  15.612 -2.2289 -0.2210  2.1996
 2777SOL     OW19792   2.686   3.083   2.267 -0.6293 -0.3689  0.1204
 2777SOL    HW119793   2.607   3.135   2.254  0.3220  0.7388 -1.1461
 2777SOL    HW219794   2.698   3.086   2.362 -3.9923 -0.4029  0.5370
 2778SOL     OW19795   0.917   0.182  17.203  0.2803 -0.0340  0.0859
 2778SOL    HW119796   0.986   0.141  17.256 -0.1553 -0.8876 -0.0163
 2778SOL    HW219797   0.973   0.218  17.134  0.8553 -3.0355 -1.0219
 2779SOL     OW19798   0.395   2.345   9.419 -0.1371  0.3824  0.8915
 2779SOL    HW119799   0.307   2.308   9.415  0.9628 -2.2216  1.4581
 2779SOL    HW219800   0.432   2.295   9.491 -0.5515 -1.0477  0.1143
 2780SOL     OW19801   1.245   3.290   7.995  0.6237 -0.7875  0.2120
 2780SOL    HW119802   1.190   3.254   7.925  1.1218 -1.7018  0.2921
 2780SOL    HW219803   1.300   3.358   7.956  1.5488 -1.0503  1.0611
 2781SOL     OW19804   1.904   1.152   5.602 -0.2061  0.7303  0.4798
 2781SOL    HW119805   1.811   1.168   5.615 -0.6693 -1.6500  0.0890
 2781SOL    HW219806   1.927   1.197   5.521  0.1915  0.5458  0.4903
 2782SOL     OW19807   1.885   3.295  12.443 -0.1355 -0.4470  0.2772
 2782SOL    HW119808   1.828   3.282  12.367  1.7283 -1.8545 -0.8840
 2782SOL    HW219809   1.881   3.390  12.458 -1.0958 -0.2675 -1.1433
 2783SOL     OW19810   4.288   1.015  17.374 -0.2677 -0.3181 -0.2973
 2783SOL    HW119811   4.202   1.051  17.394  1.4942  3.8685 -0.2171
 2783SOL    HW219812   4.318   1.006  17.464 -1.1484 -2.8267 -0.2556
 2784SOL     OW19813   0.653   0.993   1.205 -0.9548  0.4502 -0.0697
 2784SOL    HW119814   0.564   1.016   1.178 -0.8510  0.6705 -0.2167
 2784SOL    HW219815   0.637   0.940   1.284  0.7935  0.8303  0.5379
 2785SOL     OW19816   0.539   4.630   0.518 -0.1396  0.3156 -0.6158
 2785SOL    HW119817   0.531   4.720   0.551 -0.3568 -0.5164  1.5711
 2785SOL    HW219818   0.448   4.610   0.494 -0.5399 -0.9349  1.8975
 2786SOL     OW19819   4.433   3.656  14.788  0.1000  0.5577 -0.0221
 2786SOL    HW119820   4.442   3.640  14.693 -1.5466  0.8985 -0.2260
 2786SOL    HW219821   4.351   3.704  14.797 -1.5922 -2.6132  1.6906
 2787SOL     OW19822   4.699   0.533   1.522 -0.1894  0.0928 -0.1005
 2787SOL    HW119823   0.019   0.510   1.440  0.7935 -0.0397  0.4568
 2787SOL    HW219824   0.054   0.554   1.573 -1.3072 -1.0262  2.0278
 2788SOL     OW19825   2.086   2.927   2.425  0.5339  0.2173  0.4860
 2788SOL    HW119826   2.100   2.846   2.375 -2.1076  0.2321 -0.3006
 2788SOL    HW219827   2.113   2.904   2.513  0.4844 -1.4427  0.0746
 2789SOL     OW19828   0.213   3.906  11.589  0.1456  0.3845  0.1246
 2789SOL    HW119829   0.134   3.865  11.555  0.9699 -0.9884 -0.1597
 2789SOL    HW219830   0.223   3.972  11.519  2.6511 -1.1333 -0.9798
 2790SOL     OW19831   3.579   3.556  11.564  0.2650  0.5015  0.5503
 2790SOL    HW119832   3.493   3.520  11.585 -0.0826  0.7595 -0.4436
 2790SOL    HW219833   3.564   3.646  11.595  0.5155  0.9555 -0.6571
 2791SOL     OW19834   3.051   4.711   0.695 -0.1433 -0.0317  0.1409
 2791SOL    HW119835   2.974   4.690   0.642 -1.4602  0.6820  1.7645
 2791SOL    HW219836   3.031   0.066   0.746  1.9011 -0.4235  1.5189
 2792SOL     OW19837   3.076   0.707   7.042 -0.1722  0.1292  0.7390
 2792SOL    HW119838   3.105   0.643   6.977  0.8387  0.6420  0.6961
 2792SOL    HW219839   3.026   0.770   6.989 -1.7300 -0.7184  1.1984
 2793SOL     OW19840   3.867   4.343   1.849 -0.5376 -0.4380 -0.6060
 2793SOL    HW119841   3.836   4.253   1.838  2.2538 -1.2111 -2.1085
 2793SOL    HW219842   3.862   4.382   1.761  0.1784 -1.8491 -1.2806
 2794SOL     OW19843   2.054   0.776   2.960 -0.3579 -0.1198  0.0877
 2794SOL    HW119844   1.996   0.852   2.970 -1.0436 -0.5021 -0.9797
 2794SOL    HW219845   2.003   0.729   2.894  0.7699 -0.4658 -0.5462
 2795SOL     OW19846   1.828   0.397  13.688 -0.2887 -0.2020 -0.1132
 2795SOL    HW119847   1.821   0.412  13.594  1.3344  0.3375 -0.1427
 2795SOL    HW219848   1.786   0.476  13.722  0.3402  0.1437 -0.1452
 2796SOL     OW19849   3.698   2.515   8.283  0.0407 -0.2368  0.1583
 2796SOL    HW119850   3.642   2.468   8.345 -2.1295  0.1248 -1.5080
 2796SOL    HW219851   3.788   2.487   8.302  0.1071 -0.0861  0.0621
 2797SOL     OW19852   2.622   3.372   2.402 -0.0835  0.4671  0.2704
 2797SOL    HW119853   2.579   3.316   2.466  2.6200 -0.4746  1.2638
 2797SOL    HW219854   2.580   3.346   2.319  2.2048 -1.8185 -0.1705
 2798SOL     OW19855   0.996   3.150  10.233  0.1493  0.3866 -0.3807
 2798SOL    HW119856   0.950   3.128  10.313  0.6339  1.5043  0.2092
 2798SOL    HW219857   1.051   3.075  10.211  1.3680  0.8040  1.2524
 2799SOL     OW19858   2.003   4.562   2.637 -0.0918 -0.4916 -0.1675
 2799SOL    HW119859   1.983   4.656   2.644  0.6340 -0.3832  0.4799
 2799SOL    HW219860   1.959   4.541   2.555 -0.7732  0.4987 -0.0544
 2800SOL     OW19861   1.423   2.137  16.560 -0.5579  0.1902  0.3743
 2800SOL    HW119862   1.343   2.142  16.612 -1.2422  1.3429 -0.8043
 2800SOL    HW219863   1.463   2.057  16.594 -1.2121 -0.5218 -0.5327
 2801SOL     OW19864   2.888   3.542   5.113 -0.3617  0.2080  0.0554
 2801SOL    HW119865   2.855   3.624   5.149  0.8191  0.9877 -0.6166
 2801SOL    HW219866   2.962   3.522   5.170 -1.9542  1.4836  2.5507
 2802SOL     OW19867   0.646   1.936   6.565  0.2046 -0.4070 -0.1289
 2802SOL    HW119868   0.582   1.865   6.577  0.8556 -0.9304  0.2374
 2802SOL    HW219869   0.595   2.016   6.578  1.0029  0.3973 -2.0105
 2803SOL     OW19870   3.420   0.171   0.931 -0.0673  0.5986  0.3835
 2803SOL    HW119871   3.392   0.226   0.857 -1.7673  0.5579  0.9976
 2803SOL    HW219872   3.340   0.154   0.982  0.1888 -1.5961  0.0288
 2804SOL     OW19873   3.725   1.708   7.028 -0.4710  0.0539 -0.1465
 2804SOL    HW119874   3.706   1.767   6.955 -0.5515  1.0860  0.7064
 2804SOL    HW219875   3.717   1.628   6.976 -0.4817  0.7731 -1.2639
 2805SOL     OW19876   2.958   0.735   4.398 -1.2286 -0.1986 -0.1585
 2805SOL    HW119877   2.958   0.811   4.455  0.0467 -1.5941  1.7259
 2805SOL    HW219878   3.034   0.741   4.340  1.2773 -1.3078  2.9854
 2806SOL     OW19879   0.740   3.736  10.591  0.2304 -0.3439 -0.1851
 2806SOL    HW119880   0.808   3.768  10.650 -0.8884  1.7557 -0.0378
 2806SOL    HW219881   0.706   3.663  10.643 -0.2884  0.2483  0.3053
 2807SOL     OW19882   1.395   1.302   1.235 -0.5365  0.2853 -0.7413
 2807SOL    HW119883   1.450   1.378   1.214 -1.3005  0.7517 -1.0313
 2807SOL    HW219884   1.451   1.234   1.196 -0.1452 -0.1335  0.5505
 2808SOL     OW19885   3.320   3.393   6.706  0.3309 -0.0458  0.0666
 2808SOL    HW119886   3.336   3.440   6.624  1.0376 -1.2034 -0.4520
 2808SOL    HW219887   3.408   3.360   6.723  0.8334  1.1650 -0.1541
 2809SOL     OW19888   2.693   0.209   2.269 -0.0721  0.5032  0.4326
 2809SOL    HW119889   2.676   0.245   2.182 -0.6932  0.7312  0.6507
 2809SOL    HW219890   2.787   0.191   2.257 -0.1565 -0.9378  1.9252
 2810SOL     OW19891   1.485   1.160   1.751  0.2075  0.0167 -0.0163
 2810SOL    HW119892   1.482   1.087   1.690 -1.2449 -0.4070  0.5635
 2810SOL    HW219893   1.409   1.214   1.729  1.5574  1.3927 -1.3174
 2811SOL     OW19894   0.095   1.309   8.850 -0.1727  0.4348 -0.7562
 2811SOL    HW119895   0.070   1.266   8.768  0.5022 -2.1695  0.4007
 2811SOL    HW219896   0.040   1.387   8.847 -1.7106 -0.5574  0.9650
 2812SOL     OW19897   3.019   2.055  13.299  0.2363 -0.0932  0.2160
 2812SOL    HW119898   3.039   2.028  13.389 -0.1832 -1.1348  0.0027
 2812SOL    HW219899   3.097   2.009  13.267 -1.3404 -1.0272 -2.2979
 2813SOL     OW19900   1.031   4.316   3.724  0.5221  0.8101 -0.2720
 2813SOL    HW119901   0.947   4.360   3.737 -0.7807 -1.3795 -1.3086
 2813SOL    HW219902   1.043   4.276   3.810 -1.3146 -3.3530 -1.9272
 2814SOL     OW19903   0.822   0.473   7.281  0.5875 -0.0461  0.4282
 2814SOL    HW119904   0.900   0.419   7.291  1.0158  0.7891  1.6222
 2814SOL    HW219905   0.812   0.479   7.186 -0.9349 -2.0482  0.4724
 2815SOL     OW19906   2.468   3.266   4.728  0.1490 -0.4699  0.2700
 2815SOL    HW119907   2.373   3.280   4.726  0.0811 -0.8656  0.7738
 2815SOL    HW219908   2.496   3.357   4.741  1.5421 -1.1486  1.9659
 2816SOL     OW19909   4.469   1.994   4.591  0.3974  0.3386  0.1948
 2816SOL    HW119910   4.508   2.061   4.534  2.2220 -0.5855  0.3402
 2816SOL    HW219911   4.383   1.977   4.552  0.5095 -3.8657  1.7875
 2817SOL     OW19912   4.465   2.771   8.591 -0.0186 -0.2603  0.7068
 2817SOL    HW119913   4.382   2.743   8.630  0.7517 -1.3192  1.6063
 2817SOL    HW219914   4.476   2.702   8.525 -0.2898 -0.7491  1.1647
 2818SOL     OW19915   2.592   3.068   8.717 -0.1161  0.4339 -0.2789
 2818SOL    HW119916   2.535   3.008   8.670  1.4849  1.0769 -2.9999
 2818SOL    HW219917   2.533   3.130   8.760  0.2670  1.1684 -0.8151
 2819SOL     OW19918   3.437   0.741   7.112 -0.1403  0.0097  0.0832
 2819SOL    HW119919   3.362   0.734   7.053  0.0255 -2.0360  0.1388
 2819SOL    HW219920   3.418   0.688   7.189  0.1441  0.7041  0.6374
 2820SOL     OW19921   3.088   1.522   1.749 -0.3455  0.2496  0.1460
 2820SOL    HW119922   3.066   1.615   1.737  0.1260  0.3019 -0.2975
 2820SOL    HW219923   3.016   1.477   1.704  0.3068 -1.6110  0.9921
 2821SOL     OW19924   4.447   0.230   8.512 -0.3851 -0.1250 -0.1377
 2821SOL    HW119925   4.434   0.222   8.418 -1.5519  1.1269 -0.0847
 2821SOL    HW219926   4.504   0.154   8.527  0.8901  1.1638  1.6344
 2822SOL     OW19927   3.894   3.880   3.728 -0.1297 -0.1635 -0.0180
 2822SOL    HW119928   3.800   3.883   3.742 -0.2707 -1.8154 -0.6817
 2822SOL    HW219929   3.912   3.819   3.656  2.8765 -1.0970  1.5275
 2823SOL     OW19930   2.216   0.920  15.885 -0.3333 -0.0591 -0.2093
 2823SOL    HW119931   2.311   0.917  15.890 -0.1743  3.3182 -1.1104
 2823SOL    HW219932   2.209   1.000  15.832  1.8706  0.8075  0.8323
 2824SOL     OW19933   0.633   2.102   2.230 -0.2694  0.0777  1.0326
 2824SOL    HW119934   0.570   2.074   2.164  1.3299  3.0141 -1.7611
 2824SOL    HW219935   0.600   2.187   2.256 -0.5038 -0.2953  1.9557
 2825SOL     OW19936   3.403   1.794   9.252 -0.4846 -0.2717 -0.4172
 2825SOL    HW119937   3.403   1.889   9.238  1.3349 -0.1056  0.7143
 2825SOL    HW219938   3.449   1.807   9.335  0.1055 -1.8479 -0.5022
 2826SOL     OW19939   2.994   4.262   3.772  0.4405  0.5853  0.4525
 2826SOL    HW119940   2.923   4.198   3.774 -0.4763  1.5695 -1.0272
 2826SOL    HW219941   2.943   4.325   3.721 -3.4338 -0.3848  3.1697
 2827SOL     OW19942   4.163   0.638   3.488  0.0768  0.1695  0.5019
 2827SOL    HW119943   4.131   0.607   3.404  1.0934  0.3788  0.0391
 2827SOL    HW219944   4.252   0.602   3.492  0.2559  0.6043  0.4979
 2828SOL     OW19945   1.110   1.635   0.886 -0.0894  0.0413  0.2505
 2828SOL    HW119946   1.152   1.582   0.819 -1.0090  0.1663 -0.4205
 2828SOL    HW219947   1.182   1.652   0.947  0.3198  0.6166 -0.3843
 2829SOL     OW19948   1.750   3.811  16.196  0.0366 -0.2088 -0.4230
 2829SOL    HW119949   1.712   3.828  16.282 -1.0529 -0.8555 -0.7646
 2829SOL    HW219950   1.669   3.840  16.154 -0.0962 -1.6982 -1.2221
 2830SOL     OW19951   0.978   0.449  15.614  0.4707  0.2924 -0.2317
 2830SOL    HW119952   1.004   0.385  15.679  0.2779 -1.9796 -2.3595
 2830SOL    HW219953   1.065   0.484  15.594 -0.0096 -0.2070 -3.3169
 2831SOL     OW19954   1.938   2.824   3.102 -0.3678 -1.0728  0.0592
 2831SOL    HW119955   1.949   2.917   3.122 -1.4185 -0.4151 -2.4766
 2831SOL    HW219956   1.942   2.816   3.007  3.8263 -2.2768  0.3109
 2832SOL     OW19957   1.960   2.816   7.576 -0.3226  0.3096  0.3213
 2832SOL    HW119958   1.936   2.727   7.603  0.7154 -0.2227 -0.5014
 2832SOL    HW219959   1.898   2.866   7.628  0.1805  0.8289  0.4127
 2833SOL     OW19960   3.749   2.001   5.509  0.0370 -0.1588 -0.0477
 2833SOL    HW119961   3.701   2.023   5.429  1.1831  2.6115  0.0281
 2833SOL    HW219962   3.684   1.985   5.578  1.8481 -2.5988  1.0921
 2834SOL     OW19963   1.017   0.059   2.972  0.1874  0.4372 -0.0963
 2834SOL    HW119964   1.021   0.082   2.879 -0.1230  0.9367  0.0144
 2834SOL    HW219965   1.107   0.076   3.001  0.2189  1.8048 -0.9912
 2835SOL     OW19966   1.609   0.710  15.452  0.6632 -0.1370 -0.1791
 2835SOL    HW119967   1.617   0.762  15.532  1.0827 -2.5674  1.3662
 2835SOL    HW219968   1.703   0.694  15.448  0.6743 -0.3499  0.9030
 2836SOL     OW19969   0.471   2.208   3.411 -0.1692 -0.0028  0.4448
 2836SOL    HW119970   0.449   2.129   3.461  1.7499 -1.3237 -0.7869
 2836SOL    HW219971   0.394   2.261   3.432  0.9336  1.8470 -0.1887
 2837SOL     OW19972   4.015   3.531  16.725  0.3050 -0.3551 -0.4190
 2837SOL    HW119973   4.000   3.470  16.653  1.0886 -1.4816  0.3793
 2837SOL    HW219974   4.098   3.576  16.713 -0.4095  1.0738  0.0171
 2838SOL     OW19975   2.185   0.975   4.466  0.1456  0.1046 -0.3336
 2838SOL    HW119976   2.234   1.014   4.394  1.0112 -0.8655 -0.2654
 2838SOL    HW219977   2.095   1.001   4.444  0.0016  0.9160  1.2286
 2839SOL     OW19978   1.011   4.528  15.968 -0.5209 -1.0007  0.4269
 2839SOL    HW119979   0.991   4.441  15.933  0.2568 -0.8253 -0.4299
 2839SOL    HW219980   1.068   4.565  15.900 -1.3369 -1.1735 -0.3557
 2840SOL     OW19981   3.692   0.559   9.344 -0.3277  0.2518 -0.0837
 2840SOL    HW119982   3.785   0.553   9.363 -0.3082  0.1498 -0.2140
 2840SOL    HW219983   3.651   0.622   9.405  0.1212 -0.9623  1.4717
 2841SOL     OW19984   3.488   1.543  13.469  0.1968 -0.4192 -0.5194
 2841SOL    HW119985   3.498   1.575  13.379  1.6390  0.3498 -0.0891
 2841SOL    HW219986   3.519   1.452  13.469  1.0205 -0.1310  0.2472
 2842SOL     OW19987   1.962   4.626   1.508  0.0593 -0.2770  0.1152
 2842SOL    HW119988   1.969   4.633   1.412  0.1135  1.8958  0.2682
 2842SOL    HW219989   1.875   4.586   1.516 -1.2866  2.2911 -1.6961
 2843SOL     OW19990   4.325   1.050   8.372 -0.3749 -0.5694 -0.3087
 2843SOL    HW119991   4.358   1.035   8.283  1.9340  2.5701  0.0266
 2843SOL    HW219992   4.369   1.131   8.397  1.4472 -2.0053  1.1733
 2844SOL     OW19993   3.216   4.163   0.531 -0.0453 -0.4010  0.3624
 2844SOL    HW119994   3.165   4.214   0.468  1.4456  0.2546 -0.3129
 2844SOL    HW219995   3.226   4.079   0.485 -0.1167 -0.7571  1.0050
 2845SOL     OW19996   0.323   0.919   8.293 -0.8350 -0.1703  0.2784
 2845SOL    HW119997   0.250   0.857   8.299  0.6264 -1.9211  0.0776
 2845SOL    HW219998   0.333   0.929   8.388  1.7123  0.4190 -0.0645
 2846SOL     OW19999   1.283   0.052   9.030 -0.0824 -0.1690  0.3229
 2846SOL    HW120000   1.227   4.710   8.987 -1.8381  2.4164 -1.3161
 2846SOL    HW220001   1.254   0.055   9.121 -1.4494  2.1758 -0.1879
 2847SOL     OW20002   3.527   3.797  14.090  0.2113 -0.0395 -0.5418
 2847SOL    HW120003   3.506   3.745  14.167  2.8682 -0.3767 -0.0173
 2847SOL    HW220004   3.477   3.754  14.020  0.0386 -1.9053  0.7169
 2848SOL     OW20005   4.589   0.552   6.626 -1.3046 -0.1915  0.1111
 2848SOL    HW120006   4.525   0.620   6.650 -0.5576  1.0511 -1.4124
 2848SOL    HW220007   4.671   0.602   6.622 -1.7900  0.6097  0.1941
 2849SOL     OW20008   3.390   2.210   2.611 -0.0278 -0.5122  0.0129
 2849SOL    HW120009   3.458   2.181   2.550 -1.2763 -2.6412 -0.3722
 2849SOL    HW220010   3.450   2.231   2.683  0.2170 -0.0551 -0.3281
 2850SOL     OW20011   1.614   1.912   3.701 -0.4770 -0.5163 -0.0304
 2850SOL    HW120012   1.671   1.839   3.727  0.6099  0.1291 -0.5649
 2850SOL    HW220013   1.529   1.885   3.735  0.8299 -2.2926  1.8895
 2851SOL     OW20014   3.465   3.831   8.141  0.0320  0.0759  0.2314
 2851SOL    HW120015   3.451   3.767   8.211  0.2111 -0.6462 -0.3813
 2851SOL    HW220016   3.560   3.821   8.135  0.3060  3.5574 -1.3382
 2852SOL     OW20017   4.658   0.939  16.376 -0.3861 -0.5981 -0.6545
 2852SOL    HW120018   4.580   0.976  16.417  1.2100  1.2092  0.7619
 2852SOL    HW220019   4.621   0.888  16.304  0.0500 -0.2580 -1.1186
 2853SOL     OW20020   1.802   1.329   6.363 -0.1890 -0.0181  0.3553
 2853SOL    HW120021   1.838   1.389   6.297 -1.8627 -0.3074 -0.8091
 2853SOL    HW220022   1.712   1.359   6.372  0.5383  1.4336  2.7800
 2854SOL     OW20023   0.917   0.083   0.509  0.6115  0.4888 -0.0505
 2854SOL    HW120024   0.890   4.719   0.540  3.2638  0.2055  1.4690
 2854SOL    HW220025   0.910   0.072   0.414 -1.8823 -0.6054  0.2459
 2855SOL     OW20026   0.934   0.354   0.231  0.4867 -0.5378  0.4112
 2855SOL    HW120027   0.879   0.275   0.233 -1.1293  0.5070 -2.0497
 2855SOL    HW220028   0.873   0.423   0.257  1.2197  0.8755 -1.5663
 2856SOL     OW20029   2.295   3.119   4.265 -0.3116 -0.0376 -0.0369
 2856SOL    HW120030   2.300   3.027   4.290 -0.5040 -0.2974 -0.9366
 2856SOL    HW220031   2.339   3.169   4.333 -1.2068  0.6723  0.0163
 2857SOL     OW20032   0.970   1.512  11.499 -0.5339  0.3404  0.0710
 2857SOL    HW120033   1.005   1.588  11.544  0.3739  0.8301 -1.4699
 2857SOL    HW220034   0.876   1.526  11.506 -0.4035 -0.4851  3.3133
 2858SOL     OW20035   0.368   1.364   6.846  0.3403 -0.0549  0.4947
 2858SOL    HW120036   0.307   1.433   6.875  0.1783  0.3640 -0.8407
 2858SOL    HW220037   0.343   1.334   6.759 -1.0407  2.4546  0.0073
 2859SOL     OW20038   4.300   4.362   7.617  0.7383 -0.3105 -0.2953
 2859SOL    HW120039   4.248   4.293   7.658  1.1269  1.2943  2.9106
 2859SOL    HW220040   4.334   4.413   7.691  3.0071 -1.3998 -0.5736
 2860SOL     OW20041   3.689   3.710   6.642 -0.1579 -0.2337 -0.0330
 2860SOL    HW120042   3.703   3.761   6.563  0.1529 -0.6520 -0.2509
 2860SOL    HW220043   3.595   3.705   6.656 -0.4028  1.7231 -1.0908
 2861SOL     OW20044   0.759   0.393   1.264  0.0101 -0.1041  0.0557
 2861SOL    HW120045   0.711   0.407   1.183 -0.6733 -1.6281  0.1947
 2861SOL    HW220046   0.774   0.299   1.254 -0.3748 -0.0026 -1.4445
 2862SOL     OW20047   0.720   2.670   4.629  0.0875  0.5552  0.3924
 2862SOL    HW120048   0.775   2.736   4.670 -1.2834  2.2197 -0.4132
 2862SOL    HW220049   0.730   2.683   4.535 -3.6996 -0.1265 -0.0999
 2863SOL     OW20050   4.332   0.298   5.066 -0.5726 -0.5835 -0.3092
 2863SOL    HW120051   4.287   0.363   5.010  2.6999  2.8754  1.0699
 2863SOL    HW220052   4.422   0.326   5.080 -0.8625 -0.5051  1.4421
 2864SOL     OW20053   0.572   4.173   0.256  0.1409  0.2757  0.0383
 2864SOL    HW120054   0.542   4.099   0.204  0.8556  0.1932 -0.2608
 2864SOL    HW220055   0.491   4.222   0.269  0.6134  0.6372  1.7315
 2865SOL     OW20056   4.579   0.648   8.572  0.0082  0.6213  0.0701
 2865SOL    HW120057   4.672   0.636   8.586 -0.4218 -2.5434  0.2459
 2865SOL    HW220058   4.550   0.580   8.633  2.3569  0.6554  1.2155
 2866SOL     OW20059   2.280   0.252   4.311 -0.6205 -0.2749 -0.1739
 2866SOL    HW120060   2.206   0.192   4.305 -1.0054  0.1000  0.8752
 2866SOL    HW220061   2.244   0.327   4.359  0.4036  1.1728 -1.6602
 2867SOL     OW20062   4.231   0.543   9.828  0.3500  0.7235 -0.9035
 2867SOL    HW120063   4.200   0.519   9.915 -2.3734  0.7288 -1.8703
 2867SOL    HW220064   4.180   0.482   9.775  0.1482 -0.1700  0.3191
 2868SOL     OW20065   1.509   2.777   2.034 -0.1259 -0.0283  0.3813
 2868SOL    HW120066   1.448   2.782   1.960  0.6080  1.1996 -0.1375
 2868SOL    HW220067   1.542   2.865   2.021 -0.5833  0.2421  1.0411
 2869SOL     OW20068   4.409   2.766  17.560  0.3428  0.7220  0.0789
 2869SOL    HW120069   4.351   2.723  17.498 -0.2768  3.1894 -1.0459
 2869SOL    HW220070   4.495   2.723  17.556  0.5952  1.3425 -1.1228
 2870SOL     OW20071   4.403   4.275   2.053  0.9700  0.2782  0.3652
 2870SOL    HW120072   4.475   4.293   2.113  0.5121  1.2706  0.6211
 2870SOL    HW220073   4.387   4.367   2.034  1.4846  0.1904 -0.5190
 2871SOL     OW20074   1.265   4.184   7.541  0.3639 -0.7166  0.0612
 2871SOL    HW120075   1.207   4.258   7.556  1.6102  0.4730 -1.0137
 2871SOL    HW220076   1.350   4.220   7.516 -1.3684  1.1130 -3.1382
 2872SOL     OW20077   0.064   2.566   4.637 -0.2396  0.4918  0.6476
 2872SOL    HW120078   0.152   2.588   4.667  0.0131  1.7847 -1.0033
 2872SOL    HW220079   0.072   2.513   4.557  1.4101  3.8146 -1.3808
 2873SOL     OW20080   4.325   3.184   3.462  0.2229 -0.6161  0.4542
 2873SOL    HW120081   4.330   3.142   3.548  0.0038 -2.3931 -0.4070
 2873SOL    HW220082   4.410   3.158   3.425  0.3437  1.4515 -0.6981
 2874SOL     OW20083   2.073   0.955  12.005  0.0410  0.3520  0.6574
 2874SOL    HW120084   2.163   0.986  11.993  1.4908 -3.4223  1.7937
 2874SOL    HW220085   2.057   0.904  11.926 -0.3777  1.8526 -0.2053
 2875SOL     OW20086   1.975   0.141   7.503 -0.4410  0.6410 -0.6084
 2875SOL    HW120087   1.941   0.230   7.501 -0.4127  0.5677 -4.1584
 2875SOL    HW220088   1.904   0.097   7.455 -0.0689 -0.5561 -0.0784
 2876SOL     OW20089   3.933   1.830  11.743  0.1009 -0.2984 -0.5030
 2876SOL    HW120090   4.004   1.770  11.720  1.1138  0.5898  0.2898
 2876SOL    HW220091   3.897   1.777  11.814  1.4557  0.6099  0.8731
 2877SOL     OW20092   2.280   1.657   3.419 -0.0058  0.1633  0.0650
 2877SOL    HW120093   2.260   1.727   3.358 -0.7078 -0.0099  0.0892
 2877SOL    HW220094   2.301   1.581   3.364  0.0707 -0.6253  1.1725
 2878SOL     OW20095   0.307   1.587   8.610  0.8110 -0.4924 -0.0557
 2878SOL    HW120096   0.290   1.492   8.609  2.4568 -0.7811 -0.1004
 2878SOL    HW220097   0.402   1.589   8.597  0.7853  0.1019 -0.1379
 2879SOL     OW20098   0.176   2.806   6.451 -0.7551 -1.0655 -0.0543
 2879SOL    HW120099   0.262   2.792   6.412 -0.6935 -2.1709  0.4935
 2879SOL    HW220100   0.180   2.885   6.506 -1.8946 -1.6878  0.9131
 2880SOL     OW20101   0.533   0.743   8.937 -0.5683 -0.2516  0.2106
 2880SOL    HW120102   0.555   0.822   8.988  1.3550  0.5470 -1.8390
 2880SOL    HW220103   0.614   0.724   8.890 -0.3126  0.2778  0.4285
 2881SOL     OW20104   3.988   2.344   5.177  0.2218  0.9478 -0.0021
 2881SOL    HW120105   4.013   2.416   5.234 -0.2237  2.0862 -1.2536
 2881SOL    HW220106   4.048   2.276   5.208 -1.5509 -0.7147 -0.1877
 2882SOL     OW20107   2.636   3.094   9.052  0.1177 -0.2861  0.1651
 2882SOL    HW120108   2.663   3.186   9.048  0.9591 -0.5354  0.2060
 2882SOL    HW220109   2.543   3.097   9.077 -0.2821  0.6347 -1.4362
 2883SOL     OW20110   1.793   1.634   8.324 -0.4951 -0.4382 -0.0405
 2883SOL    HW120111   1.709   1.586   8.322 -0.5282 -0.3419 -0.7706
 2883SOL    HW220112   1.799   1.668   8.413 -1.3000  0.2942 -0.2656
 2884SOL     OW20113   4.644   3.263  12.940 -0.0307 -0.3744  0.5860
 2884SOL    HW120114   0.000   3.295  12.984  0.2279  1.7411 -1.4141
 2884SOL    HW220115   4.632   3.341  12.885 -2.8305 -0.2748  1.3515
 2885SOL     OW20116   3.473   1.214  16.379 -0.0682  0.6493 -0.0775
 2885SOL    HW120117   3.531   1.261  16.319 -0.4532  2.0650  0.6652
 2885SOL    HW220118   3.388   1.207  16.334 -1.2310 -0.4964  2.3112
 2886SOL     OW20119   3.833   4.262   3.564 -0.3265  0.2573 -0.1128
 2886SOL    HW120120   3.905   4.318   3.534  1.5111 -1.6314  0.7859
 2886SOL    HW220121   3.822   4.226   3.476 -0.4669  0.8230 -0.3322
 2887SOL     OW20122   3.261   2.602   3.806  0.1315  0.8009 -0.3362
 2887SOL    HW120123   3.176   2.587   3.850  0.4760  1.3894  0.5446
 2887SOL    HW220124   3.313   2.529   3.839 -0.8034 -0.1515 -0.9635
 2888SOL     OW20125   4.694   4.401   3.136 -0.4284  0.3013  0.7066
 2888SOL    HW120126   4.612   4.375   3.093 -0.9648  3.1622 -0.0499
 2888SOL    HW220127   4.712   4.473   3.075 -1.7188 -0.9225 -1.1203
 2889SOL     OW20128   0.366   2.412   1.335  0.0209  0.5669  0.1313
 2889SOL    HW120129   0.282   2.455   1.351 -0.7720 -1.1904  0.6717
 2889SOL    HW220130   0.426   2.472   1.380  0.0937 -0.2011  1.0434
 2890SOL     OW20131   2.646   2.911  13.731  0.3278 -0.1690 -0.0884
 2890SOL    HW120132   2.665   3.002  13.753  0.3755 -0.0690 -0.5567
 2890SOL    HW220133   2.681   2.900  13.643 -1.4112  0.6432 -0.8858
 2891SOL     OW20134   2.367   3.885   5.789 -1.0913  0.2881 -0.1306
 2891SOL    HW120135   2.358   3.915   5.880  2.5376  1.7707 -0.2665
 2891SOL    HW220136   2.326   3.799   5.800  0.2363 -0.4673 -1.1816
 2892SOL     OW20137   0.694   0.407  16.899 -0.5239 -0.3522  0.2008
 2892SOL    HW120138   0.750   0.344  16.853 -2.7557 -1.6783 -0.7346
 2892SOL    HW220139   0.753   0.482  16.903  1.6717 -2.0337 -0.7205
 2893SOL     OW20140   1.220   0.149  10.436 -0.1744  0.3791 -0.3407
 2893SOL    HW120141   1.228   0.115  10.525 -1.2986 -1.2455 -0.8571
 2893SOL    HW220142   1.312   0.161  10.413 -0.3921  0.8706 -0.9639
 2894SOL     OW20143   0.597   0.908   4.145 -0.4563  0.7210  0.1444
 2894SOL    HW120144   0.691   0.909   4.128 -0.2950 -2.0581  0.9353
 2894SOL    HW220145   0.566   0.932   4.058  1.4826 -0.5674 -0.8873
 2895SOL     OW20146   3.206   1.008   1.005  0.5641  0.4437  0.1086
 2895SOL    HW120147   3.259   1.080   0.972 -1.7559  2.1112 -0.0067
 2895SOL    HW220148   3.260   0.929   1.015 -1.0821 -0.5260  1.4933
 2896SOL     OW20149   2.494   4.719   5.196 -0.4772 -0.6360 -0.0920
 2896SOL    HW120150   2.463   4.629   5.200  0.0394 -0.8380 -0.4906
 2896SOL    HW220151   2.551   0.009   5.272  2.4681 -1.7078 -2.0848
 2897SOL     OW20152   2.792   2.962   1.123  0.1737 -0.2549 -0.5589
 2897SOL    HW120153   2.808   2.870   1.143  0.3534 -0.3386 -1.0772
 2897SOL    HW220154   2.730   2.976   1.194  1.2631  1.3613  0.0689
 2898SOL     OW20155   2.237   2.076   5.124  0.3425 -0.1288 -0.4190
 2898SOL    HW120156   2.320   2.102   5.165  0.0077 -0.8608  0.7381
 2898SOL    HW220157   2.202   2.162   5.100  0.6876 -0.1660 -1.0376
 2899SOL     OW20158   2.942   1.545   2.989 -0.0892  0.0816 -0.8012
 2899SOL    HW120159   2.919   1.461   2.950  1.7024 -0.4112 -0.7667
 2899SOL    HW220160   2.903   1.607   2.927  1.1720  0.1314 -1.5422
 2900SOL     OW20161   3.893   2.416  16.774  0.0303 -0.1510 -0.0259
 2900SOL    HW120162   3.875   2.378  16.860 -0.0499 -1.6554 -0.7045
 2900SOL    HW220163   3.806   2.450  16.751 -0.5855  0.1294  2.6268
 2901SOL     OW20164   1.866   0.891  12.862  0.0679 -0.0902 -0.6385
 2901SOL    HW120165   1.922   0.956  12.820 -0.9496  2.3177  1.7364
 2901SOL    HW220166   1.825   0.845  12.788 -1.8218 -0.9419  0.9396
 2902SOL     OW20167   0.378   4.429   0.765 -0.1203 -0.0761 -0.1285
 2902SOL    HW120168   0.299   4.425   0.711  0.0858 -1.1735 -0.3417
 2902SOL    HW220169   0.424   4.359   0.719  2.7705  0.7156  1.5563
 2903SOL     OW20170   2.301   4.594  12.698  0.3401 -0.2174  0.1038
 2903SOL    HW120171   2.233   4.573  12.762  0.5883 -1.6981 -0.1070
 2903SOL    HW220172   2.340   4.669  12.742 -2.9198  1.5812 -0.1219
 2904SOL     OW20173   2.784   3.363   4.090  0.6185 -0.8676 -0.3175
 2904SOL    HW120174   2.820   3.274   4.096  3.0455  0.1245 -0.3296
 2904SOL    HW220175   2.824   3.414   4.019 -0.5218 -0.9040 -0.9996
 2905SOL     OW20176   1.339   3.606   3.514  0.3789  0.0615  0.4174
 2905SOL    HW120177   1.303   3.675   3.459 -1.7749 -0.7204  0.8157
 2905SOL    HW220178   1.426   3.636   3.539  1.5803 -1.8051 -1.5464
 2906SOL     OW20179   0.730   2.837   0.283 -0.3602 -0.8421 -0.2384
 2906SOL    HW120180   0.739   2.823   0.189  1.3763 -0.2204 -0.1555
 2906SOL    HW220181   0.639   2.806   0.289 -1.1583  1.6880  0.8580
 2907SOL     OW20182   1.025   1.107   3.602  0.6808 -0.2653  0.1218
 2907SOL    HW120183   0.936   1.090   3.631  0.6508 -0.1260  0.1075
 2907SOL    HW220184   1.033   1.066   3.516  2.6918  0.6802 -0.1540
 2908SOL     OW20185   2.421   0.773  10.458  0.1185  0.5899 -0.3431
 2908SOL    HW120186   2.480   0.769  10.383 -0.5624 -0.2234 -0.8311
 2908SOL    HW220187   2.405   0.682  10.481  0.9926  0.9463  1.6958
 2909SOL     OW20188   1.775   4.525   5.002  0.1282  0.3002  0.4677
 2909SOL    HW120189   1.865   4.502   5.022  0.0494 -1.2198 -0.8866
 2909SOL    HW220190   1.737   4.543   5.088 -0.1032  0.4000  0.3467
 2910SOL     OW20191   3.873   0.133   2.931 -0.0378 -0.6287 -0.4688
 2910SOL    HW120192   3.891   0.095   2.845 -2.8547 -0.1594 -1.2788
 2910SOL    HW220193   3.805   0.071   2.959 -0.4534 -0.1122 -0.3434
 2911SOL     OW20194   2.838   4.049   7.943 -0.2876 -0.0229  0.2406
 2911SOL    HW120195   2.899   3.976   7.933  2.1590  1.9752  0.6495
 2911SOL    HW220196   2.798   4.024   8.027 -0.6717 -0.0745  0.0417
 2912SOL     OW20197   3.716   1.813   6.775 -0.3898 -0.0692 -0.1454
 2912SOL    HW120198   3.715   1.774   6.687  3.1626 -0.1110 -0.1510
 2912SOL    HW220199   3.648   1.879   6.762 -0.3523 -0.1507 -0.7750
 2913SOL     OW20200   1.175   1.379  13.759 -0.0747  0.1170 -0.4163
 2913SOL    HW120201   1.236   1.319  13.800  0.7953 -0.0233 -1.9250
 2913SOL    HW220202   1.094   1.328  13.758 -0.3558  0.5351  0.6795
 2914SOL     OW20203   2.339   2.983  15.853 -0.5784 -0.7436  0.2970
 2914SOL    HW120204   2.331   3.067  15.897 -2.2001 -1.2136  0.9096
 2914SOL    HW220205   2.336   3.008  15.761 -1.5067 -0.4796  0.4004
 2915SOL     OW20206   1.340   0.086  11.651  0.3276 -0.0732  0.3193
 2915SOL    HW120207   1.302   0.023  11.712 -1.0879 -0.7779 -1.2969
 2915SOL    HW220208   1.413   0.044  11.607  2.5730  2.9111  1.1833
 2916SOL     OW20209   4.045   2.212   7.875  0.3824 -0.4504 -0.4329
 2916SOL    HW120210   4.024   2.233   7.965 -0.4592 -0.5961 -0.5981
 2916SOL    HW220211   4.023   2.119   7.875  2.8232 -1.0293  0.6163
 2917SOL     OW20212   4.413   0.628   7.644  0.0501  0.3621 -0.3565
 2917SOL    HW120213   4.469   0.584   7.581  0.8275  0.0719  0.5486
 2917SOL    HW220214   4.353   0.668   7.580  1.3958  1.6385 -0.8152
 2918SOL     OW20215   1.040   1.653   7.738  0.5039 -0.1357  0.5570
 2918SOL    HW120216   1.107   1.637   7.804  2.1463  1.7759 -0.6171
 2918SOL    HW220217   1.006   1.565   7.721  0.1389  0.6469 -2.7908
 2919SOL     OW20218   4.097   4.511   6.248  0.2689 -0.2115  0.1569
 2919SOL    HW120219   4.084   4.581   6.185 -0.5152 -0.5041 -0.0098
 2919SOL    HW220220   4.165   4.537   6.310  0.3479 -1.5355  0.6289
 2920SOL     OW20221   2.510   3.139   6.184  0.2479  0.8671  0.4401
 2920SOL    HW120222   2.457   3.092   6.249 -0.2588 -2.3426 -2.2930
 2920SOL    HW220223   2.549   3.208   6.237  0.1350  0.7864  0.6282
 2921SOL     OW20224   3.096   2.137   5.477 -0.4070  0.0900 -0.0063
 2921SOL    HW120225   3.078   2.138   5.383  1.7016 -1.4011 -0.4299
 2921SOL    HW220226   3.065   2.224   5.500 -1.4117  0.1798 -1.6757
 2922SOL     OW20227   3.501   2.939   9.280 -0.1309 -0.1974 -0.2451
 2922SOL    HW120228   3.490   2.859   9.331  0.6229 -0.0738  0.1102
 2922SOL    HW220229   3.418   2.984   9.293  0.1789  0.4873 -0.6093
 2923SOL     OW20230   4.243   2.303   0.905 -0.2510 -0.0406 -0.1083
 2923SOL    HW120231   4.152   2.283   0.882  0.5308 -1.4913 -1.9579
 2923SOL    HW220232   4.287   2.325   0.822 -0.5690  0.5359 -0.1199
 2924SOL     OW20233   4.255   1.677   9.543 -0.1877  0.4428 -0.1085
 2924SOL    HW120234   4.196   1.742   9.581 -0.3376  0.5193 -0.4697
 2924SOL    HW220235   4.196   1.648   9.472 -0.5611  0.5876  0.1446
 2925SOL     OW20236   4.094   1.264  11.725 -0.5494 -0.6508  0.3466
 2925SOL    HW120237   4.147   1.203  11.674 -2.5035 -1.9361 -0.1494
 2925SOL    HW220238   4.008   1.252  11.684 -0.1865 -0.6729 -0.3899
 2926SOL     OW20239   2.234   0.231   3.383 -0.4142  0.6535 -0.1427
 2926SOL    HW120240   2.326   0.226   3.355 -0.1677 -2.4605  1.1287
 2926SOL    HW220241   2.186   0.248   3.302 -0.6704  0.6283  0.0049
 2927SOL     OW20242   1.716   3.833   3.370  0.9220 -0.3237  0.3347
 2927SOL    HW120243   1.677   3.894   3.307  2.3972 -2.1561 -2.3763
 2927SOL    HW220244   1.786   3.896   3.390  0.8073 -0.4581  1.1308
 2928SOL     OW20245   0.482   0.354   4.625 -0.0422  0.0533  1.0722
 2928SOL    HW120246   0.409   0.371   4.566  1.7209  2.1651 -0.5059
 2928SOL    HW220247   0.510   0.445   4.637  1.0993 -0.0913 -0.4142
 2929SOL     OW20248   3.803   1.011   2.263 -0.5593  0.3503 -0.1596
 2929SOL    HW120249   3.801   1.051   2.350 -1.3389 -1.9081  0.8732
 2929SOL    HW220250   3.873   1.065   2.226 -0.1107 -1.0443 -1.3483
 2930SOL     OW20251   2.850   0.029   3.070  0.1526 -0.4345  0.8035
 2930SOL    HW120252   2.823   0.032   3.162  0.1700  0.0459  0.7892
 2930SOL    HW220253   2.816   0.107   3.029 -0.7563 -1.1236  0.2548
 2931SOL     OW20254   0.995   0.483  16.765 -0.4967  0.1210  0.6833
 2931SOL    HW120255   0.935   0.511  16.696 -0.2169 -0.2911  0.2828
 2931SOL    HW220256   1.041   0.410  16.726  0.7407  0.0710  2.2565
 2932SOL     OW20257   2.760   0.251  16.957 -0.1941  0.2565  0.0554
 2932SOL    HW120258   2.844   0.292  16.934  0.0876  0.3894  1.3114
 2932SOL    HW220259   2.700   0.325  16.957 -0.3291  0.1372  1.5014
 2933SOL     OW20260   2.595   4.011   2.214 -0.1411 -0.5482  0.2723
 2933SOL    HW120261   2.584   3.963   2.132 -0.0232  0.0800 -0.1187
 2933SOL    HW220262   2.690   4.022   2.225 -0.5003 -0.3650  3.2125
 2934SOL     OW20263   3.383   1.889  14.253 -0.0199  0.4190  0.4466
 2934SOL    HW120264   3.291   1.915  14.254  0.7340  3.0835 -1.0750
 2934SOL    HW220265   3.393   1.879  14.158 -1.0937 -0.5019  0.4308
 2935SOL     OW20266   3.738   1.961   6.180  0.2474 -0.1181 -0.4962
 2935SOL    HW120267   3.812   1.936   6.236  0.1368  2.4504  0.7818
 2935SOL    HW220268   3.789   2.024   6.130 -0.7092  0.1715 -1.0890
 2936SOL     OW20269   2.598   3.387   1.262  0.3393 -0.2052 -0.4021
 2936SOL    HW120270   2.571   3.394   1.170 -0.6856 -2.8342 -0.2980
 2936SOL    HW220271   2.684   3.347   1.255  0.7686  0.7592 -0.6240
 2937SOL     OW20272   2.884   0.810   6.761  0.2942 -0.3269 -0.4813
 2937SOL    HW120273   2.897   0.715   6.751  1.1876 -0.4475  1.6567
 2937SOL    HW220274   2.790   0.817   6.776  0.3478 -0.3753 -0.1226
 2938SOL     OW20275   1.989   2.843   3.468  0.0518 -0.0393 -0.4582
 2938SOL    HW120276   1.967   2.798   3.386  0.6088 -0.0523 -0.5954
 2938SOL    HW220277   2.008   2.931   3.435 -2.5537 -0.0558 -2.0015
 2939SOL     OW20278   3.527   0.512   5.068  0.4398 -0.4996  0.4693
 2939SOL    HW120279   3.589   0.443   5.047  0.0666 -0.7322  0.1420
 2939SOL    HW220280   3.581   0.591   5.063 -0.2565 -0.1157 -1.0467
 2940SOL     OW20281   2.880   1.279   7.478 -0.2198  0.7354 -0.3821
 2940SOL    HW120282   2.882   1.372   7.501  2.8076  0.8403 -1.1559
 2940SOL    HW220283   2.975   1.277   7.477 -0.2225  0.7092 -0.5064
 2941SOL     OW20284   3.443   2.145   3.232  0.1156  0.1326  0.0897
 2941SOL    HW120285   3.394   2.072   3.193  0.1246  1.4245 -2.3700
 2941SOL    HW220286   3.508   2.096   3.281  2.0245  0.7910 -1.7608
 2942SOL     OW20287   0.520   3.825   7.946  0.2524 -0.0658  0.2587
 2942SOL    HW120288   0.441   3.771   7.937  0.9593 -1.1290  0.5448
 2942SOL    HW220289   0.570   3.764   7.999  0.5609 -1.2176 -1.3839
 2943SOL     OW20290   1.001   2.275   2.422 -0.1199  0.3507  0.1502
 2943SOL    HW120291   0.971   2.365   2.410  3.0845  1.2731 -0.7617
 2943SOL    HW220292   0.920   2.231   2.395  0.0629  1.5468 -2.3477
 2944SOL     OW20293   2.495   0.061  13.772 -0.8669  0.4321  0.4670
 2944SOL    HW120294   2.570   0.043  13.715 -1.8094 -3.4927  0.4396
 2944SOL    HW220295   2.429   4.721  13.743 -1.4153  0.8395  0.8442
 2945SOL     OW20296   1.589   2.866   9.196 -0.4815 -0.0932 -0.0347
 2945SOL    HW120297   1.584   2.953   9.157  2.6496 -0.0134 -0.2712
 2945SOL    HW220298   1.648   2.898   9.265 -2.4625  1.1777  1.0690
 2946SOL     OW20299   1.928   3.614   6.679 -0.0695  0.5067 -0.7882
 2946SOL    HW120300   1.891   3.635   6.765  2.2901 -1.2933  0.6808
 2946SOL    HW220301   1.985   3.539   6.699  0.0797  1.1189  1.1465
 2947SOL     OW20302   2.533   1.719   4.892  0.0177 -0.2689  0.1864
 2947SOL    HW120303   2.504   1.810   4.892 -0.1532 -0.3304 -3.0662
 2947SOL    HW220304   2.603   1.731   4.956 -0.5141 -1.0770  0.9208
 2948SOL     OW20305   3.373   4.307   5.503  0.1768  0.0778 -0.0776
 2948SOL    HW120306   3.398   4.284   5.414  0.2087  2.4608 -0.6731
 2948SOL    HW220307   3.436   4.380   5.504 -0.9918  1.0764  0.2346
 2949SOL     OW20308   3.507   3.555   4.688  0.1805  0.1299 -0.1503
 2949SOL    HW120309   3.479   3.616   4.620 -1.8437 -0.1900  0.4129
 2949SOL    HW220310   3.442   3.486   4.676  1.2442 -0.7479 -0.9096
 2950SOL     OW20311   4.393   2.445   6.643 -0.1657 -0.0391  0.5678
 2950SOL    HW120312   4.317   2.400   6.681 -2.1047  1.6414 -1.3455
 2950SOL    HW220313   4.346   2.505   6.585  1.7995  1.3137  0.3882
 2951SOL     OW20314   3.814   4.552   2.689  0.1073  0.0087 -0.1531
 2951SOL    HW120315   3.769   4.637   2.683  0.7914  0.3725 -0.0898
 2951SOL    HW220316   3.898   4.572   2.728 -0.7094  3.4955 -0.1467
 2952SOL     OW20317   3.816   0.916   7.809 -0.1578  0.2259  0.1223
 2952SOL    HW120318   3.765   0.955   7.879  0.6552 -0.9072  1.3547
 2952SOL    HW220319   3.886   0.880   7.863 -0.8192 -2.9778 -1.1605
 2953SOL     OW20320   4.555   4.588   7.232  0.2298  0.4120  0.3846
 2953SOL    HW120321   4.589   4.516   7.179  0.3669 -0.7076  2.0073
 2953SOL    HW220322   4.566   4.560   7.322 -0.0620  1.7705  0.8425
 2954SOL     OW20323   3.353   3.649   5.430  0.0191  0.5086 -0.0982
 2954SOL    HW120324   3.427   3.604   5.472  0.8196  1.7289 -0.2102
 2954SOL    HW220325   3.398   3.690   5.356  1.9471 -0.2277  0.6398
 2955SOL     OW20326   3.771   3.019   3.316 -0.7567 -0.0763 -0.2077
 2955SOL    HW120327   3.851   3.068   3.293 -0.1210 -0.1530  1.8069
 2955SOL    HW220328   3.803   2.933   3.342 -0.3254  0.1635  0.0481
 2956SOL     OW20329   0.497   1.952  11.322 -0.0945 -0.2685 -0.1225
 2956SOL    HW120330   0.573   1.975  11.268 -0.2712 -1.0085 -0.6737
 2956SOL    HW220331   0.464   2.039  11.348  0.7332 -0.3210  1.0930
 2957SOL     OW20332   3.278   3.207   3.251  0.5481  0.6613 -0.0487
 2957SOL    HW120333   3.368   3.209   3.281 -0.2772 -0.2331  2.4959
 2957SOL    HW220334   3.265   3.112   3.242 -2.6873  1.2084 -1.0449
 2958SOL     OW20335   4.381   1.232   9.887 -0.4248  0.2464  0.2533
 2958SOL    HW120336   4.476   1.237   9.894 -0.4105 -1.4738  1.4408
 2958SOL    HW220337   4.364   1.286   9.811  0.3495  0.1105 -0.0145
 2959SOL     OW20338   0.057   4.561   3.528 -0.2188 -0.6290  0.1715
 2959SOL    HW120339   0.072   4.468   3.538 -1.1460 -0.5553  2.2215
 2959SOL    HW220340   0.139   4.583   3.483  0.2947  0.2358  1.5144
 2960SOL     OW20341   1.228   1.896   2.108 -0.8560 -0.4115  0.1549
 2960SOL    HW120342   1.244   1.986   2.137  0.2257 -0.4965 -0.1769
 2960SOL    HW220343   1.156   1.910   2.046 -0.8518 -2.5523 -0.3390
 2961SOL     OW20344   2.436   0.867   9.064 -0.5635  0.1786 -0.4079
 2961SOL    HW120345   2.487   0.807   9.118  0.0628  1.7412  0.7340
 2961SOL    HW220346   2.360   0.820   9.030 -0.3621 -0.7409  0.4037
 2962SOL     OW20347   2.185   0.341   3.969  0.1891  0.7465  0.3164
 2962SOL    HW120348   2.265   0.337   4.022  1.4075  1.9225 -1.4277
 2962SOL    HW220349   2.132   0.282   4.023 -0.7314  1.1720 -0.1338
 2963SOL     OW20350   0.386   1.583   8.142 -0.1105  0.4016  0.7314
 2963SOL    HW120351   0.328   1.629   8.082 -0.2097 -1.3533 -0.5433
 2963SOL    HW220352   0.442   1.657   8.165  4.6137 -2.5047 -1.1721
 2964SOL     OW20353   3.408   0.406  17.666 -0.3470  0.2560 -0.0280
 2964SOL    HW120354   3.404   0.310  17.671 -0.9955  0.2771 -0.2572
 2964SOL    HW220355   3.344   0.430  17.600 -1.6606  0.4398  1.3083
 2965SOL     OW20356   0.407   3.902   0.867  0.0534  0.0463 -0.0199
 2965SOL    HW120357   0.398   3.969   0.800 -1.6189 -1.3904 -1.2366
 2965SOL    HW220358   0.448   3.833   0.814 -0.9669 -0.9192  0.4585
 2966SOL     OW20359   0.512   1.252   6.091 -0.0387 -0.0483  0.1658
 2966SOL    HW120360   0.447   1.282   6.028 -0.2961 -0.0188  0.4492
 2966SOL    HW220361   0.598   1.266   6.050  0.9462  0.0898  2.2988
 2967SOL     OW20362   3.996   2.657   2.069  0.1346 -0.3806  0.3321
 2967SOL    HW120363   3.910   2.697   2.085  0.7003  0.6219  0.8447
 2967SOL    HW220364   3.999   2.668   1.974  0.0516  1.8947  0.5825
 2968SOL     OW20365   2.951   2.195   7.525  0.4085  0.5661 -0.0285
 2968SOL    HW120366   3.029   2.153   7.562 -1.3079 -2.3911  0.2706
 2968SOL    HW220367   2.900   2.216   7.603 -0.6307 -0.0966 -0.5367
 2969SOL     OW20368   2.198   0.794   5.112 -0.0902 -0.0637 -0.1065
 2969SOL    HW120369   2.253   0.716   5.107 -0.6411 -0.4979  0.6805
 2969SOL    HW220370   2.237   0.843   5.040  1.3522  0.2360  0.8799
 2970SOL     OW20371   2.216   4.661   6.655 -0.1660  0.5047 -0.1641
 2970SOL    HW120372   2.231   4.574   6.617  1.3610  0.9677 -0.6241
 2970SOL    HW220373   2.178   4.643   6.741  2.6743 -1.4616  0.6781
 2971SOL     OW20374   3.836   1.161   4.821  0.6889  0.1278  0.3613
 2971SOL    HW120375   3.891   1.083   4.824 -0.2536 -0.5296  0.3816
 2971SOL    HW220376   3.898   1.229   4.795  2.0874 -1.4719 -0.5139
 2972SOL     OW20377   3.443   2.014   5.970 -0.0739 -0.0521 -0.7018
 2972SOL    HW120378   3.348   2.023   5.967 -0.2941 -2.5416 -1.4824
 2972SOL    HW220379   3.450   2.057   6.055 -1.7081  0.4214 -0.8066
 2973SOL     OW20380   4.054   3.887   1.949 -1.0286 -0.2472  0.0495
 2973SOL    HW120381   4.037   3.811   2.004 -1.4838 -0.3413 -0.2212
 2973SOL    HW220382   3.984   3.942   1.986  0.5616  2.6054 -1.2071
 2974SOL     OW20383   2.008   0.848  10.860 -0.4016 -0.1704 -0.6254
 2974SOL    HW120384   1.914   0.839  10.873 -0.2007  0.9157  1.5780
 2974SOL    HW220385   2.039   0.805  10.940 -1.9785 -0.7697 -0.3511
 2975SOL     OW20386   0.792   1.436   4.289  0.4641  0.1416 -0.7124
 2975SOL    HW120387   0.814   1.365   4.229 -0.5171 -1.4323  0.7824
 2975SOL    HW220388   0.873   1.486   4.281  0.8939 -0.4355  0.0633
 2976SOL     OW20389   4.692   2.437  17.633  0.3694  0.2546  0.3290
 2976SOL    HW120390   4.699   2.493  17.555  0.2447 -1.6918 -1.1018
 2976SOL    HW220391   4.602   2.452  17.661  0.4075 -2.3897  1.8597
 2977SOL     OW20392   4.083   0.786   4.334  0.2780  0.4622 -0.0850
 2977SOL    HW120393   4.151   0.784   4.266 -0.3908  1.2737 -0.7710
 2977SOL    HW220394   4.013   0.821   4.280 -0.3659  2.4138  2.0145
 2978SOL     OW20395   0.504   0.303   2.438  0.1837  0.2272  0.4184
 2978SOL    HW120396   0.569   0.373   2.431 -0.5244  0.7686 -0.5960
 2978SOL    HW220397   0.526   0.252   2.360 -1.0892  0.6344 -0.2036
 2979SOL     OW20398   3.664   1.756  11.284 -0.5950 -0.1587 -0.5487
 2979SOL    HW120399   3.633   1.846  11.278  0.7032  0.3080 -0.1477
 2979SOL    HW220400   3.755   1.771  11.261 -0.2729 -1.8037 -0.3793
 2980SOL     OW20401   2.661   2.004   8.218  0.2441 -0.4435  0.2016
 2980SOL    HW120402   2.649   1.920   8.263  0.9330 -0.7189 -0.1299
 2980SOL    HW220403   2.725   2.046   8.276  1.7809 -1.5887 -0.6518
 2981SOL     OW20404   0.420   4.076   7.891  0.3309 -0.3595  0.1126
 2981SOL    HW120405   0.333   4.038   7.877  0.5707 -0.4513 -1.1049
 2981SOL    HW220406   0.470   3.994   7.884  2.2162  0.7661  0.4865
 2982SOL     OW20407   2.798   1.210   4.728  0.2530  0.3373  0.0724
 2982SOL    HW120408   2.793   1.295   4.686 -2.1070 -0.3692 -1.0967
 2982SOL    HW220409   2.731   1.224   4.795  0.3550 -1.8845  0.6371
 2983SOL     OW20410   0.627   0.779   8.262 -0.6584  0.2148  0.3086
 2983SOL    HW120411   0.569   0.788   8.338  0.7083  0.3111  1.3375
 2983SOL    HW220412   0.577   0.821   8.192 -2.1054  1.2454  1.9513
 2984SOL     OW20413   0.275   2.646  12.519  0.3083  0.3179  1.0449
 2984SOL    HW120414   0.329   2.645  12.598  2.1390 -0.8478 -0.2153
 2984SOL    HW220415   0.279   2.740  12.498  0.5165  0.2072  0.5787
 2985SOL     OW20416   3.395   3.847   0.103 -0.2437 -0.6078  0.0012
 2985SOL    HW120417   3.470   3.899   0.073  0.5126 -1.7990 -0.1446
 2985SOL    HW220418   3.443   3.795   0.166 -1.2287  0.5664  1.7174
 2986SOL     OW20419   4.273   1.906   5.646 -0.0916 -0.3271 -0.2749
 2986SOL    HW120420   4.298   1.961   5.571  2.0990 -0.3483  0.4626
 2986SOL    HW220421   4.182   1.936   5.651  0.1153  0.3954 -0.8297
 2987SOL     OW20422   2.925   1.353   4.384  0.4709  0.4148 -0.2094
 2987SOL    HW120423   3.001   1.344   4.443 -0.6724  1.5390  1.4473
 2987SOL    HW220424   2.856   1.381   4.444  2.3906  1.0096  1.7481
 2988SOL     OW20425   3.949   3.548  11.347  0.8921  0.6223  0.0202
 2988SOL    HW120426   3.923   3.640  11.354  1.5059  0.9238 -1.8567
 2988SOL    HW220427   3.885   3.493  11.392 -0.2765  2.3886  0.5263
 2989SOL     OW20428   2.579   1.838   3.352  0.2242  0.1076  0.2803
 2989SOL    HW120429   2.517   1.891   3.301 -0.5287 -1.3099 -0.2853
 2989SOL    HW220430   2.534   1.839   3.436  1.2525  0.2134  0.8227
 2990SOL     OW20431   3.721   3.710   8.855 -0.4085 -0.2129 -0.1215
 2990SOL    HW120432   3.694   3.773   8.922  0.7215  0.4879 -0.3411
 2990SOL    HW220433   3.682   3.627   8.884 -0.8909  0.9418  2.5976
 2991SOL     OW20434   4.280   2.323   4.745  0.2846  0.3886  0.3422
 2991SOL    HW120435   4.344   2.369   4.691 -1.9150  0.5806 -2.1023
 2991SOL    HW220436   4.341   2.266   4.791  0.7806 -0.1953 -1.0315
 2992SOL     OW20437   2.636   4.145   8.550  0.6285  0.3597 -0.1654
 2992SOL    HW120438   2.593   4.102   8.477  1.7390  2.3662 -1.9928
 2992SOL    HW220439   2.582   4.223   8.546 -0.8038 -0.5334  1.6792
 2993SOL     OW20440   4.472   0.026   7.038 -0.0451  0.2765  0.0632
 2993SOL    HW120441   4.486   4.680   7.103  2.1222  0.3236 -0.3351
 2993SOL    HW220442   4.485   0.109   7.082 -1.3234  0.9833 -0.8926
 2994SOL     OW20443   1.184   1.993   1.747  1.0500  0.1279  0.3008
 2994SOL    HW120444   1.222   2.064   1.695 -2.1648  0.7303 -1.2118
 2994SOL    HW220445   1.255   1.983   1.811  0.3057 -2.8252  0.6545
 2995SOL     OW20446   3.979   1.401  15.130 -0.5695  0.9375 -0.0173
 2995SOL    HW120447   3.897   1.435  15.094  0.5950  0.7125 -2.8840
 2995SOL    HW220448   3.954   1.313  15.156  2.7986  0.2433  0.8765
 2996SOL     OW20449   1.729   2.909  12.381 -0.0163 -0.3367  0.4956
 2996SOL    HW120450   1.769   2.822  12.391 -1.6316 -1.2622 -1.0889
 2996SOL    HW220451   1.804   2.964  12.400  0.7075 -0.5721 -1.7288
 2997SOL     OW20452   1.988   3.781   3.246  0.3962  0.4649  0.1483
 2997SOL    HW120453   2.073   3.824   3.258 -1.0746  2.3534  3.9793
 2997SOL    HW220454   1.975   3.748   3.335  0.9394 -2.0183 -0.6885
 2998SOL     OW20455   1.973   1.085   8.936  0.0413  0.3814  0.1062
 2998SOL    HW120456   1.957   1.115   8.847 -0.3942  0.5530  0.2406
 2998SOL    HW220457   2.039   1.020   8.912 -1.5979 -1.6499  1.0077
 2999SOL     OW20458   4.070   4.226   7.608 -0.7699 -0.1872  0.2810
 2999SOL    HW120459   4.043   4.289   7.542 -1.9737 -0.5967  0.3757
 2999SOL    HW220460   4.070   4.145   7.556 -1.6915  0.1512 -0.2528
 3000SOL     OW20461   4.690   1.859   3.829 -0.0341  0.6931  0.0147
 3000SOL    HW120462   0.015   1.803   3.767 -0.4189 -0.5271  0.8060
 3000SOL    HW220463   4.600   1.839   3.804 -0.7398  2.0431  1.5109
 3001SOL     OW20464   1.864   3.450   9.124  0.3907  0.6201 -0.3185
 3001SOL    HW120465   1.873   3.364   9.084  2.5851  0.6837  0.0571
 3001SOL    HW220466   1.780   3.482   9.091 -0.3770  0.5286  1.5416
 3002SOL     OW20467   3.043   1.756  17.126 -0.0498  0.3592  0.4155
 3002SOL    HW120468   3.013   1.778  17.214 -2.4055  1.1263 -0.5919
 3002SOL    HW220469   2.970   1.698  17.105  1.4212 -1.8001  1.2898
 3003SOL     OW20470   2.471   0.399   6.312 -0.4377 -0.1827 -0.1093
 3003SOL    HW120471   2.522   0.476   6.287 -1.9973  0.4347 -1.3976
 3003SOL    HW220472   2.388   0.417   6.268  0.2856 -1.1862 -1.8824
 3004SOL     OW20473   1.603   1.445   7.688  0.7579 -0.3171 -0.3026
 3004SOL    HW120474   1.623   1.373   7.749 -0.4961  0.4545  1.0269
 3004SOL    HW220475   1.521   1.417   7.647  1.3978 -2.4152 -0.1843
 3005SOL     OW20476   0.643   3.290   4.256  0.1864  0.1541  0.2281
 3005SOL    HW120477   0.584   3.240   4.313 -3.7928  3.6754 -0.8082
 3005SOL    HW220478   0.629   3.240   4.176 -0.5902  1.5093 -0.4752
 3006SOL     OW20479   1.009   3.143   9.777 -0.0461  1.1395 -0.0435
 3006SOL    HW120480   1.021   3.221   9.723  0.1069  1.1836  0.0578
 3006SOL    HW220481   1.080   3.151   9.841  1.0365  0.9641 -1.2240
 3007SOL     OW20482   2.570   1.592  12.418 -0.5053 -0.1232  0.1516
 3007SOL    HW120483   2.661   1.597  12.387 -0.4165 -2.0356  0.1324
 3007SOL    HW220484   2.564   1.511  12.468  1.3342 -0.8269 -0.7295
 3008SOL     OW20485   0.483   0.779  11.711 -0.2857  0.3719  0.4276
 3008SOL    HW120486   0.551   0.846  11.706  0.7491 -0.8098 -1.4382
 3008SOL    HW220487   0.413   0.817  11.657  1.5736 -0.5197 -2.6594
 3009SOL     OW20488   1.880   4.274   9.023 -0.0825 -0.3564 -0.0561
 3009SOL    HW120489   1.938   4.204   9.054 -1.4908 -1.3437  0.3215
 3009SOL    HW220490   1.798   4.238   9.056 -0.0549  0.2241  0.6493
 3010SOL     OW20491   0.211   1.972   3.567 -0.0494  0.3000 -0.0335
 3010SOL    HW120492   0.175   1.884   3.576  0.1203  0.3652  1.2467
 3010SOL    HW220493   0.244   1.961   3.478  1.4231 -0.7190  0.6284
 3011SOL     OW20494   3.957   0.852   0.413  0.2520  1.2404 -0.0238
 3011SOL    HW120495   3.981   0.759   0.412 -0.0506  1.1408  2.0654
 3011SOL    HW220496   3.865   0.842   0.389  0.0977  0.7441  0.7567
 3012SOL     OW20497   3.169   0.062   3.207 -0.1061 -0.3297  0.1699
 3012SOL    HW120498   3.230   0.082   3.278 -0.4269 -0.3394  0.4488
 3012SOL    HW220499   3.137   4.699   3.236 -0.5825 -0.3118 -0.3141
 3013SOL     OW20500   2.480   2.225  10.078 -0.4357  0.0258  0.1631
 3013SOL    HW120501   2.546   2.191  10.017  1.2908 -0.8687  2.5114
 3013SOL    HW220502   2.541   2.262  10.142 -0.2336  0.6750 -0.4109
 3014SOL     OW20503   3.990   0.911   7.394 -0.0465 -0.1799 -0.8029
 3014SOL    HW120504   3.919   0.961   7.435 -2.2313 -1.6981 -2.7207
 3014SOL    HW220505   3.939   0.854   7.336 -0.9596  0.3753 -0.5542
 3015SOL     OW20506   0.623   0.876  17.380 -0.3439 -0.0337 -0.0865
 3015SOL    HW120507   0.606   0.799  17.435  1.0038 -0.6352 -0.5021
 3015SOL    HW220508   0.541   0.925  17.390  0.3389  1.0424  0.2753
 3016SOL     OW20509   3.946   3.498   5.507  0.2682 -0.2868  0.0030
 3016SOL    HW120510   3.913   3.587   5.524  2.2686  0.1308  1.6517
 3016SOL    HW220511   4.040   3.511   5.520  0.1550 -0.3196  0.9047
 3017SOL     OW20512   2.506   4.126  12.311  0.1321  0.5202 -0.0521
 3017SOL    HW120513   2.557   4.089  12.240  0.0240  2.2619 -1.0575
 3017SOL    HW220514   2.577   4.138  12.373 -0.8697  0.9257  1.0305
 3018SOL     OW20515   3.834   3.061   5.094  0.4401  0.0101 -0.1778
 3018SOL    HW120516   3.909   3.008   5.122  0.4004  0.6776  1.1553
 3018SOL    HW220517   3.767   2.995   5.112  1.7323 -0.7346  1.8534
 3019SOL     OW20518   3.490   2.493  13.803 -0.2962  0.8628 -0.1454
 3019SOL    HW120519   3.401   2.469  13.778 -0.1374 -0.1710  0.2488
 3019SOL    HW220520   3.493   2.448  13.888  0.9111  2.8702  0.8705
 3020SOL     OW20521   2.921   3.131  14.226 -0.2793 -0.0290 -0.1002
 3020SOL    HW120522   2.867   3.069  14.177  0.3548  0.0913 -0.9620
 3020SOL    HW220523   2.895   3.213  14.185 -0.8488  0.2262  0.7845
 3021SOL     OW20524   0.814   4.360   2.453 -0.1196  0.0715  0.2989
 3021SOL    HW120525   0.752   4.302   2.409 -0.3265 -0.1972  0.9424
 3021SOL    HW220526   0.784   4.347   2.543  0.4038 -1.5998  0.2240
 3022SOL     OW20527   2.267   2.894   5.913 -0.9569  0.7687 -0.2710
 3022SOL    HW120528   2.236   2.876   5.824 -1.4016 -1.6337  0.3766
 3022SOL    HW220529   2.301   2.983   5.900  0.5603  0.4266  1.3162
 3023SOL     OW20530   3.498   1.366   7.735 -0.0901 -0.5015  0.1918
 3023SOL    HW120531   3.410   1.328   7.738 -2.0555  4.1187  0.5463
 3023SOL    HW220532   3.528   1.332   7.820  1.7139 -0.5908 -0.4788
 3024SOL     OW20533   3.295   1.249   3.771 -0.0927  0.0234 -0.1610
 3024SOL    HW120534   3.371   1.280   3.721 -0.0873  1.0163  0.4855
 3024SOL    HW220535   3.339   1.220   3.851  0.6752  0.0529 -0.5644
 3025SOL     OW20536   0.168   1.300  10.592  0.2709 -0.1945 -0.0559
 3025SOL    HW120537   0.188   1.374  10.535  0.9198 -0.9871 -0.8533
 3025SOL    HW220538   0.195   1.223  10.542  0.4554 -0.7372  0.8708
 3026SOL     OW20539   1.833   0.752  11.455  0.5353  0.3666 -0.1084
 3026SOL    HW120540   1.823   0.739  11.549  0.2800 -0.1995 -0.2144
 3026SOL    HW220541   1.923   0.786  11.448  0.6745  0.2011  0.9152
 3027SOL     OW20542   3.995   3.287   7.274 -0.2197  0.1193 -0.2864
 3027SOL    HW120543   3.997   3.313   7.366  0.8150 -1.8566  0.2622
 3027SOL    HW220544   4.021   3.369   7.232  2.3874 -0.6021 -0.0659
 3028SOL     OW20545   0.005   2.830   4.683 -0.2857  0.2495 -0.4803
 3028SOL    HW120546   0.029   2.739   4.667  0.2789  0.4188 -0.5972
 3028SOL    HW220547   0.063   2.848   4.756  0.8245  2.6648 -1.9858
 3029SOL     OW20548   0.781   4.133   5.747  0.3375 -0.1433  0.1301
 3029SOL    HW120549   0.848   4.109   5.811 -0.1032  0.0383  0.6564
 3029SOL    HW220550   0.715   4.176   5.801  0.4819 -1.4936  1.3748
 3030SOL     OW20551   0.681   1.226  15.318  0.0147 -0.3032  0.0142
 3030SOL    HW120552   0.709   1.195  15.232  0.7435  3.1636 -0.9983
 3030SOL    HW220553   0.708   1.317  15.330 -0.4875  0.0470 -1.4922
 3031SOL     OW20554   4.681   1.981   7.369  0.0589  0.5199  0.6656
 3031SOL    HW120555   4.623   1.905   7.358  0.6630 -0.0309  1.3393
 3031SOL    HW220556   4.676   2.018   7.280 -3.1616  0.3174  0.7436
 3032SOL     OW20557   0.205   2.530   0.066 -0.0256 -0.3251 -0.0653
 3032SOL    HW120558   0.128   2.496   0.020 -1.0291  0.2437  1.2172
 3032SOL    HW220559   0.215   2.619   0.033  1.3712  0.2799  1.9819
 3033SOL     OW20560   0.135   2.910   3.213 -0.0541 -0.2291  0.8912
 3033SOL    HW120561   0.042   2.923   3.199  0.2054  0.7354  0.0612
 3033SOL    HW220562   0.157   2.841   3.151 -0.8204  1.4748 -1.2756
 3034SOL     OW20563   1.345   0.417   5.668  0.7077 -0.0898  0.2819
 3034SOL    HW120564   1.261   0.385   5.634  0.8908 -0.9564  0.6511
 3034SOL    HW220565   1.331   0.405   5.762 -0.8416 -1.9884 -0.1760
 3035SOL     OW20566   3.523   0.701   4.502  0.3738 -0.0108 -0.0847
 3035SOL    HW120567   3.502   0.735   4.416  0.5142 -1.4978 -0.7100
 3035SOL    HW220568   3.440   0.669   4.537  0.1449 -1.7267 -2.1975
 3036SOL     OW20569   1.498   1.803  14.683  0.7597  0.1114  0.2510
 3036SOL    HW120570   1.479   1.841  14.769  0.3256  0.7635 -0.1410
 3036SOL    HW220571   1.572   1.861  14.664  0.4571  0.6609  0.7879
 3037SOL     OW20572   4.577   1.333   1.462  0.2695 -0.2870 -0.0661
 3037SOL    HW120573   4.569   1.306   1.370  0.6965  0.1248 -0.2202
 3037SOL    HW220574   4.486   1.326   1.492  0.5960 -1.0454  0.7474
 3038SOL     OW20575   2.588   2.221   9.113  0.0629  0.2495 -0.3352
 3038SOL    HW120576   2.500   2.226   9.151  0.3607  0.2537  0.3618
 3038SOL    HW220577   2.625   2.140   9.149  1.2965  0.8107 -0.3521
 3039SOL     OW20578   1.686   0.358   4.752 -0.2899 -0.1700  0.1501
 3039SOL    HW120579   1.595   0.385   4.745 -0.6188 -0.5445  3.0387
 3039SOL    HW220580   1.680   0.306   4.833 -0.4001  0.1012  0.3150
 3040SOL     OW20581   2.361   2.437   4.245  0.2604  0.3874  0.0822
 3040SOL    HW120582   2.425   2.420   4.175 -1.5120 -0.4426 -1.3496
 3040SOL    HW220583   2.281   2.478   4.211  0.2040 -1.6016 -2.1990
 3041SOL     OW20584   3.716   2.242  12.110 -0.0791  0.0558 -0.4130
 3041SOL    HW120585   3.733   2.161  12.062 -0.8136  0.1732 -0.8788
 3041SOL    HW220586   3.650   2.216  12.174  1.2635  0.5202  1.1629
 3042SOL     OW20587   4.607   1.031  12.388  0.9243  0.2825 -0.2566
 3042SOL    HW120588   4.652   0.947  12.375 -2.6853 -1.8638  0.8568
 3042SOL    HW220589   4.531   1.020  12.331  1.0673  0.1186 -0.4150
 3043SOL     OW20590   3.169   3.914   7.840 -0.0862  0.1930 -0.1047
 3043SOL    HW120591   3.156   4.007   7.824 -1.8113 -0.1234 -0.5392
 3043SOL    HW220592   3.185   3.884   7.751 -0.3238 -2.8954  0.8902
 3044SOL     OW20593   0.791   3.152  13.764 -0.3189  0.5222  0.1887
 3044SOL    HW120594   0.852   3.154  13.837 -1.2219 -0.1179  0.9584
 3044SOL    HW220595   0.709   3.139  13.812  1.0730  0.0699  2.4679
 3045SOL     OW20596   4.362   0.152   6.239  0.6710  0.2465  0.7820
 3045SOL    HW120597   4.336   0.158   6.147 -1.9384 -0.9624  1.4296
 3045SOL    HW220598   4.287   0.189   6.286 -0.2384 -0.2720 -0.2706
 3046SOL     OW20599   0.680   2.757   3.188 -0.3648 -0.4942  0.4671
 3046SOL    HW120600   0.754   2.798   3.231 -0.0252 -0.7781  0.1480
 3046SOL    HW220601   0.724   2.706   3.120  2.3556 -1.6650  3.1056
 3047SOL     OW20602   4.596   2.053  11.898  0.0177  0.9381 -0.1434
 3047SOL    HW120603   4.660   2.002  11.947 -0.9029  0.1949  0.3034
 3047SOL    HW220604   4.518   2.036  11.952  0.5539 -0.6498  0.1381
 3048SOL     OW20605   2.155   0.411  10.305 -0.7102 -0.7394 -0.3361
 3048SOL    HW120606   2.140   0.317  10.291  1.7677 -1.0670 -0.8788
 3048SOL    HW220607   2.131   0.452  10.222 -1.0699 -1.4240 -0.5720
 3049SOL     OW20608   1.574   4.659   6.042  0.0096  0.8462 -0.4684
 3049SOL    HW120609   1.630   4.669   6.119 -0.1217  0.7483 -0.3623
 3049SOL    HW220610   1.640   4.655   5.972  1.5133  1.4957  0.9037
 3050SOL     OW20611   1.457   3.992  13.272  0.4036 -0.1724 -0.4934
 3050SOL    HW120612   1.411   4.071  13.301 -0.7721 -0.3682 -1.7965
 3050SOL    HW220613   1.492   4.025  13.189  0.6744  0.6060 -0.0708
 3051SOL     OW20614   2.560   0.234   6.512 -0.4425 -0.1267  0.2058
 3051SOL    HW120615   2.593   0.303   6.570  1.9396  1.6539 -3.2797
 3051SOL    HW220616   2.531   0.283   6.435  1.7315 -0.6422 -0.9510
 3052SOL     OW20617   3.230   1.673  10.634 -0.1426 -0.0111  0.0784
 3052SOL    HW120618   3.150   1.703  10.590 -1.0678 -0.2927  1.5821
 3052SOL    HW220619   3.290   1.734  10.592  1.8509 -1.4275  0.8691
 3053SOL     OW20620   0.786   4.128   3.547  0.4130  0.2741 -0.3030
 3053SOL    HW120621   0.746   4.202   3.502  0.2774 -0.0541 -0.7196
 3053SOL    HW220622   0.832   4.171   3.619 -0.5084 -1.1981  1.1729
 3054SOL     OW20623   3.395   4.056   2.531  0.1752  0.0439  0.6641
 3054SOL    HW120624   3.326   4.121   2.547 -1.0052 -1.3659  1.3985
 3054SOL    HW220625   3.400   4.052   2.436 -2.4384 -0.5773  0.5565
 3055SOL     OW20626   4.430   0.600   3.554 -0.5869  0.0480  0.4167
 3055SOL    HW120627   4.504   0.551   3.517 -0.5373 -1.4580  2.5013
 3055SOL    HW220628   4.479   0.646   3.622  2.9293  0.3830 -2.3053
 3056SOL     OW20629   0.985   0.475   5.380  0.3399 -0.4586 -0.4907
 3056SOL    HW120630   0.963   0.400   5.435 -1.2826  0.8948  0.7059
 3056SOL    HW220631   0.925   0.447   5.310  0.9413 -1.9107 -0.4321
 3057SOL     OW20632   3.156   2.252   2.739  0.3312  0.2103 -0.0618
 3057SOL    HW120633   3.106   2.192   2.683 -1.6783  1.1608  0.7037
 3057SOL    HW220634   3.229   2.284   2.687  0.7215  3.4918  2.4881
 3058SOL     OW20635   2.852   4.708  14.652  0.6124 -0.4400 -0.5344
 3058SOL    HW120636   2.907   0.051  14.694 -1.2213  0.9945 -0.3447
 3058SOL    HW220637   2.770   0.033  14.637  0.7437 -0.6231 -1.8268
 3059SOL     OW20638   2.511   1.502  16.153 -0.3881  0.7656  0.0347
 3059SOL    HW120639   2.582   1.466  16.207  1.0398  1.9365 -1.0718
 3059SOL    HW220640   2.458   1.425  16.131 -0.2324  0.6238  0.1619
 3060SOL     OW20641   3.226   3.590   1.209  0.4607 -0.2312 -0.1800
 3060SOL    HW120642   3.217   3.582   1.304  2.5255  2.5146  0.2333
 3060SOL    HW220643   3.241   3.500   1.179 -1.5656 -0.9349  0.9729
 3061SOL     OW20644   1.107   0.647  16.954 -0.4800 -0.4921 -0.2456
 3061SOL    HW120645   1.086   0.594  16.877 -2.1173  1.0480 -0.8554
 3061SOL    HW220646   1.026   0.645  17.005  0.2656  0.0943  0.9607
 3062SOL     OW20647   2.423   0.923  17.144  0.4943 -0.0387 -0.6379
 3062SOL    HW120648   2.465   1.004  17.117  0.7912  0.3800  1.1204
 3062SOL    HW220649   2.482   0.890  17.212  0.1516  0.1798 -0.2352
 3063SOL     OW20650   2.846   0.621   6.379  0.4171  0.0970 -0.0384
 3063SOL    HW120651   2.884   0.543   6.340  0.0029 -0.2145  0.1894
 3063SOL    HW220652   2.877   0.692   6.323 -1.1469 -0.0535 -1.0861
 3064SOL     OW20653   2.260   2.054   0.149  0.3959 -0.1751  0.1606
 3064SOL    HW120654   2.183   2.105   0.174 -0.0315  0.5758 -2.6711
 3064SOL    HW220655   2.278   2.097   0.066 -0.1641 -1.8358 -0.8138
 3065SOL     OW20656   4.671   3.820   7.220  0.3627 -0.6010  0.9144
 3065SOL    HW120657   4.679   3.916   7.220  1.2359 -0.6769  0.2661
 3065SOL    HW220658   4.667   3.799   7.313 -0.4151  2.9785  1.7212
 3066SOL     OW20659   4.454   3.680  12.986  0.3318  0.0758  0.2247
 3066SOL    HW120660   4.377   3.627  12.968 -0.0407  0.6882  0.0465
 3066SOL    HW220661   4.408   3.759  13.010 -0.6371 -0.3666 -0.1878
 3067SOL     OW20662   3.278   1.636  11.719  0.3121  0.0247 -0.7192
 3067SOL    HW120663   3.237   1.567  11.770 -1.4509  0.8710 -1.0031
 3067SOL    HW220664   3.198   1.681  11.694  1.3792  2.1540 -0.2716
 3068SOL     OW20665   2.311   4.020   6.922  0.5665 -0.2900 -0.3812
 3068SOL    HW120666   2.283   3.968   6.997  1.1901  2.7753  1.9313
 3068SOL    HW220667   2.397   4.042   6.956  1.0310  0.1015 -1.7870
 3069SOL     OW20668   2.888   2.351   4.004 -0.2671  0.3860  0.1791
 3069SOL    HW120669   2.841   2.381   4.082 -0.8948  0.6852 -0.3175
 3069SOL    HW220670   2.974   2.372   4.039 -0.0917  1.1390 -0.7026
 3070SOL     OW20671   1.524   2.229   0.278 -0.3118  0.2146 -0.7087
 3070SOL    HW120672   1.557   2.182   0.355 -0.1493  0.7441 -0.4534
 3070SOL    HW220673   1.432   2.239   0.302  0.0272  2.1665 -0.1793
 3071SOL     OW20674   1.043   0.464   3.672 -0.2140  0.6961 -0.4036
 3071SOL    HW120675   0.984   0.400   3.710 -1.6231  0.2952 -3.2211
 3071SOL    HW220676   0.999   0.542   3.705 -0.4400  0.4183 -0.0517
 3072SOL     OW20677   1.071   0.849   7.686  0.0138  0.0076 -0.1460
 3072SOL    HW120678   1.126   0.895   7.749 -1.2613 -1.5047  2.0890
 3072SOL    HW220679   1.016   0.803   7.751  1.6916 -1.0016  0.5522
 3073SOL     OW20680   2.408   3.885   2.418  0.1993 -0.8193  0.6885
 3073SOL    HW120681   2.427   3.796   2.389 -0.7742 -0.6183 -0.5374
 3073SOL    HW220682   2.464   3.937   2.361  0.4289  1.9534  3.3859
 3074SOL     OW20683   3.319   0.149   3.729  0.0798  0.0030 -0.0273
 3074SOL    HW120684   3.405   0.107   3.737 -0.2543 -0.5942  0.4048
 3074SOL    HW220685   3.313   0.203   3.807  0.3231  0.3581 -0.2496
 3075SOL     OW20686   1.808   4.544  14.622 -0.0305 -0.1279  0.0966
 3075SOL    HW120687   1.828   4.607  14.552  0.0534  0.2901  0.4953
 3075SOL    HW220688   1.770   4.599  14.690  0.2836  1.2204 -0.8082
 3076SOL     OW20689   2.010   2.312   1.004  0.0500 -0.2855  0.3090
 3076SOL    HW120690   1.994   2.345   0.916  0.1949 -3.4485 -0.9079
 3076SOL    HW220691   1.976   2.389   1.050 -1.0100  0.0898 -1.1152
 3077SOL     OW20692   0.786   0.620   5.731  0.1967  0.2025  0.0456
 3077SOL    HW120693   0.785   0.627   5.827  0.4235  0.4879  0.0271
 3077SOL    HW220694   0.726   0.549   5.707  1.3017 -0.6678 -0.1692
 3078SOL     OW20695   1.368   0.416   7.010 -0.4593 -0.2116  0.2680
 3078SOL    HW120696   1.421   0.404   7.089  0.2737 -0.5474 -0.2793
 3078SOL    HW220697   1.434   0.405   6.942  0.1102 -1.2996  1.0148
 3079SOL     OW20698   2.507   0.059   6.084 -0.9888  0.0495  0.1238
 3079SOL    HW120699   2.449   0.041   6.157 -0.2124 -0.5717  0.5804
 3079SOL    HW220700   2.542   4.694   6.070 -0.7044  0.0665  0.7820
 3080SOL     OW20701   3.831   0.541   5.229 -0.2126 -0.5458  0.2067
 3080SOL    HW120702   3.910   0.576   5.187  0.5175 -1.1544  1.0749
 3080SOL    HW220703   3.775   0.595   5.174  0.9075 -1.3206 -1.6928
 3081SOL     OW20704   3.314   0.611   1.998 -0.1465  0.1779 -0.4700
 3081SOL    HW120705   3.345   0.691   2.041 -0.1256  0.4045 -0.9089
 3081SOL    HW220706   3.392   0.555   2.008  0.3491  1.1571  1.1241
 3082SOL     OW20707   1.997   3.183   8.435  0.4117  0.1229 -0.4850
 3082SOL    HW120708   1.971   3.153   8.522 -0.2960  0.5281 -0.5537
 3082SOL    HW220709   1.921   3.149   8.388  1.0150 -0.0604 -1.3339
 3083SOL     OW20710   1.116   2.016   9.376 -0.1167  0.0226  0.8899
 3083SOL    HW120711   1.092   2.103   9.344 -1.2561 -1.6637 -2.8804
 3083SOL    HW220712   1.051   2.017   9.446 -1.9949 -0.2279 -0.8303
 3084SOL     OW20713   3.997   1.929   7.928 -0.1891  0.3724  0.0183
 3084SOL    HW120714   4.090   1.946   7.944  0.4559 -1.1946 -2.0691
 3084SOL    HW220715   3.992   1.882   7.845  4.0470 -0.4367  0.2155
 3085SOL     OW20716   3.459   3.869  11.366  0.0182 -0.4519  0.0135
 3085SOL    HW120717   3.393   3.804  11.341 -0.8039  0.0826  0.8000
 3085SOL    HW220718   3.473   3.840  11.456  2.7013 -0.1846 -0.3117
 3086SOL     OW20719   1.027   4.110   3.928  0.1316 -0.0472  0.6049
 3086SOL    HW120720   1.007   4.187   3.982  2.4482  0.5223  0.6403
 3086SOL    HW220721   0.969   4.044   3.967  0.5743 -0.4371  0.5998
 3087SOL     OW20722   3.742   4.550   4.932  0.0406 -0.6397 -0.3695
 3087SOL    HW120723   3.739   4.576   5.024  1.8342  1.0905 -0.7878
 3087SOL    HW220724   3.769   4.459   4.943  3.3003  0.1720 -1.5382
 3088SOL     OW20725   2.592   2.386   4.504 -0.1131 -0.2977 -0.0566
 3088SOL    HW120726   2.647   2.314   4.536  0.4081  1.1048  2.2605
 3088SOL    HW220727   2.509   2.350   4.536 -0.4106 -0.5647 -1.1497
 3089SOL     OW20728   4.583   4.600   2.531  0.2225  0.0432  0.7235
 3089SOL    HW120729   4.656   4.640   2.483  0.4264 -0.6419  0.4600
 3089SOL    HW220730   4.578   4.634   2.620 -0.2126  1.3907  0.1842
 3090SOL     OW20731   0.718   4.127  13.018 -0.3792 -0.2214  0.3286
 3090SOL    HW120732   0.662   4.102  13.091  0.0355  0.2831  0.8263
 3090SOL    HW220733   0.707   4.054  12.957  0.1309  0.5817 -0.7268
 3091SOL     OW20734   1.706   2.868  10.412  0.8344  0.2483 -0.2828
 3091SOL    HW120735   1.668   2.864  10.324  0.3929 -1.2571 -0.0218
 3091SOL    HW220736   1.790   2.823  10.398  0.0496 -0.4382 -2.7936
 3092SOL     OW20737   0.574   2.560   4.000 -0.1214 -0.1996  0.2663
 3092SOL    HW120738   0.542   2.482   4.044  1.0114 -0.6042  0.3715
 3092SOL    HW220739   0.669   2.548   3.996  0.1382  1.8148  0.2864
 3093SOL     OW20740   2.327   3.315  14.542  0.2296 -0.1938  0.4945
 3093SOL    HW120741   2.363   3.398  14.511 -0.3266 -0.5046 -0.9572
 3093SOL    HW220742   2.309   3.272  14.459 -1.5584  1.8333 -0.1617
 3094SOL     OW20743   1.379   4.380  16.204  0.1591 -0.0535  0.3615
 3094SOL    HW120744   1.403   4.432  16.128  0.4582 -1.3965 -0.4669
 3094SOL    HW220745   1.372   4.453  16.265 -0.4633 -1.0427  1.4802
 3095SOL     OW20746   1.533   1.634   2.405  0.0748  0.2868  0.3800
 3095SOL    HW120747   1.462   1.639   2.470 -1.2632 -0.2980 -1.0518
 3095SOL    HW220748   1.565   1.545   2.417 -0.3506  0.2338  1.1416
 3096SOL     OW20749   1.868   0.990   2.925 -0.7028  0.3665  0.2386
 3096SOL    HW120750   1.883   1.082   2.947  0.9388  0.3569 -0.8421
 3096SOL    HW220751   1.874   0.976   2.831 -0.0230 -0.3586  0.3856
 3097SOL     OW20752   1.360   0.115   0.982 -0.2611 -0.6330 -0.1058
 3097SOL    HW120753   1.401   0.028   0.979 -1.6442 -1.3418  1.1917
 3097SOL    HW220754   1.346   0.130   1.075 -1.1256  0.0973 -0.3574
 3098SOL     OW20755   2.159   3.986  14.763  0.4093  0.4037  0.5647
 3098SOL    HW120756   2.093   3.965  14.829  1.1166  1.3234  1.5589
 3098SOL    HW220757   2.180   4.072  14.799  1.1765  0.4691 -0.0280
 3099SOL     OW20758   3.777   0.224   7.472  0.3623  0.7455 -0.6597
 3099SOL    HW120759   3.694   0.192   7.508 -0.1624  1.7033 -1.0090
 3099SOL    HW220760   3.777   0.310   7.514 -2.3614  0.7146 -0.5884
 3100SOL     OW20761   1.853   4.124   8.073  0.0523 -0.2023 -0.2815
 3100SOL    HW120762   1.915   4.052   8.085  1.4164  1.0780  0.2081
 3100SOL    HW220763   1.768   4.079   8.063  0.2373 -0.7502  0.6164
 3101SOL     OW20764   1.780   0.944  14.813 -0.2476  0.1058 -0.1544
 3101SOL    HW120765   1.862   0.918  14.854 -0.4397 -0.4883 -0.1453
 3101SOL    HW220766   1.808   1.027  14.775  4.5088 -1.5624 -0.2044
 3102SOL     OW20767   4.592   3.740   3.944  0.0436 -0.5000 -0.1654
 3102SOL    HW120768   4.518   3.800   3.944  0.0218 -0.5296  1.0186
 3102SOL    HW220769   4.653   3.784   4.003  0.7713  1.3723 -2.3127
 3103SOL     OW20770   1.384   1.288   5.583  0.2737  0.7938  0.2526
 3103SOL    HW120771   1.389   1.353   5.653 -2.1222 -1.5515  2.6190
 3103SOL    HW220772   1.416   1.342   5.510  3.5697 -0.6110  0.6343
 3104SOL     OW20773   0.002   2.460   3.513  0.0595 -0.4309  0.2020
 3104SOL    HW120774   4.675   2.527   3.467  0.2035 -0.0693  0.5669
 3104SOL    HW220775   0.089   2.501   3.509 -0.3809  0.3608 -1.3550
 3105SOL     OW20776   3.203   0.824   5.471  0.3666  0.7919  0.1578
 3105SOL    HW120777   3.237   0.847   5.558  0.5776  0.9524  0.0312
 3105SOL    HW220778   3.115   0.801   5.502  0.5021 -1.2119 -0.9446
 3106SOL     OW20779   2.179   1.761   7.218  0.0531  0.1021 -0.0240
 3106SOL    HW120780   2.271   1.786   7.219  0.6963 -2.2772  0.1075
 3106SOL    HW220781   2.155   1.779   7.127  1.9987  0.5560 -0.4309
 3107SOL     OW20782   1.688   1.698   0.774  0.3721  0.1452 -0.1356
 3107SOL    HW120783   1.710   1.719   0.683  0.4724  0.2033 -0.0974
 3107SOL    HW220784   1.682   1.786   0.812  0.4794 -0.1963  0.6567
 3108SOL     OW20785   2.546   0.840   2.213  0.0610 -0.0519  0.7841
 3108SOL    HW120786   2.484   0.852   2.285  0.0954  0.5296  0.7171
 3108SOL    HW220787   2.497   0.878   2.141 -1.1552 -1.3574  0.9249
 3109SOL     OW20788   3.904   1.253   2.446 -0.0841 -0.5595  0.3481
 3109SOL    HW120789   3.940   1.306   2.375  1.7094  0.3138  1.9150
 3109SOL    HW220790   3.986   1.253   2.496 -0.2622  0.4415  0.6435
 3110SOL     OW20791   1.469   3.600  17.466  0.0609  0.2955  0.4520
 3110SOL    HW120792   1.494   3.653  17.390  1.0180 -1.5734 -0.5382
 3110SOL    HW220793   1.397   3.550  17.428 -0.4325  0.2885  1.3901
 3111SOL     OW20794   1.932   3.884   5.917  0.1878 -0.0152  0.0848
 3111SOL    HW120795   1.925   3.788   5.923  1.0908 -0.1899 -1.5957
 3111SOL    HW220796   2.006   3.884   5.856  1.1840 -1.1340  1.2907
 3112SOL     OW20797   0.983   4.066   4.279  0.4342 -0.3732 -0.2902
 3112SOL    HW120798   0.934   4.127   4.333  0.5339 -0.8040  0.2924
 3112SOL    HW220799   1.073   4.098   4.292 -0.0775  1.0757 -0.3373
 3113SOL     OW20800   1.065   1.425  13.327 -1.6479 -0.5562  1.1302
 3113SOL    HW120801   1.099   1.432  13.238 -3.6676  0.4400  0.4275
 3113SOL    HW220802   0.979   1.466  13.329 -1.0711  0.5465  3.4919
 3114SOL     OW20803   2.499   4.677   7.955  0.2100 -0.5298 -0.4312
 3114SOL    HW120804   2.566   0.012   7.920 -1.1851  2.0995  1.2664
 3114SOL    HW220805   2.529   4.668   8.046  1.0930  0.2336 -0.6460
 3115SOL     OW20806   4.569   1.683   7.705 -0.3175  0.5695 -0.3786
 3115SOL    HW120807   4.593   1.607   7.758  0.7826  0.4174 -1.0972
 3115SOL    HW220808   4.515   1.630   7.646  1.0150 -0.3889 -0.7440
 3116SOL     OW20809   0.416   4.537   1.667  1.1677  0.2182 -0.1338
 3116SOL    HW120810   0.360   4.606   1.631 -0.8675 -0.1960  2.1995
 3116SOL    HW220811   0.345   4.492   1.714 -0.0844  0.3084 -1.9252
 3117SOL     OW20812   3.349   0.283   6.587  0.2061  0.0459  0.0902
 3117SOL    HW120813   3.387   0.332   6.514 -1.5464 -0.7246 -1.3116
 3117SOL    HW220814   3.428   0.275   6.641  0.2145  0.8158  0.1981
 3118SOL     OW20815   3.474   1.337   4.797 -0.1162  0.3860  0.1262
 3118SOL    HW120816   3.457   1.247   4.826  0.9669  0.4037  0.8017
 3118SOL    HW220817   3.533   1.372   4.863  2.5758 -1.5698 -1.2669
 3119SOL     OW20818   3.592   2.974   4.024 -0.4000 -0.0235 -0.2134
 3119SOL    HW120819   3.515   2.920   4.004  0.8403 -2.1504  0.7411
 3119SOL    HW220820   3.626   2.923   4.098 -0.1378  2.9841  1.7444
 3120SOL     OW20821   3.937   2.189   8.743  0.2488 -0.0150  0.3841
 3120SOL    HW120822   3.852   2.148   8.726 -0.6709  2.5447 -1.0857
 3120SOL    HW220823   3.967   2.184   8.652 -0.2619 -0.6470  0.2479
 3121SOL     OW20824   2.250   1.228   6.256 -0.2708 -0.2380  0.8417
 3121SOL    HW120825   2.158   1.206   6.243 -0.1929  1.0178 -1.6752
 3121SOL    HW220826   2.281   1.248   6.168 -2.6825  0.1914  0.0912
 3122SOL     OW20827   4.120   4.025  11.788  0.0271 -0.9643  0.3390
 3122SOL    HW120828   4.042   4.078  11.802  1.3757  1.7101 -2.5205
 3122SOL    HW220829   4.081   3.953  11.739 -0.2083 -0.1929 -0.5978
 3123SOL     OW20830   2.799   3.599   2.206 -0.1913  0.0552  0.5959
 3123SOL    HW120831   2.854   3.665   2.248 -0.6901  1.7750 -1.4446
 3123SOL    HW220832   2.710   3.625   2.226 -1.0333  0.5538 -3.6790
 3124SOL     OW20833   1.247   4.354   4.570 -0.5128 -0.2278 -0.0738
 3124SOL    HW120834   1.203   4.312   4.644 -0.7478  2.4190  1.2747
 3124SOL    HW220835   1.215   4.444   4.572 -0.5220 -0.2254 -0.3356
 3125SOL     OW20836   2.244   1.462  17.153 -0.0725 -0.4683 -0.1828
 3125SOL    HW120837   2.199   1.463  17.237  2.4466  1.6286  1.1393
 3125SOL    HW220838   2.297   1.542  17.151  1.0051 -1.1805 -0.5633
 3126SOL     OW20839   2.871   3.518  16.380 -0.2054 -0.2922 -0.3855
 3126SOL    HW120840   2.930   3.485  16.312 -0.7689 -0.2571 -0.8891
 3126SOL    HW220841   2.786   3.489  16.347 -1.9856  2.1205  2.1230
 3127SOL     OW20842   2.513   3.662  12.794  0.2138  0.4079 -0.5747
 3127SOL    HW120843   2.465   3.654  12.712 -2.7206 -0.3929  1.1843
 3127SOL    HW220844   2.595   3.705  12.772 -0.6591  1.4097 -1.8499
 3128SOL     OW20845   1.671   3.213   2.521 -0.3397 -0.0516  0.1568
 3128SOL    HW120846   1.696   3.129   2.483  0.5164 -0.3406  1.3733
 3128SOL    HW220847   1.689   3.271   2.447  3.6099 -0.5525  0.7661
 3129SOL     OW20848   0.068   3.298   7.522  0.8902 -0.5679  0.3481
 3129SOL    HW120849   0.046   3.380   7.567  1.0583 -1.6394  2.3608
 3129SOL    HW220850   0.011   3.300   7.446  0.1538  0.9898  0.9309
 3130SOL     OW20851   1.046   2.399   6.676  0.3356 -0.1401 -0.2645
 3130SOL    HW120852   0.960   2.369   6.706  0.3359  0.5738  0.4529
 3130SOL    HW220853   1.029   2.489   6.650  3.2211  0.1538 -1.0455
 3131SOL     OW20854   0.929   2.908  15.659 -0.1991 -0.1318 -0.6597
 3131SOL    HW120855   0.902   2.892  15.568 -4.6178 -0.7209  0.7552
 3131SOL    HW220856   1.012   2.862  15.654  0.6358  1.1650  1.4461
 3132SOL     OW20857   4.601   3.717   4.803  0.4773  0.1161 -0.2733
 3132SOL    HW120858   4.590   3.791   4.744 -0.1634 -0.6245 -1.0847
 3132SOL    HW220859   4.688   3.684   4.783  0.9066 -0.8511  3.1594
 3133SOL     OW20860   0.807   0.599   2.740 -0.4233  0.1850  0.1011
 3133SOL    HW120861   0.827   0.690   2.722  0.5695 -0.2336 -0.8602
 3133SOL    HW220862   0.833   0.588   2.832  1.5163 -0.4635 -0.5323
 3134SOL     OW20863   0.597   2.511   5.993 -0.5648  0.7301 -0.3278
 3134SOL    HW120864   0.673   2.453   6.003  1.0807  2.7806 -0.8898
 3134SOL    HW220865   0.642   2.587   5.955 -1.4660  1.0254 -0.7928
 3135SOL     OW20866   1.600   1.444   1.648  0.3955  0.2089  0.2076
 3135SOL    HW120867   1.678   1.484   1.686 -1.0225  3.0118  0.2019
 3135SOL    HW220868   1.536   1.487   1.705 -0.0135 -0.0237 -0.0702
 3136SOL     OW20869   1.444   3.739   1.185  0.0082 -0.1198 -0.0055
 3136SOL    HW120870   1.353   3.722   1.209  0.3249 -0.9349  0.6401
 3136SOL    HW220871   1.487   3.665   1.226  1.2886  0.1360 -0.8898
 3137SOL     OW20872   0.665   1.828  10.193  0.7602 -0.5737 -0.2323
 3137SOL    HW120873   0.654   1.748  10.244  0.6714 -0.8477 -0.6874
 3137SOL    HW220874   0.607   1.815  10.118 -0.7691 -0.6359  0.9686
 3138SOL     OW20875   0.372   2.099   7.909  0.3531 -0.2505 -0.4958
 3138SOL    HW120876   0.332   2.049   7.838  0.9547  0.2190 -1.1572
 3138SOL    HW220877   0.451   2.125   7.862 -0.6561  0.9049 -1.5568
 3139SOL     OW20878   2.914   0.835   2.687 -0.3676 -0.4450  0.1718
 3139SOL    HW120879   2.957   0.845   2.772  0.0568  0.6041 -0.1663
 3139SOL    HW220880   2.842   0.779   2.717  0.4962 -1.1813  0.8427
 3140SOL     OW20881   4.621   2.302  12.112  0.1385 -0.3090 -0.4565
 3140SOL    HW120882   4.688   2.301  12.044 -0.5221 -1.7778 -1.0832
 3140SOL    HW220883   4.567   2.224  12.098  0.1614 -0.1908 -1.1995
 3141SOL     OW20884   1.134   2.355   4.089 -0.2895  0.4803 -0.0882
 3141SOL    HW120885   1.083   2.308   4.023 -0.3324  1.4959 -0.7829
 3141SOL    HW220886   1.092   2.321   4.168  0.6279  0.4088  0.3730
 3142SOL     OW20887   2.478   0.395  12.986  0.4733 -0.2266  0.1830
 3142SOL    HW120888   2.424   0.361  12.915 -1.5904  0.4452  1.4291
 3142SOL    HW220889   2.410   0.421  13.048 -0.5647 -0.7556 -0.7417
 3143SOL     OW20890   0.412   1.472  15.693 -0.4310  0.3251  0.2796
 3143SOL    HW120891   0.393   1.378  15.697 -2.1772  0.5299 -3.2529
 3143SOL    HW220892   0.402   1.491  15.600  1.1234  1.2934  0.3193
 3144SOL     OW20893   3.500   2.875   3.384 -0.3929 -0.1299  0.0245
 3144SOL    HW120894   3.474   2.786   3.362  0.5620 -0.2875 -0.4504
 3144SOL    HW220895   3.490   2.922   3.301  0.3121 -0.3976 -0.2037
 3145SOL     OW20896   4.559   2.307   6.324 -0.2485 -0.1577 -0.3747
 3145SOL    HW120897   4.596   2.226   6.288 -1.1515 -0.5441 -0.4383
 3145SOL    HW220898   4.481   2.279   6.373 -0.3144  0.5674 -0.0688
 3146SOL     OW20899   3.665   2.626  13.187  0.1662  0.2884 -0.6027
 3146SOL    HW120900   3.620   2.656  13.266  0.8988 -0.7907  0.2155
 3146SOL    HW220901   3.751   2.667  13.202 -1.1590  1.8713  2.6537
 3147SOL     OW20902   4.683   4.640   5.920  0.5429  0.0921  0.4988
 3147SOL    HW120903   4.611   4.658   5.980 -1.3264  1.1120 -2.0572
 3147SOL    HW220904   4.662   4.559   5.874 -0.9089  0.5230  0.4246
 3148SOL     OW20905   0.756   2.400   8.858  0.2820  0.3576 -0.5420
 3148SOL    HW120906   0.812   2.457   8.911  2.2144 -1.2131 -0.8815
 3148SOL    HW220907   0.797   2.316   8.878  0.5765  1.1752  2.2933
 3149SOL     OW20908   0.863   0.188   5.436  0.4407 -0.7722  0.4246
 3149SOL    HW120909   0.795   0.145   5.488 -0.7981  0.7451  0.0632
 3149SOL    HW220910   0.846   0.138   5.356 -0.2063  1.9667 -1.1283
 3150SOL     OW20911   1.224   2.580   6.190 -0.2891  0.1140 -0.3343
 3150SOL    HW120912   1.173   2.545   6.263  1.6316 -0.4373  0.7590
 3150SOL    HW220913   1.304   2.592   6.242  0.1444 -0.3781 -0.8874
 3151SOL     OW20914   1.780   2.980  10.986 -0.3955  0.1534 -0.3346
 3151SOL    HW120915   1.714   3.019  10.928 -0.4103  0.4734 -0.1013
 3151SOL    HW220916   1.761   3.026  11.068  3.6970  0.2060  0.5580
 3152SOL     OW20917   1.222   2.601   8.648  0.3201  0.0397  0.1290
 3152SOL    HW120918   1.275   2.592   8.728 -1.9251  1.0015  1.7465
 3152SOL    HW220919   1.155   2.534   8.663  0.0855 -0.0726 -1.4462
 3153SOL     OW20920   4.445   0.725   4.930  0.2549 -0.1047  0.4613
 3153SOL    HW120921   4.389   0.778   4.873  0.3726 -1.8009 -1.2331
 3153SOL    HW220922   4.378   0.703   4.994  1.3468  0.4067  1.7734
 3154SOL     OW20923   1.908   2.753  10.291 -0.0273 -0.0533 -0.5756
 3154SOL    HW120924   1.866   2.792  10.214 -2.0921  0.0628  0.6054
 3154SOL    HW220925   1.878   2.664  10.275 -3.1862  0.2699  3.3485
 3155SOL     OW20926   0.159   3.401   5.878  0.0006 -0.6960 -0.3457
 3155SOL    HW120927   0.248   3.366   5.875 -0.6047 -2.3283  0.2395
 3155SOL    HW220928   0.171   3.457   5.955 -0.0285 -0.6484 -0.3763
 3156SOL     OW20929   4.604   4.010   4.489  0.2000  0.9178  0.1179
 3156SOL    HW120930   4.610   3.922   4.453  2.7158  0.6031  1.2255
 3156SOL    HW220931   4.556   4.064   4.427  0.7460  1.7804  0.4300
 3157SOL     OW20932   3.164   4.422   5.656 -0.3117 -0.4696  0.1564
 3157SOL    HW120933   3.219   4.468   5.719  0.1493  0.0687 -0.6424
 3157SOL    HW220934   3.226   4.404   5.586  0.3577 -1.7879  1.1111
 3158SOL     OW20935   1.514   4.467   4.570 -0.2765 -0.0378  0.2017
 3158SOL    HW120936   1.430   4.421   4.571  0.0809 -0.6717  1.0311
 3158SOL    HW220937   1.498   4.556   4.601  1.5641  0.0195  0.9806
 3159SOL     OW20938   2.741   1.124   3.547 -0.2497  0.0178 -0.5754
 3159SOL    HW120939   2.720   1.209   3.507 -0.5299  1.0352  1.6892
 3159SOL    HW220940   2.657   1.079   3.541 -1.3043  1.9443 -0.2471
 3160SOL     OW20941   3.278   2.302   4.228 -0.2210  0.4814  0.0466
 3160SOL    HW120942   3.369   2.280   4.209 -0.8157 -0.7393 -1.3679
 3160SOL    HW220943   3.225   2.230   4.195  0.1565  0.8060 -1.2570
 3161SOL     OW20944   4.480   3.223   4.359  0.1163 -0.1306  0.0155
 3161SOL    HW120945   4.524   3.269   4.430  1.4706 -2.3086  0.5753
 3161SOL    HW220946   4.413   3.286   4.332  0.8047  0.2571 -0.8115
 3162SOL     OW20947   0.355   0.182  14.808 -0.4723 -0.2819 -0.0136
 3162SOL    HW120948   0.399   0.266  14.814 -0.9556 -0.2471  2.7883
 3162SOL    HW220949   0.283   0.196  14.869 -0.1475  0.7542  0.1272
 3163SOL     OW20950   4.514   4.345   2.690 -0.4347 -0.1206 -0.0309
 3163SOL    HW120951   4.521   4.366   2.783 -0.0417 -2.3141  0.4342
 3163SOL    HW220952   4.430   4.381   2.662 -0.5574  0.2429  0.7718
 3164SOL     OW20953   0.410   2.627  15.436  0.3151 -0.1685  0.8330
 3164SOL    HW120954   0.477   2.561  15.418  0.1334 -0.6380  1.9126
 3164SOL    HW220955   0.424   2.681  15.358  4.1668  1.8049  2.8986
 3165SOL     OW20956   4.280   3.450   7.236  0.6435 -0.0023  0.1475
 3165SOL    HW120957   4.273   3.545   7.244  1.0280 -0.0866  1.3873
 3165SOL    HW220958   4.224   3.423   7.309 -2.7171  0.6808 -2.1562
 3166SOL     OW20959   4.072   4.648   4.962 -0.1868 -0.1352  0.1459
 3166SOL    HW120960   3.982   4.614   4.963  1.3142 -4.0813  1.1636
 3166SOL    HW220961   4.079   4.655   4.867  0.9752 -0.2055  0.2240
 3167SOL     OW20962   3.971   1.454   4.673 -0.2260 -0.4440  0.3237
 3167SOL    HW120963   3.990   1.536   4.626  0.4986 -1.6363 -1.4785
 3167SOL    HW220964   3.912   1.487   4.741 -1.9466  0.9481 -1.8316
 3168SOL     OW20965   1.871   4.559  14.297  0.1562 -0.2962  0.5828
 3168SOL    HW120966   1.954   4.512  14.292  0.5902  0.6916 -1.4230
 3168SOL    HW220967   1.888   4.622  14.227 -1.1254 -0.7708 -0.1517
 3169SOL     OW20968   0.362   2.925   5.231  0.3781  0.4189 -0.2954
 3169SOL    HW120969   0.310   2.993   5.275  0.8566  0.6971 -0.1559
 3169SOL    HW220970   0.440   2.952   5.280  1.0862  0.8857 -1.6913
 3170SOL     OW20971   3.950   0.067  10.751  0.0267 -0.1714  0.3012
 3170SOL    HW120972   3.875   0.062  10.811 -1.4893  1.9258 -1.4532
 3170SOL    HW220973   4.020   0.084  10.814  0.3241  0.2049 -0.1290
 3171SOL     OW20974   3.278   0.689   4.995  0.1502 -0.4041  0.9037
 3171SOL    HW120975   3.321   0.617   5.041  1.7293 -0.9215 -1.4405
 3171SOL    HW220976   3.232   0.726   5.070 -0.6662  0.0104  0.1965
 3172SOL     OW20977   0.280   3.084   6.106  0.3053  0.3405  0.1688
 3172SOL    HW120978   0.191   3.116   6.122  0.9631  0.9508  2.5560
 3172SOL    HW220979   0.260   2.998   6.067  0.0793  0.2663  0.4520
 3173SOL     OW20980   4.482   4.132   2.500  0.0728 -0.2244 -0.3682
 3173SOL    HW120981   4.394   4.150   2.465 -0.1635  1.1313  0.9109
 3173SOL    HW220982   4.503   4.225   2.514  0.0000 -0.3237  0.4273
 3174SOL     OW20983   2.057   2.041   8.763 -0.0039  0.4271  1.0076
 3174SOL    HW120984   2.053   2.122   8.713 -2.9562 -0.2112  0.2252
 3174SOL    HW220985   1.985   1.992   8.722  0.1193 -0.3443  1.6952
 3175SOL     OW20986   3.668   0.209   5.253 -0.2308 -0.0854  0.2466
 3175SOL    HW120987   3.612   0.153   5.307  0.4033  0.0656  1.0681
 3175SOL    HW220988   3.749   0.159   5.258 -0.4755 -0.5119 -0.1189
 3176SOL     OW20989   3.118   2.444  15.136  0.1457 -0.2740 -0.0412
 3176SOL    HW120990   3.037   2.473  15.177 -0.0393  1.0219 -1.3206
 3176SOL    HW220991   3.102   2.350  15.148  0.0416 -0.1547  0.7541
 3177SOL     OW20992   0.905   2.032   2.232  0.5565  0.1575  0.1469
 3177SOL    HW120993   0.814   2.061   2.225  1.0522  1.0970 -2.3531
 3177SOL    HW220994   0.910   1.976   2.155 -0.9677 -1.0502  0.9306
 3178SOL     OW20995   1.413   0.603   7.618  0.2057 -0.4536 -0.0932
 3178SOL    HW120996   1.344   0.578   7.679 -0.4617 -1.8748 -1.4327
 3178SOL    HW220997   1.376   0.681   7.576  1.0250  0.7058  1.3414
 3179SOL     OW20998   3.029   3.715   8.025  0.0457 -0.6740  0.3972
 3179SOL    HW120999   2.939   3.712   7.991  0.1541  1.6286 -0.0823
 3179SOL    HW221000   3.075   3.738   7.944 -0.6115  1.3227  0.5886
 3180SOL     OW21001   1.639   0.695  13.342 -0.2121  0.2942  0.0631
 3180SOL    HW121002   1.719   0.714  13.391  0.4572 -1.2100 -0.4690
 3180SOL    HW221003   1.577   0.660  13.406 -0.1568  2.0126  1.0742
 3181SOL     OW21004   3.219   4.254  16.525  0.1686 -0.1487 -0.0744
 3181SOL    HW121005   3.127   4.266  16.502  0.3169  0.1070 -0.5348
 3181SOL    HW221006   3.230   4.301  16.607  0.4333  1.1666 -0.8682
 3182SOL     OW21007   4.110   1.853   3.013  0.6310  0.5100  0.0184
 3182SOL    HW121008   4.100   1.773   3.063 -0.4731  1.3630  1.1675
 3182SOL    HW221009   4.041   1.848   2.946 -0.4509  0.2799  1.1558
 3183SOL     OW21010   1.767   2.009   4.620  0.1528 -0.7503 -0.1383
 3183SOL    HW121011   1.711   1.981   4.693 -0.5555  1.0908  0.0189
 3183SOL    HW221012   1.831   1.939   4.610  0.7066 -0.0672 -1.2828
 3184SOL     OW21013   1.149   0.965  13.806 -0.5035  0.1089 -0.5962
 3184SOL    HW121014   1.102   0.920  13.736  0.3854 -0.0134 -1.1001
 3184SOL    HW221015   1.184   0.886  13.847  0.4493  0.2338 -1.1729
 3185SOL     OW21016   0.580   0.034   7.009 -0.3098  0.7290 -0.4997
 3185SOL    HW121017   0.502   4.707   6.984 -0.4751  0.9348 -0.3912
 3185SOL    HW221018   0.574   0.007   7.101  3.5887 -0.2069 -0.5425
 3186SOL     OW21019   1.454   2.009   1.882  0.1603 -0.7152  0.0577
 3186SOL    HW121020   1.411   2.094   1.882 -1.5484 -1.5810  1.2164
 3186SOL    HW221021   1.546   2.020   1.858  0.2792 -0.2488  0.7325
 3187SOL     OW21022   0.445   2.368  10.301  0.0060 -0.2222 -0.5509
 3187SOL    HW121023   0.408   2.296  10.352 -1.8224 -1.0366 -3.0545
 3187SOL    HW221024   0.375   2.399  10.245 -1.5327 -0.3535  1.3123
 3188SOL     OW21025   3.135   2.031   7.653  0.5192 -0.3096 -0.0776
 3188SOL    HW121026   3.199   2.027   7.723 -0.5892 -1.6014  0.8775
 3188SOL    HW221027   3.080   1.966   7.698  1.2316 -0.4780  0.5413
 3189SOL     OW21028   3.403   2.987  10.533 -0.5749 -0.7297  0.2112
 3189SOL    HW121029   3.417   3.073  10.494 -2.1957 -1.4581 -1.9818
 3189SOL    HW221030   3.337   2.948  10.475  0.8145 -0.6040 -1.4706
 3190SOL     OW21031   0.405   3.890  14.754  0.7239  0.6246  0.1312
 3190SOL    HW121032   0.487   3.844  14.771  0.5700 -0.1216 -1.1040
 3190SOL    HW221033   0.396   3.868  14.661  2.1326  3.8372 -0.7694
 3191SOL     OW21034   3.984   3.836  16.866 -0.1233 -0.1341  0.4370
 3191SOL    HW121035   3.913   3.823  16.929  1.2793 -0.7441  1.9179
 3191SOL    HW221036   3.935   3.807  16.790 -0.5203 -0.9387  1.0003
 3192SOL     OW21037   0.754   0.770   0.137  0.8080 -0.1744  0.2888
 3192SOL    HW121038   0.715   0.723   0.063  0.7762 -0.4813  0.4996
 3192SOL    HW221039   0.742   0.862   0.113  0.4904 -0.9644 -2.5998
 3193SOL     OW21040   0.096   1.721   3.585  0.3761  0.1145  0.4542
 3193SOL    HW121041   0.109   1.628   3.569 -0.9593 -0.2065  1.2917
 3193SOL    HW221042   0.020   1.748   3.533  0.5943 -0.4248 -0.1417
 3194SOL     OW21043   3.654   0.358   0.941 -0.0499 -0.2876 -0.5933
 3194SOL    HW121044   3.648   0.267   0.972  0.2434 -0.5702 -1.3444
 3194SOL    HW221045   3.673   0.344   0.848  0.7741 -0.0397 -0.4624
 3195SOL     OW21046   2.284   1.477   6.968  0.6205  0.0476  0.4692
 3195SOL    HW121047   2.330   1.414   6.913  0.7830  0.4116  0.1852
 3195SOL    HW221048   2.353   1.537   6.997  0.5465  1.0345 -1.3186
 3196SOL     OW21049   0.607   2.908   9.601 -0.6783 -0.0022 -0.3631
 3196SOL    HW121050   0.540   2.964   9.560  0.7689 -0.5357 -3.4685
 3196SOL    HW221051   0.645   2.969   9.664 -1.1910  0.2681 -0.3105
 3197SOL     OW21052   2.313   4.415   2.655 -0.3495  0.8830 -0.0519
 3197SOL    HW121053   2.396   4.411   2.607 -0.0852  0.6533  0.4244
 3197SOL    HW221054   2.269   4.333   2.632 -1.5811  1.0539  1.6959
 3198SOL     OW21055   3.262   0.056   2.204  0.1987  0.0352  0.3126
 3198SOL    HW121056   3.195   4.711   2.212 -1.2969  1.3320 -1.1621
 3198SOL    HW221057   3.329   4.717   2.176  1.7621  1.3501  1.1581
 3199SOL     OW21058   3.277   2.998   7.897  0.6098  0.2194  0.7082
 3199SOL    HW121059   3.355   2.975   7.947  2.0515 -2.1293 -2.7130
 3199SOL    HW221060   3.248   3.077   7.944  1.3548 -0.3097  2.0488
 3200SOL     OW21061   1.378   3.459   2.715  0.1743  0.2958 -0.7116
 3200SOL    HW121062   1.323   3.537   2.710  0.8397  0.8715  0.9289
 3200SOL    HW221063   1.461   3.491   2.750  0.7863 -1.5378 -0.4925
 3201SOL     OW21064   1.826   2.070   8.279 -0.3867  0.7917 -0.0343
 3201SOL    HW121065   1.898   2.080   8.217  0.0162 -0.2184  0.2712
 3201SOL    HW221066   1.793   2.155   8.310 -1.6999  0.1379  0.3762
 3202SOL     OW21067   3.083   2.709  11.382 -0.1979  0.3491 -0.6849
 3202SOL    HW121068   3.012   2.743  11.436  1.1797 -2.1035  2.7232
 3202SOL    HW221069   3.045   2.622  11.371 -1.1402  0.3593  2.3783
 3203SOL     OW21070   0.858   0.868  15.441  0.1066  0.4160  0.0424
 3203SOL    HW121071   0.871   0.831  15.528 -2.1951 -0.1260  0.1395
 3203SOL    HW221072   0.950   0.858  15.417 -0.2332 -0.7860 -0.7689
 3204SOL     OW21073   2.583   1.643   3.134  0.0723 -0.6663 -0.9201
 3204SOL    HW121074   2.576   1.696   3.213  3.6939 -1.7688  0.1399
 3204SOL    HW221075   2.541   1.702   3.072 -4.2799 -2.2172  0.5526
 3205SOL     OW21076   0.551   2.568  14.429  0.3019 -0.7939  0.4949
 3205SOL    HW121077   0.536   2.651  14.384 -0.1474 -0.0081  2.0721
 3205SOL    HW221078   0.609   2.526  14.365  0.5926 -0.2413  0.3883
 3206SOL     OW21079   0.668   3.219   0.740 -0.6441 -0.3335 -0.1686
 3206SOL    HW121080   0.666   3.125   0.723  0.3294 -0.4059  0.1172
 3206SOL    HW221081   0.739   3.220   0.804 -0.9099  1.1336  0.1107
 3207SOL     OW21082   2.100   1.991   9.334 -0.0418 -0.2108  0.1954
 3207SOL    HW121083   2.017   1.996   9.382 -0.8503 -0.9191 -1.1497
 3207SOL    HW221084   2.167   1.994   9.403  1.2581  0.0025 -1.0951
 3208SOL     OW21085   4.142   3.928   2.801  0.5911 -0.4907  0.1309
 3208SOL    HW121086   4.212   3.864   2.814 -0.3756 -1.2476  1.6785
 3208SOL    HW221087   4.068   3.867   2.810 -0.5496  0.7510 -0.9385
 3209SOL     OW21088   1.245   1.165   4.889  0.0404 -0.7313 -0.2978
 3209SOL    HW121089   1.296   1.233   4.931 -1.3210  0.2383 -0.2234
 3209SOL    HW221090   1.180   1.146   4.957 -0.1896 -0.7138 -0.5088
 3210SOL     OW21091   2.623   1.537  16.946  0.9726 -0.2040 -0.0194
 3210SOL    HW121092   2.574   1.595  16.887  1.8497 -0.1745 -0.7168
 3210SOL    HW221093   2.555   1.471  16.964  0.7064  0.5216  1.5973
 3211SOL     OW21094   3.534   4.118   6.387 -0.7722  0.0497 -0.4583
 3211SOL    HW121095   3.507   4.081   6.303 -1.9270 -0.7265  0.2412
 3211SOL    HW221096   3.629   4.109   6.385 -0.7051  0.6170  0.1566
 3212SOL     OW21097   1.824   0.806   3.624  0.4433 -0.4433 -0.2168
 3212SOL    HW121098   1.902   0.826   3.572  0.9895 -0.6640  0.5032
 3212SOL    HW221099   1.864   0.747   3.688  1.0750  1.5992  1.2578
 3213SOL     OW21100   4.204   4.425  10.269 -0.1885  0.3945 -0.0585
 3213SOL    HW121101   4.144   4.361  10.308  2.3701 -0.5788  2.2843
 3213SOL    HW221102   4.168   4.511  10.288 -0.6269 -0.0126  0.9664
 3214SOL     OW21103   1.240   0.801   1.885  0.0628  0.5590 -0.7086
 3214SOL    HW121104   1.225   0.824   1.793  2.7713  0.2578 -1.2163
 3214SOL    HW221105   1.279   0.883   1.914 -1.5417  1.0043  0.1789
 3215SOL     OW21106   4.254   2.253   7.677  0.1535  0.1137  0.3217
 3215SOL    HW121107   4.184   2.231   7.738  1.1875 -0.8015  1.1709
 3215SOL    HW221108   4.297   2.167   7.675  1.7161  0.8617  1.7289
 3216SOL     OW21109   2.652   1.008   4.886 -0.0666  0.5376 -0.3395
 3216SOL    HW121110   2.732   0.991   4.836  0.3669  0.2883  0.4366
 3216SOL    HW221111   2.611   1.069   4.826 -0.1151 -0.1058 -0.9640
 3217SOL     OW21112   4.386   1.343  15.028  0.0464 -0.1810 -0.2783
 3217SOL    HW121113   4.373   1.252  15.056  0.0685  0.0096  0.3427
 3217SOL    HW221114   4.384   1.331  14.933  0.2645 -0.0715 -0.2975
 3218SOL     OW21115   3.480   4.113  10.829 -0.2443  0.2886  0.5106
 3218SOL    HW121116   3.471   4.186  10.767 -0.0705  0.1236  0.2890
 3218SOL    HW221117   3.567   4.133  10.865 -0.7091 -0.0572  1.7945
 3219SOL     OW21118   0.031   1.127   4.606  0.1851 -0.1811 -0.1940
 3219SOL    HW121119   0.072   1.042   4.594  0.0265 -0.1351 -1.0635
 3219SOL    HW221120   4.670   1.110   4.648  1.4001 -0.1439  2.2625
 3220SOL     OW21121   2.916   3.363   9.299 -0.0209  0.7423  0.0980
 3220SOL    HW121122   2.823   3.381   9.295 -0.2082  0.2218  1.8976
 3220SOL    HW221123   2.933   3.457   9.292  2.1158  0.2659 -1.2439
 3221SOL     OW21124   1.945   2.488   3.619  0.1829  0.1625  0.1271
 3221SOL    HW121125   1.935   2.542   3.541  2.1014 -0.4471 -0.5227
 3221SOL    HW221126   1.866   2.501   3.672  1.0166  1.8629  0.9545
 3222SOL     OW21127   1.219   0.024   2.574  0.1079  0.0243  0.0327
 3222SOL    HW121128   1.223   4.651   2.580  0.0495 -0.2986 -4.7001
 3222SOL    HW221129   1.132   0.040   2.610 -0.1741 -0.0089 -0.6281
 3223SOL     OW21130   3.192   1.995   3.883 -0.0459  0.2195 -0.1163
 3223SOL    HW121131   3.252   1.962   3.949 -0.4766 -0.4389 -0.0416
 3223SOL    HW221132   3.105   1.971   3.916 -1.5041 -0.8327 -4.7098
 3224SOL     OW21133   0.779   1.348   2.272 -0.4225  0.4443  0.1882
 3224SOL    HW121134   0.799   1.421   2.330  2.0749 -1.6215  1.9077
 3224SOL    HW221135   0.856   1.347   2.215  0.4094  0.7431  1.3060
 3225SOL     OW21136   1.136   2.885  15.317 -0.2420 -0.0370  0.4135
 3225SOL    HW121137   1.097   2.823  15.255  0.7355  0.9740 -1.1931
 3225SOL    HW221138   1.062   2.945  15.332  0.2325  0.7561 -0.4461
 3226SOL     OW21139   2.203   2.946  14.171 -0.5295  0.3062  0.1756
 3226SOL    HW121140   2.232   3.035  14.155  0.1471  0.0418 -0.0888
 3226SOL    HW221141   2.212   2.948  14.266 -0.5552 -0.0237  0.1868
 3227SOL     OW21142   4.316   1.267  11.943 -1.0567 -0.4670 -0.0480
 3227SOL    HW121143   4.306   1.347  11.892  0.4565 -0.6640 -0.6464
 3227SOL    HW221144   4.245   1.225  11.894  0.2737  1.5052 -3.5943
 3228SOL     OW21145   2.129   3.250   9.254 -0.0365  0.2482  0.4861
 3228SOL    HW121146   2.080   3.301   9.319 -1.6858 -2.0934  1.0823
 3228SOL    HW221147   2.181   3.325   9.225 -3.3464  1.7209 -1.7159
 3229SOL     OW21148   3.131   3.363  11.330 -0.0646 -0.1795 -0.6805
 3229SOL    HW121149   3.138   3.279  11.374  0.0531  0.3245  0.2709
 3229SOL    HW221150   3.191   3.358  11.256  0.9614 -0.4466  0.1816
 3230SOL     OW21151   4.188   3.880  12.107 -0.3229 -0.3991  0.1702
 3230SOL    HW121152   4.224   3.967  12.089 -1.5854  0.4119  1.6245
 3230SOL    HW221153   4.094   3.889  12.116 -0.5632 -1.2094 -1.5474
 3231SOL     OW21154   3.789   0.975   1.692 -0.3791 -0.0755  0.2585
 3231SOL    HW121155   3.825   1.002   1.777 -1.1230  1.5553  0.0585
 3231SOL    HW221156   3.710   0.928   1.721 -0.0218  1.4055  3.6652
 3232SOL     OW21157   2.887   2.233  10.127  0.4379 -0.4014  0.1898
 3232SOL    HW121158   2.804   2.259  10.167 -0.5817 -2.2392 -0.7353
 3232SOL    HW221159   2.944   2.310  10.123  1.8150 -1.3347  1.8075
 3233SOL     OW21160   4.672   4.098   7.294  0.2692  0.0139  0.3213
 3233SOL    HW121161   4.587   4.140   7.305  0.0699 -0.2963  0.0033
 3233SOL    HW221162   4.700   4.092   7.385 -0.4356 -1.8431  0.4198
 3234SOL     OW21163   1.435   4.124  15.442 -0.1023 -0.3435 -0.2926
 3234SOL    HW121164   1.492   4.094  15.371  0.4183  1.3962 -0.5918
 3234SOL    HW221165   1.490   4.115  15.520 -0.6699  0.6744  0.2232
 3235SOL     OW21166   3.901   1.547   8.516  0.2568  0.4002 -0.0374
 3235SOL    HW121167   3.829   1.506   8.468  2.9877 -3.8608 -0.4041
 3235SOL    HW221168   3.961   1.473   8.513 -0.3384 -0.1095  0.6569
 3236SOL     OW21169   0.748   3.058   6.843 -0.3680  0.0715 -0.0926
 3236SOL    HW121170   0.805   3.126   6.878  0.7909 -0.7504 -0.3910
 3236SOL    HW221171   0.693   3.109   6.783  0.6792 -0.9597 -1.9398
 3237SOL     OW21172   3.273   4.714   1.783  0.4163 -0.5685 -0.0801
 3237SOL    HW121173   3.340   4.647   1.776  1.2570  0.0007  2.6857
 3237SOL    HW221174   3.257   4.715   1.688 -1.8138 -1.2710  0.2813
 3238SOL     OW21175   1.220   4.641   1.628 -0.0189 -0.4690  0.3480
 3238SOL    HW121176   1.225   4.657   1.722 -0.9421  0.8750  0.1667
 3238SOL    HW221177   1.195   0.007   1.600  1.1236  0.1981  1.4067
 3239SOL     OW21178   1.764   3.909   5.217 -0.7507 -0.1026  0.6328
 3239SOL    HW121179   1.733   4.000   5.227 -0.1944  0.4095 -2.2202
 3239SOL    HW221180   1.757   3.903   5.122 -1.6367  0.5361  0.6580
 3240SOL     OW21181   2.893   0.549  17.271 -0.3136  0.0625 -0.0416
 3240SOL    HW121182   2.904   0.582  17.182 -0.6411 -2.4868 -1.0024
 3240SOL    HW221183   2.964   0.485  17.277 -0.8970 -0.4385  1.6143
 3241SOL     OW21184   2.200   1.216  12.607  0.1433 -0.0032 -0.0356
 3241SOL    HW121185   2.189   1.201  12.513  0.3429  1.4017 -0.2830
 3241SOL    HW221186   2.275   1.158  12.622 -0.6060 -0.3660  2.2636
 3242SOL     OW21187   2.840   4.380   4.579  0.5467  0.2324 -0.1713
 3242SOL    HW121188   2.894   4.382   4.500 -2.6011  2.0134 -2.2647
 3242SOL    HW221189   2.912   4.352   4.636 -0.7793 -0.1033  1.3382
 3243SOL     OW21190   0.047   2.225   4.230 -0.0955  0.2997  0.3710
 3243SOL    HW121191   0.043   2.277   4.150 -0.6782 -2.5716 -1.4659
 3243SOL    HW221192   0.041   2.135   4.196  0.2633  0.8814 -1.2346
 3244SOL     OW21193   2.922   0.026  12.240 -0.1856  0.3540 -0.6642
 3244SOL    HW121194   2.955   0.064  12.321 -0.2799 -1.7155  0.3583
 3244SOL    HW221195   2.924   4.653  12.246 -0.5941  0.3322 -0.8465
 3245SOL     OW21196   1.891   3.597   4.778 -0.6059  0.1169 -0.2253
 3245SOL    HW121197   1.923   3.685   4.795 -1.3634  0.4960 -0.7203
 3245SOL    HW221198   1.801   3.604   4.810 -0.2220  0.5798  0.7419
 3246SOL     OW21199   4.255   0.803   2.882 -0.0457 -0.5235  0.2731
 3246SOL    HW121200   4.337   0.848   2.905  0.9593 -1.6453 -1.1089
 3246SOL    HW221201   4.190   0.864   2.916  0.2973  0.3301 -0.5920
 3247SOL     OW21202   1.636   2.123   9.628 -0.7911 -0.2013 -0.0644
 3247SOL    HW121203   1.541   2.126   9.615 -0.4455 -0.1797 -2.6303
 3247SOL    HW221204   1.642   2.214   9.658 -2.1278 -0.3777  0.7173
 3248SOL     OW21205   3.629   0.035   6.476 -0.7874 -0.0296  0.4175
 3248SOL    HW121206   3.537   0.030   6.449 -0.5679 -2.4103  0.0238
 3248SOL    HW221207   3.626   0.092   6.553  0.7459 -0.3304  0.7170
 3249SOL     OW21208   4.181   3.798   7.944 -0.4124 -0.1869 -0.9624
 3249SOL    HW121209   4.175   3.779   8.038  2.4070 -0.4134 -0.8181
 3249SOL    HW221210   4.115   3.866   7.929 -0.4392  0.4199  1.9296
 3250SOL     OW21211   2.003   3.912  15.449  0.0452  0.5243  0.1182
 3250SOL    HW121212   2.085   3.869  15.424  0.4673  1.2055  0.3415
 3250SOL    HW221213   1.956   3.875  15.374 -0.0337  0.6689  0.0966
 3251SOL     OW21214   1.112   2.061   6.095 -0.7929 -0.2336 -0.5357
 3251SOL    HW121215   1.207   2.051   6.099 -0.8288 -0.6987 -0.9343
 3251SOL    HW221216   1.111   2.145   6.050  0.3600  0.5319  0.8710
 3252SOL     OW21217   3.352   2.629   8.410 -0.2009 -0.1857  0.2536
 3252SOL    HW121218   3.415   2.557   8.419 -1.0638 -0.8645  0.8917
 3252SOL    HW221219   3.349   2.652   8.503  3.7884  0.0084  0.3403
 3253SOL     OW21220   0.442   3.179   8.637  1.0457  0.0273  0.3566
 3253SOL    HW121221   0.512   3.198   8.574 -0.8020  3.6034 -0.6378
 3253SOL    HW221222   0.394   3.262   8.638  0.4289 -0.3199 -0.1752
 3254SOL     OW21223   2.959   0.299   3.998 -0.1287 -0.2578 -0.1130
 3254SOL    HW121224   2.874   0.254   4.000 -0.4508  0.2814 -1.6099
 3254SOL    HW221225   2.956   0.340   4.084 -0.2178  0.3375 -0.4006
 3255SOL     OW21226   4.269   1.357   7.392 -0.1590 -0.1480  0.0369
 3255SOL    HW121227   4.281   1.267   7.361  0.1224 -0.4933  1.1357
 3255SOL    HW221228   4.183   1.355   7.435  0.0981  1.1475  0.6049
 3256SOL     OW21229   1.163   3.388   8.591 -0.7560  0.4850 -0.0819
 3256SOL    HW121230   1.206   3.304   8.577  1.3104  1.3489  1.0763
 3256SOL    HW221231   1.226   3.440   8.640 -0.4946  1.3650 -1.3598
 3257SOL     OW21232   3.406   0.419   0.343  0.3077  0.3942 -0.0289
 3257SOL    HW121233   3.338   0.358   0.313  1.6119 -0.0644 -2.0618
 3257SOL    HW221234   3.374   0.495   0.295  0.1055 -0.2449 -0.9206
 3258SOL     OW21235   2.757   4.463  17.557  0.1366  0.1685  0.4593
 3258SOL    HW121236   2.689   4.401  17.530 -1.3982  1.7820  0.6542
 3258SOL    HW221237   2.822   4.439  17.490  0.9717  1.6204  0.7577
 3259SOL     OW21238   1.011   1.332   0.770 -0.3763 -0.3465 -0.1573
 3259SOL    HW121239   1.073   1.394   0.730  0.1723  1.3526  3.3597
 3259SOL    HW221240   1.058   1.248   0.771  1.6825  0.8028  0.5490
 3260SOL     OW21241   4.262   2.793   3.673 -0.4284  0.3587  0.1608
 3260SOL    HW121242   4.189   2.741   3.706 -1.1759  1.8497  0.8716
 3260SOL    HW221243   4.245   2.867   3.731  2.1991  0.6112  0.6027
 3261SOL     OW21244   3.658   1.496   6.848  0.0616 -0.0472  0.1309
 3261SOL    HW121245   3.595   1.556   6.807  0.5393  0.2346 -0.1864
 3261SOL    HW221246   3.634   1.411   6.811  3.5128 -0.3960 -1.2108
 3262SOL     OW21247   2.162   3.381   4.161 -0.1306  0.2971 -0.1414
 3262SOL    HW121248   2.210   3.300   4.176 -0.9555 -0.5317 -1.9652
 3262SOL    HW221249   2.105   3.355   4.089  0.9549 -1.2752 -0.4407
 3263SOL     OW21250   3.426   2.525   5.023 -0.6119 -0.9042  0.3934
 3263SOL    HW121251   3.385   2.607   4.996 -0.1524 -0.6751  0.3950
 3263SOL    HW221252   3.518   2.548   5.032 -0.9258  1.3598 -2.2031
 3264SOL     OW21253   4.530   1.971   2.566 -0.4199  0.3355  0.2309
 3264SOL    HW121254   4.451   1.918   2.562 -1.1210  1.3605  0.4560
 3264SOL    HW221255   4.511   2.020   2.486  0.6482 -0.4458 -0.5051
 3265SOL     OW21256   0.590   3.460   6.516 -0.3918  1.1925 -0.4397
 3265SOL    HW121257   0.526   3.523   6.550  0.0535 -0.7565  4.1261
 3265SOL    HW221258   0.639   3.517   6.458  0.5222  1.1161  0.2642
 3266SOL     OW21259   0.802   4.198   8.719 -0.0709 -0.4960 -0.3362
 3266SOL    HW121260   0.841   4.127   8.669 -1.6150 -1.8085  0.2947
 3266SOL    HW221261   0.816   4.160   8.806  0.4043  1.1564  0.3026
 3267SOL     OW21262   0.371   3.820  14.498 -0.2985  0.7620 -0.1819
 3267SOL    HW121263   0.406   3.871  14.425 -0.7160  2.4591  0.8089
 3267SOL    HW221264   0.313   3.765  14.445 -0.1027 -0.9323  1.3959
 3268SOL     OW21265   1.634   4.548   3.287  0.1208 -0.2668  0.0540
 3268SOL    HW121266   1.720   4.508   3.273  0.2153  0.3355 -1.0697
 3268SOL    HW221267   1.592   4.488   3.348 -0.4918 -0.3769 -0.4807
 3269SOL     OW21268   3.273   1.232   1.710  0.6367  0.2524 -0.1043
 3269SOL    HW121269   3.293   1.319   1.746 -2.9291  0.5660  1.0611
 3269SOL    HW221270   3.328   1.177   1.765 -1.1282  1.4410  2.8393
 3270SOL     OW21271   3.411   3.850   6.451 -0.6898  0.1213 -0.2196
 3270SOL    HW121272   3.387   3.940   6.476  0.3464  0.1203  0.7709
 3270SOL    HW221273   3.487   3.872   6.398 -0.4135  0.0963  0.1647
 3271SOL     OW21274   3.573   3.702   0.248  0.5508 -0.6342  0.0021
 3271SOL    HW121275   3.617   3.647   0.184  2.4257  0.8505  0.0160
 3271SOL    HW221276   3.612   3.658   0.324 -1.0262  0.2166  1.3158
 3272SOL     OW21277   0.892   2.147   7.735 -0.2445 -0.3827 -0.7137
 3272SOL    HW121278   0.935   2.062   7.738 -1.3563 -0.9447 -0.8308
 3272SOL    HW221279   0.878   2.142   7.830 -3.5280  0.0293 -1.1546
 3273SOL     OW21280   3.597   3.827   2.170  0.3280 -0.1996 -0.1723
 3273SOL    HW121281   3.522   3.776   2.203 -0.0170 -0.3028 -1.1285
 3273SOL    HW221282   3.665   3.765   2.195 -0.2277  0.0018  1.8351
 3274SOL     OW21283   0.523   0.286   5.837  0.5933  0.1177 -0.0249
 3274SOL    HW121284   0.501   0.199   5.870 -0.9402  0.4374 -0.2325
 3274SOL    HW221285   0.565   0.323   5.915  0.1734 -1.5819  1.0090
 3275SOL     OW21286   2.627   1.116  17.062 -0.3888  0.4436  0.4121
 3275SOL    HW121287   2.599   1.205  17.079  1.3438  1.5242 -2.4420
 3275SOL    HW221288   2.617   1.109  16.967  3.3483  1.0720 -0.0352
 3276SOL     OW21289   3.797   1.688  16.111  0.6303 -0.2427 -0.4168
 3276SOL    HW121290   3.719   1.635  16.098  0.3499  0.3465 -1.1817
 3276SOL    HW221291   3.759   1.767  16.150 -1.4221  0.4674 -3.7561
 3277SOL     OW21292   3.449   1.554  16.434 -0.1521 -0.0527 -0.3040
 3277SOL    HW121293   3.474   1.637  16.475  2.1671 -0.0741 -1.6858
 3277SOL    HW221294   3.535   1.519  16.411 -0.2837 -1.0069  0.6546
 3278SOL     OW21295   2.868   2.741   7.409  0.3655 -0.5516 -0.1946
 3278SOL    HW121296   2.822   2.736   7.325  1.6381 -1.1149 -0.8463
 3278SOL    HW221297   2.861   2.834   7.432 -0.6777 -0.6234 -0.1984
 3279SOL     OW21298   2.432   1.965   6.285  0.3414 -0.0764  0.1651
 3279SOL    HW121299   2.363   1.997   6.228  0.1357 -0.4598  0.1965
 3279SOL    HW221300   2.506   1.946   6.227 -0.6321  0.4341 -1.2307
 3280SOL     OW21301   4.481   2.902   4.781  0.2371  0.2619  0.1591
 3280SOL    HW121302   4.569   2.884   4.748  0.2092  0.5892 -0.0881
 3280SOL    HW221303   4.494   2.997   4.778  0.9306  0.1872  0.8191
 3281SOL     OW21304   2.644   3.640  17.555 -0.2996 -0.4950 -0.8954
 3281SOL    HW121305   2.669   3.619  17.465  2.8065 -1.5961  0.2053
 3281SOL    HW221306   2.566   3.584  17.557 -1.5016  1.2905  1.8016
 3282SOL     OW21307   3.627   1.035   3.823 -0.5156 -0.1975 -0.9044
 3282SOL    HW121308   3.665   0.952   3.795  1.3263 -0.0511  1.1782
 3282SOL    HW221309   3.566   1.050   3.751 -0.6610 -0.1200 -0.7628
 3283SOL     OW21310   1.705   0.034   6.637 -0.1187 -0.2789 -0.2792
 3283SOL    HW121311   1.640   4.688   6.621 -2.4059  2.0411 -0.9543
 3283SOL    HW221312   1.722   0.060   6.546 -0.8218 -1.9251 -0.9034
 3284SOL     OW21313   2.628   0.285   5.652  0.6726  0.3089 -0.0953
 3284SOL    HW121314   2.576   0.291   5.732 -2.6768 -1.2891 -2.1725
 3284SOL    HW221315   2.647   0.191   5.649 -0.8710  0.1175 -3.6702
 3285SOL     OW21316   3.343   2.767   9.441  0.2135  0.2012 -0.4414
 3285SOL    HW121317   3.330   2.715   9.520  1.1706  0.2799 -0.2347
 3285SOL    HW221318   3.311   2.854   9.468  0.7616  0.5868 -1.0226
 3286SOL     OW21319   0.047   3.971  15.014 -0.0825 -0.2399  0.2279
 3286SOL    HW121320   4.721   3.895  14.983 -0.1803 -0.2238  0.3417
 3286SOL    HW221321   0.083   3.938  15.097 -1.2628 -2.0250  0.0323
 3287SOL     OW21322   2.288   1.334   5.996 -0.4144  0.4225 -0.4856
 3287SOL    HW121323   2.334   1.385   5.929  0.1247  0.7615  0.1495
 3287SOL    HW221324   2.210   1.312   5.945 -1.0156  1.0136  0.1803
 3288SOL     OW21325   2.080   2.799   7.220 -0.0722  0.0709 -0.2837
 3288SOL    HW121326   2.014   2.785   7.288 -0.1637 -1.5668 -0.7256
 3288SOL    HW221327   2.035   2.816   7.138 -2.9887  1.8288  1.6983
 3289SOL     OW21328   3.183   1.078   3.577  0.0354 -0.1899  0.0177
 3289SOL    HW121329   3.188   1.149   3.641 -0.6952  1.0383 -1.2964
 3289SOL    HW221330   3.092   1.077   3.548  0.0420  0.1821 -0.0091
 3290SOL     OW21331   3.645   0.499   2.270  0.3544 -0.4233 -0.0471
 3290SOL    HW121332   3.567   0.519   2.219  0.9581 -1.0479 -1.1999
 3290SOL    HW221333   3.700   0.541   2.204  0.5494 -1.8078 -0.7529
 3291SOL     OW21334   3.417   1.566   4.035  0.3973  0.1164  0.6514
 3291SOL    HW121335   3.470   1.497   3.996  2.1197  1.6963  0.2080
 3291SOL    HW221336   3.364   1.513   4.095  1.4056 -0.4855  1.0079
 3292SOL     OW21337   1.404   3.534   6.360  0.2490  0.2904  0.0755
 3292SOL    HW121338   1.417   3.591   6.435  1.6729  0.4907 -0.3149
 3292SOL    HW221339   1.392   3.594   6.287 -0.5929 -0.7268 -0.6269
 3293SOL     OW21340   0.159   4.104   8.221 -0.0250 -0.0128  0.4276
 3293SOL    HW121341   0.250   4.099   8.192 -0.0661 -1.7083  0.6327
 3293SOL    HW221342   0.159   4.061   8.306 -0.5695 -0.7240  0.0714
 3294SOL     OW21343   4.509   0.770  16.191 -0.2729  0.0035 -0.0288
 3294SOL    HW121344   4.506   0.805  16.102 -1.9423  2.1139  0.8590
 3294SOL    HW221345   4.421   0.795  16.216 -0.0322  0.4095  0.4133
 3295SOL     OW21346   1.738   3.782  12.924 -0.0299 -0.1589 -0.1234
 3295SOL    HW121347   1.772   3.711  12.869 -1.9785  1.0951 -2.9263
 3295SOL    HW221348   1.734   3.740  13.010 -1.0460 -1.7439 -0.9394
 3296SOL     OW21349   4.517   3.290  11.529  0.5647  0.1154 -0.2114
 3296SOL    HW121350   4.494   3.205  11.491  0.5626 -0.1334  0.3491
 3296SOL    HW221351   4.508   3.278  11.623  0.4528  1.8564  0.0072
 3297SOL     OW21352   0.387   2.047  17.496 -0.0309 -0.1826 -0.5728
 3297SOL    HW121353   0.470   2.060  17.451  0.0153  0.2553 -0.3607
 3297SOL    HW221354   0.329   2.088  17.432 -0.2598  1.3118  0.5887
 3298SOL     OW21355   2.211   1.516   5.781  0.7080  0.1791 -0.3856
 3298SOL    HW121356   2.200   1.474   5.696 -1.1380 -1.7443  0.7945
 3298SOL    HW221357   2.271   1.585   5.754 -1.3823  3.1538  2.5219
 3299SOL     OW21358   0.459   3.434   0.733  0.3520  0.1781 -0.2566
 3299SOL    HW121359   0.451   3.424   0.639  1.9544  1.6849 -0.5693
 3299SOL    HW221360   0.507   3.354   0.756  0.3290  0.1902 -0.1645
 3300SOL     OW21361   0.778   3.569   4.206  0.1926 -0.5104 -0.2078
 3300SOL    HW121362   0.829   3.490   4.187  3.0770  1.4672 -0.5654
 3300SOL    HW221363   0.709   3.542   4.266  1.0060 -1.8994  0.0995
 3301SOL     OW21364   4.277   3.459   5.778 -0.2876 -0.1534 -0.9589
 3301SOL    HW121365   4.310   3.546   5.802  1.1083 -0.7754 -0.6082
 3301SOL    HW221366   4.260   3.427   5.867  0.8694 -1.0255 -1.0452
 3302SOL     OW21367   2.320   0.789   3.030  0.1046  1.0583 -0.2561
 3302SOL    HW121368   2.344   0.842   2.954  0.6746 -1.2183 -1.6235
 3302SOL    HW221369   2.226   0.779   3.017  0.0180 -0.3978  1.5517
 3303SOL     OW21370   0.157   2.516   1.850 -0.1437  0.5164  0.1187
 3303SOL    HW121371   0.239   2.501   1.803 -0.6476 -1.1287 -0.2249
 3303SOL    HW221372   0.161   2.436   1.902 -2.4010 -1.3094 -2.4616
 3304SOL     OW21373   4.152   3.409   4.556  0.4786 -0.2232 -0.1820
 3304SOL    HW121374   4.115   3.335   4.509  2.0103  0.4327 -2.4037
 3304SOL    HW221375   4.104   3.400   4.638  1.6710  1.0662  0.6689
 3305SOL     OW21376   1.803   3.811   9.050  0.3646  0.2839 -0.6989
 3305SOL    HW121377   1.752   3.800   8.970 -0.9763  0.3917  0.1430
 3305SOL    HW221378   1.892   3.803   9.016  0.1681  0.4982 -1.2723
 3306SOL     OW21379   3.979   0.706   8.049 -0.5043 -0.1938 -0.0086
 3306SOL    HW121380   4.028   0.684   8.128  0.6240  0.8395 -0.4279
 3306SOL    HW221381   3.986   0.621   8.005 -2.2199  0.0541 -0.7916
 3307SOL     OW21382   3.886   4.502  17.636  0.0977 -0.4504  0.3813
 3307SOL    HW121383   3.904   4.559  17.561  2.0783 -1.7256 -0.1318
 3307SOL    HW221384   3.963   4.534  17.684 -0.7690  1.2874  0.6065
 3308SOL     OW21385   3.897   1.996   3.861  0.1830  0.5538  0.3596
 3308SOL    HW121386   3.884   1.902   3.873  0.4580  0.3835 -0.7412
 3308SOL    HW221387   3.947   2.000   3.780 -0.4666 -0.4572 -0.0727
 3309SOL     OW21388   2.113   0.670   5.684  0.2435 -0.0692  0.2635
 3309SOL    HW121389   2.098   0.763   5.673  1.8196  0.3460  1.7060
 3309SOL    HW221390   2.026   0.639   5.658  1.2651 -2.2812 -0.5967
 3310SOL     OW21391   3.510   4.110   3.508  0.7229 -0.2512 -0.3620
 3310SOL    HW121392   3.502   4.150   3.422  1.2806 -0.5755 -0.5568
 3310SOL    HW221393   3.524   4.022   3.475  0.9514  0.2624 -1.6161
 3311SOL     OW21394   2.304   0.017   0.580 -0.3533  0.0659  0.0764
 3311SOL    HW121395   2.295   4.645   0.597  4.6164 -0.2479  0.9531
 3311SOL    HW221396   2.225   0.037   0.531 -0.0771 -0.6842 -0.6785
 3312SOL     OW21397   2.510   0.858  11.759 -0.3533 -0.0048  0.2274
 3312SOL    HW121398   2.571   0.811  11.815  0.0720  0.7666  0.4137
 3312SOL    HW221399   2.524   0.951  11.775  0.3300 -0.1983  0.7095
 3313SOL     OW21400   0.621   2.297   8.079 -0.0197 -0.2071 -0.0449
 3313SOL    HW121401   0.630   2.268   7.988  0.0228 -0.4851  0.0485
 3313SOL    HW221402   0.535   2.339   8.081 -0.0947 -0.4489  1.4651
 3314SOL     OW21403   2.123   2.210  15.697 -0.1880  0.3476 -0.7270
 3314SOL    HW121404   2.145   2.268  15.769  2.1008 -0.4923 -0.7338
 3314SOL    HW221405   2.125   2.124  15.739 -0.5328  0.8170  0.2426
 3315SOL     OW21406   0.714   3.121  15.497  0.1423  0.1187 -0.0960
 3315SOL    HW121407   0.707   3.027  15.512  0.3152  0.0663 -0.3352
 3315SOL    HW221408   0.760   3.151  15.575 -3.0929  4.0884  0.2952
 3316SOL     OW21409   1.319   2.623   4.435 -0.1976 -0.2573 -0.3954
 3316SOL    HW121410   1.376   2.586   4.367  1.2710  1.2777 -0.0093
 3316SOL    HW221411   1.306   2.711   4.398  1.3635 -0.5931 -1.7765
 3317SOL     OW21412   4.241   1.690   8.167  0.3997  0.2917 -0.3399
 3317SOL    HW121413   4.148   1.669   8.169  0.6048 -0.4877  0.9827
 3317SOL    HW221414   4.236   1.780   8.200 -1.3716  0.2707 -0.5601
 3318SOL     OW21415   4.530   2.519   5.259  0.1829 -0.0105  0.1260
 3318SOL    HW121416   4.605   2.488   5.311 -0.5707 -0.1763  1.1085
 3318SOL    HW221417   4.520   2.606   5.297 -0.0893  0.2719 -0.5805
 3319SOL     OW21418   3.863   4.622   1.419  0.1813 -0.2026 -0.1354
 3319SOL    HW121419   3.923   4.681   1.464 -0.8747  0.8854 -0.1715
 3319SOL    HW221420   3.784   4.674   1.414 -0.1702 -0.6408  0.8214
 3320SOL     OW21421   2.530   2.331   4.042 -0.8487  0.7265  0.5418
 3320SOL    HW121422   2.543   2.237   4.033  1.2827  1.0577  0.3473
 3320SOL    HW221423   2.604   2.357   4.095  1.2350 -0.3390 -1.8480
 3321SOL     OW21424   0.242   3.749   4.912  0.0289  0.7119  0.0319
 3321SOL    HW121425   0.208   3.733   4.824 -1.1174 -1.3209  0.8250
 3321SOL    HW221426   0.214   3.840   4.919  0.9488  1.0093 -0.0972
 3322SOL     OW21427   3.747   0.003  12.888 -0.1057 -0.2179 -0.8595
 3322SOL    HW121428   3.714   4.644  12.852  0.9251 -1.1193  0.2751
 3322SOL    HW221429   3.737   4.696  12.978 -1.2083  2.2331 -0.1588
 3323SOL     OW21430   1.101   2.686   7.005  0.1740 -0.2666  0.1295
 3323SOL    HW121431   1.154   2.755   7.044  1.7562 -1.6061  0.3370
 3323SOL    HW221432   1.164   2.615   7.020  0.0173 -0.0350  1.9557
 3324SOL     OW21433   3.668   2.798   4.224 -0.0606 -0.2568 -0.1201
 3324SOL    HW121434   3.652   2.711   4.188 -0.7801 -1.0996  2.2786
 3324SOL    HW221435   3.761   2.793   4.244 -0.4539  1.1155  1.9964
 3325SOL     OW21436   2.181   1.579   4.334  0.4556  0.1930  0.4906
 3325SOL    HW121437   2.178   1.518   4.261 -2.5334  1.0098 -0.0636
 3325SOL    HW221438   2.097   1.623   4.326  0.9739  1.1696  0.4230
 3326SOL     OW21439   4.350   3.739   0.035  0.0339  0.0922 -0.7617
 3326SOL    HW121440   4.386   3.651   0.021 -0.3936 -0.1221 -0.5123
 3326SOL    HW221441   4.427   3.782  17.691  0.9064  0.3325  1.3212
 3327SOL     OW21442   3.565   4.542   9.507  0.5615 -0.2291 -0.2195
 3327SOL    HW121443   3.483   4.518   9.551  0.5208  1.6897  0.7363
 3327SOL    HW221444   3.599   4.456   9.483  2.1556  0.4443 -0.3718
 3328SOL     OW21445   3.950   2.519   6.876 -0.5054  0.0797 -0.1828
 3328SOL    HW121446   3.941   2.450   6.811 -1.6152 -1.6767  1.8182
 3328SOL    HW221447   4.036   2.552   6.851 -0.1625 -1.9450 -1.6870
 3329SOL     OW21448   0.518   1.691   7.851 -0.4305 -0.2416  0.3503
 3329SOL    HW121449   0.559   1.729   7.773  0.6942 -0.7244  0.6981
 3329SOL    HW221450   0.595   1.666   7.902 -0.8334  1.1769  1.6538
 3330SOL     OW21451   1.920   2.242   0.525  0.3204 -0.1475  0.2702
 3330SOL    HW121452   1.829   2.212   0.527 -0.2784  1.5490 -1.7348
 3330SOL    HW221453   1.968   2.159   0.524 -0.1150 -0.4002  0.1475
 3331SOL     OW21454   0.520   0.506  11.659 -0.3858  0.2510 -0.3659
 3331SOL    HW121455   0.537   0.598  11.639 -1.2111  0.4320 -0.2360
 3331SOL    HW221456   0.483   0.513  11.747  0.6326 -1.8784  0.2345
 3332SOL     OW21457   4.538   4.640   0.077  0.1967  0.0956 -0.1957
 3332SOL    HW121458   4.467   4.632   0.013 -0.7315  1.1181  0.7141
 3332SOL    HW221459   4.603   4.697   0.036  0.8979 -0.2938  0.3758
 3333SOL     OW21460   1.589   2.902   5.948  0.9296  0.1072 -0.3028
 3333SOL    HW121461   1.549   2.954   6.017  2.5628 -0.2679  0.9430
 3333SOL    HW221462   1.589   2.960   5.873 -1.4877  0.4420 -0.0306
 3334SOL     OW21463   3.405   0.204  13.800  0.1455 -0.2764 -0.5075
 3334SOL    HW121464   3.419   0.284  13.749  3.9242  1.0331  2.5554
 3334SOL    HW221465   3.408   0.136  13.732  0.0702 -0.0155 -0.7705
 3335SOL     OW21466   4.151   3.861  10.185  0.2017 -0.7086  0.1193
 3335SOL    HW121467   4.137   3.772  10.217 -2.2081 -0.2417  0.3263
 3335SOL    HW221468   4.219   3.880  10.250 -1.8783  2.3118  1.4367
 3336SOL     OW21469   1.575   3.065  10.816 -0.1276  0.1938 -0.0924
 3336SOL    HW121470   1.523   3.133  10.772  1.2336  0.5690 -1.1112
 3336SOL    HW221471   1.505   3.001  10.829 -0.3608  0.2245 -1.1561
 3337SOL     OW21472   0.911   2.180   3.287  0.3032  0.2100  0.0535
 3337SOL    HW121473   0.872   2.260   3.324 -0.3591 -1.4758  2.9786
 3337SOL    HW221474   0.953   2.154   3.369  0.5120 -0.5907 -0.3081
 3338SOL     OW21475   1.745   1.391   3.441  0.5166 -0.0323 -0.1363
 3338SOL    HW121476   1.676   1.455   3.424  0.8258 -0.1996 -2.0205
 3338SOL    HW221477   1.710   1.330   3.507  1.7521 -2.1657 -1.4544
 3339SOL     OW21478   3.153   3.718  17.683  0.4369 -0.4145  0.3056
 3339SOL    HW121479   3.235   3.766  17.668  0.1500  0.0972  0.3676
 3339SOL    HW221480   3.117   3.784   0.049 -2.4184 -0.3458 -1.5241
 3340SOL     OW21481   2.884   0.371   5.990 -0.0932 -0.0535 -0.4407
 3340SOL    HW121482   2.795   0.353   6.021  0.6428 -1.9057  0.5867
 3340SOL    HW221483   2.920   0.403   6.073 -2.0790  2.3336 -0.4768
 3341SOL     OW21484   0.447   0.224  13.662 -0.0082  0.3899 -0.1025
 3341SOL    HW121485   0.476   0.307  13.625 -1.3608  0.5293 -0.8356
 3341SOL    HW221486   0.534   0.194  13.689  0.6437  2.5614  0.1688
 3342SOL     OW21487   1.725   1.867   5.357 -0.1007  0.0352  0.4106
 3342SOL    HW121488   1.727   1.849   5.263  1.2865  0.6144  0.3407
 3342SOL    HW221489   1.652   1.810   5.385 -0.0790  1.4703  3.3907
 3343SOL     OW21490   4.231   0.528   7.803  0.3788 -0.1556 -0.6095
 3343SOL    HW121491   4.294   0.571   7.745 -1.9436  1.0508 -2.2669
 3343SOL    HW221492   4.198   0.463   7.740 -0.7272 -0.7958  0.6477
 3344SOL     OW21493   0.342   1.891   5.704  0.1408 -0.1089  0.0408
 3344SOL    HW121494   0.331   1.853   5.791  2.1108  0.4855  0.5555
 3344SOL    HW221495   0.342   1.818   5.642 -0.0121  0.6840 -0.8928
 3345SOL     OW21496   0.520   1.212   3.250 -0.3772  0.1922  0.7947
 3345SOL    HW121497   0.574   1.178   3.179  1.9039  0.0244  2.5876
 3345SOL    HW221498   0.447   1.241   3.197 -0.1916  2.2946  1.6940
 3346SOL     OW21499   1.645   1.654   6.215 -0.4564  0.2040 -0.7489
 3346SOL    HW121500   1.678   1.661   6.305 -0.3831 -1.4515 -0.6588
 3346SOL    HW221501   1.598   1.573   6.199 -0.7137  0.2193 -0.0561
 3347SOL     OW21502   3.636   1.193   2.427 -0.1977  0.1334  0.5907
 3347SOL    HW121503   3.606   1.277   2.460 -0.9711 -0.7739  2.1541
 3347SOL    HW221504   3.729   1.204   2.449 -0.2207 -1.4434  1.4882
 3348SOL     OW21505   2.457   1.821  12.391 -0.4681 -0.2331  0.5045
 3348SOL    HW121506   2.486   1.846  12.304 -3.1934  0.8090 -0.1234
 3348SOL    HW221507   2.502   1.740  12.415  0.4785  0.3549  0.7200
 3349SOL     OW21508   1.831   1.447   0.913 -0.3936  0.2137  0.9310
 3349SOL    HW121509   1.893   1.504   0.957 -0.6134  0.1476  1.3278
 3349SOL    HW221510   1.785   1.515   0.864  0.1736 -0.5585 -0.6597
 3350SOL     OW21511   2.766   4.188   5.898  0.2708 -0.5856 -0.4168
 3350SOL    HW121512   2.821   4.117   5.862  1.6758  0.7369 -0.9119
 3350SOL    HW221513   2.739   4.142   5.977 -0.3274  0.5710  0.0321
 3351SOL     OW21514   1.377   2.432   8.442  0.3326 -0.0705 -0.5522
 3351SOL    HW121515   1.427   2.413   8.522 -0.2087 -1.0280 -0.4336
 3351SOL    HW221516   1.296   2.383   8.456  0.8035 -0.4007  1.0499
 3352SOL     OW21517   4.338   0.999  16.787 -0.0272  0.0556 -0.1804
 3352SOL    HW121518   4.386   0.941  16.728  0.7765  0.2247  0.3043
 3352SOL    HW221519   4.309   1.075  16.736  1.2256  1.9964  1.9903
 3353SOL     OW21520   4.097   2.085   3.380 -0.3807  0.0411  0.4332
 3353SOL    HW121521   4.175   2.113   3.428 -0.8202 -1.4228  1.9879
 3353SOL    HW221522   4.091   2.147   3.307 -1.0604 -0.2758  0.2247
 3354SOL     OW21523   3.310   3.154   3.969  0.4375 -0.2375  0.3678
 3354SOL    HW121524   3.382   3.101   4.003  0.7702 -0.1722 -0.2277
 3354SOL    HW221525   3.305   3.133   3.876  0.0262 -1.0429  0.5709
 3355SOL     OW21526   2.562   2.693  16.562  0.4736  0.1495  0.7497
 3355SOL    HW121527   2.474   2.720  16.537  0.0852 -2.9798 -1.2052
 3355SOL    HW221528   2.559   2.696  16.658 -1.2042 -1.3010  0.7377
 3356SOL     OW21529   2.739   3.799   4.496 -0.3438  0.2231  0.1320
 3356SOL    HW121530   2.832   3.775   4.502 -0.8405 -1.3367  1.5855
 3356SOL    HW221531   2.716   3.767   4.409  1.2490  2.4427 -1.0955
 3357SOL     OW21532   0.252   2.425   9.129  0.2539  0.1088 -0.5443
 3357SOL    HW121533   0.166   2.444   9.166  1.1227  1.2552  0.8710
 3357SOL    HW221534   0.297   2.410   9.213  0.1359 -2.9164 -1.0390
 3358SOL     OW21535   1.048   1.817   6.973 -0.2460 -0.0614  0.8805
 3358SOL    HW121536   1.051   1.774   7.059 -1.1121 -0.6228  0.6239
 3358SOL    HW221537   1.060   1.908   7.001  1.0167  0.3513 -1.0032
 3359SOL     OW21538   0.335   3.488   0.971  0.3986 -0.5747  0.6234
 3359SOL    HW121539   0.419   3.517   1.004 -0.3592  1.3416  0.8930
 3359SOL    HW221540   0.359   3.473   0.880  0.9437 -2.3135  1.0715
 3360SOL     OW21541   1.355   0.874   6.046  0.0039  0.0120  0.0591
 3360SOL    HW121542   1.403   0.798   6.012  0.0555  0.6935 -1.3793
 3360SOL    HW221543   1.309   0.839   6.122  1.2008 -1.2006  0.2133
 3361SOL     OW21544   3.937   3.638   6.186 -0.1469  0.5424 -0.3002
 3361SOL    HW121545   4.002   3.702   6.216 -1.2242  1.1672  0.6972
 3361SOL    HW221546   3.983   3.604   6.109  1.2916  1.2757  0.2304
 3362SOL     OW21547   3.174   1.887   8.294 -0.8073  0.6960 -0.1493
 3362SOL    HW121548   3.141   1.927   8.374 -0.3235  1.2311 -0.2159
 3362SOL    HW221549   3.103   1.830   8.266  2.1468 -3.1933  0.2633
 3363SOL     OW21550   2.188   2.685   0.602 -0.1528  0.4404 -0.1562
 3363SOL    HW121551   2.142   2.602   0.593  0.8095 -0.4349  2.8516
 3363SOL    HW221552   2.171   2.694   0.696 -2.6116 -2.4270 -0.3284
 3364SOL     OW21553   3.358   4.128  15.620 -0.2464 -0.0349  0.5156
 3364SOL    HW121554   3.274   4.173  15.629 -0.4669 -0.4120  0.3229
 3364SOL    HW221555   3.351   4.071  15.544  0.9102  0.6512 -0.1201
 3365SOL     OW21556   4.077   2.080   5.276  0.0542 -0.3518  0.2637
 3365SOL    HW121557   4.037   2.020   5.213  2.0096 -3.6825  2.1136
 3365SOL    HW221558   4.166   2.049   5.258  0.4822  0.9035  0.2728
 3366SOL     OW21559   3.353   1.052   9.424  0.0676  0.2770 -0.2836
 3366SOL    HW121560   3.360   1.005   9.508  2.1106  1.0079 -0.0259
 3366SOL    HW221561   3.345   0.977   9.366  0.0529 -1.6327  2.1830
 3367SOL     OW21562   0.186   0.761   7.932  0.0074 -0.2634  0.4462
 3367SOL    HW121563   0.181   0.701   7.858  0.8524  1.1701 -0.7791
 3367SOL    HW221564   0.100   0.781   7.969  0.5011  2.3737  0.2070
 3368SOL     OW21565   2.983   3.012  13.927  0.2043 -0.3066 -0.3067
 3368SOL    HW121566   2.990   2.916  13.918  2.8427  0.1025 -2.6784
 3368SOL    HW221567   2.921   3.016  14.000  2.2880  1.7953  1.3289
 3369SOL     OW21568   1.126   1.597   1.509  0.0536  0.0239 -0.7321
 3369SOL    HW121569   1.215   1.566   1.491  0.3768  0.2810  0.3732
 3369SOL    HW221570   1.091   1.593   1.420  0.3626  1.3522 -0.9093
 3370SOL     OW21571   3.143   0.563   1.022  0.5152 -0.4587  0.4377
 3370SOL    HW121572   3.116   0.527   0.938  0.1782  0.9822 -0.0768
 3370SOL    HW221573   3.076   0.523   1.076  0.8409  0.4722  1.5356
 3371SOL     OW21574   1.653   1.482   6.661  0.0663 -0.7322 -0.3060
 3371SOL    HW121575   1.673   1.539   6.735  0.1069  0.6369 -1.3566
 3371SOL    HW221576   1.670   1.396   6.697  0.1124 -0.3913  0.4844
 3372SOL     OW21577   1.772   3.076   8.313 -0.0600  0.0396 -0.2548
 3372SOL    HW121578   1.727   3.012   8.369  0.9291  0.3521  0.8939
 3372SOL    HW221579   1.713   3.077   8.237 -0.0044  1.9811 -0.2574
 3373SOL     OW21580   1.883   3.822   4.106 -0.1493 -0.5324  0.0412
 3373SOL    HW121581   1.864   3.732   4.133 -0.6909  0.1156  1.8265
 3373SOL    HW221582   1.856   3.872   4.183 -0.0360  2.1872 -1.6885
 3374SOL     OW21583   0.677   3.384   6.173 -0.3355  0.0462  0.2903
 3374SOL    HW121584   0.696   3.464   6.223  0.7379  0.7244 -1.1948
 3374SOL    HW221585   0.696   3.313   6.234 -0.2176  1.2994  1.7337
 3375SOL     OW21586   1.844   3.601  11.447 -0.2802  0.5690 -0.0679
 3375SOL    HW121587   1.879   3.584  11.360 -4.0741  3.4846 -2.1357
 3375SOL    HW221588   1.752   3.579  11.436 -0.1723 -0.0975  0.4036
 3376SOL     OW21589   2.753   0.089   3.333 -0.6488 -0.1918 -0.4416
 3376SOL    HW121590   2.816   0.056   3.396 -0.6692 -2.6538 -1.7046
 3376SOL    HW221591   2.791   0.173   3.303 -0.5835 -0.1009 -0.0985
 3377SOL     OW21592   2.143   1.596   3.050  0.3969  0.2959  0.6996
 3377SOL    HW121593   2.215   1.657   3.060  0.9889 -0.6855  2.4134
 3377SOL    HW221594   2.186   1.512   3.067  1.2832  0.3143 -1.4607
 3378SOL     OW21595   0.512   3.307  15.376  0.2121 -0.0904  0.4281
 3378SOL    HW121596   0.601   3.272  15.389  0.2603 -0.4615 -0.8690
 3378SOL    HW221597   0.464   3.245  15.430 -0.5511  0.7509  0.7105
 3379SOL     OW21598   2.274   0.438   3.700 -0.4472  0.0284 -0.0860
 3379SOL    HW121599   2.249   0.353   3.736 -1.9015  1.2122  1.6677
 3379SOL    HW221600   2.328   0.480   3.767 -2.3411 -0.6711  1.8645
 3380SOL     OW21601   2.858   4.437  10.030  0.1055 -0.1037  0.0669
 3380SOL    HW121602   2.802   4.443  10.108  0.2022 -1.5981  0.2600
 3380SOL    HW221603   2.907   4.356  10.041  1.8526  0.6377 -2.2566
 3381SOL     OW21604   3.712   0.233   9.096 -0.2663 -0.4501 -0.2723
 3381SOL    HW121605   3.675   0.272   9.017 -0.3529  1.0722  0.5216
 3381SOL    HW221606   3.655   0.157   9.105 -2.1014  0.9822  0.0956
 3382SOL     OW21607   3.121   1.067   0.709  0.2348  0.7208  0.0231
 3382SOL    HW121608   3.074   1.118   0.774  0.7243  3.6781 -1.9171
 3382SOL    HW221609   3.170   1.005   0.762 -1.1484 -3.0322 -3.1205
 3383SOL     OW21610   2.920   3.157   6.025 -0.3471  0.6085 -0.1581
 3383SOL    HW121611   3.007   3.121   6.007 -1.3250 -1.7961 -0.0576
 3383SOL    HW221612   2.882   3.076   6.059  2.4100 -0.1731  1.0590
 3384SOL     OW21613   1.335   4.379   6.811  0.1157 -0.2843  0.5274
 3384SOL    HW121614   1.424   4.358   6.838  0.0304  0.4449  1.3635
 3384SOL    HW221615   1.335   4.472   6.791 -2.5391 -0.3723  0.0720
 3385SOL     OW21616   3.317   4.105  11.585  0.3566  0.3593 -0.3397
 3385SOL    HW121617   3.232   4.060  11.582  0.4963  0.2288 -2.2573
 3385SOL    HW221618   3.289   4.196  11.598 -1.1382 -0.4290  1.9594
 3386SOL     OW21619   4.593   0.523  12.677  0.2921 -0.4449 -0.3862
 3386SOL    HW121620   4.538   0.571  12.615 -0.3471 -0.9967 -0.2469
 3386SOL    HW221621   4.628   0.596  12.728 -1.2658  0.2926 -0.3827
 3387SOL     OW21622   4.567   4.455   5.068  0.6278  0.3787  0.2991
 3387SOL    HW121623   4.572   4.545   5.035  1.7999  0.8017  1.6337
 3387SOL    HW221624   4.496   4.469   5.131  1.1991  2.0237  0.5725
 3388SOL     OW21625   3.983   2.011   2.549 -0.2550  0.0780 -0.1403
 3388SOL    HW121626   3.934   1.932   2.524 -1.6151  0.6250  0.8369
 3388SOL    HW221627   3.959   2.018   2.641  2.1656 -0.6389  0.5487
 3389SOL     OW21628   4.225   0.527   5.306 -0.2470 -0.8265 -0.6381
 3389SOL    HW121629   4.194   0.546   5.394  0.1517  0.2042 -0.7271
 3389SOL    HW221630   4.160   0.545   5.238  0.7021 -0.4549 -1.4444
 3390SOL     OW21631   1.920   0.203  13.876 -0.0505 -0.0851  0.1092
 3390SOL    HW121632   2.009   0.204  13.910 -0.4596  0.3242  1.1789
 3390SOL    HW221633   1.910   0.290  13.838  0.7672 -0.1722 -0.2906
 3391SOL     OW21634   2.854   0.730   9.161 -0.1671 -0.1875  0.1044
 3391SOL    HW121635   2.775   0.762   9.206 -2.0729 -1.9635 -1.9874
 3391SOL    HW221636   2.884   0.813   9.125 -1.6944 -0.3545 -1.5662
 3392SOL     OW21637   3.037   1.927   3.160  0.0607  0.7338 -0.0425
 3392SOL    HW121638   3.022   1.979   3.239 -0.4329  1.4211 -0.5999
 3392SOL    HW221639   3.079   1.844   3.183 -0.8607  1.2955  3.6979
 3393SOL     OW21640   1.766   1.646   3.663 -0.1743 -0.5907 -0.3797
 3393SOL    HW121641   1.829   1.594   3.714 -0.8558  0.6329  1.7247
 3393SOL    HW221642   1.821   1.703   3.610 -0.1284 -1.2534 -1.0415
 3394SOL     OW21643   0.038   3.948  10.702  0.0748  0.3398  0.2929
 3394SOL    HW121644   0.065   3.887  10.771  0.4514  0.0457 -0.1100
 3394SOL    HW221645   0.121   3.974  10.661  0.6118 -0.9512  0.5456
 3395SOL     OW21646   1.266   0.900   7.096  0.2891 -0.3409 -0.1017
 3395SOL    HW121647   1.190   0.957   7.083  0.4150 -0.6544 -2.1755
 3395SOL    HW221648   1.227   0.816   7.119  0.3686  0.3117  2.3597
 3396SOL     OW21649   2.293   3.749  10.799 -0.4817 -0.2970 -0.1400
 3396SOL    HW121650   2.311   3.831  10.845  1.3722 -0.1791 -1.0900
 3396SOL    HW221651   2.218   3.768  10.743  0.4850 -1.2437 -1.7383
 3397SOL     OW21652   4.516   2.967   1.184  0.5439 -0.2612 -0.0927
 3397SOL    HW121653   4.562   3.029   1.241 -0.1377 -0.5607  0.7697
 3397SOL    HW221654   4.425   2.987   1.205  0.9000  1.6580 -0.3822
 3398SOL     OW21655   4.202   0.497  17.275 -0.6191  0.2311  0.0053
 3398SOL    HW121656   4.174   0.536  17.358  0.5710  1.3952 -0.1364
 3398SOL    HW221657   4.236   0.419  17.319  2.0485  0.4462 -1.6477
 3399SOL     OW21658   4.696   2.367   2.638  0.1620  0.3461  0.1838
 3399SOL    HW121659   4.623   2.333   2.689  0.8367  1.5778  1.9404
 3399SOL    HW221660   4.669   2.458   2.627 -0.3162  0.0566 -1.0214
 3400SOL     OW21661   1.553   0.386   7.800 -0.1464  0.0596 -0.2464
 3400SOL    HW121662   1.522   0.461   7.750  0.4485  0.5987  0.2051
 3400SOL    HW221663   1.646   0.407   7.814  0.1095 -1.4604  0.3890
 3401SOL     OW21664   0.406   0.142   2.786 -0.4210  0.1310 -0.4132
 3401SOL    HW121665   0.432   0.193   2.863 -0.3869  0.9176 -0.9393
 3401SOL    HW221666   0.494   0.122   2.756 -1.0446 -1.3256 -1.2503
 3402SOL     OW21667   2.724   1.038   5.144  0.1667  0.4510 -0.5131
 3402SOL    HW121668   2.799   0.981   5.161  0.0125 -0.1205 -1.8005
 3402SOL    HW221669   2.700   1.010   5.056  0.2536 -0.7260 -0.1642
 3403SOL     OW21670   4.206   1.076  11.550 -0.0453  0.2847 -0.4698
 3403SOL    HW121671   4.173   1.123  11.474  1.5629 -1.5739 -2.3440
 3403SOL    HW221672   4.156   0.995  11.549 -1.0986  0.9436 -0.7724
 3404SOL     OW21673   1.564   4.403   4.221  0.0329 -0.0675 -0.3283
 3404SOL    HW121674   1.505   4.334   4.191  1.5273 -1.4288 -0.1478
 3404SOL    HW221675   1.623   4.433   4.152 -1.0966 -2.1060 -2.1750
 3405SOL     OW21676   2.795   2.156  15.693  0.0678 -0.2382 -0.0940
 3405SOL    HW121677   2.882   2.123  15.671 -0.1036 -0.3238 -0.6298
 3405SOL    HW221678   2.796   2.154  15.789  3.3273 -1.5466 -0.1711
 3406SOL     OW21679   0.909   3.641   1.219  0.4060 -0.5852  0.2047
 3406SOL    HW121680   0.870   3.646   1.131  2.0065  2.6042 -0.2919
 3406SOL    HW221681   0.831   3.662   1.271  0.5636  0.6220 -0.0489
 3407SOL     OW21682   2.801   1.866   4.905 -0.1930 -0.1141 -0.1146
 3407SOL    HW121683   2.811   1.948   4.954  3.9027 -0.7746  0.1706
 3407SOL    HW221684   2.832   1.800   4.967 -0.8552  0.5848  0.9571
 3408SOL     OW21685   0.326   1.279  10.807 -0.5096  0.6895  0.6863
 3408SOL    HW121686   0.259   1.302  10.871 -0.2524  2.1692  0.4163
 3408SOL    HW221687   0.282   1.316  10.730 -1.0148  1.4184  1.3279
 3409SOL     OW21688   1.410   3.424   5.381  0.1973  0.2561  1.0151
 3409SOL    HW121689   1.350   3.432   5.307  0.2190 -0.5628  0.9027
 3409SOL    HW221690   1.409   3.329   5.393 -0.1742  0.3300  1.5513
 3410SOL     OW21691   2.397   0.785   4.239 -0.1255  0.0843 -0.1587
 3410SOL    HW121692   2.410   0.692   4.257  1.2498  0.4554  0.7048
 3410SOL    HW221693   2.329   0.810   4.301 -1.1363 -2.1208 -0.3545
 3411SOL     OW21694   3.581   1.759  16.583  0.4679 -0.1250  0.1930
 3411SOL    HW121695   3.552   1.816  16.655 -0.9472  0.8407 -1.1406
 3411SOL    HW221696   3.674   1.783  16.577  0.4450  0.2016  1.0467
 3412SOL     OW21697   3.835   3.803  11.409  0.0991  0.3767  0.6528
 3412SOL    HW121698   3.833   3.863  11.335 -1.3662  0.8804  1.1122
 3412SOL    HW221699   3.740   3.799  11.417 -0.0291 -0.7865 -1.5281
 3413SOL     OW21700   1.687   2.430   3.649  0.2771  0.4147 -0.1112
 3413SOL    HW121701   1.662   2.396   3.563  0.8589  3.0623 -1.3358
 3413SOL    HW221702   1.713   2.345   3.684  0.3964  0.0752 -1.0067
 3414SOL     OW21703   0.042   2.903   1.042 -0.6696  0.8017  0.1035
 3414SOL    HW121704   4.687   2.880   1.092 -0.7770 -1.5626 -1.1114
 3414SOL    HW221705   0.038   2.997   1.058  0.8914  0.8492  0.2697
 3415SOL     OW21706   2.972   0.450   7.957  0.5672 -0.7191 -0.2963
 3415SOL    HW121707   3.019   0.470   8.038 -1.2093  0.4420  0.4595
 3415SOL    HW221708   3.024   0.373   7.934  0.1794 -0.9235 -0.5001
 3416SOL     OW21709   1.721   0.908  11.082  0.1544  0.8064  0.1252
 3416SOL    HW121710   1.743   0.856  11.005 -1.6730 -0.9088  0.7695
 3416SOL    HW221711   1.718   1.001  11.060 -0.7622  0.2556 -2.0198
 3417SOL     OW21712   3.969   3.663   2.115 -0.2411 -0.4467 -0.0580
 3417SOL    HW121713   3.903   3.696   2.176  1.0992  0.0604  1.1108
 3417SOL    HW221714   4.026   3.615   2.175  0.2774 -0.0839 -0.2615
 3418SOL     OW21715   3.157   4.577   4.562 -0.2307  0.2245 -0.1298
 3418SOL    HW121716   3.102   4.607   4.635 -0.6969  1.1319 -0.8402
 3418SOL    HW221717   3.241   4.622   4.572  0.1359 -0.4451 -0.2413
 3419SOL     OW21718   4.717   1.690   8.032  0.3478  0.0851  0.4834
 3419SOL    HW121719   0.067   1.751   8.044  0.8312 -0.6479  1.3071
 3419SOL    HW221720   0.045   1.610   8.048 -0.5134 -0.2641  1.5000
 3420SOL     OW21721   1.701   1.844   1.160 -0.0815 -0.0955  0.1739
 3420SOL    HW121722   1.673   1.865   1.071  0.3946  0.8955  0.2607
 3420SOL    HW221723   1.796   1.834   1.149 -0.1852 -0.5323 -0.3243
 3421SOL     OW21724   2.844   1.581  17.110 -0.0319 -0.9739  0.5372
 3421SOL    HW121725   2.795   1.523  17.052 -0.7876 -0.3750  0.5785
 3421SOL    HW221726   2.787   1.657  17.107  0.7814 -0.4396 -1.4541
 3422SOL     OW21727   4.337   2.496  17.025  0.1258  0.0647 -0.1543
 3422SOL    HW121728   4.298   2.583  17.023 -1.5999 -0.6868  0.7452
 3422SOL    HW221729   4.306   2.455  16.944 -1.4672 -0.8876  0.9489
 3423SOL     OW21730   1.380   4.125   5.774  0.7004 -0.2400  0.1274
 3423SOL    HW121731   1.291   4.090   5.780 -0.1411  1.6540 -1.5791
 3423SOL    HW221732   1.437   4.055   5.742  1.9481  0.7975  0.0631
 3424SOL     OW21733   4.578   4.719   5.308  0.1277 -0.1806  0.0152
 3424SOL    HW121734   4.618   4.715   5.221  1.1332  0.9519  0.4143
 3424SOL    HW221735   4.569   0.092   5.300  2.9571  0.2383  1.5052
 3425SOL     OW21736   1.189   4.486   3.328  0.6699  0.2119 -0.0228
 3425SOL    HW121737   1.139   4.564   3.301 -0.5313 -0.3921  0.4285
 3425SOL    HW221738   1.185   4.434   3.248 -2.1249 -0.0375  0.2639
 3426SOL     OW21739   2.446   3.913   9.585  0.1402  0.7017 -0.3009
 3426SOL    HW121740   2.533   3.895   9.548 -0.5652 -1.0050 -1.1169
 3426SOL    HW221741   2.428   4.001   9.552 -0.5485  0.4254 -0.6603
 3427SOL     OW21742   4.519   0.978  17.256 -0.2212  0.3319  0.2560
 3427SOL    HW121743   4.431   0.992  17.291 -1.0142 -1.3048 -1.0713
 3427SOL    HW221744   4.502   1.011  17.168  0.7537 -1.8251 -0.7338
 3428SOL     OW21745   3.293   4.174  17.584  0.3928 -0.1868  0.1504
 3428SOL    HW121746   3.297   4.129  17.668  0.1538  1.9533  1.3024
 3428SOL    HW221747   3.202   4.155  17.562 -0.1515 -0.0524  2.2957
 3429SOL     OW21748   3.464   0.827   1.304 -0.1360  0.6098  0.3417
 3429SOL    HW121749   3.447   0.844   1.396 -0.0700 -3.6719  1.1408
 3429SOL    HW221750   3.439   0.915   1.278  0.5621  1.6308  3.1830
 3430SOL     OW21751   3.794   1.504   1.052 -0.1895  0.1124 -0.6123
 3430SOL    HW121752   3.762   1.589   1.083  1.9058  0.8488 -0.5033
 3430SOL    HW221753   3.791   1.511   0.956  1.6660  3.1230 -0.4591
 3431SOL     OW21754   2.443   3.619   7.824  0.5822 -0.5065  0.0586
 3431SOL    HW121755   2.506   3.553   7.851  0.1105 -0.7244  0.6394
 3431SOL    HW221756   2.500   3.696   7.829  0.4818 -0.5085  1.1063
 3432SOL     OW21757   0.533   2.327   2.326  0.0450  0.5558  0.3394
 3432SOL    HW121758   0.585   2.396   2.365 -1.4064  0.8187  1.8327
 3432SOL    HW221759   0.443   2.361   2.323  0.6448  1.9905 -1.2029
 3433SOL     OW21760   0.208   2.642  11.587  0.1330 -0.6103  0.1548
 3433SOL    HW121761   0.120   2.606  11.595  0.1030 -0.3431  1.0719
 3433SOL    HW221762   0.190   2.717  11.530 -0.1507 -0.2969  0.6520
 3434SOL     OW21763   0.880   3.631   0.133 -0.1053  0.0741  0.1150
 3434SOL    HW121764   0.819   3.675   0.074 -0.8174 -0.9412  0.0882
 3434SOL    HW221765   0.876   3.541   0.102 -1.3942 -0.0318  0.5955
 3435SOL     OW21766   3.604   3.578   5.137 -0.0122 -0.1112 -0.3288
 3435SOL    HW121767   3.529   3.520   5.134  0.1861 -0.4055  0.2201
 3435SOL    HW221768   3.573   3.631   5.211  1.2341 -0.6138  0.5751
 3436SOL     OW21769   0.692   1.329   4.510  0.1531 -0.2109  0.0283
 3436SOL    HW121770   0.707   1.360   4.421 -0.8476  0.9412  0.2577
 3436SOL    HW221771   0.600   1.350   4.527  0.3805 -1.7791  3.1206
 3437SOL     OW21772   1.254   1.794  13.410 -0.2739 -0.1273 -0.0362
 3437SOL    HW121773   1.215   1.727  13.466  1.3765 -1.1386 -0.0957
 3437SOL    HW221774   1.200   1.872  13.424 -0.0032 -0.2054  1.4786
 3438SOL     OW21775   4.498   2.521   6.104 -0.4286 -0.0873  0.2159
 3438SOL    HW121776   4.403   2.506   6.105 -0.6879  1.5078  1.5349
 3438SOL    HW221777   4.533   2.469   6.176 -0.1681  3.0586  2.3994
 3439SOL     OW21778   0.212   4.607   5.190 -0.8632 -0.7558  0.0526
 3439SOL    HW121779   0.161   4.573   5.262 -0.7148 -0.4914  0.2816
 3439SOL    HW221780   0.222   4.697   5.222 -1.4658 -0.8396  0.4593
 3440SOL     OW21781   3.341   3.317   7.548 -0.4006 -0.3912 -0.0893
 3440SOL    HW121782   3.295   3.397   7.523  2.2389  0.7354 -1.3724
 3440SOL    HW221783   3.421   3.337   7.500 -0.2158 -2.9938 -0.9073
 3441SOL     OW21784   2.471   3.081   6.921  1.1513 -0.6136 -0.2394
 3441SOL    HW121785   2.390   3.032   6.932  0.4569  0.8520  1.1093
 3441SOL    HW221786   2.472   3.148   6.989 -1.3220 -1.1435  0.2875
 3442SOL     OW21787   3.185   4.537   7.179 -0.1157  0.4338  0.0918
 3442SOL    HW121788   3.109   4.560   7.232 -1.3766 -2.7734 -0.3097
 3442SOL    HW221789   3.237   4.615   7.161  3.8898 -1.8791  1.5403
 3443SOL     OW21790   0.112   3.989   6.916 -0.4360  0.4921 -0.2132
 3443SOL    HW121791   0.030   4.038   6.915  0.2284  1.5816 -1.9726
 3443SOL    HW221792   0.149   4.047   6.849  2.3050 -0.7968  0.1822
 3444SOL     OW21793   2.963   0.927   3.165 -0.2682 -0.5707 -0.0225
 3444SOL    HW121794   2.919   1.008   3.141  0.3119  0.1706  1.4077
 3444SOL    HW221795   3.011   0.913   3.083 -1.0999 -0.9542 -0.4445
 3445SOL     OW21796   0.434   0.160   7.382  0.6019  0.2084  0.3237
 3445SOL    HW121797   0.347   0.189   7.407 -0.3517 -0.9644 -1.6523
 3445SOL    HW221798   0.486   0.238   7.403  1.5275 -0.1684 -0.5349
 3446SOL     OW21799   1.320   2.604  11.870 -0.6240 -0.4589  0.2276
 3446SOL    HW121800   1.399   2.582  11.919 -0.3192  0.8575  0.3259
 3446SOL    HW221801   1.279   2.518  11.864 -1.2702 -0.1143 -0.2510
 3447SOL     OW21802   0.298   3.384   2.055  0.1493 -0.1335 -0.0839
 3447SOL    HW121803   0.254   3.356   1.975 -2.7268  1.5846  0.9326
 3447SOL    HW221804   0.265   3.472   2.070  2.9528  0.6258  1.7989
 3448SOL     OW21805   2.917   1.846   8.684 -0.3440  0.1375 -0.5132
 3448SOL    HW121806   2.824   1.856   8.667 -0.3440  0.1672 -0.4953
 3448SOL    HW221807   2.930   1.752   8.695  2.7470  0.7052  0.7084
 3449SOL     OW21808   4.029   3.235   9.323 -0.0770  0.0988  0.3327
 3449SOL    HW121809   3.971   3.311   9.324 -0.0404  0.0942  1.8911
 3449SOL    HW221810   4.104   3.283   9.359  0.5454 -0.4387 -0.2625
 3450SOL     OW21811   2.139   0.339  14.647 -0.0766 -0.5507  0.1620
 3450SOL    HW121812   2.085   0.366  14.573  0.0908  0.9956  0.6056
 3450SOL    HW221813   2.078   0.344  14.721 -1.9881  1.9292 -1.5615
 3451SOL     OW21814   2.833   4.497   7.977 -0.4420 -0.4711  0.3056
 3451SOL    HW121815   2.904   4.562   7.974 -3.4387  2.7701 -0.9657
 3451SOL    HW221816   2.874   4.439   8.041 -1.5339 -0.1236  1.3200
 3452SOL     OW21817   3.463   3.431   3.467 -0.8559  0.3931  0.6609
 3452SOL    HW121818   3.455   3.513   3.420 -1.2163 -0.4585 -0.7633
 3452SOL    HW221819   3.496   3.372   3.399 -1.7630 -0.1958  0.7320
 3453SOL     OW21820   2.183   3.930  15.172 -0.2654  0.2356  0.0662
 3453SOL    HW121821   2.113   3.911  15.110 -0.4271  0.0433  0.3076
 3453SOL    HW221822   2.164   4.024  15.180  0.0017  0.3171 -0.2883
 3454SOL     OW21823   3.597   0.442   7.737 -0.4260  0.3906 -0.1120
 3454SOL    HW121824   3.547   0.509   7.691 -0.6192  0.5432  0.3217
 3454SOL    HW221825   3.584   0.466   7.828  0.3956  1.0856 -0.1759
 3455SOL     OW21826   1.190   0.975   4.515  0.3020 -0.3908 -0.2157
 3455SOL    HW121827   1.162   1.065   4.532  0.7169 -0.1444 -0.8577
 3455SOL    HW221828   1.133   0.952   4.442  0.0636  2.7285 -1.0457
 3456SOL     OW21829   3.334   1.157   3.249 -0.3805 -0.4754  0.2371
 3456SOL    HW121830   3.267   1.188   3.189 -1.2837 -2.4619  0.2308
 3456SOL    HW221831   3.317   1.063   3.247 -2.9553  0.0560 -2.4186
 3457SOL     OW21832   1.666   2.443  12.721  0.2925  0.2026 -0.3032
 3457SOL    HW121833   1.578   2.432  12.756  0.7177 -0.2911  0.6087
 3457SOL    HW221834   1.717   2.425  12.800  1.4532  0.1600 -1.0565
 3458SOL     OW21835   4.124   0.945   4.534 -0.3297 -0.0799 -0.3610
 3458SOL    HW121836   4.139   1.025   4.482 -0.0351  0.0860 -0.0207
 3458SOL    HW221837   4.097   0.882   4.467  0.7808  0.4454 -1.3000
 3459SOL     OW21838   3.593   0.210   3.313 -0.6031  0.3414 -0.0688
 3459SOL    HW121839   3.618   0.302   3.306  1.7919 -0.1910  1.3627
 3459SOL    HW221840   3.501   0.208   3.340 -1.0508  1.8211 -1.5024
 3460SOL     OW21841   2.794   3.241   5.695 -0.1624 -0.5900 -0.0998
 3460SOL    HW121842   2.888   3.258   5.701 -0.4018  0.6336  0.1253
 3460SOL    HW221843   2.763   3.327   5.668 -2.0826 -1.3342 -0.2643
 3461SOL     OW21844   3.427   3.141   2.185 -0.5588 -0.3573 -0.4698
 3461SOL    HW121845   3.386   3.150   2.099  1.3798  1.6313 -1.1782
 3461SOL    HW221846   3.512   3.176   2.157 -1.4143  1.2298 -1.1076
 3462SOL     OW21847   2.494   1.522   7.465  0.0830  0.2612 -0.5525
 3462SOL    HW121848   2.464   1.468   7.539 -0.9367 -2.4023 -2.9286
 3462SOL    HW221849   2.484   1.613   7.495 -1.9454 -0.0752 -0.2091
 3463SOL     OW21850   4.426   2.018   9.350 -0.2126  0.2390  0.5015
 3463SOL    HW121851   4.377   1.940   9.323  2.9407 -0.8524 -1.9915
 3463SOL    HW221852   4.385   2.035   9.435 -0.8159 -0.6592  0.3969
 3464SOL     OW21853   0.535   0.693   3.752 -0.0951  0.6282 -0.4049
 3464SOL    HW121854   0.619   0.669   3.714 -0.6967 -0.3474 -1.1017
 3464SOL    HW221855   0.511   0.779   3.717 -0.5439  0.2671 -0.9753
 3465SOL     OW21856   4.718   4.535   2.007  0.3507  0.3747 -0.3270
 3465SOL    HW121857   4.623   4.545   2.008  0.3991  0.6127  1.7505
 3465SOL    HW221858   0.013   4.513   1.915  2.1066 -1.2865  0.3948
 3466SOL     OW21859   3.541   3.521  14.244 -0.0467  0.2563 -0.1692
 3466SOL    HW121860   3.582   3.504  14.329 -0.2785  0.2842 -0.0515
 3466SOL    HW221861   3.614   3.507  14.185 -0.1918  1.5530 -0.6562
 3467SOL     OW21862   3.417   0.974  10.160 -0.4768  0.2247 -0.2346
 3467SOL    HW121863   3.329   0.971  10.196  0.5476  0.6301  2.2743
 3467SOL    HW221864   3.438   0.881  10.147 -0.7813  0.1340 -0.0749
 3468SOL     OW21865   1.110   2.842  16.828  0.2477  0.2168 -0.0275
 3468SOL    HW121866   1.094   2.829  16.735 -1.4047 -0.0799  0.2978
 3468SOL    HW221867   1.164   2.763  16.836 -0.8488 -0.9804 -4.5247
 3469SOL     OW21868   0.148   4.280   3.545 -0.3387  0.0599  0.2896
 3469SOL    HW121869   0.201   4.270   3.466 -0.7433  0.6233 -0.0533
 3469SOL    HW221870   0.184   4.202   3.588 -0.1959  0.2867  0.5766
 3470SOL     OW21871   3.162   2.150   9.143  0.2790 -0.3864  0.3726
 3470SOL    HW121872   3.106   2.112   9.076 -1.0395 -0.7529  1.6765
 3470SOL    HW221873   3.109   2.220   9.184 -1.4773 -0.3845 -1.9086
 3471SOL     OW21874   3.839   4.308   4.954  0.3916 -0.0379 -0.3506
 3471SOL    HW121875   3.867   4.288   4.864  0.6067 -0.6216 -0.1488
 3471SOL    HW221876   3.798   4.224   4.975 -0.6733  0.5009 -0.2740
 3472SOL     OW21877   4.134   2.762   0.993  0.5578  0.0667 -0.9036
 3472SOL    HW121878   4.106   2.828   1.057  1.6812  0.1497 -0.4882
 3472SOL    HW221879   4.147   2.817   0.916 -1.7041  0.6824 -0.8321
 3473SOL     OW21880   4.142   1.005   5.871  0.6141  0.1532 -0.7004
 3473SOL    HW121881   4.225   1.026   5.826  0.6713  1.4345 -0.0020
 3473SOL    HW221882   4.179   0.977   5.955  1.9918  0.7888 -1.0928
 3474SOL     OW21883   0.159   2.146  16.433  0.3520 -0.3245 -0.4349
 3474SOL    HW121884   0.089   2.101  16.385  1.6884 -0.8521 -1.8820
 3474SOL    HW221885   0.180   2.218  16.373  1.1635  0.3877  0.7039
 3475SOL     OW21886   4.700   4.011   2.903 -0.6742  0.0520 -0.0838
 3475SOL    HW121887   4.608   4.018   2.878 -0.3884  2.3000 -0.5308
 3475SOL    HW221888   0.026   4.035   2.824 -0.6331  1.5724  0.4060
 3476SOL     OW21889   3.532   3.733   4.924 -0.1523 -0.0570  0.0973
 3476SOL    HW121890   3.568   3.688   5.001 -0.5195 -1.4999 -0.5828
 3476SOL    HW221891   3.538   3.670   4.852 -1.1894 -0.6382  0.5341
 3477SOL     OW21892   0.209   3.694  14.300 -0.0905 -0.3760 -0.0926
 3477SOL    HW121893   0.181   3.642  14.225 -2.1067  0.3915  0.1434
 3477SOL    HW221894   0.186   3.633  14.370 -1.0122 -0.4546 -0.4701
 3478SOL     OW21895   1.058   1.341   5.549 -0.7276 -0.0212 -0.3581
 3478SOL    HW121896   0.994   1.345   5.620  1.4134  0.4294  1.5446
 3478SOL    HW221897   1.023   1.262   5.507 -0.9335 -0.9102  1.4966
 3479SOL     OW21898   4.525   4.443  17.262  0.4619  0.6026 -1.0049
 3479SOL    HW121899   4.431   4.461  17.259  0.5810  1.3754 -0.2390
 3479SOL    HW221900   4.544   4.363  17.214 -1.2990 -1.2496  1.3883
 3480SOL     OW21901   1.829   2.090  17.671  0.1634  0.0960 -0.3270
 3480SOL    HW121902   1.765   2.161  17.671 -0.6848 -0.6475  0.9592
 3480SOL    HW221903   1.768   2.020   0.001 -0.0030  0.3336 -0.0378
 3481SOL     OW21904   1.730   0.737   8.571 -0.3340 -1.0796 -0.0151
 3481SOL    HW121905   1.651   0.780   8.605 -1.1768 -3.4861  1.0600
 3481SOL    HW221906   1.692   0.649   8.569 -4.2141  0.6128 -2.2945
 3482SOL     OW21907   0.753   3.528  11.529 -0.1032 -0.2987  0.8476
 3482SOL    HW121908   0.728   3.552  11.618  0.0706  1.4244  0.4360
 3482SOL    HW221909   0.666   3.536  11.488 -0.6723 -1.0164  1.9418
 3483SOL     OW21910   1.966   3.035  12.475  0.1528 -0.2789  0.6270
 3483SOL    HW121911   2.060   3.023  12.464  0.0275  0.3127 -1.1253
 3483SOL    HW221912   1.962   3.129  12.456 -0.6727 -0.5152 -0.3699
 3484SOL     OW21913   2.573   0.267  10.272  0.3814  0.7648 -0.3259
 3484SOL    HW121914   2.532   0.197  10.221  1.1596 -0.7553  1.1641
 3484SOL    HW221915   2.629   0.210  10.324 -1.2679 -1.9335 -1.4979
 3485SOL     OW21916   1.007   2.749   8.829 -0.0788 -0.2974  0.6109
 3485SOL    HW121917   1.078   2.799   8.789  0.0578 -3.0638 -2.6417
 3485SOL    HW221918   0.953   2.820   8.863 -0.4208 -0.6814  0.8694
 3486SOL     OW21919   1.007   3.181   5.447  1.1114  0.8454  0.2125
 3486SOL    HW121920   1.034   3.241   5.516 -2.5261  1.2596  1.2761
 3486SOL    HW221921   1.084   3.124   5.443  0.2115 -0.4423  1.3399
 3487SOL     OW21922   2.876   3.633   8.446  0.1198 -0.4982  0.0137
 3487SOL    HW121923   2.867   3.565   8.513 -0.8339 -1.5173 -1.1543
 3487SOL    HW221924   2.853   3.717   8.486 -1.4113 -0.6796 -0.4700
 3488SOL     OW21925   0.637   4.446   8.130 -0.4350 -0.0343 -0.3339
 3488SOL    HW121926   0.694   4.473   8.201  2.8579 -0.0040 -2.9787
 3488SOL    HW221927   0.553   4.481   8.159 -0.4917 -0.1121 -0.4051
 3489SOL     OW21928   1.555   3.412  11.645  0.2312 -0.3890  0.1624
 3489SOL    HW121929   1.512   3.440  11.726  2.5902  1.0490  0.9000
 3489SOL    HW221930   1.553   3.317  11.657 -0.6220 -0.3010  0.7558
 3490SOL     OW21931   2.522   3.917  12.909  0.4844 -0.4265 -0.4294
 3490SOL    HW121932   2.597   3.888  12.857  2.3023  0.4378  1.7270
 3490SOL    HW221933   2.450   3.869  12.866  0.7349 -2.5338  1.4967
 3491SOL     OW21934   3.938   3.976   5.275  0.0160  0.4360 -0.8434
 3491SOL    HW121935   3.944   3.959   5.181 -1.3129 -2.5855 -0.3583
 3491SOL    HW221936   4.006   3.921   5.313  0.3914  0.7292 -1.0793
 3492SOL     OW21937   4.014   0.635   7.058 -0.5642 -0.1708  0.7372
 3492SOL    HW121938   4.094   0.658   7.010  0.0847 -0.7254  1.5548
 3492SOL    HW221939   4.046   0.586   7.133 -0.4721  3.3062  2.9679
 3493SOL     OW21940   1.737   3.462  16.919  0.5694  0.2451  0.5402
 3493SOL    HW121941   1.778   3.469  17.005  1.1998 -2.1910  0.4183
 3493SOL    HW221942   1.674   3.391  16.934  1.4451  0.1810  3.7829
 3494SOL     OW21943   3.490   3.003   9.713  0.0995  0.1996 -1.1477
 3494SOL    HW121944   3.523   3.088   9.685  0.2782  0.5142  0.0193
 3494SOL    HW221945   3.406   2.992   9.668 -0.2282  1.1436 -0.7578
 3495SOL     OW21946   2.456   3.638   5.140  0.0808 -0.1647 -0.7063
 3495SOL    HW121947   2.377   3.590   5.114 -3.3234  3.8559  2.0035
 3495SOL    HW221948   2.516   3.611   5.071 -0.4145 -0.2042 -1.1199
 3496SOL     OW21949   0.087   1.334   9.499 -0.3132 -0.7855  0.5698
 3496SOL    HW121950   0.005   1.286   9.495 -0.9948  0.4392  0.0155
 3496SOL    HW221951   0.056   1.421   9.473  2.5766 -0.0995 -0.6483
 3497SOL     OW21952   4.523   3.990   9.596  0.3627 -0.4532  0.2811
 3497SOL    HW121953   4.573   3.932   9.653  0.2852 -0.0380  0.7796
 3497SOL    HW221954   4.558   3.967   9.510 -0.0607 -0.3275  0.0742
 3498SOL     OW21955   2.602   2.873   4.530  0.2540 -0.1060  0.1913
 3498SOL    HW121956   2.635   2.911   4.611  3.2302 -1.9013 -0.2041
 3498SOL    HW221957   2.644   2.787   4.532  0.2423 -0.0837  1.5377
 3499SOL     OW21958   0.965   4.222   5.102  0.2140  0.0186 -0.5879
 3499SOL    HW121959   0.884   4.259   5.138  2.0933  1.3164  2.3207
 3499SOL    HW221960   0.998   4.298   5.053  1.3334 -0.1415 -0.0752
 3500SOL     OW21961   1.497   3.797   9.392 -0.0370  0.2772 -0.3551
 3500SOL    HW121962   1.439   3.808   9.467  1.3801  0.3265  0.7248
 3500SOL    HW221963   1.576   3.762   9.433  0.9318  2.3673 -0.4657
 3501SOL     OW21964   0.311   0.486   0.748  0.6957 -0.0810 -0.1283
 3501SOL    HW121965   0.401   0.518   0.739  1.0326 -0.4482  1.9657
 3501SOL    HW221966   0.321   0.424   0.820  2.5183  0.6496  0.2502
 3502SOL     OW21967   3.573   2.279   4.180  0.1971  0.3141  0.4567
 3502SOL    HW121968   3.640   2.214   4.156  1.4381  1.5986  0.4762
 3502SOL    HW221969   3.625   2.326   4.246  0.4684  0.5984  0.0405
 3503SOL     OW21970   3.516   3.472  12.904 -0.4327 -0.5366  0.1467
 3503SOL    HW121971   3.456   3.445  12.974  1.1705 -0.4643  1.5442
 3503SOL    HW221972   3.492   3.413  12.832 -2.6221  0.6263 -0.0912
 3504SOL     OW21973   0.171   0.237   4.903 -0.5384  0.8253  0.5586
 3504SOL    HW121974   0.210   0.305   4.959  1.2727  1.9288 -2.0376
 3504SOL    HW221975   0.138   0.281   4.825 -1.5966  0.3320  0.7316
 3505SOL     OW21976   1.670   1.170   3.598  0.5715 -0.2274 -0.1176
 3505SOL    HW121977   1.749   1.198   3.644  1.5517 -0.5838 -1.5917
 3505SOL    HW221978   1.648   1.086   3.638  1.8236  0.1608  1.4039
 3506SOL     OW21979   0.542   2.608  13.950 -0.1498 -0.1752 -0.0136
 3506SOL    HW121980   0.575   2.697  13.938 -0.6933  0.2539  1.7198
 3506SOL    HW221981   0.585   2.600  14.034  3.8823 -0.4344 -2.1067
 3507SOL     OW21982   2.058   0.379   4.861  0.3497 -0.6490 -0.3786
 3507SOL    HW121983   2.052   0.331   4.778  1.6911 -0.3338 -0.6605
 3507SOL    HW221984   2.146   0.415   4.854 -0.3634  1.4184  1.3496
 3508SOL     OW21985   0.860   4.074   2.732  0.0660 -0.4458  0.2954
 3508SOL    HW121986   0.862   4.070   2.636 -2.5946  3.3055  0.0448
 3508SOL    HW221987   0.888   3.985   2.753 -0.2505 -0.3681  1.0488
 3509SOL     OW21988   0.165   3.168   7.844 -0.5086  0.8304  0.3006
 3509SOL    HW121989   0.204   3.161   7.757 -1.4056  3.1792 -0.2919
 3509SOL    HW221990   0.162   3.078   7.877  2.4663  0.0776 -1.5166
 3510SOL     OW21991   0.636   4.221   2.785  0.0513  0.6537  0.1299
 3510SOL    HW121992   0.571   4.156   2.809 -0.4597  1.1473  0.0999
 3510SOL    HW221993   0.716   4.172   2.765 -0.5623  0.2898 -1.4443
 3511SOL     OW21994   4.366   1.421   4.905 -0.3304 -0.3753 -0.1435
 3511SOL    HW121995   4.458   1.425   4.877  0.0466 -0.0585  1.1292
 3511SOL    HW221996   4.343   1.508   4.938  1.3030 -0.1024  0.3138
 3512SOL     OW21997   2.995   4.621   7.341  0.2304 -0.0214 -0.2053
 3512SOL    HW121998   2.943   4.700   7.338  0.0377 -0.0665  1.7620
 3512SOL    HW221999   2.952   4.582   7.418  0.4884  0.1244  0.0135
 3513SOL     OW22000   1.949   4.476  15.253 -0.3039  0.0295 -0.3007
 3513SOL    HW122001   2.022   4.488  15.315  0.3955 -0.9707 -0.9240
 3513SOL    HW222002   1.978   4.540  15.188  0.8782  0.6451  0.8366
 3514SOL     OW22003   2.649   2.290  16.436 -0.2178 -0.7900  0.0054
 3514SOL    HW122004   2.651   2.382  16.412 -2.2807 -1.2093 -1.7607
 3514SOL    HW222005   2.556   2.271  16.421 -1.1305  3.3596  0.5707
 3515SOL     OW22006   0.698   4.238   5.294 -0.2719 -0.1016  0.0596
 3515SOL    HW122007   0.614   4.251   5.339  0.0745  0.0831  0.6475
 3515SOL    HW222008   0.672   4.154   5.256 -0.0501 -1.2847  2.4835
 3516SOL     OW22009   4.711   3.634  15.890 -0.1911  0.0032 -0.1798
 3516SOL    HW122010   4.712   3.546  15.853  1.9576 -0.2903  0.5705
 3516SOL    HW222011   0.029   3.685  15.821 -0.1739  1.4311  0.8857
 3517SOL     OW22012   1.773   3.394   3.102 -0.7506 -0.5676  0.3740
 3517SOL    HW122013   1.708   3.350   3.158 -1.3354  0.2224  0.3189
 3517SOL    HW222014   1.751   3.485   3.122  0.9922 -0.2258  0.6735
 3518SOL     OW22015   3.865   0.191   3.371  0.0291 -0.4961 -0.2748
 3518SOL    HW122016   3.776   0.216   3.350  0.1092 -1.0441 -1.2732
 3518SOL    HW222017   3.863   0.096   3.383  2.8206 -0.5412  0.0162
 3519SOL     OW22018   0.823   2.486  17.059 -0.0995 -0.5848  0.7471
 3519SOL    HW122019   0.806   2.581  17.056  2.3308 -0.1512  1.3432
 3519SOL    HW222020   0.836   2.479  17.153 -0.0631  1.9831  0.9488
 3520SOL     OW22021   0.041   1.223   3.715 -0.4018 -0.0119 -0.2085
 3520SOL    HW122022   0.066   1.303   3.668  1.7156 -0.2612  0.5490
 3520SOL    HW222023   4.682   1.247   3.760 -0.1022  2.3188 -0.8769
 3521SOL     OW22024   2.427   1.869   5.835  0.0514 -0.0317 -0.4083
 3521SOL    HW122025   2.416   1.808   5.909 -0.2572 -0.8757 -1.1477
 3521SOL    HW222026   2.332   1.875   5.825 -0.0227 -1.3653 -0.5504
 3522SOL     OW22027   4.256   3.365   6.431 -0.4512 -0.2974  0.2570
 3522SOL    HW122028   4.227   3.329   6.515 -0.0978  0.1867  0.5802
 3522SOL    HW222029   4.219   3.453   6.430  0.9536  0.2788  0.1785
 3523SOL     OW22030   0.778   0.385  15.380  0.1883  0.0604  0.2401
 3523SOL    HW122031   0.857   0.383  15.434  0.2678  0.0450  0.1217
 3523SOL    HW222032   0.822   0.388  15.296 -1.0756  0.6022 -0.4016
 3524SOL     OW22033   1.461   4.286   0.415  0.5759  0.0789  0.0004
 3524SOL    HW122034   1.510   4.254   0.490 -0.1813  1.6317  1.1846
 3524SOL    HW222035   1.523   4.343   0.369  0.9081  0.9263  1.5118
 3525SOL     OW22036   0.162   0.504   2.253 -0.2185  0.2820  0.0265
 3525SOL    HW122037   0.239   0.454   2.226  0.1043  0.8415 -0.0884
 3525SOL    HW222038   0.189   0.521   2.343 -0.4802  0.1044  0.1396
 3526SOL     OW22039   4.012   2.156   2.783  0.1411  0.3900 -0.3207
 3526SOL    HW122040   4.065   2.179   2.708  0.1087 -3.7489 -1.6318
 3526SOL    HW222041   4.079   2.141   2.850  0.8687  2.9771 -0.4862
 3527SOL     OW22042   3.069   0.308   9.200 -0.2536  0.6125 -0.1388
 3527SOL    HW122043   3.032   0.262   9.275  0.8760 -0.5460 -0.2978
 3527SOL    HW222044   3.060   0.398   9.234 -4.3026 -1.0269  3.1521
 3528SOL     OW22045   1.338   0.195  16.302 -0.3744  0.1243  0.2112
 3528SOL    HW122046   1.348   0.276  16.253  0.1061 -0.5955 -0.8947
 3528SOL    HW222047   1.331   0.139  16.224  0.7799 -0.3207  0.4239
 3529SOL     OW22048   3.066   3.974   5.639 -0.2421 -0.3124 -0.0486
 3529SOL    HW122049   3.113   3.901   5.598 -1.7629 -1.4205  0.1649
 3529SOL    HW222050   3.061   4.041   5.571  1.4553 -0.0608  0.0681
 3530SOL     OW22051   4.396   2.923  11.248 -0.1252 -0.1249  0.3607
 3530SOL    HW122052   4.370   2.904  11.158 -0.6626  2.8598 -0.1209
 3530SOL    HW222053   4.457   2.997  11.241 -2.0496  1.3375 -0.9731
 3531SOL     OW22054   3.701   4.001   4.975 -0.7531  0.1396 -0.6206
 3531SOL    HW122055   3.646   3.932   4.937  1.0693 -2.1770  0.9657
 3531SOL    HW222056   3.779   3.949   4.993 -0.3254  1.3575  1.0326
 3532SOL     OW22057   2.579   0.749   3.743  0.2427 -0.3606  0.0024
 3532SOL    HW122058   2.528   0.669   3.760 -0.8237  0.4835  0.7798
 3532SOL    HW222059   2.651   0.723   3.800 -0.8855 -0.6678  1.2836
 3533SOL     OW22060   4.105   0.047  10.208  1.1001  0.2692  0.6210
 3533SOL    HW122061   4.174   0.106  10.237  3.3042 -0.8151 -2.3637
 3533SOL    HW222062   4.080   0.013  10.294  1.7067 -0.9189  0.3307
 3534SOL     OW22063   2.630   1.229   8.382  0.0289  0.0602  0.2459
 3534SOL    HW122064   2.595   1.198   8.466  1.2593  1.4496  1.2793
 3534SOL    HW222065   2.587   1.314   8.380 -2.8113 -1.3574  0.5731
 3535SOL     OW22066   4.360   0.579   4.192 -0.3931  0.6462 -0.0973
 3535SOL    HW122067   4.359   0.494   4.148 -1.3092  0.4915  0.2268
 3535SOL    HW222068   4.454   0.599   4.185 -0.8944  3.3582  0.7809
 3536SOL     OW22069   1.165   3.081   3.088  0.1409  0.2741  0.0335
 3536SOL    HW122070   1.206   2.999   3.058 -0.6991  0.0104 -0.4102
 3536SOL    HW222071   1.201   3.142   3.024  3.0660  0.2307  1.6330
 3537SOL     OW22072   0.477   3.958  16.790 -0.2156  0.1988 -0.0549
 3537SOL    HW122073   0.570   3.947  16.810 -0.6889 -0.1454  1.9124
 3537SOL    HW222074   0.438   3.913  16.864 -1.7108  1.1715 -0.2540
 3538SOL     OW22075   3.032   4.264   6.667 -0.1571  0.0550  0.1138
 3538SOL    HW122076   3.061   4.353   6.688  1.5564 -1.0840  2.5576
 3538SOL    HW222077   2.958   4.278   6.608  1.4397  0.0428 -1.8686
 3539SOL     OW22078   3.751   2.050  13.059  0.2291  0.1467 -0.1035
 3539SOL    HW122079   3.797   1.967  13.067  0.6862  0.4074 -0.0267
 3539SOL    HW222080   3.775   2.098  13.138 -0.6384  0.5839 -0.1074
 3540SOL     OW22081   3.309   4.553   5.832  0.2964 -0.4844 -0.2018
 3540SOL    HW122082   3.387   4.519   5.876  0.3336  3.2782  2.6369
 3540SOL    HW222083   3.268   4.609   5.898 -0.3969 -0.6496 -0.4910
 3541SOL     OW22084   3.967   3.476   7.956  0.3203 -0.1218 -0.7993
 3541SOL    HW122085   3.976   3.387   7.990  2.9403  0.4165 -0.0470
 3541SOL    HW222086   3.921   3.522   8.026  0.1972 -2.6964  0.8002
 3542SOL     OW22087   1.741   1.414  14.900 -0.8374 -0.0988  0.4193
 3542SOL    HW122088   1.750   1.474  14.826 -0.8634 -0.2992  0.2538
 3542SOL    HW222089   1.698   1.461  14.971  1.3584  0.2847  1.5137
 3543SOL     OW22090   3.189   0.594  14.214 -0.1919  0.0847  0.7843
 3543SOL    HW122091   3.104   0.588  14.258 -0.6902  0.4028 -0.1358
 3543SOL    HW222092   3.247   0.607  14.289 -0.4772  1.6325  0.7336
 3544SOL     OW22093   2.864   1.349   1.673 -0.3146  0.4273  0.2996
 3544SOL    HW122094   2.828   1.429   1.633  0.0612 -0.2096 -1.3123
 3544SOL    HW222095   2.828   1.286   1.611  2.7422  0.7893 -1.8526
 3545SOL     OW22096   2.708   4.549   8.697  0.5644 -0.2405 -0.0086
 3545SOL    HW122097   2.623   4.524   8.734  0.3354 -0.5006 -0.6898
 3545SOL    HW222098   2.754   4.585   8.772  0.7412  0.3461 -0.4043
 3546SOL     OW22099   3.827   4.575   3.068  0.1729  0.4564 -0.3002
 3546SOL    HW122100   3.772   4.643   3.106  1.0717  1.5646 -1.0084
 3546SOL    HW222101   3.772   4.500   3.091  1.5276  0.6092  3.4229
 3547SOL     OW22102   0.905   2.521   6.288  0.2002  0.3168 -0.1455
 3547SOL    HW122103   0.834   2.459   6.303  0.5671  0.5223  2.3969
 3547SOL    HW222104   0.975   2.472   6.331 -0.3548 -0.5622 -0.2230
 3548SOL     OW22105   4.009   2.969   1.820 -0.0369  0.2786  0.5913
 3548SOL    HW122106   4.081   2.982   1.880  1.3988  0.4672 -1.1600
 3548SOL    HW222107   3.950   2.922   1.879  1.4771 -1.8823  0.4000
 3549SOL     OW22108   4.550   4.267   4.156  0.7293  0.4261  0.6443
 3549SOL    HW122109   4.626   4.273   4.214  0.0052  1.6792  1.4685
 3549SOL    HW222110   4.491   4.222   4.216 -0.6352  1.3332 -0.0156
 3550SOL     OW22111   1.014   3.007   7.002  0.8291 -0.0649 -0.1797
 3550SOL    HW122112   0.950   2.966   7.061  1.8058 -1.9141 -0.4203
 3550SOL    HW222113   1.098   2.988   7.042 -0.8373  1.1281  3.8622
 3551SOL     OW22114   4.296   0.054   6.835  0.2433 -0.2543  0.1964
 3551SOL    HW122115   4.322   0.064   6.743  0.2548  3.5908  0.6431
 3551SOL    HW222116   4.375   0.060   6.889 -1.9092  0.6658  3.2268
 3552SOL     OW22117   1.620   1.305  11.255  0.1768 -0.4228  0.0152
 3552SOL    HW122118   1.700   1.353  11.275 -0.9261  1.1231  0.6562
 3552SOL    HW222119   1.554   1.369  11.277  0.0213 -0.0641 -1.4895
 3553SOL     OW22120   4.379   1.028   5.742  0.6800  0.5357  0.2287
 3553SOL    HW122121   4.419   1.048   5.658  0.5912  0.5436  0.1882
 3553SOL    HW222122   4.450   1.047   5.804 -0.0918 -0.8865  1.5585
 3554SOL     OW22123   3.429   1.171   4.002  0.0176  0.3740 -0.0761
 3554SOL    HW122124   3.478   1.105   3.953 -2.2558 -0.4142 -1.2941
 3554SOL    HW222125   3.362   1.117   4.044 -1.1547 -0.2238 -2.7251
 3555SOL     OW22126   1.661   0.492   3.835  0.3592  0.5928 -0.1679
 3555SOL    HW122127   1.620   0.546   3.767 -0.0132  0.8591  0.2618
 3555SOL    HW222128   1.729   0.441   3.792 -0.3925 -1.3301  0.9059
 3556SOL     OW22129   2.512   4.071   2.889 -0.5390 -0.3408  0.3980
 3556SOL    HW122130   2.465   4.128   2.828  1.2133 -0.7629 -1.3181
 3556SOL    HW222131   2.553   4.012   2.826 -0.7572 -0.3812  0.2925
 3557SOL     OW22132   3.121   4.255   4.222  0.2342 -0.1703  0.3961
 3557SOL    HW122133   3.070   4.296   4.292 -3.0084 -2.6149 -0.5592
 3557SOL    HW222134   3.138   4.329   4.164  0.9396 -0.5515  0.1218
 3558SOL     OW22135   2.854   2.976   5.701  0.2488  0.8729  0.1692
 3558SOL    HW122136   2.948   2.972   5.719  0.3838  0.0668 -0.6988
 3558SOL    HW222137   2.826   3.062   5.730  0.7600  1.0314  0.1944
 3559SOL     OW22138   4.664   1.879   8.905 -0.3046 -0.2439  0.3942
 3559SOL    HW122139   0.023   1.857   8.861 -1.2080 -2.0380 -0.3781
 3559SOL    HW222140   4.693   1.946   8.967 -1.9375  0.7623  0.0975
 3560SOL     OW22141   2.195   4.024  12.922 -0.2674  0.1649 -0.0701
 3560SOL    HW122142   2.186   4.088  12.994 -2.7071  0.2293 -0.4188
 3560SOL    HW222143   2.113   3.974  12.925 -0.6634  0.8164  0.1243
 3561SOL     OW22144   2.604   2.840   4.987 -0.0071 -0.0205  0.1365
 3561SOL    HW122145   2.582   2.895   4.912  1.6082  0.5231  0.0810
 3561SOL    HW222146   2.692   2.867   5.011  0.2521 -1.3475  0.6767
 3562SOL     OW22147   0.238   4.656   2.149 -0.4965  0.5087 -0.2047
 3562SOL    HW122148   0.295   4.584   2.123 -1.2014 -1.1878  2.9328
 3562SOL    HW222149   0.153   4.637   2.108 -0.8142  0.4897  0.4547
 3563SOL     OW22150   4.674   0.705   5.851 -0.6377 -0.0003 -0.8148
 3563SOL    HW122151   4.661   0.661   5.935 -2.6243 -0.2239 -1.2488
 3563SOL    HW222152   0.046   0.722   5.841 -0.7624  0.6305 -0.9241
 3564SOL     OW22153   3.323   3.397  13.097 -0.6559  0.3954  0.1069
 3564SOL    HW122154   3.245   3.441  13.128 -2.9254 -2.4976 -1.4820
 3564SOL    HW222155   3.361   3.373  13.181 -0.5016 -0.1797 -0.1246
 3565SOL     OW22156   3.375   4.468   4.329  0.1710  0.2612  0.1446
 3565SOL    HW122157   3.455   4.440   4.284  0.6931  0.9294  0.6515
 3565SOL    HW222158   3.368   4.413   4.408  0.6248 -0.6911 -0.4817
 3566SOL     OW22159   0.129   1.749   7.711  0.1752  0.4601  0.0205
 3566SOL    HW122160   0.124   1.740   7.806 -0.4318  0.5715 -0.0055
 3566SOL    HW222161   0.039   1.729   7.686  0.4634  1.0287 -1.4504
 3567SOL     OW22162   4.065   2.296   6.460 -0.5010 -0.0795  0.1520
 3567SOL    HW122163   4.152   2.313   6.424 -0.2633 -2.1797 -0.2304
 3567SOL    HW222164   4.036   2.382   6.490  0.5862 -0.2878  1.7744
 3568SOL     OW22165   1.266   4.368   9.707  0.2527  0.0455  0.4800
 3568SOL    HW122166   1.304   4.455   9.720  2.7551 -1.0084  0.3212
 3568SOL    HW222167   1.218   4.347   9.787  0.0366  1.0780  0.6191
 3569SOL     OW22168   3.449   4.159   5.295 -0.6728  0.0909  0.1472
 3569SOL    HW122169   3.545   4.162   5.299 -0.6160 -0.9938 -0.4851
 3569SOL    HW222170   3.441   4.129   5.204 -0.1014 -1.6185  0.6621
 3570SOL     OW22171   1.481   0.179   1.859  0.1476  0.7496  0.5200
 3570SOL    HW122172   1.512   0.228   1.935  0.3355  4.2340 -1.8021
 3570SOL    HW222173   1.515   0.092   1.878  0.9697  1.1572  0.8791
 3571SOL     OW22174   4.447   2.888   2.606 -0.4650 -0.4025  0.5251
 3571SOL    HW122175   4.482   2.856   2.689 -0.1179 -0.4671  0.3554
 3571SOL    HW222176   4.524   2.889   2.549 -2.7577  1.1274 -2.5236
 3572SOL     OW22177   2.126   4.193  15.293 -0.1104 -0.0789 -0.1356
 3572SOL    HW122178   2.107   4.196  15.387  1.8702  2.6468  0.1886
 3572SOL    HW222179   2.163   4.280  15.274 -1.8153  0.8537  0.8352
 3573SOL     OW22180   2.795   1.114  12.394  0.0161 -0.3147  0.2915
 3573SOL    HW122181   2.814   1.021  12.404  1.3685 -0.0969 -0.2889
 3573SOL    HW222182   2.870   1.149  12.442 -0.9436  2.8793 -0.5528
 3574SOL     OW22183   4.691   3.153   8.110  0.0066 -0.2101 -0.4121
 3574SOL    HW122184   0.054   3.118   8.133  0.4393  1.4932  0.5843
 3574SOL    HW222185   4.656   3.166   8.198  1.2303 -1.4329  0.2541
 3575SOL     OW22186   4.323   4.563   4.335 -0.2970 -0.6307  0.1077
 3575SOL    HW122187   4.288   4.591   4.250 -0.7625  0.4309  0.6560
 3575SOL    HW222188   4.252   4.505   4.361 -0.4452 -0.5820 -0.1851
 3576SOL     OW22189   0.066   4.258   6.152  0.1230 -0.3159  1.1691
 3576SOL    HW122190   0.113   4.174   6.149  1.1384  0.3185 -0.8421
 3576SOL    HW222191   0.018   4.256   6.069 -0.2349  0.6531  1.3558
 3577SOL     OW22192   0.860   3.612   0.928 -0.0316  0.4524 -0.5701
 3577SOL    HW122193   0.925   3.679   0.905  1.2298 -0.2049  1.0998
 3577SOL    HW222194   0.831   3.585   0.841 -0.3205 -0.2591 -0.2522
 3578SOL     OW22195   0.105   2.270  12.607 -0.6345  0.0355  0.0623
 3578SOL    HW122196   0.124   2.347  12.554  0.8788  0.2550  0.9188
 3578SOL    HW222197   0.035   2.225  12.560 -1.5732  0.9636  0.5642
 3579SOL     OW22198   0.657   2.476   4.798  0.3338 -0.1585 -0.1497
 3579SOL    HW122199   0.642   2.552   4.854 -2.5123 -0.6762 -0.2162
 3579SOL    HW222200   0.686   2.529   4.724 -1.9362 -0.1330 -1.0081
 3580SOL     OW22201   1.661   2.443   2.760  0.2748 -0.2438 -0.4043
 3580SOL    HW122202   1.662   2.347   2.761  2.2601 -0.2180 -0.7885
 3580SOL    HW222203   1.672   2.460   2.667 -1.8526  1.3182 -0.3787
 3581SOL     OW22204   2.619   0.601   6.228  0.1634  0.0466 -0.1416
 3581SOL    HW122205   2.689   0.606   6.294  0.2310 -2.3688 -0.0142
 3581SOL    HW222206   2.665   0.632   6.150 -1.1377 -0.4063 -1.0786
 3582SOL     OW22207   0.848   0.487   7.779 -0.3537  0.2164  0.2255
 3582SOL    HW122208   0.768   0.445   7.811 -1.1087 -0.8980 -3.0330
 3582SOL    HW222209   0.916   0.430   7.815  0.4167 -0.1984 -1.8801
 3583SOL     OW22210   4.214   2.568  12.997  0.1822  0.0571 -0.0626
 3583SOL    HW122211   4.159   2.518  12.937  0.8115 -1.7014  0.8487
 3583SOL    HW222212   4.196   2.526  13.082  2.8805  0.6452  0.7915
 3584SOL     OW22213   3.181   3.408  10.116 -0.2254 -0.0510  0.0212
 3584SOL    HW122214   3.151   3.462  10.189  1.5950 -1.5814  1.8915
 3584SOL    HW222215   3.102   3.399  10.063 -0.8793 -0.6711  1.1056
 3585SOL     OW22216   1.765   4.465   9.170 -0.5354 -0.3084  0.5070
 3585SOL    HW122217   1.845   4.430   9.130 -0.7867  0.9261 -1.0629
 3585SOL    HW222218   1.695   4.402   9.151 -0.9828  0.4381 -0.2945
 3586SOL     OW22219   0.358   3.181   4.648  0.7042 -1.0719  0.4042
 3586SOL    HW122220   0.382   3.173   4.741  2.5036 -3.7513 -0.2981
 3586SOL    HW222221   0.357   3.087   4.627  0.3570 -0.9308 -0.1797
 3587SOL     OW22222   2.969   2.564   5.109 -0.2838 -0.0466 -0.1692
 3587SOL    HW122223   2.979   2.633   5.044  3.9565 -0.0668  0.4886
 3587SOL    HW222224   3.000   2.496   5.049 -0.0917 -3.3158  3.6276
 3588SOL     OW22225   2.774   1.744  12.247  0.1727  0.1243 -0.6457
 3588SOL    HW122226   2.802   1.768  12.335  3.5011  1.2778 -2.0167
 3588SOL    HW222227   2.702   1.802  12.221 -0.4192  0.4461  1.7101
 3589SOL     OW22228   2.510   1.386   7.206 -0.3209  0.1967  0.1879
 3589SOL    HW122229   2.476   1.342   7.284  1.6711 -1.2891  0.2307
 3589SOL    HW222230   2.534   1.463   7.257 -0.8307  1.2691 -1.1997
 3590SOL     OW22231   1.108   3.338   9.048 -0.0035 -0.6718  0.1045
 3590SOL    HW122232   1.102   3.339   9.143  0.2658  2.3264  0.0760
 3590SOL    HW222233   1.108   3.242   9.042  0.7785 -0.5578 -1.6123
 3591SOL     OW22234   4.607   2.536   8.973  0.1180  0.0034 -0.3545
 3591SOL    HW122235   4.673   2.545   8.904  0.1612 -2.5612 -0.6624
 3591SOL    HW222236   4.549   2.474   8.929 -0.2232  0.5444 -0.6529
 3592SOL     OW22237   0.921   2.633   6.622 -0.6827  0.3990  1.0051
 3592SOL    HW122238   0.944   2.725   6.635  2.0676 -0.1722  0.2175
 3592SOL    HW222239   0.834   2.654   6.588 -0.9387  1.2799  2.2240
 3593SOL     OW22240   4.239   1.847   8.507 -0.0353  0.0694  0.1198
 3593SOL    HW122241   4.287   1.921   8.543  0.8018 -1.8950  3.1391
 3593SOL    HW222242   4.201   1.878   8.425 -3.0443 -1.6501  0.8629
 3594SOL     OW22243   0.470   3.080   9.440 -0.3722 -0.2467 -0.1922
 3594SOL    HW122244   0.377   3.064   9.452  0.0434 -0.9859  2.0588
 3594SOL    HW222245   0.478   3.172   9.465  0.3212 -0.5641  0.7464
 3595SOL     OW22246   4.585   2.595   7.123 -0.2785 -0.7433 -0.3129
 3595SOL    HW122247   4.531   2.519   7.101  0.0176  0.1508 -4.1718
 3595SOL    HW222248   4.669   2.551   7.141 -0.8871 -1.8936 -0.2533
 3596SOL     OW22249   3.736   0.224  13.782  0.6248  0.6014 -0.6218
 3596SOL    HW122250   3.772   0.312  13.785  1.1644  0.3981 -1.4645
 3596SOL    HW222251   3.663   0.235  13.844  1.6871 -0.8551  0.9092
 3597SOL     OW22252   3.435   0.395   5.878  0.3221  0.0769 -0.4871
 3597SOL    HW122253   3.475   0.469   5.832  0.0924 -0.0794 -0.9360
 3597SOL    HW222254   3.344   0.398   5.848 -0.0542  0.3048  0.7043
 3598SOL     OW22255   3.917   2.235  16.997  0.0474 -0.1261 -0.2269
 3598SOL    HW122256   3.960   2.150  17.003 -0.1488 -0.1299  1.1485
 3598SOL    HW222257   3.971   2.291  17.053  0.2720  0.1468 -0.7187
 3599SOL     OW22258   1.116   3.545   2.093  0.0697  0.1956 -0.2760
 3599SOL    HW122259   1.124   3.523   2.186 -0.1444  3.3435  0.4631
 3599SOL    HW222260   1.022   3.565   2.089 -0.0783 -0.3639  0.2297
 3600SOL     OW22261   1.513   2.601   2.934 -0.8817  0.0870 -0.2550
 3600SOL    HW122262   1.569   2.562   2.867 -2.1669 -2.9036  0.4315
 3600SOL    HW222263   1.438   2.621   2.877  0.6402  3.7981 -0.9268
 3601SOL     OW22264   0.608   1.940   9.813  0.3726 -0.0245  0.2878
 3601SOL    HW122265   0.682   1.940   9.872 -0.2710  1.3997  1.0791
 3601SOL    HW222266   0.545   1.895   9.869 -0.6401  1.9083  0.7055
 3602SOL     OW22267   1.026   1.304   7.150  0.0744 -0.4919 -0.3742
 3602SOL    HW122268   0.983   1.219   7.158 -0.4301 -0.0591  1.3658
 3602SOL    HW222269   0.969   1.340   7.082 -0.8609 -1.1546  0.0588
 3603SOL     OW22270   1.888   4.477   6.382 -0.2903  0.3920 -0.4078
 3603SOL    HW122271   1.878   4.489   6.288 -1.5471 -1.2029 -0.4824
 3603SOL    HW222272   1.914   4.564   6.413  0.0599  0.1155  0.0782
 3604SOL     OW22273   1.175   3.314   9.313  0.4114  0.6862 -0.1118
 3604SOL    HW122274   1.210   3.392   9.356 -1.4151  0.9095  0.9732
 3604SOL    HW222275   1.258   3.266   9.321  0.5565  0.7349 -1.4309
 3605SOL     OW22276   0.065   2.582   5.486 -0.0472  0.4102 -0.1553
 3605SOL    HW122277   0.076   2.587   5.581  4.4423  0.2309 -0.6781
 3605SOL    HW222278   0.043   2.490   5.498  0.0102  0.3437 -0.5705
 3606SOL     OW22279   1.635   1.084   6.075 -0.0783 -0.4400 -0.4455
 3606SOL    HW122280   1.568   1.104   6.141 -1.5558  0.4629 -2.2171
 3606SOL    HW222281   1.662   1.172   6.048 -0.2872 -0.3657 -0.4090
 3607SOL     OW22282   0.881   3.140   8.293  0.4005 -0.1908  0.3062
 3607SOL    HW122283   0.895   3.055   8.253 -0.4128 -0.5741  0.8435
 3607SOL    HW222284   0.970   3.159   8.322 -0.1316  2.8689  0.0180
 3608SOL     OW22285   4.128   0.462   2.575 -0.3281 -0.3322 -0.0094
 3608SOL    HW122286   4.080   0.515   2.510 -2.1849 -1.4185  0.4714
 3608SOL    HW222287   4.204   0.517   2.594  0.7563 -1.6381 -0.5800
 3609SOL     OW22288   3.549   4.507   4.006 -0.6567  0.5997  0.6219
 3609SOL    HW122289   3.578   4.598   4.017 -0.5156  0.8163 -1.4531
 3609SOL    HW222290   3.587   4.496   3.918  1.0807 -0.4110  1.5027
 3610SOL     OW22291   4.529   3.741   7.696  0.4656  0.1721  0.1907
 3610SOL    HW122292   4.537   3.741   7.792 -2.3374  2.4744  0.4294
 3610SOL    HW222293   4.436   3.750   7.678  0.2680 -1.8819  0.2569
 3611SOL     OW22294   0.756   0.461   5.196  0.0579 -0.0344  0.0266
 3611SOL    HW122295   0.746   0.555   5.207  1.7351  0.4148 -2.1679
 3611SOL    HW222296   0.830   0.458   5.134 -0.9278 -0.7690 -1.0999
 3612SOL     OW22297   2.803   1.163   8.745 -0.6994 -0.4549  0.1504
 3612SOL    HW122298   2.750   1.186   8.669 -1.2142 -1.6529  0.1525
 3612SOL    HW222299   2.748   1.196   8.816 -2.0636 -0.7716 -0.7622
 3613SOL     OW22300   1.629   0.072   2.232  0.4497  0.3915 -0.0783
 3613SOL    HW122301   1.578   0.016   2.291  1.4654  0.2596  0.6608
 3613SOL    HW222302   1.704   0.085   2.290  1.3206 -0.3878 -1.0420
 3614SOL     OW22303   2.051   0.310   5.236  0.0531 -0.4308  0.0421
 3614SOL    HW122304   2.070   0.404   5.240 -0.7538 -0.2502 -0.3636
 3614SOL    HW222305   2.001   0.304   5.155  0.1215 -0.5999  0.0130
 3615SOL     OW22306   1.397   4.348   1.594 -0.7933 -0.3887  0.0440
 3615SOL    HW122307   1.414   4.313   1.681  0.6650 -1.1949 -0.5770
 3615SOL    HW222308   1.301   4.343   1.587 -0.8417  1.4417 -0.6855
 3616SOL     OW22309   4.292   3.301   4.859 -0.6603 -0.0315 -0.1272
 3616SOL    HW122310   4.275   3.391   4.885  0.6066 -0.0144  0.6362
 3616SOL    HW222311   4.220   3.251   4.897 -1.3737 -0.1326 -1.5872
 3617SOL     OW22312   2.437   1.603   4.221 -0.1300  0.8082 -0.6247
 3617SOL    HW122313   2.351   1.607   4.264 -0.1511  0.0371 -0.5855
 3617SOL    HW222314   2.495   1.638   4.288 -0.8977  0.9170 -0.0152
 3618SOL     OW22315   0.851   0.389   8.158 -0.4562  0.5470  0.1014
 3618SOL    HW122316   0.862   0.339   8.239 -0.3150  0.1632 -0.1578
 3618SOL    HW222317   0.845   0.323   8.090 -2.3183  0.4405  0.3792
 3619SOL     OW22318   3.643   3.321  17.124  0.1298 -0.4135  0.0883
 3619SOL    HW122319   3.612   3.360  17.042  0.8085  1.3353  0.6678
 3619SOL    HW222320   3.666   3.395  17.179  0.7615 -0.3781 -0.2275
 3620SOL     OW22321   1.916   1.538   0.309  0.1422  0.0415 -0.0457
 3620SOL    HW122322   2.006   1.562   0.285  0.7902 -1.6356  0.7614
 3620SOL    HW222323   1.863   1.612   0.277  0.3525  0.1052 -0.2464
 3621SOL     OW22324   0.188   0.651   7.650  0.0200 -0.2374 -0.2288
 3621SOL    HW122325   0.261   0.590   7.641  1.1191  1.3522 -2.0557
 3621SOL    HW222326   0.211   0.704   7.573 -1.7538 -0.6520 -1.0431
 3622SOL     OW22327   3.478   3.149  16.461 -0.0157  0.7387  0.0115
 3622SOL    HW122328   3.407   3.204  16.429 -1.6675 -0.7785  1.0819
 3622SOL    HW222329   3.542   3.216  16.487  2.3301 -1.8505  1.0147
 3623SOL     OW22330   2.703   1.918   7.944 -0.8680 -0.5749  0.3676
 3623SOL    HW122331   2.708   1.833   7.988  1.1641  0.3004  1.8459
 3623SOL    HW222332   2.669   1.970   8.017  0.5447 -1.2131  1.4874
 3624SOL     OW22333   2.842   1.152   3.058 -0.7371 -0.1945  0.0727
 3624SOL    HW122334   2.872   1.191   2.976 -0.0612 -0.3096  0.2615
 3624SOL    HW222335   2.774   1.214   3.082 -0.5215  1.0250 -2.4943
 3625SOL     OW22336   0.136   4.103   5.530 -0.0487 -0.1914  0.4561
 3625SOL    HW122337   0.184   4.155   5.466  1.0934  0.2116  1.6548
 3625SOL    HW222338   0.179   4.019   5.544  0.9809  0.0101 -1.5918
 3626SOL     OW22339   4.099   2.908  11.896 -0.2886 -0.3249  0.0458
 3626SOL    HW122340   4.084   2.882  11.987  0.0545 -3.7273 -0.8698
 3626SOL    HW222341   4.072   3.000  11.907 -1.1417 -0.3569 -1.8662
 3627SOL     OW22342   4.060   2.056   8.968 -0.1826  0.2624 -0.2712
 3627SOL    HW122343   4.029   2.081   8.881 -0.4557 -0.1887 -0.3053
 3627SOL    HW222344   4.129   1.997   8.939 -0.3553 -0.0969  0.0419
 3628SOL     OW22345   0.510   4.478   7.533 -0.6851  0.3007  0.3995
 3628SOL    HW122346   0.603   4.499   7.524 -1.3593  2.3176 -1.9832
 3628SOL    HW222347   0.500   4.445   7.444  1.4613 -0.8756  0.5967
 3629SOL     OW22348   0.693   4.290   3.054  0.1841 -1.1274  0.2084
 3629SOL    HW122349   0.707   4.264   2.963 -0.5433 -0.3822 -0.1175
 3629SOL    HW222350   0.601   4.265   3.056 -0.8190  2.5335  0.1213
 3630SOL     OW22351   4.108   1.349   8.151  0.2182  0.0701  0.1784
 3630SOL    HW122352   4.072   1.308   8.072  0.9971 -0.0063 -0.1371
 3630SOL    HW222353   4.066   1.434   8.161 -1.2466 -0.6099 -0.1734
 3631SOL     OW22354   2.631   3.796  13.696  0.0442  0.5076  0.2542
 3631SOL    HW122355   2.653   3.888  13.711  0.7091  0.7895 -2.3396
 3631SOL    HW222356   2.567   3.800  13.625 -0.6497  1.7528  0.9415
 3632SOL     OW22357   2.591   2.235  12.080  0.3730  0.3850 -0.1204
 3632SOL    HW122358   2.569   2.257  12.170 -0.3514  0.5374 -0.3287
 3632SOL    HW222359   2.512   2.182  12.064 -0.9120  2.0489  0.7052
 3633SOL     OW22360   0.948   1.519   2.938  0.1405 -0.4769  0.1501
 3633SOL    HW122361   0.934   1.557   3.026  0.6032 -0.8484  0.3807
 3633SOL    HW222362   1.042   1.533   2.943 -0.0622  0.3544  1.8111
 3634SOL     OW22363   0.872   1.324   1.114  0.3624  0.0653 -0.3004
 3634SOL    HW122364   0.784   1.314   1.078 -0.1361  2.3177  0.2956
 3634SOL    HW222365   0.884   1.418   1.101  1.2983  0.0052  0.1155
 3635SOL     OW22366   0.824   0.972   8.456 -0.0354  0.1137  0.5590
 3635SOL    HW122367   0.750   1.020   8.419  1.7263  1.6827 -0.9291
 3635SOL    HW222368   0.896   1.034   8.455  1.8846 -2.1446 -1.4799
 3636SOL     OW22369   0.323   1.212  15.677  0.3056  0.7875  0.1373
 3636SOL    HW122370   0.409   1.169  15.681 -0.3102 -0.2766  2.2138
 3636SOL    HW222371   0.295   1.176  15.593 -0.8680  1.8302  0.1010
 3637SOL     OW22372   2.061   1.033   3.929  1.2455 -0.2537  0.0048
 3637SOL    HW122373   2.100   0.955   3.888  0.8178  0.2632 -1.3809
 3637SOL    HW222374   2.058   1.007   4.021  0.4964  1.0608  0.3385
 3638SOL     OW22375   2.419   1.876  14.903  0.3985  0.0732 -0.0782
 3638SOL    HW122376   2.503   1.895  14.944  1.1169 -1.2838 -0.8919
 3638SOL    HW222377   2.448   1.803  14.848 -0.6705 -0.6056  0.2688
 3639SOL     OW22378   3.948   0.076   7.207 -0.4282  0.3840  0.1414
 3639SOL    HW122379   3.893   4.721   7.210  0.4424 -0.1347  2.6688
 3639SOL    HW222380   4.036   0.041   7.223 -0.6113  0.5691  1.5682
 3640SOL     OW22381   1.734   0.603   7.956  0.0009 -0.3655  0.2290
 3640SOL    HW122382   1.798   0.533   7.946  3.1071  2.6217 -0.6265
 3640SOL    HW222383   1.648   0.561   7.966 -0.4829  1.4720  3.7299
 3641SOL     OW22384   2.287   2.033   9.545  0.1540 -0.2909  0.1846
 3641SOL    HW122385   2.245   2.096   9.604 -0.3048  0.2943 -0.7765
 3641SOL    HW222386   2.279   1.953   9.597 -0.5510 -1.5173 -1.8068
 3642SOL     OW22387   0.530   3.901   3.526 -0.0798  0.1745  0.3296
 3642SOL    HW122388   0.596   3.853   3.576 -1.5549 -0.6236  1.5081
 3642SOL    HW222389   0.453   3.866   3.570 -0.4833  0.5971 -0.0345
 3643SOL     OW22390   2.767   0.384   4.612  0.1289 -0.1178  0.1763
 3643SOL    HW122391   2.791   0.352   4.698  0.0973 -1.1634 -0.2057
 3643SOL    HW222392   2.720   0.307   4.578  2.7687 -0.8328 -1.8929
 3644SOL     OW22393   1.745   3.934   7.652 -0.7534  1.1988  0.5374
 3644SOL    HW122394   1.752   4.011   7.595 -0.9871  1.0012  0.2478
 3644SOL    HW222395   1.666   3.957   7.701 -2.6839 -0.5786 -1.7664
 3645SOL     OW22396   0.166   2.824   4.907 -0.2384  0.2414 -0.6492
 3645SOL    HW122397   0.209   2.741   4.886  0.4355  0.4521 -0.1019
 3645SOL    HW222398   0.150   2.807   4.999 -0.0814  2.7019 -0.1800
 3646SOL     OW22399   0.911   0.134  15.681 -0.5700 -0.3015 -0.0085
 3646SOL    HW122400   0.921   0.072  15.608  0.1743 -0.1303 -0.0537
 3646SOL    HW222401   0.816   0.129  15.677 -0.6714  0.2753  2.1428
 3647SOL     OW22402   2.964   3.896   2.873 -0.1363  0.3344 -0.4457
 3647SOL    HW122403   2.983   3.988   2.854  0.7248  0.2652  0.1062
 3647SOL    HW222404   3.042   3.856   2.837  0.3601  0.6885  0.2473
 3648SOL     OW22405   0.684   1.139   1.965 -0.0943 -0.1699  0.4035
 3648SOL    HW122406   0.630   1.159   1.888  1.2266 -1.2081 -0.8037
 3648SOL    HW222407   0.622   1.164   2.033 -0.1989  0.0286  0.2351
 3649SOL     OW22408   1.123   4.714   0.651  0.4557  0.4915 -0.3159
 3649SOL    HW122409   1.098   0.008   0.742 -1.1278 -0.6878 -0.5266
 3649SOL    HW222410   1.061   0.048   0.603 -1.2436  0.9228  2.3906
 3650SOL     OW22411   2.606   3.616   9.026  0.1295 -0.2464  0.1749
 3650SOL    HW122412   2.554   3.692   9.051  2.3224  1.2830  0.1146
 3650SOL    HW222413   2.670   3.650   8.963 -1.2641  0.4060 -0.8877
 3651SOL     OW22414   0.140   3.560   6.092 -0.1860 -0.6564  0.4521
 3651SOL    HW122415   0.047   3.574   6.107  0.8880  2.3889  4.2121
 3651SOL    HW222416   0.178   3.631   6.144 -0.2572 -0.2023 -0.1222
 3652SOL     OW22417   0.799   4.494   6.045 -0.0320  0.0968 -0.5300
 3652SOL    HW122418   0.873   4.462   6.097  0.3452  0.0873 -1.0756
 3652SOL    HW222419   0.741   4.419   6.048 -2.6202  2.0441 -2.3669
 3653SOL     OW22420   2.802   3.379   0.369  0.1437 -0.5483  0.5405
 3653SOL    HW122421   2.860   3.450   0.393 -0.7135  0.5060 -0.5035
 3653SOL    HW222422   2.869   3.310   0.370 -0.3257 -1.0394 -1.7030
 3654SOL     OW22423   4.558   0.774   1.579 -0.5098  0.5191  0.3386
 3654SOL    HW122424   4.603   0.691   1.562 -0.5712  0.7800 -1.0944
 3654SOL    HW222425   4.539   0.758   1.671  0.3069  3.4207  1.0052
 3655SOL     OW22426   4.367   1.496   7.181 -0.2958  0.3520  0.3093
 3655SOL    HW122427   4.320   1.437   7.240 -0.2621 -0.7289 -0.7461
 3655SOL    HW222428   4.308   1.568   7.159  0.4322  2.1195  4.1927
 3656SOL     OW22429   4.338   1.239   3.492 -0.2235 -0.3348  0.2843
 3656SOL    HW122430   4.331   1.334   3.492 -0.0297 -0.3129 -1.4993
 3656SOL    HW222431   4.409   1.225   3.555  1.0108 -0.5146 -1.1397
 3657SOL     OW22432   3.413   1.424   0.256 -0.0650  0.2403 -0.3445
 3657SOL    HW122433   3.404   1.435   0.351 -0.9022  0.1521 -0.4095
 3657SOL    HW222434   3.383   1.335   0.234  2.2769 -0.5649 -0.2585
 3658SOL     OW22435   3.948   1.464  17.656  0.0550 -0.6582  0.2208
 3658SOL    HW122436   3.880   1.507   0.016 -0.3479 -0.6357 -0.3199
 3658SOL    HW222437   3.893   1.418  17.592 -0.8036 -1.2682  1.3951
 3659SOL     OW22438   0.937   1.107   3.127  0.6062 -0.3682  1.3935
 3659SOL    HW122439   0.984   1.106   3.211  0.7818  2.9214  1.3284
 3659SOL    HW222440   0.990   1.173   3.081 -1.9685  0.3826 -0.4511
 3660SOL     OW22441   2.039   2.359   8.218 -0.3456 -0.1713  0.2452
 3660SOL    HW122442   2.134   2.353   8.202 -0.1548  2.2722  0.4608
 3660SOL    HW222443   1.996   2.350   8.133  1.6021 -0.0496 -0.7753
 3661SOL     OW22444   2.378   1.721  17.244 -0.0203 -0.4994 -0.4010
 3661SOL    HW122445   2.454   1.714  17.301  0.1213  1.5995 -0.3131
 3661SOL    HW222446   2.344   1.810  17.259  0.9949  0.0372 -1.3454
 3662SOL     OW22447   2.528   1.828   9.055  0.4352  0.5136  0.4772
 3662SOL    HW122448   2.504   1.774   8.980 -0.2984  0.8712  0.4588
 3662SOL    HW222449   2.445   1.875   9.054 -0.1645 -0.5532  0.6459
 3663SOL     OW22450   1.998   0.415   8.408  0.2966 -0.4683  0.2232
 3663SOL    HW122451   1.924   0.356   8.423 -0.7993  0.4292 -1.4845
 3663SOL    HW222452   1.949   0.479   8.355 -0.3462  0.0696  1.4588
 3664SOL     OW22453   3.557   3.467   7.401  0.7590 -0.0810 -0.1717
 3664SOL    HW122454   3.546   3.526   7.327  0.4261 -1.6707 -1.3910
 3664SOL    HW222455   3.527   3.518   7.476  2.4364  1.0692 -0.2802
 3665SOL     OW22456   1.708   3.970  12.180 -0.4656  0.3876 -0.1214
 3665SOL    HW122457   1.729   4.059  12.206  0.1857 -0.3373  1.8524
 3665SOL    HW222458   1.796   3.932  12.190 -0.5946  1.4549  5.1082
 3666SOL     OW22459   4.413   1.589   3.164 -0.0488 -0.0581 -0.0645
 3666SOL    HW122460   4.393   1.674   3.125  2.7955  0.1082 -1.1457
 3666SOL    HW222461   4.502   1.575   3.131 -0.3131 -2.3303  0.1536
 3667SOL     OW22462   2.841   3.622   4.229  0.1179 -0.5139  0.0854
 3667SOL    HW122463   2.878   3.579   4.306  0.3053  0.0034  0.2811
 3667SOL    HW222464   2.779   3.551   4.213 -1.2997  0.4586  1.3151
 3668SOL     OW22465   4.607   2.839   6.079 -0.2773  0.3735  0.7312
 3668SOL    HW122466   4.542   2.839   6.149 -0.9894  0.4527  0.0638
 3668SOL    HW222467   4.667   2.783   6.129  1.0681  0.2779 -0.9957
 3669SOL     OW22468   3.217   3.875   9.267 -0.1501  0.2070 -0.2394
 3669SOL    HW122469   3.163   3.951   9.289  1.1293  0.8632  0.6137
 3669SOL    HW222470   3.243   3.853   9.357  0.9516  0.0636 -0.5982
 3670SOL     OW22471   0.244   3.561  15.324  0.4748 -0.5215 -0.2912
 3670SOL    HW122472   0.329   3.540  15.284 -0.3525 -2.6933 -0.9159
 3670SOL    HW222473   0.272   3.607  15.403  0.1783 -0.2520 -0.3453
 3671SOL     OW22474   3.059   1.096   5.741  0.4598  0.2212  0.6471
 3671SOL    HW122475   3.113   1.103   5.662 -0.1846  1.5816  0.3323
 3671SOL    HW222476   3.006   1.020   5.720  1.9157 -1.1857  2.0206
 3672SOL     OW22477   3.455   1.258   7.393  0.2010  0.1974  0.1242
 3672SOL    HW122478   3.506   1.333   7.422  0.2967 -0.2345  1.0613
 3672SOL    HW222479   3.476   1.267   7.300  0.6633  0.2199  0.2318
 3673SOL     OW22480   2.290   2.853  11.617  0.0959 -0.2609  0.2152
 3673SOL    HW122481   2.310   2.834  11.525  1.9331  2.9063 -0.0492
 3673SOL    HW222482   2.249   2.940  11.609  0.2956 -0.3122 -1.4521
 3674SOL     OW22483   1.292   1.888   5.717 -0.1961  0.4229  0.2415
 3674SOL    HW122484   1.211   1.902   5.767 -1.6592 -2.6339 -1.2608
 3674SOL    HW222485   1.333   1.819   5.770 -0.4663 -0.2624 -0.4438
 3675SOL     OW22486   4.705   3.656   4.229 -0.5099  0.4598  0.1108
 3675SOL    HW122487   4.710   3.671   4.135 -0.2273 -1.9571 -0.2656
 3675SOL    HW222488   0.073   3.625   4.238 -0.7183 -0.0469  0.4767
 3676SOL     OW22489   1.311   3.797   2.733 -0.3119  0.1341  0.3190
 3676SOL    HW122490   1.288   3.880   2.691  2.0953  0.0932 -1.0581
 3676SOL    HW222491   1.283   3.742   2.659 -0.6727  2.2598 -1.1346
 3677SOL     OW22492   2.301   0.921  15.509 -0.5398  0.8729 -0.1795
 3677SOL    HW122493   2.360   0.900  15.582 -0.7407  1.3352  0.1161
 3677SOL    HW222494   2.340   1.001  15.472  0.9987 -0.7617 -2.1200
 3678SOL     OW22495   4.051   1.452  11.952 -0.0131  0.0047  0.2894
 3678SOL    HW122496   4.057   1.532  11.899  0.8078 -0.5344 -0.4357
 3678SOL    HW222497   4.060   1.384  11.885  0.8702 -2.6541  3.1228
 3679SOL     OW22498   4.661   4.165   9.997 -0.1183  0.1732 -0.0002
 3679SOL    HW122499   4.660   4.193   9.906  1.4703  0.3978  0.0477
 3679SOL    HW222500   4.567   4.154  10.014 -0.3409  1.9938 -0.0354
 3680SOL     OW22501   2.438   2.197   2.879  0.3169 -0.8387  0.2276
 3680SOL    HW122502   2.445   2.291   2.861 -1.3199 -0.4964  1.4651
 3680SOL    HW222503   2.456   2.165   2.790  1.9257  0.5205  0.0541
 3681SOL     OW22504   3.562   1.748  15.840 -0.1628  0.2370 -0.3091
 3681SOL    HW122505   3.543   1.743  15.746  0.4863 -1.6143 -0.3468
 3681SOL    HW222506   3.525   1.662  15.861 -0.3945 -0.3075 -2.8850
 3682SOL     OW22507   3.871   0.028   9.774 -0.0866  0.4733 -0.0792
 3682SOL    HW122508   3.920   0.105   9.801  0.8631 -1.3968  3.4928
 3682SOL    HW222509   3.846   0.059   9.686  0.3935  0.3670 -0.2516
 3683SOL     OW22510   4.003   1.438   2.293 -0.2602  0.1343 -0.2569
 3683SOL    HW122511   3.963   1.494   2.226 -1.0898  0.4064  0.4676
 3683SOL    HW222512   4.020   1.499   2.365  1.2777 -1.0839  0.3978
 3684SOL     OW22513   1.065   0.664   6.648 -0.0714 -0.3016 -0.5599
 3684SOL    HW122514   0.985   0.613   6.645  1.0058 -2.1215  1.5815
 3684SOL    HW222515   1.082   0.651   6.742 -2.5593 -1.0654 -0.2212
 3685SOL     OW22516   1.936   1.415   8.807 -0.1489 -0.0128 -0.5330
 3685SOL    HW122517   1.949   1.418   8.902  0.0221 -0.1847 -0.5524
 3685SOL    HW222518   2.024   1.441   8.781 -1.4435  4.1722 -0.8147
 3686SOL     OW22519   0.565   1.892   0.275 -0.2739 -0.4795 -0.2838
 3686SOL    HW122520   0.635   1.947   0.310  1.2645 -2.3641 -0.4210
 3686SOL    HW222521   0.534   1.935   0.195 -0.9804  0.6992  0.6417
 3687SOL     OW22522   2.705   0.165   7.937  0.3241 -0.6451 -0.4184
 3687SOL    HW122523   2.711   0.243   7.882 -0.6972  0.0907  0.5066
 3687SOL    HW222524   2.730   0.206   8.020  2.5497  0.7831 -1.7999
 3688SOL     OW22525   4.559   4.529   4.021 -0.2080  0.0050 -0.0728
 3688SOL    HW122526   4.531   4.449   4.067  0.3347 -1.4087 -2.1942
 3688SOL    HW222527   4.508   4.529   3.940 -0.6384 -0.2749  0.1930
 3689SOL     OW22528   1.300   4.190  11.601  0.7346 -0.0479  0.6303
 3689SOL    HW122529   1.289   4.123  11.533 -2.7020 -1.1736  2.2329
 3689SOL    HW222530   1.242   4.155  11.670 -1.3463  2.0929 -0.0397
 3690SOL     OW22531   4.443   2.106   6.073  0.3172 -0.1322  0.4017
 3690SOL    HW122532   4.470   2.083   5.984  1.4360  1.9207  0.2087
 3690SOL    HW222533   4.356   2.135   6.046  0.3075 -0.6149 -0.0669
 3691SOL     OW22534   4.333   0.713  17.142  0.0410 -0.0308  0.1662
 3691SOL    HW122535   4.379   0.747  17.219 -0.7789 -0.3293  0.7857
 3691SOL    HW222536   4.272   0.657  17.191 -0.2863  0.1363 -0.0601
 3692SOL     OW22537   0.362   0.355  16.544 -0.2068 -0.3880  0.9358
 3692SOL    HW122538   0.296   0.421  16.525  1.5055  0.5010 -1.9864
 3692SOL    HW222539   0.421   0.386  16.475 -1.3332 -1.5108 -0.5355
 3693SOL     OW22540   1.726   3.599   8.516  0.4101  0.7852  0.1310
 3693SOL    HW122541   1.776   3.549   8.452 -0.2470  2.8642 -2.0022
 3693SOL    HW222542   1.646   3.607   8.463  0.0758 -3.2916  0.0312
 3694SOL     OW22543   0.852   0.281  14.660  0.0843 -0.4769 -0.0742
 3694SOL    HW122544   0.935   0.320  14.631  0.5484  0.0201  1.8798
 3694SOL    HW222545   0.876   0.189  14.676  0.2302 -0.6636 -1.3443
 3695SOL     OW22546   3.116   3.170   5.512 -0.0772  0.0320 -0.3510
 3695SOL    HW122547   3.051   3.188   5.444 -0.4726  0.1521  0.0553
 3695SOL    HW222548   3.116   3.257   5.552 -0.5343 -0.3555  0.4952
 3696SOL     OW22549   4.380   4.636  17.543 -0.1522  0.0365  0.7149
 3696SOL    HW122550   4.464   4.647  17.498  1.1073 -0.8026  2.8453
 3696SOL    HW222551   4.324   4.581  17.489 -0.2478  1.6829 -0.8574
 3697SOL     OW22552   4.702   3.622  15.394  0.1836 -0.3653 -0.1217
 3697SOL    HW122553   0.072   3.622  15.370  0.1016 -1.8248 -0.4236
 3697SOL    HW222554   4.698   3.709  15.434  0.1970  0.9279 -2.9525
 3698SOL     OW22555   0.098   0.712   6.720  0.1946 -0.1583 -0.1358
 3698SOL    HW122556   0.190   0.738   6.724 -0.0850  0.8564 -0.0835
 3698SOL    HW222557   0.059   0.796   6.747 -1.8439 -2.1636  3.1654
 3699SOL     OW22558   4.384   0.986  13.974  0.1672  0.2604  0.4216
 3699SOL    HW122559   4.306   0.931  13.974  0.2601  0.1256  0.6677
 3699SOL    HW222560   4.426   0.951  13.896 -1.7086 -0.2210 -0.3575
 3700SOL     OW22561   2.110   0.134  10.264 -0.0642 -0.5374 -0.2417
 3700SOL    HW122562   2.121   0.047  10.225  0.2538 -2.4355  4.0834
 3700SOL    HW222563   2.041   0.124  10.329 -0.2593 -1.6922 -0.6243
 3701SOL     OW22564   2.313   4.454   0.551  0.3528 -1.1880  0.8568
 3701SOL    HW122565   2.283   4.413   0.470  1.2851  0.8012 -0.5097
 3701SOL    HW222566   2.327   4.381   0.611  0.5911 -1.1324  0.8709
 3702SOL     OW22567   2.717   3.851  12.713  0.1041  0.1751 -0.5738
 3702SOL    HW122568   2.771   3.814  12.643 -0.0100 -0.2364 -0.4431
 3702SOL    HW222569   2.782   3.891  12.771  0.2792 -1.9713  0.7313
 3703SOL     OW22570   1.110   2.071   7.087 -0.5469  0.2573 -0.3142
 3703SOL    HW122571   1.192   2.107   7.121 -0.9113 -0.2597  1.0967
 3703SOL    HW222572   1.108   2.126   7.008  0.3402  0.6594 -0.0575
 3704SOL     OW22573   4.580   3.448   8.418 -0.1734  0.4855  0.1561
 3704SOL    HW122574   4.650   3.489   8.469  2.0019 -3.0571 -0.0264
 3704SOL    HW222575   4.564   3.358   8.443  0.0251  0.3848 -0.0770
 3705SOL     OW22576   1.680   2.909   5.158  0.2198 -0.2755  0.0322
 3705SOL    HW122577   1.618   2.886   5.089  1.6183 -0.3109 -1.2052
 3705SOL    HW222578   1.657   3.001   5.171  1.1817 -0.0051 -0.2037
 3706SOL     OW22579   4.059   0.360   3.400  0.4986  0.3370  0.3831
 3706SOL    HW122580   4.038   0.436   3.346  1.1608 -0.3021 -0.7770
 3706SOL    HW222581   3.982   0.304   3.399  1.6542 -1.2158 -0.9358
 3707SOL     OW22582   0.569   0.308   2.946 -0.2580  0.6659 -0.0118
 3707SOL    HW122583   0.649   0.306   2.999 -0.9052 -0.5290  0.9351
 3707SOL    HW222584   0.502   0.321   3.013  0.1017  3.3527 -0.1694
 3708SOL     OW22585   2.798   2.861   8.698  0.1580 -0.0436 -0.0016
 3708SOL    HW122586   2.743   2.809   8.757  1.5430  1.2982  2.4692
 3708SOL    HW222587   2.741   2.936   8.680  0.8339  0.4583 -0.0165
 3709SOL     OW22588   2.402   1.710   6.082  0.2540  0.6179  1.1497
 3709SOL    HW122589   2.485   1.734   6.122  1.0681  1.0602 -0.7715
 3709SOL    HW222590   2.373   1.658   6.157  1.0770 -0.9212  0.4031
 3710SOL     OW22591   3.722   2.732   3.497 -0.6922 -0.1025 -0.4687
 3710SOL    HW122592   3.651   2.793   3.477  0.1833  1.1501  0.2202
 3710SOL    HW222593   3.784   2.804   3.505 -0.0397 -0.5871 -1.1675
 3711SOL     OW22594   0.657   3.792  12.531  0.7525  0.6697  0.2280
 3711SOL    HW122595   0.744   3.753  12.538  1.3317  1.8122 -0.7430
 3711SOL    HW222596   0.656   3.842  12.613  3.3941  0.9835  0.0716
 3712SOL     OW22597   2.250   0.354   7.442 -0.1796  1.0350 -0.3561
 3712SOL    HW122598   2.187   0.343   7.370  0.8282  3.9383 -1.6801
 3712SOL    HW222599   2.244   0.449   7.453 -2.3820  0.9736 -0.9629
 3713SOL     OW22600   2.067   3.405   6.784 -0.0965 -0.0838  0.3492
 3713SOL    HW122601   2.031   3.352   6.856 -2.4726  1.0283 -0.0447
 3713SOL    HW222602   2.136   3.343   6.759 -1.0760 -1.6922  1.5952
 3714SOL     OW22603   1.099   0.384   7.541  0.0984  0.4592  0.4398
 3714SOL    HW122604   1.050   0.438   7.603  0.8214  1.3944  0.1931
 3714SOL    HW222605   1.052   0.303   7.522  0.2225  0.3554  0.5791
 3715SOL     OW22606   3.154   4.103  10.503  0.2157 -0.5587 -0.1060
 3715SOL    HW122607   3.112   4.018  10.488 -1.6339  0.3224  0.1411
 3715SOL    HW222608   3.141   4.154  10.424 -0.5852 -0.7866 -0.1215
 3716SOL     OW22609   2.560   2.468   3.701 -0.0213  0.1449  0.4539
 3716SOL    HW122610   2.581   2.474   3.608 -1.4961 -2.1470 -0.0177
 3716SOL    HW222611   2.538   2.559   3.722  2.9798  1.1036 -0.6216
 3717SOL     OW22612   2.072   2.767   8.555  0.4467 -0.2910  0.0178
 3717SOL    HW122613   2.040   2.829   8.620  0.8897  0.5273 -0.5418
 3717SOL    HW222614   2.050   2.808   8.472  1.3787  0.3791  0.0899
 3718SOL     OW22615   0.577   1.974   2.786 -0.2019  0.2167 -0.1970
 3718SOL    HW122616   0.652   1.960   2.845  1.4290  2.5805 -1.6923
 3718SOL    HW222617   0.588   2.069   2.775 -0.7586  0.2727 -0.2690
 3719SOL     OW22618   4.486   3.900  12.338  0.1893 -0.4963  0.1113
 3719SOL    HW122619   4.464   3.931  12.250  2.4033  0.7134 -0.0182
 3719SOL    HW222620   4.546   3.965  12.374 -3.9457  1.8812  2.7005
 3720SOL     OW22621   2.646   4.231  16.774  0.1627  0.0037 -0.2767
 3720SOL    HW122622   2.737   4.219  16.750  0.1510 -0.0674 -0.2847
 3720SOL    HW222623   2.633   4.158  16.834 -2.9367  2.4258  2.0158
 3721SOL     OW22624   2.201   0.933   6.714 -0.1809 -0.1957 -0.0711
 3721SOL    HW122625   2.189   0.969   6.626  0.1007  1.8686  0.7547
 3721SOL    HW222626   2.112   0.935   6.748  0.1979 -0.7871  0.9448
 3722SOL     OW22627   3.562   4.691   7.294  0.5957  0.5512 -0.3788
 3722SOL    HW122628   3.557   0.007   7.382 -1.0343  1.9631 -1.1087
 3722SOL    HW222629   3.585   0.041   7.236  3.2013  0.9033  1.0641
 3723SOL     OW22630   3.516   1.202   8.514 -0.0846 -0.0385 -0.3749
 3723SOL    HW122631   3.523   1.131   8.451 -1.5350 -1.0388  0.6022
 3723SOL    HW222632   3.435   1.249   8.492  0.5591  0.7121 -1.1270
 3724SOL     OW22633   4.656   4.223   5.919  0.0026 -0.1731 -0.2257
 3724SOL    HW122634   4.693   4.249   5.834  4.0706 -1.6801  1.0750
 3724SOL    HW222635   4.567   4.258   5.909 -0.0531 -1.0004 -2.8205
 3725SOL     OW22636   4.405   1.321   9.622 -0.2145  0.2012  0.3460
 3725SOL    HW122637   4.391   1.336   9.528 -2.6032 -0.2006  0.6238
 3725SOL    HW222638   4.411   1.226   9.617 -2.6302 -0.0508  2.2208
 3726SOL     OW22639   2.552   0.345  14.324  0.7087  0.3137 -0.7003
 3726SOL    HW122640   2.527   0.437  14.313 -1.0782 -0.1322 -0.3567
 3726SOL    HW222641   2.643   0.360  14.298  1.2148 -1.9228 -0.1775
 3727SOL     OW22642   0.753   1.618  16.738 -0.5278 -0.2278 -0.8003
 3727SOL    HW122643   0.793   1.593  16.654  0.9183 -0.5338 -0.0139
 3727SOL    HW222644   0.825   1.644  16.795 -0.8606  0.5870 -0.7466
 3728SOL     OW22645   1.121   2.456   5.024  0.2044  0.0468 -0.5075
 3728SOL    HW122646   1.117   2.537   4.975  1.1134  0.2595 -0.2375
 3728SOL    HW222647   1.028   2.435   5.024  0.4407 -1.0284 -0.6295
 3729SOL     OW22648   2.503   1.060   7.154 -0.3251 -0.4824 -0.1127
 3729SOL    HW122649   2.407   1.068   7.155 -0.2247  0.6421 -0.0568
 3729SOL    HW222650   2.533   1.136   7.204 -0.0774 -0.3878 -0.4054
 3730SOL     OW22651   4.109   2.189   2.385 -0.8630 -0.3433  0.2248
 3730SOL    HW122652   4.140   2.242   2.458 -1.0835 -2.0703  1.5723
 3730SOL    HW222653   4.062   2.131   2.445 -1.0416  0.6431  1.0324
 3731SOL     OW22654   0.395   1.787   4.432  0.2134  0.7889  0.2661
 3731SOL    HW122655   0.303   1.775   4.457 -0.3580  0.3174 -2.0714
 3731SOL    HW222656   0.443   1.752   4.507  0.1251  0.9601  0.4015
 3732SOL     OW22657   0.505   2.722   2.123 -0.2785  0.0990 -0.3983
 3732SOL    HW122658   0.498   2.789   2.054 -0.2281  0.7557  0.2344
 3732SOL    HW222659   0.598   2.712   2.141 -0.2957  0.2296 -0.2309
 3733SOL     OW22660   4.460   0.351   2.117 -0.1275 -0.3967  0.4477
 3733SOL    HW122661   4.492   0.389   2.034 -0.6435  0.2447  0.5401
 3733SOL    HW222662   4.380   0.402   2.126  0.2331  0.0575  1.0761
 3734SOL     OW22663   1.867   1.807  10.222 -0.1102  0.0777  0.2287
 3734SOL    HW122664   1.919   1.738  10.182  1.8288  0.6293  1.8325
 3734SOL    HW222665   1.935   1.869  10.247  0.7350 -0.6043 -0.4170
 3735SOL     OW22666   2.414   3.248   8.830 -0.6041  0.8525 -0.7887
 3735SOL    HW122667   2.409   3.342   8.847  1.7817  0.9358 -0.5851
 3735SOL    HW222668   2.321   3.232   8.814 -0.7609  1.0619 -0.0841
 3736SOL     OW22669   1.977   3.438   0.269 -0.1439 -0.1923  0.3032
 3736SOL    HW122670   2.014   3.476   0.189  0.0275  0.4103  0.6668
 3736SOL    HW222671   1.992   3.508   0.332  1.0060 -1.8777  1.9271
 3737SOL     OW22672   1.721   2.335   0.087 -0.3272  0.0111  0.3749
 3737SOL    HW122673   1.649   2.294   0.135  0.4805 -1.4019  0.3740
 3737SOL    HW222674   1.724   2.413   0.143 -0.9982  0.4369 -0.1823
 3738SOL     OW22675   2.961   2.176   2.235  0.2817  0.4847  0.5385
 3738SOL    HW122676   3.046   2.183   2.279  0.7949  0.6135 -0.4489
 3738SOL    HW222677   2.927   2.264   2.217 -0.8973 -0.1814 -0.4206
 3739SOL     OW22678   0.075   3.336   3.087  0.0750 -0.1569 -0.4086
 3739SOL    HW122679   4.713   3.298   3.064 -0.9030  2.3501 -0.9691
 3739SOL    HW222680   0.130   3.257   3.085 -2.0806 -1.6920  0.7494
 3740SOL     OW22681   2.634   1.343   3.093  0.1817 -0.8480  0.0900
 3740SOL    HW122682   2.634   1.436   3.114 -0.1794 -0.3966 -1.9155
 3740SOL    HW222683   2.623   1.327   2.999  0.0999  0.3547 -0.0995
 3741SOL     OW22684   3.269   4.118  15.903 -0.1978  0.5231  0.0082
 3741SOL    HW122685   3.285   4.184  15.970  0.6339  0.3082  0.0288
 3741SOL    HW222686   3.318   4.151  15.827 -0.2336 -0.0325 -0.2557
 3742SOL     OW22687   0.507   3.922   5.917 -0.0744  0.1206 -0.1882
 3742SOL    HW122688   0.547   3.932   6.004 -3.1311 -0.1320  1.2640
 3742SOL    HW222689   0.496   3.827   5.911  0.8420  0.0256 -0.3244
 3743SOL     OW22690   3.854   3.272   2.671  0.4226  0.0813  0.6632
 3743SOL    HW122691   3.761   3.292   2.660  0.3470  0.7923  2.5655
 3743SOL    HW222692   3.883   3.314   2.590 -0.0871 -1.1351 -0.1541
 3744SOL     OW22693   2.529   0.151   9.287  0.0381 -0.1102  0.2540
 3744SOL    HW122694   2.553   0.105   9.367 -0.2177 -1.4577 -0.4552
 3744SOL    HW222695   2.505   0.073   9.237  3.0955  1.4850 -3.7008
 3745SOL     OW22696   3.962   3.345   5.092 -0.1051 -0.1477 -0.1320
 3745SOL    HW122697   3.948   3.253   5.067  0.0924 -0.2714  0.2104
 3745SOL    HW222698   3.894   3.362   5.157 -0.5650  0.7478 -0.8554
 3746SOL     OW22699   3.818   0.517   4.143  0.8108  0.2584  0.2208
 3746SOL    HW122700   3.816   0.483   4.232 -0.5007 -0.0822  0.0612
 3746SOL    HW222701   3.901   0.483   4.109  0.3252 -1.4364  0.7433
 3747SOL     OW22702   0.511   3.222   8.165 -0.5051  0.0610 -0.2104
 3747SOL    HW122703   0.572   3.283   8.124 -1.3952  0.5868 -0.7721
 3747SOL    HW222704   0.528   3.133   8.135  2.4108  1.6703 -3.3527
 3748SOL     OW22705   1.528   2.652  14.950  0.0379 -0.1340 -0.7306
 3748SOL    HW122706   1.545   2.674  14.859 -0.2262 -1.1277 -1.0230
 3748SOL    HW222707   1.611   2.672  14.993  1.5833  0.1966 -3.8449
 3749SOL     OW22708   0.990   3.556  10.048 -0.4858  0.1416 -0.2991
 3749SOL    HW122709   0.949   3.636  10.080  2.3710  1.8013 -0.8569
 3749SOL    HW222710   1.074   3.554  10.093 -0.5126  0.9756 -0.2192
 3750SOL     OW22711   3.024   2.281   6.179 -0.2996 -0.0751 -0.2957
 3750SOL    HW122712   3.011   2.267   6.085 -1.0395  1.3410 -0.4035
 3750SOL    HW222713   3.002   2.193   6.210 -1.8110  0.8428  1.2071
 3751SOL     OW22714   2.528   3.171  14.835  0.5024 -0.0748 -0.3957
 3751SOL    HW122715   2.597   3.159  14.901  1.5866  0.2144 -1.4668
 3751SOL    HW222716   2.499   3.082  14.818 -0.5171  0.6229 -2.2974
 3752SOL     OW22717   3.312   1.889   4.259 -0.0651 -0.2659  0.2140
 3752SOL    HW122718   3.307   1.793   4.257  0.1857 -0.2446 -0.9317
 3752SOL    HW222719   3.374   1.921   4.195 -0.9540  2.0674  0.5143
 3753SOL     OW22720   1.224   1.384   3.560 -0.5106 -0.3293 -0.3229
 3753SOL    HW122721   1.150   1.370   3.620 -1.5787  1.1601 -1.3205
 3753SOL    HW222722   1.171   1.381   3.481  0.7023 -1.4827 -1.0987
 3754SOL     OW22723   0.258   3.302   3.976 -0.8249  0.9204  0.3629
 3754SOL    HW122724   0.256   3.237   4.046  0.2177  0.8399  0.3136
 3754SOL    HW222725   0.336   3.349   4.006 -0.4835  0.7461 -0.2388
 3755SOL     OW22726   0.163   0.226  17.103  0.0104  0.0398 -0.0712
 3755SOL    HW122727   0.256   0.203  17.097  0.3881  1.2468  1.1075
 3755SOL    HW222728   0.169   0.320  17.085 -0.8422  0.0923 -0.0470
 3756SOL     OW22729   0.664   1.803   5.207  0.3654 -0.0412 -0.8374
 3756SOL    HW122730   0.672   1.896   5.187  0.7523 -0.2067 -1.4715
 3756SOL    HW222731   0.669   1.760   5.121  0.7043 -0.9102 -0.3863
 3757SOL     OW22732   2.714   4.315  12.956 -0.4399 -0.5699  0.0255
 3757SOL    HW122733   2.672   4.399  12.937  0.4959 -0.6215 -2.2210
 3757SOL    HW222734   2.631   4.268  12.969 -1.9407  1.9978 -0.2628
 3758SOL     OW22735   3.831   4.428   7.674  0.3817 -0.1787 -0.3329
 3758SOL    HW122736   3.857   4.452   7.585 -0.1041 -1.6210 -0.8629
 3758SOL    HW222737   3.797   4.514   7.700 -0.1449  0.3810 -2.8271
 3759SOL     OW22738   1.535   3.437   7.616  0.7902  0.0350  0.0989
 3759SOL    HW122739   1.448   3.461   7.584  0.4442  0.3025  1.2703
 3759SOL    HW222740   1.591   3.481   7.552 -0.6153 -1.4905 -2.2225
 3760SOL     OW22741   3.573   4.700   0.261 -0.4854  0.3101  0.4741
 3760SOL    HW122742   3.548   4.658   0.178  0.7120 -1.5846  1.0612
 3760SOL    HW222743   3.487   4.718   0.300  0.2040 -1.1964  2.6933
 3761SOL     OW22744   1.257   4.418   8.076  0.1342 -0.1598 -0.1141
 3761SOL    HW122745   1.166   4.430   8.049 -0.2076 -0.4754  0.8922
 3761SOL    HW222746   1.251   4.432   8.171  1.0027 -1.1353  0.0907
 3762SOL     OW22747   0.760   0.755   3.937 -0.5049  0.1484 -0.6834
 3762SOL    HW122748   0.667   0.733   3.947  0.2593 -1.9796  2.0302
 3762SOL    HW222749   0.794   0.706   4.012  0.3763  1.7812 -0.0126
 3763SOL     OW22750   2.620   0.846   7.833 -0.5897  0.2866  0.1227
 3763SOL    HW122751   2.643   0.789   7.906  1.5678  0.1138 -0.7027
 3763SOL    HW222752   2.650   0.798   7.757  2.1323  0.2935  1.1961
 3764SOL     OW22753   3.224   0.323  14.053 -1.0153  0.0572  0.2002
 3764SOL    HW122754   3.235   0.405  14.100 -2.1158  0.2418  0.1400
 3764SOL    HW222755   3.131   0.308  14.073 -1.8714  2.3326 -1.9848
 3765SOL     OW22756   0.603   4.421   0.957 -0.2070  0.5391  0.4543
 3765SOL    HW122757   0.536   4.407   0.890  3.5251 -1.2654 -2.8510
 3765SOL    HW222758   0.669   4.456   0.898 -1.1229 -1.9356 -2.0269
 3766SOL     OW22759   0.790   0.080   5.189  0.0733 -0.1058 -0.3470
 3766SOL    HW122760   0.786   0.112   5.099 -0.9999 -0.0433 -0.2696
 3766SOL    HW222761   0.758   4.713   5.173 -0.2074 -0.4147  1.8742
 3767SOL     OW22762   4.060   2.114  12.628 -0.3008  0.4066 -0.4648
 3767SOL    HW122763   4.140   2.137  12.581 -0.1308  0.2569 -0.2479
 3767SOL    HW222764   4.019   2.197  12.603 -1.8397 -1.3477 -3.8772
 3768SOL     OW22765   3.899   1.773   1.857 -0.0805 -0.0403 -0.5444
 3768SOL    HW122766   3.891   1.869   1.856 -0.2604 -0.0584 -1.2308
 3768SOL    HW222767   3.809   1.740   1.855 -0.4237  0.9066 -0.8643
 3769SOL     OW22768   3.960   4.188  15.635  0.0711 -1.2381  0.9708
 3769SOL    HW122769   3.961   4.101  15.595  1.2932 -0.6934 -0.2107
 3769SOL    HW222770   3.923   4.242  15.565  2.3364 -1.6036 -0.5391
 3770SOL     OW22771   3.523   0.906  17.065  0.2618  0.5744 -0.2313
 3770SOL    HW122772   3.444   0.875  17.109  1.3876  0.5179  1.7314
 3770SOL    HW222773   3.589   0.901  17.134 -0.5066 -2.0282  0.2889
 3771SOL     OW22774   2.468   0.350   9.131 -0.5849 -0.2445 -0.0117
 3771SOL    HW122775   2.479   0.264   9.172  0.9912 -1.7619 -3.6307
 3771SOL    HW222776   2.557   0.379   9.112 -0.8834 -0.2836 -1.5178
 3772SOL     OW22777   1.297   0.321   0.362 -0.0421 -0.1050  0.1980
 3772SOL    HW122778   1.230   0.387   0.380  0.0686  0.0178  0.1589
 3772SOL    HW222779   1.282   0.305   0.268  0.7036 -1.7765  0.3623
 3773SOL     OW22780   3.734   2.938  10.182  0.3984  0.1814  0.3533
 3773SOL    HW122781   3.738   2.915  10.275 -2.2743  0.5661  0.5815
 3773SOL    HW222782   3.645   2.972  10.169  0.6302 -0.5526 -3.0608
 3774SOL     OW22783   3.064   2.545   2.960  0.2108 -0.5491  0.0679
 3774SOL    HW122784   3.088   2.634   2.933  1.3324  0.1320  3.3284
 3774SOL    HW222785   3.085   2.556   3.053 -2.9819  1.5958  0.5537
 3775SOL     OW22786   0.355   1.822   9.294 -0.1781 -0.6913  0.0585
 3775SOL    HW122787   0.422   1.853   9.355 -0.5316 -4.1912  2.2883
 3775SOL    HW222788   0.371   1.875   9.216  0.1485  0.7876  1.1313
 3776SOL     OW22789   3.121   3.678  11.364  0.2713 -0.6719 -0.0878
 3776SOL    HW122790   3.162   3.705  11.446  0.1457  0.2484 -0.3325
 3776SOL    HW222791   3.198   3.643  11.319  0.5230  1.2867 -1.1546
 3777SOL     OW22792   2.630   4.210   4.498  0.2720 -0.2328 -0.1727
 3777SOL    HW122793   2.645   4.259   4.417  1.3672 -0.2701  0.0167
 3777SOL    HW222794   2.663   4.275   4.560  1.6276 -0.6134 -0.4960
 3778SOL     OW22795   3.375   1.428   6.045 -0.0160  0.8771  0.0119
 3778SOL    HW122796   3.343   1.477   6.122 -0.2032  0.8588 -0.0543
 3778SOL    HW222797   3.447   1.380   6.087  0.0229  0.7547 -0.1938
 3779SOL     OW22798   2.406   0.523  15.859  0.4433 -0.2947 -0.1535
 3779SOL    HW122799   2.441   0.440  15.891 -1.7321 -1.3200 -0.4850
 3779SOL    HW222800   2.419   0.590  15.927  2.3290 -2.3639  1.5209
 3780SOL     OW22801   2.803   4.217   8.730  0.8313 -0.0765  0.5996
 3780SOL    HW122802   2.729   4.227   8.790 -1.7965  1.0547 -2.7848
 3780SOL    HW222803   2.753   4.188   8.654  2.6335 -0.0386 -0.6032
 3781SOL     OW22804   2.393   0.157  10.479 -0.0789  0.0109 -0.4010
 3781SOL    HW122805   2.409   0.126  10.390 -2.4731 -1.3872 -0.3542
 3781SOL    HW222806   2.474   0.206  10.495 -0.5053  0.6357 -0.1550
 3782SOL     OW22807   4.678   0.525   3.440  0.7804  0.3750 -0.5537
 3782SOL    HW122808   4.710   0.435   3.434 -1.4515 -0.6451  2.9481
 3782SOL    HW222809   0.034   0.578   3.452  0.7603  0.7838 -2.1339
 3783SOL     OW22810   4.675   0.943   6.252  0.5567 -0.1031 -0.2920
 3783SOL    HW122811   0.000   1.020   6.282  0.7867  0.9939 -3.4266
 3783SOL    HW222812   4.587   0.972   6.229  0.4968  1.9086  2.5606
 3784SOL     OW22813   0.373   0.693   1.980  0.2259  0.0502 -0.0670
 3784SOL    HW122814   0.393   0.614   2.030 -0.0424  1.0692  1.6479
 3784SOL    HW222815   0.278   0.681   1.973  0.3289 -2.4763  2.8961
 3785SOL     OW22816   3.571   4.643   6.046 -0.1516  0.2777  0.6612
 3785SOL    HW122817   3.508   4.713   6.065 -0.0651  0.5165  0.0854
 3785SOL    HW222818   3.593   4.604   6.130  1.2433  0.6454  0.4580
 3786SOL     OW22819   1.984   1.533   2.132  0.1032  0.4365  0.1854
 3786SOL    HW122820   1.989   1.537   2.227  1.2161 -1.1673  0.1934
 3786SOL    HW222821   1.893   1.509   2.117  0.0911 -0.1707  1.2471
 3787SOL     OW22822   1.404   0.179   4.816  0.0885 -0.0548 -0.0417
 3787SOL    HW122823   1.472   0.173   4.882  2.1437 -0.5510 -2.2108
 3787SOL    HW222824   1.411   0.267   4.779  0.0054  0.5621  1.3935
 3788SOL     OW22825   0.858   2.918   5.606 -0.4246 -0.0109 -0.1766
 3788SOL    HW122826   0.952   2.912   5.587 -0.3239 -0.0662  0.3275
 3788SOL    HW222827   0.826   2.876   5.526 -0.5154 -0.6621  0.1988
 3789SOL     OW22828   3.654   0.901   5.389  0.3349 -0.1874 -0.1070
 3789SOL    HW122829   3.619   0.969   5.446  0.6942 -1.9079  2.1573
 3789SOL    HW222830   3.591   0.910   5.317 -0.6977 -2.2101  0.5302
 3790SOL     OW22831   0.911   0.507  17.390  0.2542 -0.1886 -0.3509
 3790SOL    HW122832   1.005   0.488  17.389  0.1774 -0.6198  0.5713
 3790SOL    HW222833   0.898   0.545  17.476 -0.6394 -3.0502  0.8035
 3791SOL     OW22834   1.295   1.880  17.509  0.4043  0.5458 -0.9332
 3791SOL    HW122835   1.284   1.926  17.592  0.6208 -0.7017 -0.2043
 3791SOL    HW222836   1.272   1.788  17.521  2.6327  0.0827 -0.1985
 3792SOL     OW22837   4.425   1.147   8.941 -0.0845 -0.0634 -0.1327
 3792SOL    HW122838   4.468   1.063   8.956 -2.5417 -1.0342  1.6187
 3792SOL    HW222839   4.459   1.207   9.008  1.2510 -2.2209  1.1211
 3793SOL     OW22840   0.562   2.320   4.079 -0.0360 -0.0454 -0.5168
 3793SOL    HW122841   0.542   2.291   3.990  2.3502  1.6357 -1.6113
 3793SOL    HW222842   0.628   2.256   4.107 -1.6839 -1.6825 -0.3746
 3794SOL     OW22843   3.166   3.328   2.355 -0.3068  0.0284 -0.3820
 3794SOL    HW122844   3.073   3.347   2.354 -0.5772 -1.2334  1.1137
 3794SOL    HW222845   3.161   3.233   2.364  0.7685 -0.0989 -1.0993
 3795SOL     OW22846   0.040   3.392   7.193 -0.1779 -0.6982 -0.1494
 3795SOL    HW122847   4.722   3.354   7.115 -1.0106  0.2274 -0.1617
 3795SOL    HW222848   4.693   3.447   7.227 -1.1258 -2.2384  0.3727
 3796SOL     OW22849   1.416   3.015   3.325  0.6593  0.3426 -0.5206
 3796SOL    HW122850   1.452   3.041   3.240  0.6904  0.0645 -0.5927
 3796SOL    HW222851   1.410   2.919   3.318  1.1644  0.2185  0.7141
 3797SOL     OW22852   3.922   4.379   6.391 -0.0305 -0.1442  0.1905
 3797SOL    HW122853   3.984   4.424   6.334 -0.2008 -0.8032 -0.5017
 3797SOL    HW222854   3.934   4.412   6.480 -0.5543  1.3544 -0.2944
 3798SOL     OW22855   3.532   2.975  12.047  0.4816  0.3423  0.3092
 3798SOL    HW122856   3.457   3.033  12.037 -1.2943 -1.9820  0.0887
 3798SOL    HW222857   3.497   2.913  12.111  1.9552  0.8916  1.6464
 3799SOL     OW22858   3.375   3.298   9.691 -0.0772 -0.3867  0.7063
 3799SOL    HW122859   3.407   3.331   9.775  1.5666  1.2900 -0.5833
 3799SOL    HW222860   3.291   3.271   9.728 -0.9020 -1.3558 -1.8781
 3800SOL     OW22861   0.539   3.718   8.330  0.4772  0.3694 -0.1327
 3800SOL    HW122862   0.612   3.702   8.390 -0.5766 -0.8760  0.8249
 3800SOL    HW222863   0.560   3.806   8.300  0.5992  0.2808 -0.3051
 3801SOL     OW22864   1.441   0.602  16.386  0.0777 -0.3435  0.1206
 3801SOL    HW122865   1.389   0.536  16.340  2.8096 -0.7384 -2.3816
 3801SOL    HW222866   1.406   0.606  16.475 -0.0479  1.0469  0.0064
 3802SOL     OW22867   0.992   2.873   8.274 -0.0817  0.3751 -0.2184
 3802SOL    HW122868   0.961   2.790   8.239 -1.3789  1.7405 -2.2571
 3802SOL    HW222869   1.004   2.851   8.367 -1.7394  0.3438 -0.0091
 3803SOL     OW22870   1.507   2.825  14.162 -0.0397 -0.4261  0.3568
 3803SOL    HW122871   1.602   2.822  14.178  0.2031  1.5036 -0.6270
 3803SOL    HW222872   1.475   2.883  14.231  0.5916 -0.6263  0.8180
 3804SOL     OW22873   2.831   1.961  16.485 -0.5038  0.5479 -0.1392
 3804SOL    HW122874   2.812   1.867  16.485  0.8024  0.2741 -0.0404
 3804SOL    HW222875   2.919   1.955  16.446 -0.8086 -0.1967 -0.7054
 3805SOL     OW22876   2.809   1.818   2.796  0.7593 -0.0779 -0.0522
 3805SOL    HW122877   2.801   1.860   2.882  2.2653  0.3929 -0.1498
 3805SOL    HW222878   2.904   1.818   2.785  0.5560  1.6135 -1.7576
 3806SOL     OW22879   2.140   4.568   5.310 -0.6907  0.1131 -0.2264
 3806SOL    HW122880   2.167   4.646   5.359  0.5156 -0.8148  0.5703
 3806SOL    HW222881   2.045   4.583   5.312 -0.7599 -0.4451  1.0863
 3807SOL     OW22882   4.569   2.643  11.987 -0.8263  0.9650  0.0930
 3807SOL    HW122883   4.630   2.664  11.917 -2.7593 -0.3286 -1.9659
 3807SOL    HW222884   4.522   2.568  11.951  2.1743  0.2456 -2.3095
 3808SOL     OW22885   2.960   3.943   4.842 -0.2202  0.2181 -0.4432
 3808SOL    HW122886   3.007   4.018   4.877  0.0248 -0.5671  0.8787
 3808SOL    HW222887   2.952   3.975   4.752  0.2773  0.9278 -0.2334
 3809SOL     OW22888   3.792   0.693   3.929 -0.4081 -0.1998 -0.3619
 3809SOL    HW122889   3.834   0.643   3.859  1.8119 -1.5938  1.9323
 3809SOL    HW222890   3.758   0.620   3.981 -0.8606  0.9879  0.9968
 3810SOL     OW22891   2.243   0.914   7.478 -0.0745 -0.5881  0.1849
 3810SOL    HW122892   2.305   0.986   7.469  1.1961 -1.7170 -0.1376
 3810SOL    HW222893   2.160   0.941   7.440 -0.2870  1.0635  1.8339
 3811SOL     OW22894   0.829   0.205   4.424 -0.4576 -0.4769  0.2303
 3811SOL    HW122895   0.906   0.157   4.451  1.0193  1.0691 -1.2016
 3811SOL    HW222896   0.819   0.167   4.337  1.6315 -0.5664  0.0374
 3812SOL     OW22897   2.152   4.661   3.164 -0.3337 -0.6625 -0.0847
 3812SOL    HW122898   2.093   4.705   3.104  0.7175 -0.4194 -0.9406
 3812SOL    HW222899   2.236   4.703   3.143 -0.2351 -1.9818 -2.3503
 3813SOL     OW22900   0.193   3.103   6.566 -0.5624 -0.6660  0.1961
 3813SOL    HW122901   0.253   3.174   6.543 -0.7026  0.1038  2.2003
 3813SOL    HW222902   0.123   3.132   6.507 -0.7763 -1.5301  0.0304
 3814SOL     OW22903   0.078   0.474   4.256 -0.3741  0.5212  0.0228
 3814SOL    HW122904   0.062   0.396   4.203  2.2034  1.5162 -2.2478
 3814SOL    HW222905   0.020   0.533   4.207  1.1753  0.6426 -1.6746
 3815SOL     OW22906   4.442   3.861  15.785 -0.3593  0.0207  0.0007
 3815SOL    HW122907   4.511   3.927  15.775  0.3658 -0.4565  1.9555
 3815SOL    HW222908   4.390   3.893  15.859 -1.1138  2.2562 -1.4887
 3816SOL     OW22909   2.087   2.920   9.523  0.3673 -0.2061  0.0655
 3816SOL    HW122910   2.154   2.866   9.566 -0.7525 -2.1343 -0.6157
 3816SOL    HW222911   2.034   2.958   9.593  2.7835  0.1707  1.7174
 3817SOL     OW22912   1.452   1.881   7.853  0.0144 -0.4044  0.0002
 3817SOL    HW122913   1.407   1.819   7.795  0.0417  1.4610 -2.0474
 3817SOL    HW222914   1.423   1.962   7.811 -1.9005 -1.2140 -0.2671
 3818SOL     OW22915   2.197   1.373   4.154 -0.3305 -0.4021 -0.7930
 3818SOL    HW122916   2.115   1.367   4.202 -1.1476  1.3048 -1.9639
 3818SOL    HW222917   2.169   1.382   4.063  2.5049 -0.4598 -1.6860
 3819SOL     OW22918   4.617   1.717  17.083 -0.7127  0.5484 -0.1853
 3819SOL    HW122919   4.584   1.676  17.163 -1.2030 -3.2692 -2.3603
 3819SOL    HW222920   4.569   1.800  17.088 -0.3495  0.7802 -0.5576
 3820SOL     OW22921   1.637   0.212   4.984 -0.2591  0.6594  0.4560
 3820SOL    HW122922   1.577   0.216   5.058 -0.2215 -1.0080  0.5588
 3820SOL    HW222923   1.721   0.189   5.024 -1.8162 -1.0002  2.7130
 3821SOL     OW22924   1.292   3.204   7.316  0.2293 -0.1908 -0.1281
 3821SOL    HW122925   1.360   3.159   7.365 -0.7558  0.8965  2.2362
 3821SOL    HW222926   1.325   3.200   7.226  0.0570  0.2056 -0.2108
 3822SOL     OW22927   2.881   2.743   1.459  0.4712  0.7930  0.1686
 3822SOL    HW122928   2.958   2.708   1.415 -1.9161 -2.3435 -1.4898
 3822SOL    HW222929   2.808   2.704   1.411 -1.0660 -0.7811  3.7816
 3823SOL     OW22930   3.928   4.415   6.984 -0.0039  0.5246  0.8079
 3823SOL    HW122931   3.907   4.508   6.991  0.6579  0.6598  1.0274
 3823SOL    HW222932   4.023   4.418   6.972 -0.2756  1.3005 -1.0706
 3824SOL     OW22933   2.348   2.480  12.295  0.2878 -0.1132 -0.1256
 3824SOL    HW122934   2.365   2.467  12.202 -0.9123  0.0589 -0.3684
 3824SOL    HW222935   2.351   2.575  12.307 -1.1301 -0.2198  1.1218
 3825SOL     OW22936   0.456   3.650   5.881  0.0666 -0.0286 -0.2593
 3825SOL    HW122937   0.522   3.582   5.885  0.6781  0.5942  0.3400
 3825SOL    HW222938   0.437   3.644   5.788 -0.7341 -0.4275 -0.0750
 3826SOL     OW22939   1.451   1.486   3.419  0.1107 -0.2230 -0.2336
 3826SOL    HW122940   1.413   1.478   3.507 -0.9526 -1.2051 -0.7752
 3826SOL    HW222941   1.442   1.397   3.384 -1.7691 -0.1979  0.1578
 3827SOL     OW22942   0.543   2.846   7.874 -0.1582  0.3511 -0.3326
 3827SOL    HW122943   0.499   2.910   7.817  1.1088  0.5423 -1.0957
 3827SOL    HW222944   0.487   2.841   7.952  0.5875 -2.4144  0.0069
 3828SOL     OW22945   3.090   4.279  11.393 -0.1955  0.3343  0.0987
 3828SOL    HW122946   3.151   4.221  11.346 -2.1981 -1.7762  0.0953
 3828SOL    HW222947   3.135   4.296  11.476 -2.0316  0.6296  1.0222
 3829SOL     OW22948   2.442   4.689   9.103 -0.1961 -0.6861  0.3226
 3829SOL    HW122949   2.510   4.629   9.074  0.5836  1.0761 -1.5004
 3829SOL    HW222950   2.364   4.634   9.095 -0.7411  0.2170 -0.6959
 3830SOL     OW22951   1.886   3.618   5.497  0.6484 -0.5845  0.1573
 3830SOL    HW122952   1.952   3.636   5.565 -0.6371  2.4241  0.6014
 3830SOL    HW222953   1.923   3.663   5.421  0.4210 -0.8189 -0.0930
 3831SOL     OW22954   4.022   3.685   4.451  0.3554  0.2144  0.1140
 3831SOL    HW122955   4.104   3.714   4.489  1.0199 -1.0403 -0.3562
 3831SOL    HW222956   3.970   3.651   4.524 -0.9913  0.5232 -0.7086
 3832SOL     OW22957   0.552   2.027   8.301  0.0837 -0.2616 -0.1985
 3832SOL    HW122958   0.470   1.979   8.305  0.0734 -0.1765  0.6071
 3832SOL    HW222959   0.523   2.098   8.245 -0.1810 -1.4565 -1.5752
 3833SOL     OW22960   2.725   2.621   4.553  1.1219  0.4053 -0.1015
 3833SOL    HW122961   2.675   2.544   4.526 -0.2374  1.8145 -1.6286
 3833SOL    HW222962   2.763   2.600   4.638 -0.6269 -1.5978  0.1740
 3834SOL     OW22963   2.936   4.430  13.053  0.1117 -0.6438  0.3518
 3834SOL    HW122964   2.851   4.401  13.018  0.5399 -1.8219  0.2992
 3834SOL    HW222965   2.980   4.351  13.022  1.8738  0.3157  0.4019
 3835SOL     OW22966   3.879   0.729  17.458 -0.2473 -0.2136 -0.1217
 3835SOL    HW122967   3.805   0.724  17.397  1.3343 -3.7527 -1.6884
 3835SOL    HW222968   3.924   0.798  17.410 -1.1494  0.9980  0.7591
 3836SOL     OW22969   1.116   2.798   4.351 -0.4963 -0.7663  0.5130
 3836SOL    HW122970   1.035   2.847   4.338 -0.6689 -1.1386  0.2157
 3836SOL    HW222971   1.115   2.727   4.287  0.9309  0.3823 -0.8087
 3837SOL     OW22972   4.694   0.576   3.740  0.2927  0.6204 -0.0073
 3837SOL    HW122973   0.033   0.563   3.811 -1.0037  0.8344  1.1682
 3837SOL    HW222974   0.016   0.527   3.671 -1.0008 -2.9657  1.6953
 3838SOL     OW22975   1.872   3.117   3.334 -0.8350 -0.6012 -0.2158
 3838SOL    HW122976   1.854   3.084   3.246  2.2619  1.5050 -1.6285
 3838SOL    HW222977   1.943   3.173   3.301  1.1364 -1.5333  2.4430
 3839SOL     OW22978   3.756   3.721   3.167  0.1446 -0.1349 -0.3927
 3839SOL    HW122979   3.814   3.665   3.116 -0.1932  1.1996 -2.2330
 3839SOL    HW222980   3.813   3.784   3.211 -0.5421  0.2571 -0.0573
 3840SOL     OW22981   3.027   0.459   6.222 -1.0958 -0.4713 -0.7427
 3840SOL    HW122982   3.052   0.381   6.271 -0.0860 -0.2266 -0.8865
 3840SOL    HW222983   3.112   0.494   6.198  0.1860 -2.0224  1.5148
 3841SOL     OW22984   2.332   1.085  11.996 -0.0688  0.6288 -0.3132
 3841SOL    HW122985   2.415   1.084  11.950 -0.6596  1.0463 -1.4025
 3841SOL    HW222986   2.321   1.180  12.002 -2.6592  0.4534 -2.4654
 3842SOL     OW22987   4.674   2.587   7.690 -0.0528 -0.6362  0.2327
 3842SOL    HW122988   0.038   2.627   7.685 -0.7179  0.8857  0.7547
 3842SOL    HW222989   4.684   2.539   7.772  0.0002 -0.2997  0.4238
 3843SOL     OW22990   3.370   4.285   7.589 -0.1208  0.1927  0.0005
 3843SOL    HW122991   3.331   4.367   7.559  0.0389  0.1859 -0.2277
 3843SOL    HW222992   3.388   4.253   7.500  1.3813  5.5069 -1.6333
 3844SOL     OW22993   2.560   2.127   9.634  0.1424 -0.0076  0.1206
 3844SOL    HW122994   2.508   2.071   9.575  0.0493  0.8493 -0.6090
 3844SOL    HW222995   2.617   2.062   9.673  0.4126  0.0671 -0.1486
 3845SOL     OW22996   2.233   2.925   8.818  0.5821 -0.2141  0.0899
 3845SOL    HW122997   2.170   2.855   8.834  0.2570 -0.1736 -0.9763
 3845SOL    HW222998   2.309   2.912   8.875  1.7438  0.6885 -1.2617
 3846SOL     OW22999   2.131   0.026   6.095 -0.7339  0.1819  0.3379
 3846SOL    HW123000   2.189   0.012   6.170  0.1685  1.1006 -0.1906
 3846SOL    HW223001   2.079   0.092   6.140 -2.7577  0.0143 -1.8087
 3847SOL     OW23002   4.588   4.513  15.156 -0.0786  0.3178  0.3794
 3847SOL    HW123003   4.628   4.588  15.111 -0.6749 -0.7537 -1.9263
 3847SOL    HW223004   4.609   4.535  15.247 -0.9677  2.3336  0.1087
 3848SOL     OW23005   2.861   3.120   3.277  0.2168  0.4602  0.1650
 3848SOL    HW123006   2.902   3.049   3.228  1.7146  1.3861  0.0578
 3848SOL    HW223007   2.880   3.188   3.212  3.2268  0.5987  1.1850
 3849SOL     OW23008   0.812   2.606   2.986  0.8132 -0.1689  0.4493
 3849SOL    HW123009   0.825   2.515   2.959  1.0941 -1.1870  4.0223
 3849SOL    HW223010   0.763   2.634   2.909 -0.2260  1.8063  1.8274
 3850SOL     OW23011   0.858   4.465   8.971  0.2649  0.4731  0.1467
 3850SOL    HW123012   0.785   4.406   8.989  1.1856 -1.3878 -2.1711
 3850SOL    HW223013   0.925   4.398   8.962 -0.1467  0.4721 -2.8814
 3851SOL     OW23014   4.398   4.209   4.809  0.9409 -0.1134 -0.2145
 3851SOL    HW123015   4.393   4.304   4.802  0.9137 -0.2993 -2.6764
 3851SOL    HW223016   4.428   4.208   4.901 -2.1778  1.2902  0.8096
 3852SOL     OW23017   0.123   1.239   7.916 -0.5506 -0.0062  0.2227
 3852SOL    HW123018   0.165   1.252   8.001  0.4396  1.4232 -0.4837
 3852SOL    HW223019   0.039   1.242   7.962 -1.2932 -0.0461 -1.1044
 3853SOL     OW23020   1.512   2.452   7.607  0.0585 -0.0462  0.0455
 3853SOL    HW123021   1.467   2.480   7.687  1.1605  2.3289 -0.1597
 3853SOL    HW223022   1.597   2.494   7.623 -0.4917  0.8478  0.6163
 3854SOL     OW23023   3.569   2.098   2.385 -0.1883  0.7701 -0.1932
 3854SOL    HW123024   3.492   2.093   2.328 -0.1930  3.1684 -0.3933
 3854SOL    HW223025   3.639   2.056   2.333 -1.7938 -2.1277 -0.0517
 3855SOL     OW23026   1.634   1.880   4.082 -0.0321  0.5202 -0.5713
 3855SOL    HW123027   1.724   1.909   4.069  0.6172 -1.6066 -0.8262
 3855SOL    HW223028   1.588   1.952   4.125  3.9738  1.8770  1.3804
 3856SOL     OW23029   2.343   1.153   4.294 -0.2841 -0.4792  0.1505
 3856SOL    HW123030   2.413   1.214   4.317  0.1526 -1.2178  0.7839
 3856SOL    HW223031   2.299   1.217   4.238  1.0291  1.3997  1.2299
 3857SOL     OW23032   0.561   4.565   3.548 -0.1970  0.6791 -0.0801
 3857SOL    HW123033   0.472   4.569   3.514 -0.5371  1.7188  0.9540
 3857SOL    HW223034   0.598   4.491   3.499 -2.3193  0.8339 -1.9205
 3858SOL     OW23035   2.704   2.656   1.687 -0.2130 -0.1279 -0.0913
 3858SOL    HW123036   2.775   2.677   1.626 -0.5999  1.5852  0.0567
 3858SOL    HW223037   2.665   2.580   1.643 -0.2333  0.2008 -0.6423
 3859SOL     OW23038   1.858   3.095  17.032 -0.4734  0.3110  0.6678
 3859SOL    HW123039   1.823   3.107  17.120  1.1208  1.1344  1.1759
 3859SOL    HW223040   1.815   3.019  16.991  0.4068 -0.4798  1.2008
 3860SOL     OW23041   4.499   1.682   5.512  0.5351  0.4192  0.8054
 3860SOL    HW123042   4.430   1.743   5.488  1.1256  1.2743  1.2880
 3860SOL    HW223043   4.575   1.732   5.543 -0.1753  1.5521  0.6982
 3861SOL     OW23044   1.292   4.180  13.362  0.2902 -0.4484  0.0055
 3861SOL    HW123045   1.301   4.263  13.317 -0.5397 -0.8241 -0.8425
 3861SOL    HW223046   1.201   4.173  13.390 -0.3364  2.4071 -1.4340
 3862SOL     OW23047   4.601   4.537   4.379 -0.1096  0.0366  0.2614
 3862SOL    HW123048   4.517   4.532   4.334  1.0102 -1.6447 -1.7023
 3862SOL    HW223049   4.590   4.468   4.444 -0.1003  0.2309  0.4673
 3863SOL     OW23050   0.509   0.980   7.714  0.6355  0.3748 -0.1655
 3863SOL    HW123051   0.471   0.959   7.628 -0.6575 -0.0740  0.5177
 3863SOL    HW223052   0.427   0.985   7.763 -0.7298 -2.4190 -2.1626
 3864SOL     OW23053   0.860   0.060   3.836 -0.2026 -0.3572  0.0071
 3864SOL    HW123054   0.919   4.708   3.851  0.6502 -0.0741 -1.8979
 3864SOL    HW223055   0.778   0.020   3.864  0.1640 -0.4918  0.8885
 3865SOL     OW23056   3.897   2.582   0.441 -0.3475  0.3364 -0.0672
 3865SOL    HW123057   3.944   2.499   0.426 -1.4306 -0.4126  0.7004
 3865SOL    HW223058   3.938   2.602   0.525 -0.0874  1.3076 -0.4260
 3866SOL     OW23059   3.228   4.042   2.100  0.6166 -0.1491  0.2336
 3866SOL    HW123060   3.221   4.137   2.112 -2.4004 -0.5281  1.4385
 3866SOL    HW223061   3.144   4.007   2.130  0.5426 -0.0626  0.1280
 3867SOL     OW23062   0.591   4.512   5.535 -0.0659 -0.0526 -0.7627
 3867SOL    HW123063   0.673   4.490   5.580  0.1719 -0.8171 -1.5441
 3867SOL    HW223064   0.550   4.430   5.506  1.9670 -1.8289  1.3060
 3868SOL     OW23065   0.598   3.073   4.068 -0.4724  0.2975 -0.1796
 3868SOL    HW123066   0.541   3.038   4.137  1.8026 -0.1602  1.4794
 3868SOL    HW223067   0.686   3.037   4.082 -1.2699 -1.0316  1.4635
 3869SOL     OW23068   1.374   4.611   0.640 -0.1949  0.0008  0.3966
 3869SOL    HW123069   1.366   4.588   0.547  0.5222  0.6892  0.1573
 3869SOL    HW223070   1.286   4.646   0.656 -0.7491 -1.4607  0.5149
 3870SOL     OW23071   2.885   2.218  13.858  0.0676 -0.0330  0.0198
 3870SOL    HW123072   2.850   2.149  13.802 -0.5805  0.3494 -0.0409
 3870SOL    HW223073   2.878   2.172  13.942 -1.9507  1.4868  0.6964
 3871SOL     OW23074   0.831   2.470   3.961 -0.5416  0.1222  0.2168
 3871SOL    HW123075   0.871   2.384   3.947 -1.4702 -0.1583 -0.6758
 3871SOL    HW223076   0.869   2.521   3.890  1.4775 -1.5701  0.0910
 3872SOL     OW23077   1.748   1.722   9.189 -0.3876  0.5876  0.1040
 3872SOL    HW123078   1.698   1.641   9.181 -0.7788  0.8778 -0.3525
 3872SOL    HW223079   1.688   1.769   9.247 -0.9345 -0.5572  0.4540
 3873SOL     OW23080   4.244   2.424   8.255 -0.4629  0.3650  0.5857
 3873SOL    HW123081   4.301   2.501   8.261  0.7837 -0.6329  1.3614
 3873SOL    HW223082   4.182   2.446   8.325  0.4617  0.1890  1.4587
 3874SOL     OW23083   1.507   2.652   8.086 -0.3837  0.0324  0.0196
 3874SOL    HW123084   1.422   2.655   8.131 -0.6669 -1.8523 -0.3841
 3874SOL    HW223085   1.538   2.562   8.095  0.1372 -0.0107 -2.2093
 3875SOL     OW23086   4.680   1.735   8.384  0.3539  0.2537  0.1179
 3875SOL    HW123087   4.643   1.807   8.332  1.5056  1.9355  1.6279
 3875SOL    HW223088   0.023   1.781   8.437  0.4633  0.8527 -0.5299
 3876SOL     OW23089   1.944   4.186   8.573  0.0048 -0.1999 -0.1129
 3876SOL    HW123090   1.955   4.224   8.486 -3.4017  0.9397 -0.0290
 3876SOL    HW223091   2.037   4.171   8.592 -0.1624 -0.4775  0.4848
 3877SOL     OW23092   3.093   4.240   2.604  0.4878 -0.3153 -0.1846
 3877SOL    HW123093   3.097   4.147   2.627 -1.8076 -0.8572 -1.9572
 3877SOL    HW223094   3.116   4.284   2.685  1.8474 -0.1507 -0.6535
 3878SOL     OW23095   2.417   2.942  12.613  0.4088 -0.0187  0.2845
 3878SOL    HW123096   2.495   2.906  12.572  1.2039  2.3737 -0.3030
 3878SOL    HW223097   2.429   2.942  12.708 -1.1764 -0.2102  0.4862
 3879SOL     OW23098   4.019   3.775   5.587  0.1815 -0.0699 -0.3137
 3879SOL    HW123099   4.089   3.799   5.648 -0.5571 -0.8797  0.8434
 3879SOL    HW223100   3.946   3.818   5.633 -0.7009  0.3548 -2.1306
 3880SOL     OW23101   0.157   2.524   4.237  0.0871  0.1339  0.1484
 3880SOL    HW123102   0.133   2.456   4.174 -0.3543 -1.6519  2.2456
 3880SOL    HW223103   0.069   2.559   4.254 -0.7666 -0.9683 -2.0464
 3881SOL     OW23104   2.649   1.282   5.176  0.4241  0.5391 -0.4866
 3881SOL    HW123105   2.663   1.188   5.169  0.2303  0.2546  2.9284
 3881SOL    HW223106   2.556   1.291   5.198  1.1790 -0.1371  2.9965
 3882SOL     OW23107   4.587   4.116   6.916 -0.2285 -0.2017 -0.3957
 3882SOL    HW123108   4.512   4.125   6.974 -0.1421 -0.3117 -0.2669
 3882SOL    HW223109   4.554   4.171   6.845  1.6650  0.7530 -0.5329
 3883SOL     OW23110   2.797   0.821   6.168 -0.1220  0.2530 -0.6736
 3883SOL    HW123111   2.874   0.853   6.215 -0.0037  0.3348 -0.9239
 3883SOL    HW223112   2.730   0.880   6.201  0.1391  0.4138 -0.4246
 3884SOL     OW23113   0.622   1.391   0.296 -0.3482  0.9952 -0.0574
 3884SOL    HW123114   0.534   1.402   0.334 -0.8153  1.5663 -1.3126
 3884SOL    HW223115   0.659   1.331   0.361 -2.7402  2.1571  2.3970
 3885SOL     OW23116   1.690   1.832  13.469 -0.6396  0.3481 -0.2612
 3885SOL    HW123117   1.668   1.923  13.450 -2.4542  0.2654  1.4755
 3885SOL    HW223118   1.645   1.785  13.398  0.9036 -0.5701 -0.6277
 3886SOL     OW23119   4.529   1.255   1.195 -0.1519  0.1790 -0.2751
 3886SOL    HW123120   4.434   1.251   1.210 -0.2427 -2.5132 -1.5995
 3886SOL    HW223121   4.525   1.276   1.102  0.1079 -0.5226 -0.4435
 3887SOL     OW23122   0.837   4.702   1.899 -0.1536 -0.1888  0.6216
 3887SOL    HW123123   0.743   4.689   1.912 -0.0251 -1.4942  0.2483
 3887SOL    HW223124   0.847   4.655   1.816  0.5881  0.5400  0.2975
 3888SOL     OW23125   1.358   0.871   5.086 -0.4045  0.1576 -0.1513
 3888SOL    HW123126   1.289   0.859   5.152  1.9828  0.6863  2.4773
 3888SOL    HW223127   1.422   0.929   5.128  0.5104 -0.8711 -0.1219
 3889SOL     OW23128   1.675   3.462   8.749 -0.1425  0.2829  0.2702
 3889SOL    HW123129   1.725   3.434   8.672 -0.9346 -1.7893  0.4911
 3889SOL    HW223130   1.637   3.539   8.706 -1.0158 -0.6217 -0.6051
 3890SOL     OW23131   3.781   4.666   4.234 -0.0816 -0.2641  0.9519
 3890SOL    HW123132   3.746   4.708   4.155  0.7381  2.0695  1.8318
 3890SOL    HW223133   3.860   4.719   4.245  0.7003 -1.8578  2.8851
 3891SOL     OW23134   2.850   1.960   5.196  0.1205  0.2643 -0.1007
 3891SOL    HW123135   2.869   2.051   5.215 -0.4437  0.4852 -0.5937
 3891SOL    HW223136   2.939   1.923   5.199 -1.1336 -2.5851  2.1076
 3892SOL     OW23137   3.282   3.367  16.481  0.2750  0.0747  0.2252
 3892SOL    HW123138   3.318   3.427  16.547  0.2176  2.1777 -1.6330
 3892SOL    HW223139   3.298   3.413  16.398  0.9831 -2.5760 -1.1151
 3893SOL     OW23140   2.894   3.436   3.488 -0.2053 -0.1344  0.3431
 3893SOL    HW123141   2.800   3.419   3.502  0.3266 -1.1825  2.6584
 3893SOL    HW223142   2.899   3.532   3.482  0.0471 -0.3657 -3.2163
 3894SOL     OW23143   2.080   3.567  11.618  0.3069 -0.1055  0.5829
 3894SOL    HW123144   1.991   3.567  11.581  0.3017 -1.2706  0.6209
 3894SOL    HW223145   2.107   3.652  11.583 -0.4886 -0.9644 -2.1521
 3895SOL     OW23146   1.295   0.820   7.533  0.4815 -0.6725  0.6926
 3895SOL    HW123147   1.290   0.904   7.489  2.4062 -0.1727  1.4035
 3895SOL    HW223148   1.217   0.830   7.588  0.3128 -2.7352  0.8490
 3896SOL     OW23149   0.411   1.178   9.192 -0.4355 -0.4686  0.3231
 3896SOL    HW123150   0.496   1.214   9.215  1.0844 -2.1566 -2.7550
 3896SOL    HW223151   0.370   1.259   9.162 -0.0506 -0.3309  0.1702
 3897SOL     OW23152   0.403   0.523   1.153 -0.5852 -0.9640  0.0999
 3897SOL    HW123153   0.471   0.507   1.220  1.0555 -0.7708 -1.5181
 3897SOL    HW223154   0.398   0.441   1.104 -0.5742  0.1678 -1.7692
 3898SOL     OW23155   3.727   4.269   4.045  0.3353  0.1627  0.1705
 3898SOL    HW123156   3.646   4.260   3.996  0.3897 -0.1422  0.1341
 3898SOL    HW223157   3.799   4.289   3.984 -0.1191  0.3454 -0.3104
 3899SOL     OW23158   4.660   3.995  14.612  0.2405  0.9006 -0.1035
 3899SOL    HW123159   0.024   4.031  14.596  0.5187 -0.1988 -1.0264
 3899SOL    HW223160   4.615   4.010  14.528  2.5050  0.0769 -1.4549
 3900SOL     OW23161   3.949   4.175   5.474  0.2124 -0.3115 -0.3536
 3900SOL    HW123162   3.863   4.213   5.455 -0.6715 -0.5127  3.2595
 3900SOL    HW223163   3.941   4.098   5.418 -0.5915  0.9845 -2.0233
 3901SOL     OW23164   1.425   2.645   9.210  0.3807  0.2107  0.0162
 3901SOL    HW123165   1.485   2.719   9.205 -0.6647  0.9612 -1.4158
 3901SOL    HW223166   1.492   2.579   9.192  1.7683  1.8257 -0.7158
 3902SOL     OW23167   2.265   3.238  14.797  0.2820 -0.1001  0.3941
 3902SOL    HW123168   2.281   3.280  14.712  1.1815 -0.4819  0.3739
 3902SOL    HW223169   2.343   3.183  14.806  0.3942 -0.0883 -0.5314
 3903SOL     OW23170   3.216   4.081   6.574  0.2171 -0.2892  0.1317
 3903SOL    HW123171   3.166   4.015   6.525 -0.0566  0.4665 -0.6140
 3903SOL    HW223172   3.148   4.134   6.613  1.3192  0.4291  1.0681
 3904SOL     OW23173   2.824   1.093   6.746  0.1603 -0.1780  0.0723
 3904SOL    HW123174   2.763   1.087   6.672  0.0578  1.7987 -0.0100
 3904SOL    HW223175   2.889   1.026   6.724  0.8887  1.1427 -1.7632
 3905SOL     OW23176   4.715   2.704   9.742  0.8959  0.2097  0.5353
 3905SOL    HW123177   4.630   2.736   9.711  0.2862 -1.1823  0.7369
 3905SOL    HW223178   0.009   2.639   9.673 -0.0222  0.0487  0.4662
 3906SOL     OW23179   2.871   4.123  12.618  0.1007  0.2834 -0.3701
 3906SOL    HW123180   2.777   4.122  12.600  0.1473  0.1122 -0.6062
 3906SOL    HW223181   2.863   4.112  12.713 -1.4856  0.4090 -0.4928
 3907SOL     OW23182   3.924   0.832   4.970  0.3417 -0.3483  0.0476
 3907SOL    HW123183   3.834   0.853   4.996  0.2567  1.3492 -1.6315
 3907SOL    HW223184   3.918   0.862   4.880  0.4351  0.1730  0.2165
 3908SOL     OW23185   2.398   3.614   3.262 -0.3614  0.1476  0.2890
 3908SOL    HW123186   2.337   3.600   3.189  0.9420 -2.0045 -0.3973
 3908SOL    HW223187   2.367   3.549   3.325  0.4918  0.2548  0.8150
 3909SOL     OW23188   0.145   4.244  11.653 -0.1910 -0.2040 -0.5444
 3909SOL    HW123189   0.148   4.166  11.709 -1.6429  0.2798  0.1933
 3909SOL    HW223190   0.073   4.289  11.696 -1.2870 -2.7656  0.3372
 3910SOL     OW23191   1.253   4.488   2.023  0.5265  0.1085  0.0933
 3910SOL    HW123192   1.265   4.577   1.989 -2.0530  0.0558 -1.0315
 3910SOL    HW223193   1.342   4.457   2.011  0.4144 -1.1390  2.6085
 3911SOL     OW23194   2.357   0.591   2.527  0.2125 -0.2969  0.2570
 3911SOL    HW123195   2.333   0.498   2.526 -0.1293 -0.1942 -0.5327
 3911SOL    HW223196   2.277   0.627   2.490 -0.0135  0.4317  1.4473
 3912SOL     OW23197   3.700   0.659   4.831  0.4333 -0.2133 -0.1729
 3912SOL    HW123198   3.606   0.644   4.844  0.5820  0.0426  1.2394
 3912SOL    HW223199   3.702   0.746   4.791 -0.7279  0.4757  1.2520
 3913SOL     OW23200   2.086   2.666   8.849  0.4297 -0.0021  0.1846
 3913SOL    HW123201   2.150   2.612   8.896  2.1601 -0.6210 -2.8749
 3913SOL    HW223202   2.092   2.630   8.761 -2.3403 -0.1308  0.0576
 3914SOL     OW23203   2.959   2.023  10.917  0.0443  0.1901 -0.6632
 3914SOL    HW123204   2.901   2.049  10.989  1.6342  0.7448  0.4222
 3914SOL    HW223205   2.972   1.933  10.945 -1.0355  0.0788 -0.5396
 3915SOL     OW23206   0.197   4.445   4.412 -0.1309  0.2999 -0.2783
 3915SOL    HW123207   0.244   4.434   4.495 -0.6912 -0.1249 -0.0149
 3915SOL    HW223208   0.185   4.540   4.415 -0.1428  0.3544 -1.9079
 3916SOL     OW23209   2.746   3.741   5.838 -0.1924 -0.7487  0.8046
 3916SOL    HW123210   2.785   3.828   5.849 -0.2200 -0.3024 -2.4288
 3916SOL    HW223211   2.824   3.690   5.860 -0.4757 -1.9530 -0.9171
 3917SOL     OW23212   0.161   1.085   1.526  0.1838 -0.2146 -0.6835
 3917SOL    HW123213   0.149   1.027   1.450  1.4272 -2.6454  0.9815
 3917SOL    HW223214   0.070   1.085   1.556  0.0183  2.1476 -1.2296
 3918SOL     OW23215   2.003   3.984  12.128 -0.0909  0.1167  0.0628
 3918SOL    HW123216   2.057   4.038  12.186 -0.3332 -0.2500  0.6315
 3918SOL    HW223217   2.009   4.025  12.042 -1.3291 -0.0201 -0.0893
 3919SOL     OW23218   0.321   2.828  13.770  0.2659  0.2681 -0.2751
 3919SOL    HW123219   0.341   2.785  13.686  0.9729  0.2585 -0.1007
 3919SOL    HW223220   0.276   2.909  13.746 -0.3766  0.1464  0.5389
 3920SOL     OW23221   2.856   4.131   5.226  0.1504 -0.2351  0.0860
 3920SOL    HW123222   2.890   4.205   5.176 -1.7709  1.1179  0.7985
 3920SOL    HW223223   2.926   4.123   5.290  2.2667 -1.1013 -2.3519
 3921SOL     OW23224   1.163   2.264   5.494 -0.4167 -0.5645 -0.2975
 3921SOL    HW123225   1.132   2.270   5.404  0.0362  1.0838 -0.3571
 3921SOL    HW223226   1.099   2.197   5.516  1.0374 -2.0275 -0.5478
 3922SOL     OW23227   1.909   2.297  17.035 -0.1382 -0.3624 -0.4141
 3922SOL    HW123228   1.864   2.321  16.954  0.8167  0.3599 -0.7353
 3922SOL    HW223229   1.834   2.316  17.091 -0.4365  0.6249 -1.1418
 3923SOL     OW23230   4.037   1.952   3.647 -0.2576  0.1719 -0.0945
 3923SOL    HW123231   3.977   1.900   3.594 -0.7692  1.0274 -0.3589
 3923SOL    HW223232   4.119   1.902   3.641  0.1665  0.8775 -0.1907
 3924SOL     OW23233   2.377   4.628   3.553  0.1091 -0.0982  0.2656
 3924SOL    HW123234   2.434   4.631   3.629  2.0809  1.1818 -1.2555
 3924SOL    HW223235   2.368   4.536   3.529 -2.1986  0.0389  0.5872
 3925SOL     OW23236   1.103   4.474   0.933 -0.2567 -0.0760  0.5928
 3925SOL    HW123237   1.150   4.517   1.004 -0.2140  2.5626 -1.0538
 3925SOL    HW223238   1.017   4.514   0.945  0.0634  1.8685 -3.4360
 3926SOL     OW23239   2.498   0.008  13.140  0.0671 -0.2708 -0.6387
 3926SOL    HW123240   2.408   4.700  13.133  0.3095 -0.9023 -1.0159
 3926SOL    HW223241   2.505   0.077  13.206  0.2507 -1.5946  0.7180
 3927SOL     OW23242   2.691   4.240   0.957 -0.4140 -0.1731 -0.2200
 3927SOL    HW123243   2.665   4.149   0.971  2.9363 -1.1114 -0.1214
 3927SOL    HW223244   2.773   4.228   0.909 -0.0979  0.3468  0.2035
 3928SOL     OW23245   4.490   0.337   2.605  0.2996  0.1345  0.3413
 3928SOL    HW123246   4.449   0.359   2.522 -1.9266 -0.1887  1.3755
 3928SOL    HW223247   4.562   0.276   2.588  1.6191  1.8929 -0.3713
 3929SOL     OW23248   2.748   0.493   9.012  0.1830  0.0455  0.0895
 3929SOL    HW123249   2.810   0.563   9.033  1.1056 -0.4167 -1.1058
 3929SOL    HW223250   2.755   0.435   9.088 -1.0079  0.4078  0.4782
 3930SOL     OW23251   2.462   3.955  11.298 -0.3128 -0.0939  0.0463
 3930SOL    HW123252   2.432   3.912  11.218 -0.2780 -0.7559  0.3879
 3930SOL    HW223253   2.555   3.972  11.289 -0.2395 -0.3363  0.3641
 3931SOL     OW23254   4.357   1.585   7.920 -0.0510  0.0662 -0.0999
 3931SOL    HW123255   4.380   1.654   7.857  1.6796 -1.5124 -1.2280
 3931SOL    HW223256   4.334   1.635   7.998 -0.7060 -1.5572  0.7650
 3932SOL     OW23257   2.840   1.136   5.395 -0.2221  0.1158 -0.1021
 3932SOL    HW123258   2.933   1.115   5.383  0.0186 -0.0397  1.9413
 3932SOL    HW223259   2.826   1.190   5.318  1.4936  2.9686  1.5878
 3933SOL     OW23260   2.117   0.434   2.228 -0.0782  0.7353 -0.0931
 3933SOL    HW123261   2.205   0.421   2.264  0.4065  0.2788 -1.4388
 3933SOL    HW223262   2.087   0.346   2.208 -0.4990  0.4951  1.5743
 3934SOL     OW23263   0.842   0.450   0.788  0.6748  0.1144 -0.3532
 3934SOL    HW123264   0.862   0.410   0.703 -1.2527 -1.7390  0.0586
 3934SOL    HW223265   0.930   0.475   0.816  1.0618  1.0617 -2.4165
 3935SOL     OW23266   0.114   2.492  16.798 -0.3787 -0.3074  0.1030
 3935SOL    HW123267   0.155   2.547  16.731  0.6893 -2.6032 -1.1282
 3935SOL    HW223268   0.149   2.405  16.777 -1.6844 -0.7639 -0.1682
 3936SOL     OW23269   4.341   0.208   0.735 -0.4333  0.5569  0.0973
 3936SOL    HW123270   4.391   0.190   0.814 -2.5594 -0.6411  1.1749
 3936SOL    HW223271   4.260   0.158   0.746  1.3833 -2.3368  0.2447
 3937SOL     OW23272   1.067   1.194   4.367  0.1977  0.4913  0.0893
 3937SOL    HW123273   1.094   1.207   4.458 -1.2398 -0.1921  0.6202
 3937SOL    HW223274   0.972   1.203   4.374  0.1055 -1.0928  1.0305
 3938SOL     OW23275   2.329   2.383   2.683 -0.1173 -0.0827 -0.3728
 3938SOL    HW123276   2.363   2.346   2.601  0.5362 -1.8863  0.7109
 3938SOL    HW223277   2.377   2.466   2.689  0.5721 -0.5721  0.8799
 3939SOL     OW23278   4.405   4.340  15.674 -0.4407  0.0410  0.0508
 3939SOL    HW123279   4.460   4.297  15.739  1.3879 -0.3918 -1.7880
 3939SOL    HW223280   4.468   4.407  15.649  0.3111 -0.7830 -0.2871
 3940SOL     OW23281   3.183   2.460   2.239  0.1560 -0.5291  0.2938
 3940SOL    HW123282   3.224   2.380   2.273 -2.9087 -1.8798  0.8306
 3940SOL    HW223283   3.120   2.416   2.183  0.9196 -0.7292 -0.4111
 3941SOL     OW23284   1.451   0.544  16.646 -0.4476  0.8692 -0.2268
 3941SOL    HW123285   1.440   0.458  16.605 -3.1116  1.9976 -1.9624
 3941SOL    HW223286   1.535   0.575  16.613 -0.8466  0.5508 -1.5641
 3942SOL     OW23287   4.278   3.492   7.553  0.2092  0.1073 -0.2514
 3942SOL    HW123288   4.274   3.554   7.625  1.0030  1.7770 -1.6470
 3942SOL    HW223289   4.360   3.445   7.571  0.6505  0.6021 -0.9337
 3943SOL     OW23290   4.297   4.236   9.751 -0.5810 -0.1280 -0.2992
 3943SOL    HW123291   4.250   4.275   9.825  0.7152  0.0318  0.4327
 3943SOL    HW223292   4.374   4.291   9.739 -0.3872 -0.7243 -1.8651
 3944SOL     OW23293   0.542   3.271   9.775  0.3508 -0.1776 -0.3926
 3944SOL    HW123294   0.563   3.267   9.681  2.5524 -0.0921  0.0869
 3944SOL    HW223295   0.506   3.182   9.783 -0.6211  0.3168  0.6506
 3945SOL     OW23296   3.631   3.556  11.166 -0.5015 -0.5885 -0.6472
 3945SOL    HW123297   3.622   3.464  11.143 -1.6485 -1.1019  1.8271
 3945SOL    HW223298   3.704   3.587  11.112  0.5966 -0.8985  0.6563
 3946SOL     OW23299   1.327   0.714  10.201  0.2971  0.1322 -0.0000
 3946SOL    HW123300   1.383   0.641  10.175  1.9904  1.9852 -1.6745
 3946SOL    HW223301   1.377   0.732  10.280 -0.1366 -0.6171  0.4359
 3947SOL     OW23302   2.180   0.094   3.594 -0.1618 -0.1942 -1.0583
 3947SOL    HW123303   2.258   0.038   3.584  1.8371  2.4702 -0.2295
 3947SOL    HW223304   2.178   0.126   3.504  0.5971  2.5067 -0.1229
 3948SOL     OW23305   2.006   2.034   4.860 -0.3924 -0.1991  0.1296
 3948SOL    HW123306   1.989   2.002   4.771  0.2327  1.7283 -0.6743
 3948SOL    HW223307   2.069   1.967   4.887  1.2993  0.7045 -1.6169
 3949SOL     OW23308   2.745   1.967  13.379 -0.0642  0.0046 -0.1545
 3949SOL    HW123309   2.726   2.058  13.402 -0.0159 -0.5681  2.0905
 3949SOL    HW223310   2.838   1.968  13.359  0.0372 -0.4181  0.3169
 3950SOL     OW23311   4.142   0.341   9.094 -0.5036 -0.1716  0.2432
 3950SOL    HW123312   4.212   0.403   9.075 -2.7877  2.2010 -0.4599
 3950SOL    HW223313   4.066   0.396   9.076 -0.6540 -0.6039 -0.4436
 3951SOL     OW23314   3.184   2.509   7.640  0.1436  0.0139  0.2422
 3951SOL    HW123315   3.104   2.518   7.690 -0.0913 -0.7268 -0.0077
 3951SOL    HW223316   3.231   2.456   7.704  0.2861  0.3016  0.3793
 3952SOL     OW23317   3.761   4.322  15.806 -0.4778  0.0915 -0.1104
 3952SOL    HW123318   3.853   4.329  15.780 -0.3935  1.5791  0.5587
 3952SOL    HW223319   3.732   4.260  15.740 -1.7540  1.4229 -0.8054
 3953SOL     OW23320   2.441   2.805   2.471  0.0649  0.0509 -0.3206
 3953SOL    HW123321   2.364   2.755   2.444  0.5996 -1.4450  0.8984
 3953SOL    HW223322   2.456   2.858   2.393 -0.6313 -0.0362 -0.5104
 3954SOL     OW23323   0.287   2.044   2.676  0.1601  0.1056  0.0894
 3954SOL    HW123324   0.321   1.956   2.661 -0.8103 -0.3944  0.8638
 3954SOL    HW223325   0.352   2.099   2.632  0.7798 -0.0031  0.8698
 3955SOL     OW23326   1.603   4.110   8.866 -0.0089 -0.0393  0.1337
 3955SOL    HW123327   1.629   4.147   8.950  2.5299 -0.1113 -0.6071
 3955SOL    HW223328   1.509   4.125   8.867 -0.1766 -1.1503  1.0614
 3956SOL     OW23329   0.389   3.258   5.900 -0.3825 -0.3330  0.0800
 3956SOL    HW123330   0.434   3.189   5.851  1.4731  0.0823  1.1760
 3956SOL    HW223331   0.374   3.202   5.975  0.3185  0.1810  0.6061
 3957SOL     OW23332   4.207   2.606   6.467  0.1630  0.0750 -0.2760
 3957SOL    HW123333   4.189   2.655   6.388  0.2489  1.9099  0.8411
 3957SOL    HW223334   4.122   2.607   6.511  0.7148 -0.7191  0.8176
 3958SOL     OW23335   2.436   1.456   1.842  0.1876  0.0383 -0.3352
 3958SOL    HW123336   2.431   1.382   1.782 -0.1152  0.5029 -0.8777
 3958SOL    HW223337   2.363   1.435   1.901  2.5363 -2.7809  1.5758
 3959SOL     OW23338   3.517   3.937   6.193  0.1146  0.4434  0.1934
 3959SOL    HW123339   3.575   3.861   6.193 -0.8702 -0.3049  3.5045
 3959SOL    HW223340   3.488   3.939   6.102 -2.3827  0.7401  0.9891
 3960SOL     OW23341   1.278   1.336   1.686  0.9370  0.6695  0.1695
 3960SOL    HW123342   1.299   1.399   1.617 -0.1495  0.8494 -0.0013
 3960SOL    HW223343   1.259   1.393   1.761  1.5980 -0.1927  0.9801
 3961SOL     OW23344   4.335   2.034   2.354  0.1142 -0.0170  0.6341
 3961SOL    HW123345   4.366   2.104   2.297 -0.4965  0.4127  0.8213
 3961SOL    HW223346   4.242   2.057   2.362  0.0082 -0.6373  1.1281
 3962SOL     OW23347   3.579   4.713   6.953 -0.0409  0.2687 -0.1582
 3962SOL    HW123348   3.607   0.053   7.020 -1.0421 -2.0341  2.4008
 3962SOL    HW223349   3.489   4.700   6.982 -0.5895  0.8926 -1.5616
 3963SOL     OW23350   4.406   2.652   8.116  0.2236  0.1429 -0.5524
 3963SOL    HW123351   4.321   2.686   8.088  0.1903  2.2606  2.2227
 3963SOL    HW223352   4.461   2.711   8.065 -0.3650  1.7129  0.6281
 3964SOL     OW23353   4.482   3.262   5.109  0.2161  0.4374  0.0761
 3964SOL    HW123354   4.463   3.241   5.017  1.2072  1.1282 -0.2886
 3964SOL    HW223355   4.391   3.277   5.135 -0.3410  1.2521 -2.3178
 3965SOL     OW23356   2.507   0.524   7.685 -0.2214 -0.3960  0.0894
 3965SOL    HW123357   2.473   0.524   7.596  0.2439 -1.1036 -0.0904
 3965SOL    HW223358   2.480   0.437   7.713  0.4363 -0.9539 -1.0049
 3966SOL     OW23359   2.263   2.592   5.995 -0.1874 -0.7221  0.2155
 3966SOL    HW123360   2.349   2.579   5.955  1.0851  0.8573  2.3935
 3966SOL    HW223361   2.251   2.685   5.972 -0.8593 -0.6102  1.0217
 3967SOL     OW23362   1.683   1.082   5.028 -0.1693  0.2409  0.4837
 3967SOL    HW123363   1.651   1.009   4.975 -2.7337  1.1803  0.6920
 3967SOL    HW223364   1.777   1.076   5.011 -0.3701  0.3796 -0.7122
 3968SOL     OW23365   4.376   1.349   7.817  0.2335 -0.7240  0.3011
 3968SOL    HW123366   4.362   1.423   7.875 -2.7925 -1.3835  0.3862
 3968SOL    HW223367   4.371   1.278   7.881  1.4753 -0.1061  1.0656
 3969SOL     OW23368   1.005   3.602   3.603  0.1920  0.3826  0.1961
 3969SOL    HW123369   1.019   3.507   3.604 -1.6052  0.1047  0.0181
 3969SOL    HW223370   1.041   3.639   3.684 -3.3123  3.1579  0.4750
 3970SOL     OW23371   3.529   1.393  10.296 -0.3970 -0.8111 -0.6956
 3970SOL    HW123372   3.483   1.336  10.234  0.2661 -1.0657 -0.9577
 3970SOL    HW223373   3.591   1.338  10.344  0.6847  0.0351 -1.1047
 3971SOL     OW23374   0.251   2.020   4.735 -0.6200  0.0866  0.9165
 3971SOL    HW123375   0.266   2.113   4.721  1.5155 -0.3518  0.2512
 3971SOL    HW223376   0.333   1.985   4.769 -0.4514 -1.6127 -1.1980
 3972SOL     OW23377   0.971   3.805   3.072  0.4117 -0.3890 -0.3139
 3972SOL    HW123378   1.034   3.875   3.087 -1.5246  1.2180  0.2618
 3972SOL    HW223379   0.935   3.781   3.157  1.1271  0.0277  0.1105
 3973SOL     OW23380   3.885   2.360  11.670 -0.3338  0.2982 -0.4028
 3973SOL    HW123381   3.861   2.276  11.710  0.3282  0.5156  0.4624
 3973SOL    HW223382   3.838   2.423  11.726  0.9352  1.2781 -0.4386
 3974SOL     OW23383   2.759   4.511   3.245  0.0513  0.5181  0.4596
 3974SOL    HW123384   2.698   4.584   3.231 -0.0392 -0.3073 -3.5512
 3974SOL    HW223385   2.816   4.523   3.169 -0.0812  0.0811  0.2925
 3975SOL     OW23386   1.198   0.414   4.458 -0.2713  0.2854 -0.2872
 3975SOL    HW123387   1.210   0.509   4.466  1.4891  0.2567 -2.3387
 3975SOL    HW223388   1.197   0.418   4.362  0.1620  1.2341 -0.2531
 3976SOL     OW23389   2.932   1.185   8.401 -1.0379 -0.3637 -0.3323
 3976SOL    HW123390   2.853   1.239   8.403 -1.3208 -0.7900  0.1139
 3976SOL    HW223391   2.944   1.176   8.307 -0.3004 -1.3638 -0.1440
 3977SOL     OW23392   0.350   3.592   6.500  0.2571  0.4249  0.2719
 3977SOL    HW123393   0.272   3.569   6.550 -0.2525 -0.8794 -1.1349
 3977SOL    HW223394   0.315   3.658   6.441  0.8864 -0.9041 -1.5779
 3978SOL     OW23395   1.635   2.910   4.808  0.2098  0.3103 -0.6322
 3978SOL    HW123396   1.597   2.861   4.735  0.2819 -0.6647 -0.0168
 3978SOL    HW223397   1.707   2.858   4.842 -0.0022  0.7474  0.5026
 3979SOL     OW23398   1.381   0.372  10.661 -0.6370 -0.4195 -0.1410
 3979SOL    HW123399   1.326   0.360  10.739 -1.3549 -0.4164 -0.6505
 3979SOL    HW223400   1.312   0.377  10.594 -1.4300  2.9805  0.9272
 3980SOL     OW23401   1.863   1.835   6.982 -0.4056 -0.1009 -0.0512
 3980SOL    HW123402   1.957   1.833   6.964 -0.7563  0.0057 -1.9305
 3980SOL    HW223403   1.836   1.924   6.962 -0.6761  0.3995  2.6468
 3981SOL     OW23404   2.149   1.867   5.465  0.3609 -0.1046  0.0643
 3981SOL    HW123405   2.231   1.835   5.504 -0.2698  0.6599  1.9917
 3981SOL    HW223406   2.086   1.829   5.525  1.1432 -0.0415  0.9316
 3982SOL     OW23407   4.696   3.838  14.272  0.5595 -0.0465 -0.1294
 3982SOL    HW123408   4.687   3.841  14.177 -1.6010  0.7688  0.0825
 3982SOL    HW223409   0.053   3.786  14.279  0.3797 -0.4675 -1.2085
 3983SOL     OW23410   0.720   3.637   3.646  0.3364 -0.4857  0.2809
 3983SOL    HW123411   0.730   3.542   3.635  4.7559 -0.0703  1.0099
 3983SOL    HW223412   0.806   3.672   3.624 -1.8059  3.1393 -2.3411
 3984SOL     OW23413   3.070   0.864   2.911  0.1855  0.4172  0.3700
 3984SOL    HW123414   3.111   0.780   2.931 -2.1761 -0.4221  1.7330
 3984SOL    HW223415   3.141   0.911   2.867  1.9247 -2.2058  0.4034
 3985SOL     OW23416   0.723   1.092   6.830 -0.1217  0.1537  0.1936
 3985SOL    HW123417   0.737   1.133   6.915 -1.6788 -2.4986  1.6997
 3985SOL    HW223418   0.646   1.145   6.809  0.0657  0.5444  0.5053
 3986SOL     OW23419   1.811   4.713   6.186  0.0696 -0.2659 -0.0595
 3986SOL    HW123420   1.761   0.019   6.262  0.3105 -2.0535  0.7929
 3986SOL    HW223421   1.870   0.066   6.181 -2.9312  1.9748 -1.1366
 3987SOL     OW23422   3.380   0.330   0.619  0.0062  0.2177 -0.0721
 3987SOL    HW123423   3.294   0.344   0.657 -1.4058 -1.8894 -2.4387
 3987SOL    HW223424   3.361   0.353   0.528 -1.7082 -0.6393  0.0773
 3988SOL     OW23425   1.958   0.694  14.170  0.0620 -0.7355  0.6241
 3988SOL    HW123426   2.028   0.639  14.134  0.5794  0.0972  0.3575
 3988SOL    HW223427   2.012   0.760  14.214 -0.6369  0.5253 -0.4153
 3989SOL     OW23428   2.838   2.678  16.607  0.5545  0.2732  0.0305
 3989SOL    HW123429   2.840   2.607  16.542  1.8846 -1.2835  1.7575
 3989SOL    HW223430   2.754   2.716  16.584  0.4876  0.6504  0.9050
 3990SOL     OW23431   2.406   4.388   3.012 -0.1018  0.1937  0.0924
 3990SOL    HW123432   2.330   4.386   2.954 -0.1034 -1.2585  0.1547
 3990SOL    HW223433   2.483   4.387   2.955  0.9141 -0.7521  1.4868
 3991SOL     OW23434   0.377   0.396   3.215 -0.1551  0.0633 -0.1804
 3991SOL    HW123435   0.371   0.436   3.302  0.7401  0.6733 -0.4106
 3991SOL    HW223436   0.332   0.460   3.161 -1.0252 -0.1038  0.3386
 3992SOL     OW23437   1.448   1.588   7.131  0.0225 -0.5881 -0.1094
 3992SOL    HW123438   1.358   1.557   7.121 -0.7309  1.9546 -1.1947
 3992SOL    HW223439   1.482   1.523   7.192 -0.6099  0.3140  1.2123
 3993SOL     OW23440   2.704   1.917   6.818  0.2546  0.2807  0.1334
 3993SOL    HW123441   2.755   1.963   6.885 -1.1377  0.0094  1.3714
 3993SOL    HW223442   2.628   1.891   6.870  0.0757 -0.6374 -0.5932
 3994SOL     OW23443   3.126   1.999  16.490  0.1694  0.2857  0.4599
 3994SOL    HW123444   3.201   2.058  16.493 -1.3943  2.2997 -0.3093
 3994SOL    HW223445   3.143   1.943  16.414  2.1698  0.0799  1.0756
 3995SOL     OW23446   2.687   2.681   3.128  0.1098  0.2743 -1.0287
 3995SOL    HW123447   2.772   2.726   3.132 -0.2049  0.7974 -0.3034
 3995SOL    HW223448   2.698   2.622   3.203 -1.7471  0.1698 -0.8462
 3996SOL     OW23449   1.600   2.013   3.413 -0.0445  0.3660  0.6003
 3996SOL    HW123450   1.601   1.993   3.507  3.2509 -1.0976  0.2545
 3996SOL    HW223451   1.545   1.945   3.375  0.7780 -0.0272  0.1296
 3997SOL     OW23452   3.548   1.394   4.285 -0.1285  0.2122  0.4116
 3997SOL    HW123453   3.588   1.317   4.246 -3.9212 -1.2578 -0.5381
 3997SOL    HW223454   3.456   1.369   4.277 -0.1121  0.1522  0.4125
 3998SOL     OW23455   3.777   1.958  13.921 -0.1388 -0.0295 -0.1269
 3998SOL    HW123456   3.733   1.945  14.005 -0.5543 -0.3518 -0.3944
 3998SOL    HW223457   3.724   2.029  13.884  1.1569  1.9706  1.8482
 3999SOL     OW23458   1.782   2.103   1.253 -0.0964  0.3281 -0.1368
 3999SOL    HW123459   1.704   2.153   1.275 -1.3154 -1.6994  0.1747
 3999SOL    HW223460   1.756   2.015   1.282 -1.1839  1.2224  1.6133
 4000SOL     OW23461   4.441   4.410   2.427  0.9146  0.2659  0.0679
 4000SOL    HW123462   4.382   4.479   2.399  2.4092  1.1351 -0.9139
 4000SOL    HW223463   4.510   4.460   2.469 -0.5506  1.1308  1.4492
 4001SOL     OW23464   0.289   4.653   6.377 -0.4211 -0.4467  0.0373
 4001SOL    HW123465   0.204   4.644   6.335 -0.7004  0.8675  0.3400
 4001SOL    HW223466   0.331   4.695   6.301 -1.3913  0.0462 -0.2193
 4002SOL     OW23467   2.793   1.518   3.603  0.0986  0.5032  0.1291
 4002SOL    HW123468   2.704   1.552   3.593 -0.5726 -1.3348 -0.2976
 4002SOL    HW223469   2.795   1.469   3.520 -2.1625  0.7559 -0.0684
 4003SOL     OW23470   1.542   2.131  13.139 -0.4547 -1.0275  0.1055
 4003SOL    HW123471   1.511   2.197  13.201  1.1054  0.7141 -0.9793
 4003SOL    HW223472   1.636   2.150  13.139 -0.5499 -0.5882 -1.9225
 4004SOL     OW23473   3.366   4.402   6.793  0.1082 -0.1667  0.6084
 4004SOL    HW123474   3.387   4.327   6.736 -1.4961 -0.7910  0.8398
 4004SOL    HW223475   3.277   4.417   6.761  0.2449 -0.5031  0.0626
 4005SOL     OW23476   3.753   2.175   2.827 -0.0539  0.1550  0.1561
 4005SOL    HW123477   3.848   2.162   2.827 -0.3554 -2.0525  0.3208
 4005SOL    HW223478   3.735   2.114   2.756 -0.9392  0.3717  0.1911
 4006SOL     OW23479   4.692   1.479   8.260  0.2837  0.0518 -0.2223
 4006SOL    HW123480   4.615   1.475   8.203  0.2215 -2.8277  0.1072
 4006SOL    HW223481   4.679   1.558   8.313  1.9088 -0.3172  0.7136
 4007SOL     OW23482   0.807   4.617  13.530  0.1812  0.0276  0.7341
 4007SOL    HW123483   0.725   4.664  13.514 -0.6763 -1.6368  0.2165
 4007SOL    HW223484   0.829   4.580  13.444  0.0269 -1.8596  1.5114
 4008SOL     OW23485   1.051   3.029   6.496  0.7203  0.2236  0.5514
 4008SOL    HW123486   1.025   3.020   6.588  0.6916  0.4828  0.5686
 4008SOL    HW223487   1.053   3.124   6.490  2.9125  0.1191 -0.3711
 4009SOL     OW23488   3.836   0.254   8.243  0.0015  0.1303  0.3188
 4009SOL    HW123489   3.763   0.313   8.263  0.1632  1.3338 -2.6039
 4009SOL    HW223490   3.866   0.298   8.163 -0.9085  1.8204  0.9257
 4010SOL     OW23491   4.612   1.598  16.503 -0.5543 -0.5824 -0.1028
 4010SOL    HW123492   4.535   1.634  16.547 -0.2592 -0.1861  0.0884
 4010SOL    HW223493   4.671   1.623  16.575 -0.7303 -1.9419  0.5181
 4011SOL     OW23494   2.058   0.075   4.370  0.0772 -0.1386  0.0588
 4011SOL    HW123495   2.023   4.722   4.418  0.7432 -0.3851  0.1619
 4011SOL    HW223496   1.975   0.110   4.337  0.0558 -0.1586  0.0909
 4012SOL     OW23497   0.248   3.036   5.488 -0.1155 -0.3367  0.1593
 4012SOL    HW123498   0.203   3.120   5.487  0.0737 -0.2567 -1.4096
 4012SOL    HW223499   0.197   2.981   5.428 -2.1430  3.4867 -1.5777
 4013SOL     OW23500   3.658   0.272  17.309 -0.7521  0.1529  0.2166
 4013SOL    HW123501   3.624   0.188  17.278 -0.5017  0.5162 -1.0399
 4013SOL    HW223502   3.740   0.268  17.260 -0.9205  0.6147 -0.1082
 4014SOL     OW23503   0.977   1.570  13.049 -0.0290  0.3411  0.3330
 4014SOL    HW123504   1.022   1.490  13.022  0.4462  1.0331 -0.9141
 4014SOL    HW223505   0.940   1.608  12.970  0.0569 -1.8146 -0.7350
 4015SOL     OW23506   2.371   3.758   8.765  0.1065 -0.1428 -1.2705
 4015SOL    HW123507   2.325   3.806   8.833  0.5852  0.6599 -1.5157
 4015SOL    HW223508   2.317   3.767   8.687 -1.7599  2.2858  0.2976
 4016SOL     OW23509   3.267   1.200   5.572  0.0411  0.1158 -1.0752
 4016SOL    HW123510   3.298   1.281   5.611  0.4335 -0.6937  0.2705
 4016SOL    HW223511   3.349   1.150   5.571  0.3528  0.6046  2.0093
 4017SOL     OW23512   3.046   2.011  16.199  0.1427  0.2165 -0.3785
 4017SOL    HW123513   2.974   1.949  16.192  2.3616 -2.3806  0.0830
 4017SOL    HW223514   2.991   2.084  16.229 -3.4808 -2.0246 -1.5674
 4018SOL     OW23515   3.323   0.027   7.082  0.0623  0.4512 -0.7951
 4018SOL    HW123516   3.331   0.085   7.158 -0.7318 -0.3991 -0.0509
 4018SOL    HW223517   3.289   0.095   7.024 -0.0421  0.6382 -0.5156
 4019SOL     OW23518   3.119   0.446   1.598 -0.2611 -0.2017 -0.7594
 4019SOL    HW123519   3.196   0.398   1.631 -0.6413  0.1607  0.6449
 4019SOL    HW223520   3.116   0.523   1.655 -1.9436 -0.3689 -0.6094
 4020SOL     OW23521   0.804   1.972   2.973 -0.0213 -0.3886  0.3462
 4020SOL    HW123522   0.838   1.946   3.059 -1.8437  0.3962  1.3047
 4020SOL    HW223523   0.824   2.065   2.976  0.3043 -0.4094 -1.5418
 4021SOL     OW23524   0.711   3.586   0.710 -0.0456 -0.1315 -0.3791
 4021SOL    HW123525   0.707   3.520   0.641  0.2310 -0.3077 -0.2265
 4021SOL    HW223526   0.617   3.598   0.726  0.1356  0.1264  0.4742
 4022SOL     OW23527   2.981   0.878   7.786 -0.3302  0.1435  0.5377
 4022SOL    HW123528   2.948   0.949   7.841 -0.9388 -0.5306  1.0378
 4022SOL    HW223529   2.911   0.814   7.770  1.6572 -1.5897 -1.1374
 4023SOL     OW23530   2.813   2.918   0.593 -0.1185 -0.1958 -0.1922
 4023SOL    HW123531   2.810   2.962   0.678  3.3384 -1.1422  0.4313
 4023SOL    HW223532   2.761   2.842   0.618  0.9736 -1.0398 -0.5122
 4024SOL     OW23533   4.006   0.319   1.454 -0.1064 -0.1899 -0.1247
 4024SOL    HW123534   4.076   0.372   1.417 -0.2707  0.6139  0.7195
 4024SOL    HW223535   3.945   0.337   1.383 -0.4401 -2.2945 -0.3912
 4025SOL     OW23536   4.555   1.498   4.436 -0.2505 -0.5934 -0.1165
 4025SOL    HW123537   4.637   1.448   4.437  0.0070 -0.1692 -0.0508
 4025SOL    HW223538   4.492   1.442   4.481  1.8374 -1.4768  1.7002
 4026SOL     OW23539   1.021   0.256   1.787 -0.0444 -0.0261 -0.2572
 4026SOL    HW123540   0.990   0.192   1.851  1.9858  0.4507  1.2072
 4026SOL    HW223541   0.963   0.329   1.807 -0.1232 -0.5421  1.3932
 4027SOL     OW23542   0.100   2.889   5.911  0.1228  0.3764  0.4399
 4027SOL    HW123543   0.023   2.873   5.966 -2.4279 -0.0560 -3.2428
 4027SOL    HW223544   0.067   2.839   5.836  0.4279  0.7183  0.0767
 4028SOL     OW23545   2.802   3.202   5.028  0.3786  0.3694 -0.2314
 4028SOL    HW123546   2.779   3.294   5.037 -0.8096  0.1719 -1.2203
 4028SOL    HW223547   2.747   3.166   5.097  0.8290 -0.1117 -0.1227
 4029SOL     OW23548   3.401   0.585   8.628 -0.1009 -0.2133 -0.1360
 4029SOL    HW123549   3.475   0.621   8.678 -1.0110 -1.1056  1.8391
 4029SOL    HW223550   3.345   0.660   8.608  2.2590  1.1797 -1.5927
 4030SOL     OW23551   0.468   2.210   5.147 -0.0805  0.1696 -0.0532
 4030SOL    HW123552   0.559   2.183   5.137 -0.2420  0.0088 -1.0590
 4030SOL    HW223553   0.441   2.228   5.057 -0.5185 -0.4297 -0.0366
 4031SOL     OW23554   1.961   3.302   6.231 -0.3035 -0.3764 -0.4534
 4031SOL    HW123555   1.922   3.388   6.221 -1.9898 -0.9183  1.5223
 4031SOL    HW223556   2.004   3.282   6.147  0.9489  0.0342  0.0870
 4032SOL     OW23557   4.441   0.100   3.178  0.0765  0.5024 -0.1134
 4032SOL    HW123558   4.482   0.177   3.137  1.2917 -0.4923 -0.7467
 4032SOL    HW223559   4.522   0.050   3.185 -0.1053  0.3886  1.0416
 4033SOL     OW23560   0.698   1.310   5.239 -0.1074 -0.8356 -0.3566
 4033SOL    HW123561   0.720   1.397   5.204 -1.2190 -0.8069 -0.9758
 4033SOL    HW223562   0.643   1.322   5.316  0.2223 -1.3244 -0.0485
 4034SOL     OW23563   3.591   1.348   1.144 -0.2960  0.1363  0.4811
 4034SOL    HW123564   3.649   1.332   1.219  0.6150 -1.1990 -0.5081
 4034SOL    HW223565   3.660   1.391   1.093  1.3400 -1.8642  0.9776
 4035SOL     OW23566   4.027   0.217  15.632  0.0915 -0.0307  0.1193
 4035SOL    HW123567   4.023   0.302  15.676  1.1032 -0.9153  1.9474
 4035SOL    HW223568   4.115   0.182  15.645  0.5676  0.7598 -0.9884
 4036SOL     OW23569   2.499   1.790  11.892 -0.2691  0.1166 -0.2135
 4036SOL    HW123570   2.527   1.726  11.826  1.4922 -1.0062  1.6101
 4036SOL    HW223571   2.413   1.755  11.917  0.1315 -0.3541  0.5220
 4037SOL     OW23572   1.565   2.808  17.467  0.1718 -0.1685 -0.4539
 4037SOL    HW123573   1.556   2.856  17.550  1.2487 -1.2278  0.2628
 4037SOL    HW223574   1.639   2.856  17.432  1.4499 -2.0561 -0.3233
 4038SOL     OW23575   1.417   2.187   7.870 -0.5651 -0.2277 -0.4092
 4038SOL    HW123576   1.391   2.202   7.961  0.4640  1.3686 -0.3912
 4038SOL    HW223577   1.511   2.177   7.882 -0.4002  1.4131 -0.4270
 4039SOL     OW23578   1.765   1.855   8.925 -0.1741  0.6341  0.0399
 4039SOL    HW123579   1.857   1.880   8.918  0.3050 -1.2126 -0.2450
 4039SOL    HW223580   1.765   1.827   9.016 -2.0287  0.5031  0.0019
 4040SOL     OW23581   3.469   2.974   4.328 -0.5925 -0.8817 -0.7482
 4040SOL    HW123582   3.484   3.068   4.337  0.0122 -0.9597 -0.9092
 4040SOL    HW223583   3.537   2.954   4.264 -0.1695 -1.0404 -0.2527
 4041SOL     OW23584   1.524   4.533  13.762 -0.0336  0.1758  0.4881
 4041SOL    HW123585   1.441   4.566  13.796 -0.2344 -0.2196  0.3839
 4041SOL    HW223586   1.534   4.578  13.679  0.2874 -0.2949  0.2684
 4042SOL     OW23587   1.817   2.895   8.102 -0.4045 -0.3088 -0.5310
 4042SOL    HW123588   1.894   2.912   8.156 -1.3745  2.1459  0.0912
 4042SOL    HW223589   1.763   2.876   8.179  1.1406 -3.4903 -0.2405
 4043SOL     OW23590   1.801   0.248   8.480  0.3398  0.3873  0.7651
 4043SOL    HW123591   1.847   0.184   8.534 -1.5670 -1.2674  0.4223
 4043SOL    HW223592   1.737   0.195   8.433  2.0317 -1.6520  0.8157
 4044SOL     OW23593   2.715   2.855   2.609  0.3054  0.2909 -0.4591
 4044SOL    HW123594   2.737   2.796   2.682  0.4312 -0.0991 -0.8117
 4044SOL    HW223595   2.753   2.812   2.532  0.8646 -1.2481  0.6612
 4045SOL     OW23596   0.491   3.680  13.351  0.2830  0.3417  0.5104
 4045SOL    HW123597   0.536   3.604  13.387  1.6624  0.8812 -0.0521
 4045SOL    HW223598   0.404   3.681  13.390 -0.1309 -1.3095 -0.3746
 4046SOL     OW23599   4.317   1.059  12.224  0.0510 -0.1765  0.5675
 4046SOL    HW123600   4.310   1.104  12.308 -0.9936 -0.7763  0.8107
 4046SOL    HW223601   4.268   0.981  12.252  0.6294 -0.5902  0.4352
 4047SOL     OW23602   4.113   1.282   6.956  0.0689  0.5710 -0.0359
 4047SOL    HW123603   4.045   1.350   6.957 -1.6423 -1.1836  2.2590
 4047SOL    HW223604   4.087   1.226   7.029  2.0451 -0.7563 -0.3673
 4048SOL     OW23605   4.621   0.855   7.426 -0.1944  0.0991  0.2860
 4048SOL    HW123606   4.595   0.877   7.516 -1.9133  3.4293 -1.0390
 4048SOL    HW223607   4.582   0.926   7.376  1.5923  1.2833  0.5836
 4049SOL     OW23608   4.108   2.743   7.532 -0.2639  0.1554 -0.1306
 4049SOL    HW123609   4.115   2.656   7.495 -1.1046  1.1919 -2.7424
 4049SOL    HW223610   4.040   2.761   7.467  0.8435  2.2862 -0.6950
 4050SOL     OW23611   1.618   3.946   8.364 -0.0299 -0.2484  0.6876
 4050SOL    HW123612   1.536   3.897   8.358  1.9481 -3.5602  0.6755
 4050SOL    HW223613   1.617   3.978   8.454 -0.2004  0.0645  0.5729
 4051SOL     OW23614   2.129   4.280  13.709 -0.5678 -0.2469 -0.0112
 4051SOL    HW123615   2.223   4.291  13.721 -0.7007  0.8280  0.0173
 4051SOL    HW223616   2.103   4.365  13.673 -0.3380 -0.4827 -0.7417
 4052SOL     OW23617   2.379   3.061  15.606  0.0730 -0.2794 -0.1952
 4052SOL    HW123618   2.422   2.983  15.570  1.4334  0.1759  0.4284
 4052SOL    HW223619   2.352   3.101  15.523 -0.0430 -0.8727 -0.4467
 4053SOL     OW23620   3.729   2.085   3.098 -0.6472  0.1130  0.6124
 4053SOL    HW123621   3.717   2.112   3.007 -1.5352  1.6808  1.1966
 4053SOL    HW223622   3.720   1.990   3.089  0.6561 -0.0529  1.1660
 4054SOL     OW23623   1.506   1.460   5.791  0.4299  0.6506 -0.5016
 4054SOL    HW123624   1.432   1.421   5.839  0.5409  1.3095  0.2003
 4054SOL    HW223625   1.458   1.539   5.767  1.4490  1.3133 -0.3541
 4055SOL     OW23626   4.616   2.784  11.740  0.4350  0.3680 -0.0623
 4055SOL    HW123627   4.646   2.807  11.652 -3.6570  0.7778 -1.3173
 4055SOL    HW223628   4.521   2.792  11.731  0.3167  0.0713  0.9132
 4056SOL     OW23629   4.508   2.760   5.409  0.3962  0.1763  0.1698
 4056SOL    HW123630   4.465   2.751   5.494 -0.5413  0.7614 -0.2380
 4056SOL    HW223631   4.458   2.836   5.380  0.2516 -0.2169 -0.6337
 4057SOL     OW23632   2.355   1.173   1.907  0.4928  0.2939 -0.5482
 4057SOL    HW123633   2.394   1.209   1.987  2.0733 -0.7782 -0.8379
 4057SOL    HW223634   2.341   1.085   1.941  1.2096  0.9788  1.5775
 4058SOL     OW23635   0.983   4.297  15.826  0.2414  0.3129 -0.2608
 4058SOL    HW123636   0.979   4.267  15.735 -0.5418  1.2752 -0.5406
 4058SOL    HW223637   0.918   4.237  15.863  1.3941 -0.6969  0.1154
 4059SOL     OW23638   4.158   3.617  13.511 -0.9074  0.0165 -0.1695
 4059SOL    HW123639   4.171   3.688  13.448 -1.3693 -0.3442 -0.6752
 4059SOL    HW223640   4.242   3.639  13.550 -0.8439 -0.2212 -0.1773
 4060SOL     OW23641   1.938   3.819   6.936 -0.2178 -0.2035  0.6173
 4060SOL    HW123642   1.911   3.910   6.947 -0.6807 -0.2128 -0.4665
 4060SOL    HW223643   1.985   3.824   6.853 -1.1032 -0.2155  0.1157
 4061SOL     OW23644   3.747   2.384   8.672  0.0445 -0.4105  0.1333
 4061SOL    HW123645   3.829   2.343   8.702  0.3433 -0.3959 -0.6684
 4061SOL    HW223646   3.693   2.307   8.683 -0.4434  0.1890  2.0166
 4062SOL     OW23647   1.594   0.369   2.210 -0.3424  0.0193 -0.3400
 4062SOL    HW123648   1.655   0.380   2.283 -1.7777  1.1801  0.7038
 4062SOL    HW223649   1.588   0.274   2.207 -2.3613  0.0551  2.0895
 4063SOL     OW23650   2.105   0.815  11.435 -0.1119 -0.4836 -0.2128
 4063SOL    HW123651   2.182   0.864  11.465  0.9236 -0.5857 -2.7062
 4063SOL    HW223652   2.152   0.733  11.420 -0.4037 -1.0413  1.9147
 4064SOL     OW23653   3.795   4.345   9.175 -0.5987  0.6911  0.2162
 4064SOL    HW123654   3.799   4.410   9.245  0.0791  1.3740 -0.4624
 4064SOL    HW223655   3.877   4.301   9.196 -0.9764 -1.4878 -2.7631
 4065SOL     OW23656   2.843   1.602   3.251  0.3256 -0.4781  0.4590
 4065SOL    HW123657   2.754   1.590   3.218 -0.3961  1.0794  1.8517
 4065SOL    HW223658   2.897   1.601   3.172 -1.7359 -1.0244 -0.9557
 4066SOL     OW23659   4.369   0.934   6.728 -0.3794  0.1542  0.3958
 4066SOL    HW123660   4.371   1.022   6.764  4.6097  0.0863  0.2388
 4066SOL    HW223661   4.343   0.892   6.810  1.1197 -1.3381  0.1063
 4067SOL     OW23662   3.779   4.064   8.472 -0.3195 -0.2257  0.4592
 4067SOL    HW123663   3.857   4.009   8.463 -0.0745 -0.1209  2.0772
 4067SOL    HW223664   3.745   4.063   8.382 -0.5267  2.0320  0.5278
 4068SOL     OW23665   3.843   4.122   6.374  0.4821  0.6157 -0.4875
 4068SOL    HW123666   3.911   4.104   6.309 -0.2886 -0.4431 -1.0097
 4068SOL    HW223667   3.862   4.215   6.386 -1.1183  0.8023  0.5381
 4069SOL     OW23668   1.172   1.394   1.084  0.4764  0.3387 -0.3279
 4069SOL    HW123669   1.110   1.336   1.041  3.2047 -2.3182 -0.6918
 4069SOL    HW223670   1.228   1.336   1.137  1.5883  0.9569 -0.8133
 4070SOL     OW23671   4.388   4.220  10.302 -0.8630  0.2877 -0.1404
 4070SOL    HW123672   4.373   4.170  10.382  1.1813 -0.7688 -0.4179
 4070SOL    HW223673   4.370   4.310  10.330 -1.1309  0.5241 -1.0482
 4071SOL     OW23674   2.192   4.574   8.797 -0.6472 -0.3161 -0.1090
 4071SOL    HW123675   2.159   4.660   8.774 -2.1881 -0.2456  2.3276
 4071SOL    HW223676   2.125   4.512   8.769  1.5222 -2.3606 -0.8725
 4072SOL     OW23677   4.128   4.298   2.197  0.5166 -0.4128  0.6880
 4072SOL    HW123678   4.223   4.302   2.186  0.5062  1.2268  1.1112
 4072SOL    HW223679   4.112   4.208   2.225  2.1587 -0.5700  1.0904
 4073SOL     OW23680   2.147   4.543   4.075  0.2087  0.4550  0.1799
 4073SOL    HW123681   2.091   4.475   4.037  2.5082 -0.2534 -1.9344
 4073SOL    HW223682   2.071   4.599   4.091 -0.7203 -0.8515  0.4164
 4074SOL     OW23683   3.603   4.190  14.363 -0.0622  0.4249 -0.1295
 4074SOL    HW123684   3.623   4.112  14.311  1.9647 -0.5525  2.1210
 4074SOL    HW223685   3.530   4.226  14.313 -0.0778 -1.4774 -1.4809
 4075SOL     OW23686   2.267   4.501   4.873  0.2182 -0.1330 -0.2934
 4075SOL    HW123687   2.292   4.439   4.804  0.2038 -0.0601 -0.3642
 4075SOL    HW223688   2.251   4.580   4.821  2.4453 -0.2018 -1.0776
 4076SOL     OW23689   2.444   0.978   6.552  0.0399  0.5701 -0.5853
 4076SOL    HW123690   2.378   0.952   6.616  1.9600 -0.9620  0.7740
 4076SOL    HW223691   2.417   0.930   6.474 -1.8309  0.0073  0.4141
 4077SOL     OW23692   4.614   1.327   6.122  0.7235  0.1048 -0.3311
 4077SOL    HW123693   4.678   1.266   6.158 -1.5903 -2.9176 -1.3194
 4077SOL    HW223694   4.647   1.410   6.157  1.9007 -0.2264 -0.6898
 4078SOL     OW23695   3.662   1.005   5.026  0.1243  0.6732  0.1878
 4078SOL    HW123696   3.591   1.055   4.986  0.4298 -0.2906 -1.5502
 4078SOL    HW223697   3.704   1.073   5.079  2.0473  0.7067 -1.3796
 4079SOL     OW23698   0.080   0.099  11.871 -0.3827  0.1044  0.0673
 4079SOL    HW123699   0.059   0.188  11.843  0.6448  0.0264 -0.9650
 4079SOL    HW223700   0.158   0.070  11.823  1.5275  2.1445  1.9727
 4080SOL     OW23701   3.914   4.328   3.846 -0.6883  0.1083 -0.2322
 4080SOL    HW123702   4.010   4.329   3.852 -0.7685  0.8064  1.0862
 4080SOL    HW223703   3.898   4.260   3.782 -3.0605 -0.0675  0.5465
 4081SOL     OW23704   2.431   4.572   6.930 -0.0599  0.1488 -0.1238
 4081SOL    HW123705   2.435   4.638   6.861  1.2134  0.3132  0.1026
 4081SOL    HW223706   2.496   4.509   6.899  0.8603  1.0400 -0.0074
 4082SOL     OW23707   4.544   2.603   2.865 -0.4051  0.6249 -0.1552
 4082SOL    HW123708   4.510   2.692   2.875 -0.9488  0.4719 -0.6576
 4082SOL    HW223709   4.577   2.602   2.775  0.2857  0.0079  0.1035
 4083SOL     OW23710   4.387   2.982  15.357 -0.1276 -0.1495 -0.2632
 4083SOL    HW123711   4.442   2.993  15.435  1.2176  1.6919 -1.4580
 4083SOL    HW223712   4.385   2.887  15.353  1.5341 -0.2706  1.8515
 4084SOL     OW23713   0.296   1.461   3.276  0.1921  0.7758  0.1681
 4084SOL    HW123714   0.308   1.454   3.181  2.7110 -3.1186  0.7687
 4084SOL    HW223715   0.201   1.468   3.288  0.0322 -0.8883 -0.0776
 4085SOL     OW23716   0.149   0.539   3.949 -0.0603 -0.2087  0.0268
 4085SOL    HW123717   0.143   0.629   3.980 -1.1923 -0.7083  1.2612
 4085SOL    HW223718   0.173   0.481   4.021 -1.2608  0.9670  1.3683
 4086SOL     OW23719   3.274   4.043   6.893 -0.1502  0.1718 -0.1939
 4086SOL    HW123720   3.358   4.009   6.865  0.0927 -0.5697  1.4440
 4086SOL    HW223721   3.220   4.057   6.815  0.4387 -1.7612 -0.9299
 4087SOL     OW23722   3.646   1.252  11.019  0.5320  0.7404 -0.5061
 4087SOL    HW123723   3.642   1.270  10.925  1.6946  0.8764 -0.5273
 4087SOL    HW223724   3.615   1.333  11.060  3.6014  1.8148 -0.3224
 4088SOL     OW23725   1.498   3.378   2.046  0.0968 -0.0079 -0.2831
 4088SOL    HW123726   1.493   3.444   2.115  0.0887 -0.3756  0.0670
 4088SOL    HW223727   1.544   3.310   2.094  1.8107  0.6380 -1.0385
 4089SOL     OW23728   0.596   3.395   7.371  0.2729 -0.0207  0.8061
 4089SOL    HW123729   0.633   3.326   7.425 -0.3210 -2.1034 -1.4758
 4089SOL    HW223730   0.503   3.386   7.390  0.4278 -1.1582  0.9838
 4090SOL     OW23731   1.137   0.823   5.232  1.1035  0.2947  0.2236
 4090SOL    HW123732   1.136   0.727   5.226  0.2549  0.1743  1.9922
 4090SOL    HW223733   1.147   0.831   5.327 -0.7374 -0.4377  0.4782
 4091SOL     OW23734   3.095   1.898   6.109  0.2873 -0.1981 -0.0913
 4091SOL    HW123735   3.004   1.900   6.078  0.0447  1.1255  0.7049
 4091SOL    HW223736   3.116   1.805   6.123 -0.6442 -0.3375  0.3687
 4092SOL     OW23737   1.570   1.970   2.515 -0.1078  0.0807  0.0219
 4092SOL    HW123738   1.609   1.919   2.586  1.2303  1.7631  0.4945
 4092SOL    HW223739   1.638   1.963   2.448 -0.8037  1.5388 -0.8438
 4093SOL     OW23740   0.444   0.104   9.046  0.3022 -0.8204 -0.4172
 4093SOL    HW123741   0.485   0.023   9.018  0.2699 -1.2279  0.6832
 4093SOL    HW223742   0.449   0.157   8.967 -0.4712  0.6330  0.4918
 4094SOL     OW23743   2.851   4.290   7.797 -0.4643  0.0099  0.2027
 4094SOL    HW123744   2.849   4.350   7.872  0.0725 -1.5431  1.4676
 4094SOL    HW223745   2.863   4.208   7.845  3.3682  1.0730  1.0330
 4095SOL     OW23746   1.479   2.593   0.433 -0.1680  0.5725 -0.5786
 4095SOL    HW123747   1.407   2.604   0.370  1.7141  1.2900 -2.5979
 4095SOL    HW223748   1.425   2.607   0.511 -0.5354 -0.8210 -0.5798
 4096SOL     OW23749   1.027   0.606  15.299 -0.0895 -0.2047 -0.0835
 4096SOL    HW123750   1.081   0.663  15.243  0.4508 -1.3374 -0.7099
 4096SOL    HW223751   0.994   0.673  15.359  1.0705 -0.0356  0.3794
 4097SOL     OW23752   1.325   0.350   3.191  0.2374  0.1240 -0.1417
 4097SOL    HW123753   1.272   0.277   3.222 -0.1597  0.8651  0.9079
 4097SOL    HW223754   1.276   0.411   3.135 -0.6306 -1.4438 -1.1026
 4098SOL     OW23755   1.445   4.326   5.936  0.2727  0.3094  0.2795
 4098SOL    HW123756   1.539   4.332   5.925  0.1749  0.6649 -0.3971
 4098SOL    HW223757   1.427   4.248   5.883 -1.7741 -0.1769  1.6582
 4099SOL     OW23758   2.557   4.407   2.502 -0.5113  0.0305  0.1717
 4099SOL    HW123759   2.563   4.501   2.483 -2.6640  0.3355  1.0239
 4099SOL    HW223760   2.547   4.384   2.409 -0.7816  0.2592  0.1426
 4100SOL     OW23761   2.825   3.897   9.815  0.3252 -0.3110  0.3461
 4100SOL    HW123762   2.850   3.891   9.907 -1.2258 -2.2189  0.6572
 4100SOL    HW223763   2.774   3.977   9.823  1.7599  0.9920 -3.3986
 4101SOL     OW23764   2.076   0.080  14.739 -0.3047 -0.1737 -0.5959
 4101SOL    HW123765   2.154   0.054  14.788 -2.4867 -2.3891  1.6544
 4101SOL    HW223766   2.034   0.137  14.804  1.6691 -1.8237  2.1043
 4102SOL     OW23767   2.388   3.131   9.129 -0.1301  0.0202  0.1859
 4102SOL    HW123768   2.342   3.108   9.209  2.1248 -0.8828  1.2304
 4102SOL    HW223769   2.325   3.191   9.090  0.7057 -0.1890 -1.5263
 4103SOL     OW23770   3.296   3.978   5.425 -0.3749 -0.0980 -0.0516
 4103SOL    HW123771   3.346   4.033   5.365  2.0577 -0.5836  1.5223
 4103SOL    HW223772   3.322   3.897   5.382  2.0657  1.3823 -1.4021
 4104SOL     OW23773   1.550   2.127  16.006 -0.4353  0.2041 -0.7074
 4104SOL    HW123774   1.531   2.127  15.912  2.9789 -0.9452 -1.4045
 4104SOL    HW223775   1.578   2.218  16.010  1.0319 -0.2098 -1.2424
 4105SOL     OW23776   2.641   3.854   9.378  0.2161  0.7195 -0.1559
 4105SOL    HW123777   2.684   3.860   9.293 -1.4856 -2.3405 -1.2289
 4105SOL    HW223778   2.630   3.947   9.400 -3.2214  0.0668  0.8212
 4106SOL     OW23779   2.045   0.156   7.843  0.0410  0.0289 -0.0945
 4106SOL    HW123780   2.079   0.109   7.767 -2.2089 -0.4781 -0.7864
 4106SOL    HW223781   2.114   0.161   7.909 -0.1483  0.5229  0.0691
 4107SOL     OW23782   1.926   1.098   7.508 -0.1985 -0.2444  0.2064
 4107SOL    HW123783   1.948   1.024   7.452 -1.9472 -0.2160 -0.5171
 4107SOL    HW223784   1.964   1.174   7.463  2.3483 -1.6319 -0.0020
 4108SOL     OW23785   1.231   1.771   9.578 -0.1709  0.2767  0.1024
 4108SOL    HW123786   1.220   1.864   9.601 -1.3830  1.4058 -5.2056
 4108SOL    HW223787   1.169   1.722   9.632 -1.6737  0.2396 -1.6593
 4109SOL     OW23788   0.817   3.229  16.214  0.2163  0.0421  0.1556
 4109SOL    HW123789   0.742   3.193  16.168  1.3175 -0.3083 -1.3735
 4109SOL    HW223790   0.884   3.233  16.146 -2.0192  1.8885 -1.9439
 4110SOL     OW23791   1.329   3.183   5.462  0.0173  0.3699  0.3055
 4110SOL    HW123792   1.331   3.088   5.452 -1.1781  0.2134  1.5120
 4110SOL    HW223793   1.356   3.190   5.554  0.3987 -2.5323  0.4288
 4111SOL     OW23794   2.673   0.972   6.948  0.0683  0.1755 -0.1692
 4111SOL    HW123795   2.702   1.053   6.906  2.6990 -0.7196 -0.1124
 4111SOL    HW223796   2.628   1.006   7.025 -0.2050  0.5202 -0.4814
 4112SOL     OW23797   2.583   1.418   0.981 -0.1940 -0.4344  0.1244
 4112SOL    HW123798   2.570   1.478   0.908 -2.1208 -0.5704  0.3720
 4112SOL    HW223799   2.504   1.365   0.978 -0.7048  0.4452 -1.8096
 4113SOL     OW23800   3.756   0.429  15.733  0.4896  0.3572 -0.2785
 4113SOL    HW123801   3.720   0.442  15.821 -0.5436  0.1515 -0.6713
 4113SOL    HW223802   3.773   0.336  15.748  3.3069  1.4361  3.4211
 4114SOL     OW23803   3.272   0.666   4.602 -0.4710  0.0811 -0.2914
 4114SOL    HW123804   3.243   0.702   4.518 -0.6286 -0.9128 -0.6699
 4114SOL    HW223805   3.206   0.596   4.610 -0.3225 -0.2262 -1.8169
 4115SOL     OW23806   3.679   2.181   8.422  0.4974 -0.8336 -0.1442
 4115SOL    HW123807   3.639   2.114   8.477  0.9028  0.5989  1.9262
 4115SOL    HW223808   3.649   2.155   8.336 -2.8345 -0.3947  0.8930
 4116SOL     OW23809   2.403   2.775  12.304  0.6928 -0.3555 -0.3001
 4116SOL    HW123810   2.360   2.860  12.303 -0.1611 -0.7893 -1.3632
 4116SOL    HW223811   2.448   2.778  12.219 -2.9844  0.0387 -2.2305
 4117SOL     OW23812   0.890   3.721  12.632 -0.0581 -0.3435  0.1797
 4117SOL    HW123813   0.978   3.740  12.666 -0.8964  0.3000  2.0294
 4117SOL    HW223814   0.912   3.636  12.595 -1.9265  0.5413 -2.9450
 4118SOL     OW23815   0.479   1.499   0.675  0.2611 -0.0951  0.0823
 4118SOL    HW123816   0.560   1.450   0.689  0.6082  0.1273 -1.1150
 4118SOL    HW223817   0.475   1.551   0.755 -0.4226 -0.2027  0.1154
 4119SOL     OW23818   3.826   3.824   4.182  0.0676 -0.4045 -0.1396
 4119SOL    HW123819   3.762   3.754   4.188 -0.6650  0.2939  0.2095
 4119SOL    HW223820   3.897   3.792   4.126 -0.4217 -0.0592 -0.9503
 4120SOL     OW23821   2.845   4.317   4.871 -0.1400  0.2520 -0.4789
 4120SOL    HW123822   2.878   4.332   4.960 -3.6883 -0.5549  0.9597
 4120SOL    HW223823   2.751   4.335   4.874 -0.2786 -0.3264 -1.3217
 4121SOL     OW23824   2.979   4.275   9.425 -0.2594 -0.2753 -0.5958
 4121SOL    HW123825   2.908   4.339   9.415  1.0728  1.1192 -1.1982
 4121SOL    HW223826   3.058   4.320   9.395 -0.1254 -0.6406 -0.7863
 4122SOL     OW23827   1.918   1.079  17.345  0.0125  0.4909  0.2461
 4122SOL    HW123828   2.010   1.062  17.325 -0.6952 -1.1955 -1.5238
 4122SOL    HW223829   1.875   1.050  17.264  2.4861 -1.5634 -0.3405
 4123SOL     OW23830   1.478   4.336  15.745  0.2299 -0.4974  0.3542
 4123SOL    HW123831   1.532   4.258  15.741  1.5541  0.4816 -0.9419
 4123SOL    HW223832   1.399   4.302  15.787 -1.1490  0.6998 -1.2982
 4124SOL     OW23833   3.955   1.140   4.192 -0.1555  0.0560 -0.1563
 4124SOL    HW123834   4.043   1.135   4.154  0.2509  4.4652  0.2275
 4124SOL    HW223835   3.984   1.154   4.282  0.1867 -1.4426 -0.0207
 4125SOL     OW23836   0.027   3.642   1.514  0.2707 -0.4063  0.7538
 4125SOL    HW123837   0.010   3.637   1.420  1.1843 -0.1645  0.5767
 4125SOL    HW223838   0.121   3.622   1.516 -0.1077 -2.1580  1.5829
 4126SOL     OW23839   0.546   2.927   8.969  0.2461 -0.3014 -0.1315
 4126SOL    HW123840   0.551   2.970   9.055 -0.0282 -1.2100  0.3438
 4126SOL    HW223841   0.569   2.838   8.996  0.9532  0.2522  1.1591
 4127SOL     OW23842   0.491   3.258  10.594  0.5514 -0.0492 -0.2278
 4127SOL    HW123843   0.529   3.179  10.555 -1.7264 -0.9397 -0.6170
 4127SOL    HW223844   0.490   3.319  10.520 -1.1828  0.3554  0.1199
 4128SOL     OW23845   4.549   3.322   0.710 -0.2852 -0.0015 -0.3350
 4128SOL    HW123846   4.531   3.415   0.693 -3.6325 -0.7704 -1.1100
 4128SOL    HW223847   4.643   3.311   0.698  0.0400  1.6828  0.6872
 4129SOL     OW23848   2.283   3.588   6.220 -0.1693  0.0942 -0.8941
 4129SOL    HW123849   2.213   3.546   6.270 -1.1183 -0.6443 -2.8247
 4129SOL    HW223850   2.290   3.524   6.149  1.2557 -2.8077  1.8830
 4130SOL     OW23851   1.639   1.369   8.144 -0.3376 -0.1618 -0.1789
 4130SOL    HW123852   1.647   1.274   8.156 -1.8732 -0.3347 -0.5319
 4130SOL    HW223853   1.631   1.396   8.235 -1.7461 -0.6438 -0.1709
 4131SOL     OW23854   1.005   3.700   4.056  0.0779 -0.2056  0.0288
 4131SOL    HW123855   0.922   3.673   4.018 -1.0432  1.1627  1.5056
 4131SOL    HW223856   0.984   3.680   4.148  0.9963 -1.4302 -0.0266
 4132SOL     OW23857   1.234   1.077   1.025 -0.1901 -0.4993 -0.1832
 4132SOL    HW123858   1.325   1.076   0.994  0.0001  0.2783  0.3344
 4132SOL    HW223859   1.196   1.091   0.938 -1.4134 -0.6952  0.3172
 4133SOL     OW23860   0.744   2.934  12.147  0.0518 -0.4944  0.3001
 4133SOL    HW123861   0.809   2.866  12.166 -0.3313 -0.2935  2.3912
 4133SOL    HW223862   0.734   2.927  12.052  0.0857  0.1635  0.2522
 4134SOL     OW23863   3.143   1.929   0.348  0.3625  0.0398 -0.4820
 4134SOL    HW123864   3.128   1.873   0.424  0.1497 -1.3104 -1.5192
 4134SOL    HW223865   3.220   1.894   0.303  0.6906 -0.6794  0.6542
 4135SOL     OW23866   1.428   2.539   2.590  0.4332  0.7363 -0.0070
 4135SOL    HW123867   1.516   2.574   2.575  0.9583 -0.9435 -0.8836
 4135SOL    HW223868   1.427   2.451   2.551  0.1104  0.0475  1.5522
 4136SOL     OW23869   1.680   4.441   3.970  0.3409 -0.3146  0.0956
 4136SOL    HW123870   1.688   4.535   3.952 -0.4508 -0.4710 -1.0763
 4136SOL    HW223871   1.772   4.418   3.988  0.5365  0.9185  0.6821
 4137SOL     OW23872   2.043   3.656   0.441 -0.2781 -0.4833  0.3383
 4137SOL    HW123873   2.127   3.610   0.440  1.6539  3.1188 -1.0717
 4137SOL    HW223874   2.071   3.747   0.443  1.6070 -1.0830  0.9086
 4138SOL     OW23875   0.078   4.352   8.305  0.2701 -0.7720 -0.0235
 4138SOL    HW123876   0.107   4.264   8.281  1.9892 -0.3293  0.4740
 4138SOL    HW223877   0.159   4.385   8.343 -0.0794 -0.7224  0.6714
 4139SOL     OW23878   0.683   3.389   0.512 -0.4693  0.1678  0.7661
 4139SOL    HW123879   0.591   3.401   0.487 -0.2646  0.7364  0.3111
 4139SOL    HW223880   0.679   3.327   0.585  1.3160 -2.1844 -1.1258
 4140SOL     OW23881   3.775   3.793   1.773 -0.4111  0.7574 -0.4910
 4140SOL    HW123882   3.740   3.719   1.823  0.1869  0.2524 -0.8130
 4140SOL    HW223883   3.744   3.768   1.686  0.0579  3.2711 -1.3860
 4141SOL     OW23884   3.137   1.476   9.574  0.1640 -0.3104 -0.1972
 4141SOL    HW123885   3.066   1.518   9.525 -1.2525  0.6631  2.6854
 4141SOL    HW223886   3.169   1.547   9.629 -1.8782 -0.3613  1.0522
 4142SOL     OW23887   2.675   1.156   7.374  0.6344  0.1594  0.3961
 4142SOL    HW123888   2.705   1.088   7.313 -0.3341 -0.1831  0.3102
 4142SOL    HW223889   2.752   1.212   7.390  2.2728 -1.7157 -0.9300
 4143SOL     OW23890   1.299   3.173   7.725 -0.3424  0.2847  0.1236
 4143SOL    HW123891   1.393   3.190   7.734 -0.4274 -0.5317  2.4027
 4143SOL    HW223892   1.292   3.080   7.749  2.4561  0.3457  1.2283
 4144SOL     OW23893   1.603   4.696   1.981  0.2721 -0.3430 -0.9645
 4144SOL    HW123894   1.637   0.004   2.065  0.5666  0.8917 -1.5305
 4144SOL    HW223895   1.576   4.606   2.000 -0.9151  0.2291  0.0286
 4145SOL     OW23896   2.808   0.641   3.245  0.4498 -0.1430 -0.4088
 4145SOL    HW123897   2.778   0.716   3.298  2.2858 -1.0381  1.9227
 4145SOL    HW223898   2.731   0.587   3.230  0.1322  0.2988 -0.3832
 4146SOL     OW23899   0.293   4.679   6.674 -0.1888  0.6322 -0.4171
 4146SOL    HW123900   0.200   4.671   6.697 -0.8534 -0.4054 -3.5255
 4146SOL    HW223901   0.285   4.648   6.584  0.9992  0.5915 -0.4971
 4147SOL     OW23902   0.843   2.414   4.495  0.0786 -0.4895  0.0172
 4147SOL    HW123903   0.845   2.318   4.493  0.2177 -0.4172 -3.5578
 4147SOL    HW223904   0.927   2.420   4.541  1.1887 -3.7728 -1.5601
 4148SOL     OW23905   1.974   0.252  14.275 -0.2282  0.2341  0.4941
 4148SOL    HW123906   2.032   0.282  14.206 -1.7903  1.3273 -0.3459
 4148SOL    HW223907   1.982   0.327  14.333 -0.8530  0.0890  0.7689
 4149SOL     OW23908   2.525   0.293  13.911 -0.0278 -0.2899  0.0204
 4149SOL    HW123909   2.497   0.228  13.847 -1.8544  0.1014  0.4399
 4149SOL    HW223910   2.504   0.251  13.994 -0.6567  1.1182  0.5823
 4150SOL     OW23911   1.365   3.767   8.414 -0.8243 -0.4090 -0.7679
 4150SOL    HW123912   1.317   3.686   8.397  1.5050 -2.2243  1.1465
 4150SOL    HW223913   1.328   3.795   8.498 -1.2582 -2.0105 -0.4141
 4151SOL     OW23914   1.063   2.827   3.330  0.2824  0.4063  0.0699
 4151SOL    HW123915   1.079   2.922   3.332 -0.2525  0.4897  0.2994
 4151SOL    HW223916   1.090   2.809   3.420  3.0327 -2.5892 -1.3557
 4152SOL     OW23917   1.651   3.057   8.637 -0.0258  0.3299  0.2145
 4152SOL    HW123918   1.582   2.996   8.663 -1.0045  0.5191 -1.9251
 4152SOL    HW223919   1.631   3.136   8.687 -1.9588 -1.6149  2.4966
 4153SOL     OW23920   4.646   1.895  16.715  0.2299  0.1145  0.4100
 4153SOL    HW123921   4.663   1.809  16.678  2.1565  1.4197 -1.7005
 4153SOL    HW223922   4.714   1.888  16.782  0.9394 -0.0688 -0.3299
 4154SOL     OW23923   4.029   0.771   8.550 -0.4783  0.7652 -0.1297
 4154SOL    HW123924   4.088   0.837   8.513 -2.2589  1.7280 -1.2275
 4154SOL    HW223925   3.971   0.832   8.597 -1.1177  2.4960 -3.2009
 4155SOL     OW23926   4.412   0.410   0.569 -0.0810 -0.1076 -0.2296
 4155SOL    HW123927   4.505   0.402   0.592  0.5131  3.2159 -1.5008
 4155SOL    HW223928   4.375   0.324   0.591  1.4071 -0.4738  0.8553
 4156SOL     OW23929   1.644   3.554   9.004  0.1981 -0.1279  0.3821
 4156SOL    HW123930   1.553   3.583   9.008  0.2236  0.0380 -0.1188
 4156SOL    HW223931   1.653   3.536   8.910 -2.6411 -0.3439  0.1377
 4157SOL     OW23932   2.000   0.201   4.111  0.1464  0.2820 -0.1443
 4157SOL    HW123933   1.926   0.190   4.171 -0.5534  0.1426 -1.0384
 4157SOL    HW223934   1.962   0.197   4.023 -0.8638 -2.1986  0.4048
 4158SOL     OW23935   0.118   3.305   0.025 -0.1328  0.5087  0.1389
 4158SOL    HW123936   0.177   3.268   0.091 -1.2057  0.1628  0.9211
 4158SOL    HW223937   0.071   3.367   0.081  0.8624  0.4784  1.0069
 4159SOL     OW23938   2.093   3.187   2.271 -0.1612 -0.1037 -0.1338
 4159SOL    HW123939   2.007   3.228   2.267 -0.1596 -0.1609 -0.7616
 4159SOL    HW223940   2.067   3.109   2.319 -0.8994  0.2597  0.0547
 4160SOL     OW23941   4.668   2.853   7.127  0.6064  0.1711  0.2416
 4160SOL    HW123942   4.617   2.890   7.200  0.6132 -0.3920  0.5321
 4160SOL    HW223943   4.619   2.774   7.104  1.5036 -0.1443 -0.5901
 4161SOL     OW23944   1.939   1.634   2.846  0.3164 -0.7102  0.1504
 4161SOL    HW123945   2.009   1.659   2.907 -0.0848 -3.4708  1.7392
 4161SOL    HW223946   1.932   1.542   2.870 -0.9550 -0.9328 -1.1246
 4162SOL     OW23947   2.463   2.256   7.049  0.3943  0.0466  0.1496
 4162SOL    HW123948   2.489   2.341   7.013  1.2897 -0.2547  0.0721
 4162SOL    HW223949   2.545   2.240   7.097 -0.1719 -1.0440  0.7454
 4163SOL     OW23950   0.335   1.789   5.968 -0.4749  0.0708  0.3294
 4163SOL    HW123951   0.336   1.695   5.988 -0.7624  0.0258  0.1384
 4163SOL    HW223952   0.425   1.823   5.966 -0.3343 -0.3384 -0.1455
 4164SOL     OW23953   1.045   1.466   3.355 -0.5993  0.6265 -0.2062
 4164SOL    HW123954   1.009   1.527   3.420 -2.0747  2.5680 -2.8725
 4164SOL    HW223955   0.995   1.483   3.275  0.9326  2.0253 -0.8472
 4165SOL     OW23956   4.468   0.368   4.698  0.5315  0.3261 -0.2285
 4165SOL    HW123957   4.467   0.382   4.793  0.5785 -2.1239  0.1460
 4165SOL    HW223958   4.429   0.451   4.670  2.2158  0.6628 -1.5425
 4166SOL     OW23959   4.281   0.644   7.010 -0.2604 -0.5799  1.0020
 4166SOL    HW123960   4.346   0.599   7.063  0.3564  0.3099  1.0149
 4166SOL    HW223961   4.320   0.630   6.923 -1.2293  0.0337  0.4628
 4167SOL     OW23962   2.534   0.754   6.968 -0.0039 -0.4907 -0.3079
 4167SOL    HW123963   2.588   0.833   6.975  0.3144 -0.6924 -0.5203
 4167SOL    HW223964   2.603   0.690   6.982 -1.0134 -1.4943  0.0528
 4168SOL     OW23965   0.027   3.214   6.119 -0.2478  0.1332  0.3404
 4168SOL    HW123966   0.023   3.295   6.069 -0.9636  0.5466  1.0643
 4168SOL    HW223967   4.658   3.186   6.121 -0.1433 -0.0879  1.8516
 4169SOL     OW23968   3.000   4.368   9.141  0.2009  0.2926  0.7094
 4169SOL    HW123969   2.998   4.275   9.120  0.6363  0.7770 -1.5433
 4169SOL    HW223970   3.095   4.379   9.144  0.3484 -0.4242 -1.2576
 4170SOL     OW23971   4.227   1.521  14.412 -0.1835 -0.1920 -0.4039
 4170SOL    HW123972   4.140   1.551  14.438  0.3282  0.2854  0.7849
 4170SOL    HW223973   4.208   1.449  14.352  1.3659  0.0691 -1.2116
 4171SOL     OW23974   0.308   2.676   6.753  0.3201  0.5220 -0.0442
 4171SOL    HW123975   0.400   2.680   6.728 -0.1401 -0.9796 -1.9862
 4171SOL    HW223976   0.270   2.763   6.740  0.8325  0.8797  0.8367
 4172SOL     OW23977   0.348   0.760   2.508 -0.1577 -0.2874  0.0111
 4172SOL    HW123978   0.435   0.719   2.509  0.1045  0.2716 -0.0585
 4172SOL    HW223979   0.293   0.684   2.527 -0.3286 -0.0914  0.3162
 4173SOL     OW23980   3.641   0.256  13.085 -0.0985 -0.1355 -0.1138
 4173SOL    HW123981   3.597   0.239  13.002  0.3434  1.8449 -0.7574
 4173SOL    HW223982   3.656   0.164  13.103  0.0179  0.0256  0.6322
 4174SOL     OW23983   0.997   0.894  15.978 -0.5333  1.1696  0.0148
 4174SOL    HW123984   1.060   0.909  15.907 -4.8770  2.3165 -3.5892
 4174SOL    HW223985   0.969   0.982  16.002  0.1245  1.7726 -1.4013
 4175SOL     OW23986   4.383   3.759   1.848 -0.5988  0.1639  0.2957
 4175SOL    HW123987   4.332   3.834   1.878 -3.8710 -1.5733 -0.9923
 4175SOL    HW223988   4.473   3.785   1.870 -0.9597  0.2562  1.6271
 4176SOL     OW23989   3.637   0.194   7.138  0.4458  0.3494  0.0489
 4176SOL    HW123990   3.582   0.271   7.146 -1.7928 -1.1583 -0.8717
 4176SOL    HW223991   3.724   0.230   7.153 -0.4351  2.2575  0.5054
 4177SOL     OW23992   2.004   2.409   0.340 -0.3027  0.6083  0.4167
 4177SOL    HW123993   2.001   2.353   0.262 -1.7434  0.3364  0.6636
 4177SOL    HW223994   1.977   2.350   0.410  1.4656 -0.3934  0.2429
 4178SOL     OW23995   3.893   2.897  15.222 -0.1189 -0.0791  0.3835
 4178SOL    HW123996   3.966   2.946  15.260  0.2349  0.0822 -0.5112
 4178SOL    HW223997   3.931   2.918  15.137  1.9101 -2.5879  0.6721
 4179SOL     OW23998   0.798   1.672   0.423  0.0986  0.0149  0.4521
 4179SOL    HW123999   0.791   1.653   0.329  1.0119 -1.3886  0.6747
 4179SOL    HW224000   0.709   1.653   0.452  0.0313 -1.5136 -0.7454
 4180SOL     OW24001   0.463   2.294   7.582  0.1024  0.1642  0.7376
 4180SOL    HW124002   0.385   2.339   7.549 -0.3771  0.5416  2.3841
 4180SOL    HW224003   0.433   2.203   7.580 -0.2758  0.3221 -0.9751
 4181SOL     OW24004   3.302   2.524   4.686  0.3022 -0.4826 -1.1984
 4181SOL    HW124005   3.301   2.439   4.642  1.0528 -0.7330 -0.7421
 4181SOL    HW224006   3.386   2.519   4.733  1.0520 -1.1503 -2.5991
 4182SOL     OW24007   2.213   2.030   2.915 -0.1030  0.5918  0.4326
 4182SOL    HW124008   2.161   2.104   2.884 -0.4254  1.1224  2.2372
 4182SOL    HW224009   2.300   2.068   2.905  0.3398 -0.4262  0.3820
 4183SOL     OW24010   2.829   2.145   3.822  0.0597 -0.2111  0.1053
 4183SOL    HW124011   2.860   2.223   3.868  0.1624  0.0575 -0.4250
 4183SOL    HW224012   2.739   2.173   3.804  0.1307 -0.2240 -0.2694
 4184SOL     OW24013   0.211   3.845   5.684 -0.0488  0.1683  0.4718
 4184SOL    HW124014   0.298   3.880   5.666 -0.3934  0.0688 -1.3775
 4184SOL    HW224015   0.223   3.751   5.671  0.6063  0.4566 -0.9808
 4185SOL     OW24016   3.856   2.226   3.299  0.1983 -0.4621  0.2474
 4185SOL    HW124017   3.825   2.176   3.224 -0.4882 -1.8494  1.4641
 4185SOL    HW224018   3.902   2.160   3.351 -0.4207 -0.8269  0.3348
 4186SOL     OW24019   0.491   3.901   8.705  0.0160 -0.4282 -0.6505
 4186SOL    HW124020   0.527   3.815   8.730  0.1134 -0.4697 -0.9226
 4186SOL    HW224021   0.554   3.938   8.642 -4.2744  3.0182 -2.8647
 4187SOL     OW24022   1.841   0.583   8.231  0.6888  0.0997  0.1392
 4187SOL    HW124023   1.780   0.508   8.231  0.1599  0.5266  0.1320
 4187SOL    HW224024   1.854   0.588   8.137  1.7160  0.9291  0.3422
 4188SOL     OW24025   2.546   2.588   9.176  0.3280  0.2588 -0.0590
 4188SOL    HW124026   2.513   2.530   9.244  1.5175  0.7488  0.9199
 4188SOL    HW224027   2.574   2.659   9.233  0.5046  0.5817 -0.5430
 4189SOL     OW24028   0.456   1.218   7.946  0.3642  0.3672 -0.2481
 4189SOL    HW124029   0.416   1.174   7.871  3.1281 -0.2080 -1.3669
 4189SOL    HW224030   0.395   1.187   8.013 -0.7011 -1.3944 -2.0321
 4190SOL     OW24031   1.263   1.202   8.237  0.3459 -0.0248  0.1197
 4190SOL    HW124032   1.291   1.114   8.211 -0.8076 -0.1573 -0.6729
 4190SOL    HW224033   1.282   1.191   8.330  0.0982  1.4291  0.3347
 4191SOL     OW24034   1.163   0.674   3.930  0.1036  0.3210  0.2241
 4191SOL    HW124035   1.235   0.691   3.869  0.5058  0.2493  0.6785
 4191SOL    HW224036   1.091   0.680   3.867 -0.9775 -3.2408  1.0986
 4192SOL     OW24037   3.255   1.195  16.231  0.0268 -0.3353 -0.1100
 4192SOL    HW124038   3.204   1.244  16.167 -1.3527 -3.8760 -1.6862
 4192SOL    HW224039   3.215   1.108  16.237 -1.5517  0.4830  1.4099
 4193SOL     OW24040   1.821   4.042  16.061  0.2029  0.4341 -0.6721
 4193SOL    HW124041   1.901   4.055  16.113 -0.6678  2.2406  0.2096
 4193SOL    HW224042   1.791   3.961  16.100  0.8510  0.5791  0.1203
 4194SOL     OW24043   3.194   1.542   2.812  0.5137  0.3153 -0.2634
 4194SOL    HW124044   3.117   1.485   2.810  1.4645 -1.0121  0.8846
 4194SOL    HW224045   3.269   1.483   2.809  2.0883  2.3468 -0.7333
 4195SOL     OW24046   4.526   3.624   5.646  0.2877  0.9800 -0.0465
 4195SOL    HW124047   4.486   3.582   5.570  3.6178 -0.0113 -1.2872
 4195SOL    HW224048   4.458   3.650   5.708  1.3427  1.2928  0.9981
 4196SOL     OW24049   0.185   1.073   9.896 -0.2493  0.0010 -0.2808
 4196SOL    HW124050   0.090   1.077   9.887 -0.1646  1.5722 -0.4294
 4196SOL    HW224051   0.198   0.978   9.900  0.6056  0.1814  1.4253
 4197SOL     OW24052   4.661   4.658   7.663  0.0427  0.2270  0.3537
 4197SOL    HW124053   4.708   4.665   7.746 -1.0792  0.7335  0.9446
 4197SOL    HW224054   4.706   0.004   7.614  1.1225 -0.5017  0.3254
 4198SOL     OW24055   4.175   1.554  15.675  0.1935 -1.1750  0.2617
 4198SOL    HW124056   4.166   1.649  15.683  2.4023 -1.0749  1.6213
 4198SOL    HW224057   4.102   1.523  15.729 -0.6769  0.1985 -0.1216
 4199SOL     OW24058   0.771   3.926   4.795 -0.5114  0.1536 -0.4248
 4199SOL    HW124059   0.691   3.960   4.754  0.4737  2.1539 -0.6737
 4199SOL    HW224060   0.786   3.842   4.750 -1.0674  0.2981 -0.8933
 4200SOL     OW24061   2.498   4.249   6.555 -0.0148  0.6559 -0.2114
 4200SOL    HW124062   2.453   4.186   6.498  0.1896  1.3607 -1.1698
 4200SOL    HW224063   2.556   4.189   6.602 -2.0429  0.7803  2.4540
 4201SOL     OW24064   2.151   2.130   1.576 -0.3614 -0.3373  0.3955
 4201SOL    HW124065   2.117   2.122   1.487  0.6974  1.8967 -0.2154
 4201SOL    HW224066   2.201   2.049   1.587 -4.1194 -2.9655 -1.6060
 4202SOL     OW24067   3.163   1.239   7.325  0.4054  0.0849 -0.1309
 4202SOL    HW124068   3.251   1.217   7.353 -0.0923 -0.5893  0.9032
 4202SOL    HW224069   3.123   1.152   7.330  0.6681 -0.0346 -0.1402
 4203SOL     OW24070   3.338   0.478   2.435 -0.2434  0.1739  0.1149
 4203SOL    HW124071   3.410   0.440   2.383 -2.1668 -2.8844 -0.3081
 4203SOL    HW224072   3.270   0.501   2.373  0.1711 -0.1694 -0.4704
 4204SOL     OW24073   2.253   3.631  14.647 -0.1229  0.3573  0.4395
 4204SOL    HW124074   2.184   3.651  14.584  1.3673  3.1184 -0.3321
 4204SOL    HW224075   2.323   3.657  14.588  0.6227  1.9418  2.0043
 4205SOL     OW24076   3.832   4.642   3.400  0.2427 -0.2475  0.2045
 4205SOL    HW124077   3.910   4.604   3.439  0.8302 -1.3469 -2.0283
 4205SOL    HW224078   3.758   4.583   3.416 -0.9905  1.3919  0.6602
 4206SOL     OW24079   1.308   4.313  12.502  0.5946 -0.2928  0.4176
 4206SOL    HW124080   1.369   4.239  12.496  2.3096  1.1733 -0.5368
 4206SOL    HW224081   1.370   4.378  12.468 -0.5104  1.8176  2.4608
 4207SOL     OW24082   4.509   3.979   0.843 -0.0043  0.4382 -0.3741
 4207SOL    HW124083   4.504   4.029   0.762  0.7541  1.5070  0.2318
 4207SOL    HW224084   4.417   3.955   0.852  0.5163 -2.0122 -1.7697
 4208SOL     OW24085   0.544   2.079  13.239 -0.3768 -0.3042  0.2035
 4208SOL    HW124086   0.629   2.123  13.250 -0.8287  0.5409  0.3061
 4208SOL    HW224087   0.522   2.120  13.155 -0.2027  0.1918  0.3985
 4209SOL     OW24088   4.244   1.873  13.868  0.9806  0.4418  0.6067
 4209SOL    HW124089   4.167   1.840  13.821  0.1885  1.1003  1.4356
 4209SOL    HW224090   4.274   1.946  13.815  1.7294 -2.1698 -2.5802
 4210SOL     OW24091   4.559   1.300  10.255 -0.7473  0.9623  0.2979
 4210SOL    HW124092   4.649   1.322  10.232 -0.8060  0.8430 -0.0358
 4210SOL    HW224093   4.506   1.357  10.199 -0.8272  0.7773  0.1888
 4211SOL     OW24094   1.081   0.315   5.860 -0.2609 -0.0147 -0.3036
 4211SOL    HW124095   1.104   0.393   5.911 -1.7425  0.3203 -0.1293
 4211SOL    HW224096   1.155   0.257   5.879  0.8866  0.2608 -3.9389
 4212SOL     OW24097   1.185   0.774   3.083  0.9979  0.2414  0.2308
 4212SOL    HW124098   1.268   0.818   3.105  1.1670 -0.7699  1.6743
 4212SOL    HW224099   1.158   0.822   3.005 -0.6752  0.0719  0.7120
 4213SOL     OW24100   3.629   3.466   3.017 -0.0015  0.6768 -0.1877
 4213SOL    HW124101   3.721   3.491   3.011  0.0556  0.5042 -0.0176
 4213SOL    HW224102   3.626   3.373   3.036  0.2407  0.8774  0.8502
 4214SOL     OW24103   1.459   2.395   5.779  0.3858  0.1360 -0.2062
 4214SOL    HW124104   1.439   2.302   5.767 -0.5367 -0.1479  3.7622
 4214SOL    HW224105   1.430   2.423   5.692  1.5783 -1.3366 -1.0659
 4215SOL     OW24106   0.835   3.221  14.129 -0.3518  0.1042 -0.1557
 4215SOL    HW124107   0.839   3.297  14.072 -2.3028  2.0140  2.2802
 4215SOL    HW224108   0.864   3.153  14.067  0.5517  0.8689 -0.5636
 4216SOL     OW24109   3.679   0.089  12.348  0.3065 -0.0080 -0.6829
 4216SOL    HW124110   3.679   0.018  12.412 -2.2295  1.3774  0.8336
 4216SOL    HW224111   3.643   0.040  12.274 -1.0445 -1.4277  0.9071
 4217SOL     OW24112   3.950   4.437   6.707  0.7223  0.5787  0.1043
 4217SOL    HW124113   3.925   4.448   6.799  2.1991  1.6654  0.3810
 4217SOL    HW224114   4.045   4.427   6.717  0.4456 -1.2478  0.8751
 4218SOL     OW24115   1.649   0.215   2.977 -0.1576 -0.4149 -0.4594
 4218SOL    HW124116   1.632   0.215   3.072 -0.5151  1.5863 -0.5246
 4218SOL    HW224117   1.596   0.292   2.958  0.8437  0.1349 -0.9889
 4219SOL     OW24118   1.233   2.132  14.998  0.2048 -0.6026  0.2368
 4219SOL    HW124119   1.139   2.131  14.981 -0.0656  0.4168  1.6534
 4219SOL    HW224120   1.239   2.123  15.093  0.7330 -3.3501 -0.0656
 4220SOL     OW24121   4.048   2.457   8.072 -0.2341  0.8085  0.5031
 4220SOL    HW124122   4.121   2.421   8.124 -0.8159 -2.1315 -0.7059
 4220SOL    HW224123   3.969   2.443   8.124 -0.4405  1.3398  0.3231
 4221SOL     OW24124   1.871   2.582  17.109  0.6228 -0.8293 -0.4417
 4221SOL    HW124125   1.887   2.656  17.168 -1.8263  0.0822 -0.9077
 4221SOL    HW224126   1.847   2.518  17.176 -0.7974  0.0282 -0.1400
 4222SOL     OW24127   1.539   0.875  13.807 -0.5280 -0.0945 -0.1943
 4222SOL    HW124128   1.551   0.915  13.721 -1.2937 -1.3511 -0.8909
 4222SOL    HW224129   1.560   0.947  13.866  0.8076  1.0793 -2.0960
 4223SOL     OW24130   0.127   0.215   6.693 -0.2276 -0.7365  0.1320
 4223SOL    HW124131   0.108   0.130   6.732 -1.3086 -0.5382  0.0436
 4223SOL    HW224132   0.041   0.256   6.684 -0.8034 -1.7244  1.1067
 4224SOL     OW24133   3.428   0.141  17.621 -0.3316  0.8983  0.3419
 4224SOL    HW124134   3.455   0.070  17.678 -0.0848  0.0960 -0.7664
 4224SOL    HW224135   3.444   0.102  17.535 -0.5292 -0.1877  0.7989
 4225SOL     OW24136   1.644   1.142   3.921  0.0037  0.1740 -0.1826
 4225SOL    HW124137   1.596   1.066   3.953 -0.1014  0.2138 -0.2484
 4225SOL    HW224138   1.582   1.210   3.896 -0.3135 -0.9747 -2.4952
 4226SOL     OW24139   1.196   0.776   1.045  0.1971  0.2227 -0.2391
 4226SOL    HW124140   1.209   0.860   1.000  0.1648  0.2469 -0.2035
 4226SOL    HW224141   1.244   0.798   1.126 -0.3259  0.0190  0.1249
 4227SOL     OW24142   3.282   3.956   9.567 -0.6511 -0.0675 -0.0605
 4227SOL    HW124143   3.370   3.928   9.593 -0.4753 -1.9465 -2.5714
 4227SOL    HW224144   3.232   3.924   9.642 -0.5347  0.2270  0.1399
 4228SOL     OW24145   0.945   1.369   7.816 -0.3539 -0.0876 -0.1215
 4228SOL    HW124146   0.884   1.295   7.825  0.2364 -0.4424  0.9172
 4228SOL    HW224147   0.963   1.397   7.905  1.7319  0.4886 -0.7230
 4229SOL     OW24148   3.273   1.510   8.052  0.8828 -0.1796 -0.8582
 4229SOL    HW124149   3.180   1.520   8.036  0.4358 -1.3065  1.0924
 4229SOL    HW224150   3.297   1.586   7.999 -1.0711  0.4759 -0.7786
 4230SOL     OW24151   2.303   3.047   0.359 -0.5041 -0.2688  0.2156
 4230SOL    HW124152   2.247   2.988   0.310  0.8282 -1.7270  0.4395
 4230SOL    HW224153   2.243   3.111   0.397 -1.4345 -1.0141  0.0018
 4231SOL     OW24154   2.601   4.413   6.776 -0.3408  0.7853  0.0182
 4231SOL    HW124155   2.689   4.385   6.801 -0.9518 -1.3922 -0.3128
 4231SOL    HW224156   2.566   4.344   6.721  2.9349 -0.5119 -0.4447
 4232SOL     OW24157   3.741   1.327  12.903  0.0808  0.8650  0.3391
 4232SOL    HW124158   3.716   1.363  12.817  1.3532 -0.2926 -0.5023
 4232SOL    HW224159   3.674   1.259  12.907  1.0895 -0.0764  1.1127
 4233SOL     OW24160   0.648   3.374   8.852 -0.0252 -0.0981 -0.1001
 4233SOL    HW124161   0.684   3.376   8.940  0.2590 -0.6519 -0.2054
 4233SOL    HW224162   0.665   3.284   8.824  3.7931  0.4820  0.4481
 4234SOL     OW24163   0.521   1.217   2.217 -0.0984 -0.4014  0.1508
 4234SOL    HW124164   0.497   1.170   2.298  1.2104  2.8752  2.4427
 4234SOL    HW224165   0.574   1.292   2.243 -0.4538  0.0532 -0.4238
 4235SOL     OW24166   0.316   4.296   5.892 -0.0140  0.5542  0.5633
 4235SOL    HW124167   0.294   4.301   5.985  2.0964 -1.5441  1.1994
 4235SOL    HW224168   0.301   4.202   5.879  0.9155  0.3158  1.1520
 4236SOL     OW24169   3.733   3.925   7.866 -0.5266 -0.7390  0.1436
 4236SOL    HW124170   3.703   3.851   7.814 -1.0654  0.0198 -0.6374
 4236SOL    HW224171   3.676   3.998   7.841 -0.1394 -0.2260  0.7508
 4237SOL     OW24172   4.076   0.049  16.556  0.1809  0.0643 -0.2532
 4237SOL    HW124173   3.985   0.068  16.575  0.1587  0.0494 -0.3433
 4237SOL    HW224174   4.077   4.677  16.541 -0.5621  0.0095  0.0976
 4238SOL     OW24175   0.128   3.317   1.184 -0.4828  0.0452  0.6286
 4238SOL    HW124176   0.106   3.285   1.097  0.5803  1.2653 -0.0876
 4238SOL    HW224177   0.090   3.246   1.235 -0.6629  0.2216  0.7434
 4239SOL     OW24178   1.170   0.497   6.072 -0.2011  0.4096  0.3857
 4239SOL    HW124179   1.259   0.469   6.051 -1.0659 -2.7813  0.9412
 4239SOL    HW224180   1.151   0.561   6.003  0.2657  0.9484  0.7610
 4240SOL     OW24181   4.292   1.459   3.788  0.3302 -0.2864  1.0284
 4240SOL    HW124182   4.298   1.521   3.860 -0.3852 -0.6135  1.3703
 4240SOL    HW224183   4.367   1.402   3.803  0.0967 -0.6391  0.8730
 4241SOL     OW24184   3.931   3.279  12.307  0.1440  0.5987 -0.7819
 4241SOL    HW124185   3.853   3.233  12.277 -1.4858  2.7975  0.0335
 4241SOL    HW224186   3.914   3.373  12.301  1.2672  0.8138 -0.5478
 4242SOL     OW24187   2.390   0.385   2.283  0.6307  0.1340 -0.3385
 4242SOL    HW124188   2.458   0.451   2.292  2.2418 -1.4153 -1.1973
 4242SOL    HW224189   2.435   0.324   2.224 -0.2885 -1.8746  1.0338
 4243SOL     OW24190   3.110   0.343   4.925  0.7703 -0.1940  0.4346
 4243SOL    HW124191   3.104   0.414   4.988 -0.2585 -1.3571  1.6625
 4243SOL    HW224192   3.143   0.274   4.983  0.2058 -1.3586 -0.6273
 4244SOL     OW24193   2.596   2.137   4.789  0.7904 -0.1142 -0.0695
 4244SOL    HW124194   2.522   2.169   4.737  0.4799 -0.2372  0.2924
 4244SOL    HW224195   2.670   2.189   4.759 -0.3720  0.0874 -2.5300
 4245SOL     OW24196   1.370   3.246   2.912 -0.3833  0.1007 -0.8069
 4245SOL    HW124197   1.331   3.317   2.861  1.5637  0.9943 -1.0607
 4245SOL    HW224198   1.423   3.207   2.842  1.6712  2.0017 -0.2929
 4246SOL     OW24199   2.259   3.059  12.426  1.0179  0.0272 -0.1750
 4246SOL    HW124200   2.323   3.034  12.493  0.6755 -1.0381 -0.2524
 4246SOL    HW224201   2.277   3.153  12.425  3.1289 -0.3718 -1.2685
 4247SOL     OW24202   1.007   2.169  11.313  0.2171 -0.4261  0.1613
 4247SOL    HW124203   0.915   2.170  11.337  0.3195  3.1218  0.5458
 4247SOL    HW224204   1.042   2.254  11.342 -0.6580  0.6279 -1.8710
 4248SOL     OW24205   4.509   0.311   5.894 -0.1771  0.0982 -0.0117
 4248SOL    HW124206   4.604   0.303   5.884  0.1744 -0.0747  3.6207
 4248SOL    HW224207   4.477   0.319   5.804  0.1911  1.7162  0.0048
 4249SOL     OW24208   4.638   1.172   8.114 -0.2258 -0.1103  0.5154
 4249SOL    HW124209   4.656   1.106   8.181 -0.6936  0.0395  0.7895
 4249SOL    HW224210   4.544   1.163   8.097  0.3070  1.2049 -3.1038
 4250SOL     OW24211   2.842   0.321   3.206  0.2000 -0.2212  0.0962
 4250SOL    HW124212   2.872   0.318   3.116  0.8333 -2.4778  0.3828
 4250SOL    HW224213   2.773   0.388   3.207  1.8853  1.5539 -3.0657
 4251SOL     OW24214   1.938   0.989   4.914  0.2496  0.3995 -0.2784
 4251SOL    HW124215   1.879   1.050   4.870  0.1761  0.6834  0.2210
 4251SOL    HW224216   2.016   0.991   4.857 -0.1777  2.5714 -0.7990
 4252SOL     OW24217   2.639   3.041   0.132  0.1354 -0.1356  0.4420
 4252SOL    HW124218   2.610   3.017   0.220  0.5387  0.7677  0.8143
 4252SOL    HW224219   2.600   3.128   0.130 -1.3961 -0.8069  0.7589
 4253SOL     OW24220   0.309   1.219   3.105 -0.2602  0.2870  0.3288
 4253SOL    HW124221   0.222   1.232   3.142 -0.8139  1.9049 -1.5083
 4253SOL    HW224222   0.297   1.286   3.037 -1.4233 -1.3365 -1.0401
 4254SOL     OW24223   3.155   2.661   1.440 -0.7072  0.1003 -0.2582
 4254SOL    HW124224   3.233   2.685   1.390 -0.1838  1.3394  1.1370
 4254SOL    HW224225   3.151   2.700   1.528  0.8124 -0.6740  0.1419
 4255SOL     OW24226   0.613   2.572   5.196  0.5361  0.0185  0.3971
 4255SOL    HW124227   0.537   2.540   5.245  2.4067  0.0751  3.3781
 4255SOL    HW224228   0.566   2.637   5.143  0.4846 -1.2813 -1.1348
 4256SOL     OW24229   2.924   4.399   2.449 -0.1320 -0.3289  0.2768
 4256SOL    HW124230   2.968   4.318   2.474 -2.1541 -1.5963 -0.2315
 4256SOL    HW224231   2.852   4.361   2.399  0.3765 -0.0424 -0.6573
 4257SOL     OW24232   0.050   0.147   8.954 -0.4697 -0.2750  0.3093
 4257SOL    HW124233   0.039   0.108   9.041 -2.2226 -0.3689  0.0480
 4257SOL    HW224234   0.103   0.222   8.979 -0.4793  0.9050 -3.2714
 4258SOL     OW24235   0.400   0.007  11.950  0.4846  0.0347 -0.3668
 4258SOL    HW124236   0.473   4.674  11.977  1.6131  0.4066 -2.6667
 4258SOL    HW224237   0.425   0.082  12.004  2.1635 -0.8943  0.1566
 4259SOL     OW24238   0.910   4.030   0.429 -0.6497  0.1044 -0.3047
 4259SOL    HW124239   0.849   3.974   0.478 -1.5935  1.2649 -0.1556
 4259SOL    HW224240   0.964   3.960   0.392  1.4640  0.4732  2.0183
 4260SOL     OW24241   0.305   3.761   3.023  0.7097  0.9750  0.6023
 4260SOL    HW124242   0.379   3.795   3.073  0.3100  2.7675 -0.0368
 4260SOL    HW224243   0.352   3.706   2.960 -1.9381  0.7791 -1.2012
 4261SOL     OW24244   0.204   4.218   0.738 -0.0296  0.1626  0.0975
 4261SOL    HW124245   0.158   4.235   0.821  1.0615  1.5384  0.4192
 4261SOL    HW224246   0.138   4.152   0.716  3.0740 -2.9359  0.2576
 4262SOL     OW24247   0.528   2.621   1.459 -0.0652 -0.0370 -0.8550
 4262SOL    HW124248   0.501   2.659   1.375  1.7476 -1.5760 -2.1324
 4262SOL    HW224249   0.611   2.667   1.468 -0.3021  0.4169 -0.9719
 4263SOL     OW24250   2.493   0.576  14.033 -0.3335  0.5158  0.0953
 4263SOL    HW124251   2.523   0.492  13.998 -0.1760  0.7827 -0.4138
 4263SOL    HW224252   2.556   0.632  13.988  0.7931 -0.5274  0.3929
 4264SOL     OW24253   4.662   3.207   5.785 -0.3723 -0.0675  0.9283
 4264SOL    HW124254   0.004   3.253   5.839 -1.5543  1.5638  0.9472
 4264SOL    HW224255   4.651   3.281   5.726 -1.1477 -0.1663  0.9479
 4265SOL     OW24256   4.275   2.678  11.109 -0.2407  0.5897  0.7095
 4265SOL    HW124257   4.221   2.645  11.180 -0.0699 -0.9628  0.1258
 4265SOL    HW224258   4.312   2.598  11.070 -0.7295  2.9869 -4.7200
 4266SOL     OW24259   4.483   4.302   6.735  0.0673  0.7932 -0.1988
 4266SOL    HW124260   4.475   4.337   6.646 -0.8999  0.1226 -0.3706
 4266SOL    HW224261   4.391   4.316   6.760 -0.2877  0.0290 -1.0755
 4267SOL     OW24262   2.179   0.815   5.415 -0.6444 -0.4944 -0.2335
 4267SOL    HW124263   2.091   0.778   5.427 -0.6277 -0.5310 -0.2229
 4267SOL    HW224264   2.190   0.807   5.321 -1.2918 -2.1636 -0.1779
 4268SOL     OW24265   4.625   2.622   4.267  0.2577  0.0562  0.3561
 4268SOL    HW124266   4.584   2.689   4.320  1.6765  0.3812  1.0573
 4268SOL    HW224267   4.558   2.554   4.272  0.0495  0.3438  1.3078
 4269SOL     OW24268   2.209   1.165  15.742  0.3258 -0.1762 -0.0651
 4269SOL    HW124269   2.119   1.168  15.709 -0.2141 -1.6910  1.2463
 4269SOL    HW224270   2.248   1.234  15.688  0.8641 -1.1453 -0.9166
 4270SOL     OW24271   1.680   1.617   3.992  0.3422  0.4015 -0.1578
 4270SOL    HW124272   1.636   1.688   4.039  1.1223  1.7145 -1.4361
 4270SOL    HW224273   1.613   1.598   3.925  0.0421 -0.7692  0.4680
 4271SOL     OW24274   2.625   1.645   5.361  0.6120 -0.4268 -0.3377
 4271SOL    HW124275   2.699   1.596   5.397 -0.2838 -1.3559  0.2540
 4271SOL    HW224276   2.611   1.698   5.440 -0.8083  0.3780 -1.1334
 4272SOL     OW24277   0.768   2.951   7.697 -0.0391 -0.5738 -0.1686
 4272SOL    HW124278   0.721   2.916   7.772  1.7514 -2.2528  0.1487
 4272SOL    HW224279   0.753   3.043   7.722  2.2946 -0.6431  1.4442
 4273SOL     OW24280   3.186   3.685  10.439 -0.2306  0.0893 -0.0465
 4273SOL    HW124281   3.126   3.726  10.502  0.9044  0.0215  1.0997
 4273SOL    HW224282   3.123   3.637  10.386 -0.3466  0.6938 -0.4515
 4274SOL     OW24283   0.777   2.595   8.237 -0.2695 -0.2348 -0.3974
 4274SOL    HW124284   0.702   2.553   8.195 -0.4429  1.1944 -1.5415
 4274SOL    HW224285   0.824   2.623   8.159 -0.7228 -3.4088 -1.7918
 4275SOL     OW24286   1.083   3.852   4.610  0.2054 -0.1731  0.1070
 4275SOL    HW124287   1.142   3.889   4.676 -0.9184  0.8443  0.5311
 4275SOL    HW224288   1.137   3.789   4.562  2.0391 -0.2349  2.2409
 4276SOL     OW24289   1.046   4.117   6.521 -0.0659 -0.0322  0.1961
 4276SOL    HW124290   1.028   4.204   6.557  0.9588  0.0895  0.4312
 4276SOL    HW224291   1.122   4.088   6.573  1.4759  1.7418 -1.0582
 4277SOL     OW24292   4.124   0.754  11.222  0.1820  0.0162  0.0393
 4277SOL    HW124293   4.175   0.774  11.144 -1.5171  1.6990 -0.6279
 4277SOL    HW224294   4.078   0.838  11.225  3.4735  1.7845 -0.0106
 4278SOL     OW24295   0.487   0.235  12.083  0.0843  0.2421 -0.8686
 4278SOL    HW124296   0.482   0.305  12.148  2.3258 -0.8330  0.4529
 4278SOL    HW224297   0.505   0.175  12.155  0.4503  0.0273 -1.1390
 4279SOL     OW24298   2.548   3.712  15.391 -0.2311  0.0149  0.4798
 4279SOL    HW124299   2.592   3.774  15.333  0.5471 -0.2085  0.8163
 4279SOL    HW224300   2.493   3.673  15.323 -0.5599 -2.2812  2.0508
 4280SOL     OW24301   1.188   2.413  13.106  0.1708  0.5498  0.9090
 4280SOL    HW124302   1.145   2.393  13.022 -0.9919 -1.2735  1.9270
 4280SOL    HW224303   1.277   2.439  13.086 -0.1835  1.0620 -0.0229
 4281SOL     OW24304   4.304   2.566   3.139  0.2248  0.4387  0.1650
 4281SOL    HW124305   4.232   2.507   3.163 -0.3603  0.1905 -2.2571
 4281SOL    HW224306   4.291   2.591   3.048  0.4365 -0.0596 -0.0028
 4282SOL     OW24307   4.010   3.671   1.756  0.0266 -0.2844  0.1090
 4282SOL    HW124308   4.076   3.709   1.814 -1.5962  1.3956  0.8596
 4282SOL    HW224309   3.936   3.730   1.773 -0.9836 -1.3034 -0.7367
 4283SOL     OW24310   2.576   3.262   0.474  0.1403 -0.4506  0.4563
 4283SOL    HW124311   2.501   3.291   0.423  2.3879  2.5339 -1.1127
 4283SOL    HW224312   2.644   3.311   0.429  1.6928 -1.3997  1.7589
 4284SOL     OW24313   1.021   0.639   5.610 -0.0704  0.0709  0.9396
 4284SOL    HW124314   0.937   0.627   5.654 -0.5407 -0.4618 -0.0979
 4284SOL    HW224315   1.009   0.580   5.536  1.5547  0.7544  0.1299
 4285SOL     OW24316   4.385   4.424   3.482 -0.1246 -0.1257 -0.1054
 4285SOL    HW124317   4.436   4.424   3.401 -0.5905  2.3895 -0.4134
 4285SOL    HW224318   4.317   4.485   3.454  0.6047 -0.1797 -1.9830
 4286SOL     OW24319   3.825   2.711   6.317  0.1092 -0.0247 -0.0166
 4286SOL    HW124320   3.752   2.726   6.378  1.3188  2.4991  0.8121
 4286SOL    HW224321   3.778   2.713   6.234 -0.4553 -0.3346  0.2922
 4287SOL     OW24322   2.147   3.784   2.987  0.2924 -0.2731 -0.7013
 4287SOL    HW124323   2.096   3.785   3.068  1.5304 -0.5398  0.0837
 4287SOL    HW224324   2.211   3.853   3.006  0.0093 -0.7394  1.9390
 4288SOL     OW24325   4.147   1.491   4.324 -0.4677 -0.1972 -0.1609
 4288SOL    HW124326   4.138   1.585   4.307  0.2373  0.4172  2.7085
 4288SOL    HW224327   4.063   1.469   4.284 -0.2298 -1.3540 -0.0200
 4289SOL     OW24328   2.067   1.937  15.264  0.0573  0.3873  0.2722
 4289SOL    HW124329   2.133   1.892  15.211 -1.7311 -0.7654 -0.9769
 4289SOL    HW224330   2.053   2.018  15.214 -2.5446  0.1142  0.5672
 4290SOL     OW24331   3.905   1.393  12.158 -0.2237  0.3211  0.3035
 4290SOL    HW124332   3.993   1.384  12.194  0.6985  0.5277 -1.9033
 4290SOL    HW224333   3.930   1.428  12.073 -0.8711  0.8955  0.3511
 4291SOL     OW24334   1.579   2.897   8.356 -0.1339  0.2790 -0.1188
 4291SOL    HW124335   1.496   2.939   8.332 -0.1980 -0.5746 -1.3524
 4291SOL    HW224336   1.544   2.841   8.425  2.8982  0.8974  1.9397
 4292SOL     OW24337   3.558   1.914  12.905  0.3624 -0.8124 -0.2691
 4292SOL    HW124338   3.546   1.987  12.845 -0.1745 -0.6880 -0.0118
 4292SOL    HW224339   3.623   1.956  12.962 -0.6337 -0.2504  0.4423
 4293SOL     OW24340   1.758   3.679   9.326  0.0576 -0.6053 -0.4562
 4293SOL    HW124341   1.767   3.694   9.232  3.1802 -0.6186 -0.1714
 4293SOL    HW224342   1.850   3.663   9.347  0.0730 -0.3706 -0.3531
 4294SOL     OW24343   3.163   4.318  15.689  0.3005  0.5329 -0.1102
 4294SOL    HW124344   3.168   4.387  15.754 -0.2120  0.3053  0.1747
 4294SOL    HW224345   3.070   4.293  15.690  0.3354  0.3697 -0.8451
 4295SOL     OW24346   4.168   4.030   6.877  0.1731  0.1945 -0.3916
 4295SOL    HW124347   4.075   4.033   6.897 -0.3155  0.0790 -2.6559
 4295SOL    HW224348   4.188   3.956   6.934 -0.7232 -0.0574 -0.4157
 4296SOL     OW24349   3.366   3.194   9.136  0.8555  0.4151 -0.0888
 4296SOL    HW124350   3.385   3.287   9.129 -1.1782  0.8703  0.5568
 4296SOL    HW224351   3.380   3.192   9.231  1.4828 -1.0048 -0.2073
 4297SOL     OW24352   1.121   0.873  15.429  0.0796  0.4128 -0.0194
 4297SOL    HW124353   1.155   0.891  15.517 -0.4526  0.5868  0.1492
 4297SOL    HW224354   1.140   0.953  15.381  0.3574  1.6966  2.2283
 4298SOL     OW24355   3.622   3.355   3.687 -0.1662  0.0275  0.6150
 4298SOL    HW124356   3.571   3.398   3.618 -0.9163  0.7448  1.6183
 4298SOL    HW224357   3.648   3.275   3.641 -1.2035  1.0072 -1.6774
 4299SOL     OW24358   3.969   2.911   8.182  0.0872 -0.1132  0.1726
 4299SOL    HW124359   3.910   2.884   8.253 -0.1027 -1.4390 -0.4911
 4299SOL    HW224360   4.004   2.997   8.206  0.2276 -0.3101  0.6909
 4300SOL     OW24361   4.300   0.562   6.267 -1.0429 -0.0698 -0.0191
 4300SOL    HW124362   4.301   0.552   6.172 -0.9354 -0.3420  0.0115
 4300SOL    HW224363   4.323   0.655   6.275  1.4401 -0.6852 -0.1313
 4301SOL     OW24364   2.017   1.588  15.934 -0.1469 -0.3619 -0.4598
 4301SOL    HW124365   2.008   1.547  15.848  0.1587  0.1703 -0.7401
 4301SOL    HW224366   1.982   1.676  15.925 -1.4532 -0.7349  0.8474
 4302SOL     OW24367   4.360   3.118  12.377 -0.0254 -0.2273  0.3710
 4302SOL    HW124368   4.354   3.154  12.289  1.4665  0.5755  0.5978
 4302SOL    HW224369   4.357   3.026  12.352  0.1906 -0.4522  1.1749
 4303SOL     OW24370   0.245   1.368   1.566 -0.2973  0.0526  0.4975
 4303SOL    HW124371   0.327   1.393   1.607  0.1441  0.5547 -0.6691
 4303SOL    HW224372   0.246   1.275   1.542  0.7660  0.4482 -0.9915
 4304SOL     OW24373   0.670   0.071  12.901  0.3856  0.2070 -0.1184
 4304SOL    HW124374   0.585   0.036  12.876 -0.0630  0.9039  0.4292
 4304SOL    HW224375   0.725   4.718  12.923  2.0390  1.7231  1.0548
 4305SOL     OW24376   0.735   0.260   7.492  0.4967 -0.5455  0.1016
 4305SOL    HW124377   0.763   0.185   7.440 -1.2868 -0.5257 -0.9035
 4305SOL    HW224378   0.746   0.330   7.428 -2.5611  0.1918  0.3824
 4306SOL     OW24379   3.424   3.702   6.844 -1.0008 -0.6088 -0.1525
 4306SOL    HW124380   3.381   3.691   6.759  0.0656 -0.9638 -0.6480
 4306SOL    HW224381   3.353   3.721   6.905 -0.6267  0.4308 -0.0539
 4307SOL     OW24382   2.240   4.309   6.907  0.4171 -0.1687 -0.0146
 4307SOL    HW124383   2.202   4.325   6.821  1.9444 -1.4221 -0.9319
 4307SOL    HW224384   2.327   4.346   6.899 -0.2110  2.0572  3.2827
 4308SOL     OW24385   2.316   4.659   8.242  0.1337  0.6592  0.2495
 4308SOL    HW124386   2.240   4.610   8.274  1.0206 -0.6397  0.3664
 4308SOL    HW224387   2.391   4.616   8.284  0.9155  1.6575 -0.1152
 4309SOL     OW24388   3.642   4.710  17.250 -0.0054 -0.5392 -0.3649
 4309SOL    HW124389   3.603   4.651  17.186  0.0024 -1.1869  0.2329
 4309SOL    HW224390   3.734   4.709  17.223  0.6924  1.7145  1.9443
 4310SOL     OW24391   3.870   2.022   9.847 -0.2608  0.5053  0.4778
 4310SOL    HW124392   3.888   2.066   9.764 -1.2140  0.3947  0.2194
 4310SOL    HW224393   3.963   2.024   9.873 -0.6350  2.6228  1.6590
 4311SOL     OW24394   3.635   1.645   1.819 -0.1712  0.8364  0.3224
 4311SOL    HW124395   3.668   1.636   1.730  1.7262  0.6401  1.0437
 4311SOL    HW224396   3.543   1.622   1.810 -0.2550  0.8162  1.2021
 4312SOL     OW24397   4.156   1.014   0.394  0.6560 -0.4322 -0.4555
 4312SOL    HW124398   4.073   0.968   0.405  0.0064 -0.0280 -3.6365
 4312SOL    HW224399   4.113   1.083   0.343  0.6586 -0.6773 -0.7907
 4313SOL     OW24400   2.771   2.057   4.294 -0.7340 -0.0179  0.5855
 4313SOL    HW124401   2.708   2.078   4.225 -0.6172  1.5213  0.9475
 4313SOL    HW224402   2.707   2.058   4.365 -3.1105 -4.0212 -1.4835
 4314SOL     OW24403   2.189   1.461   5.006  0.3758 -0.1127 -0.1597
 4314SOL    HW124404   2.176   1.409   5.086 -0.4594 -0.3614 -0.4587
 4314SOL    HW224405   2.182   1.396   4.936 -0.6412  1.6302 -1.6791
 4315SOL     OW24406   1.493   0.879   4.038 -0.1490  0.8790  0.2630
 4315SOL    HW124407   1.448   0.859   4.120  0.3112  0.5257  0.4312
 4315SOL    HW224408   1.425   0.877   3.972  1.3498 -2.4385 -1.1895
 4316SOL     OW24409   2.756   2.908  17.604  0.0343 -0.0222 -0.6994
 4316SOL    HW124410   2.676   2.861  17.583  0.3464 -0.6204 -0.5758
 4316SOL    HW224411   2.737   2.950  17.688 -0.7956  1.4731 -1.6424
 4317SOL     OW24412   1.963   0.091   2.692 -0.1658  0.9589  0.2270
 4317SOL    HW124413   2.006   0.146   2.627  0.6278 -0.3509 -0.3628
 4317SOL    HW224414   1.880   0.138   2.700 -1.5288 -1.1960 -1.2200
 4318SOL     OW24415   1.776   0.491   4.119 -0.2977 -0.0239 -0.7230
 4318SOL    HW124416   1.748   0.468   4.207 -1.9246  0.5965 -1.0730
 4318SOL    HW224417   1.712   0.558   4.096 -0.0739  0.9141  1.3797
 4319SOL     OW24418   1.888   2.328   8.440  0.5741  0.4832 -0.1571
 4319SOL    HW124419   1.958   2.282   8.486  0.6193  0.3483 -0.3633
 4319SOL    HW224420   1.930   2.355   8.358 -2.5063  1.8053 -1.3048
 4320SOL     OW24421   4.465   4.700   9.333 -0.5502 -0.3946  0.3107
 4320SOL    HW124422   4.451   4.618   9.381 -1.7196 -0.5412 -0.2919
 4320SOL    HW224423   4.380   0.022   9.330 -0.2040  0.1216 -1.9487
 4321SOL     OW24424   0.204   0.948  10.696  0.1060  0.2010  0.3280
 4321SOL    HW124425   0.199   0.853  10.695 -2.3989  0.3360 -0.0723
 4321SOL    HW224426   0.154   0.972  10.774 -0.1538  1.0308 -0.0908
 4322SOL     OW24427   3.543   3.241   8.105  0.0705  0.0172  0.0949
 4322SOL    HW124428   3.558   3.283   8.020 -1.6365  0.4847  0.0349
 4322SOL    HW224429   3.613   3.280   8.158  1.7741 -0.9068 -1.4480
 4323SOL     OW24430   3.368   1.504   3.170  0.4234 -0.2992 -0.0995
 4323SOL    HW124431   3.448   1.467   3.208 -0.0373 -1.9868 -0.7300
 4323SOL    HW224432   3.318   1.428   3.137  0.9258 -0.9412  0.6160
 4324SOL     OW24433   0.019   1.037  17.652  0.2742  0.1847  0.6137
 4324SOL    HW124434   0.041   0.944  17.664  0.8302  0.2392 -0.0212
 4324SOL    HW224435   4.718   1.067   0.047  1.1751  2.7925 -0.0601
 4325SOL     OW24436   3.274   3.290   5.829  0.0122 -0.1865 -0.1084
 4325SOL    HW124437   3.222   3.273   5.908  1.0756 -0.4879  0.5386
 4325SOL    HW224438   3.327   3.210   5.822  1.0477  0.3362  1.7768
 4326SOL     OW24439   2.173   1.976   8.441  0.0410  0.1007  0.0487
 4326SOL    HW124440   2.170   1.960   8.346  1.0438  1.9721 -0.2965
 4326SOL    HW224441   2.082   1.963   8.467  0.5034 -0.9716  1.1007
 4327SOL     OW24442   0.037   3.231  11.973 -0.0569 -0.4212  0.4025
 4327SOL    HW124443   4.685   3.275  11.933  2.0327  0.1248 -2.9142
 4327SOL    HW224444   0.021   3.141  11.945  2.2510 -0.3489 -1.1013
 4328SOL     OW24445   3.724   3.197  16.118 -0.4598  0.3957  0.2738
 4328SOL    HW124446   3.707   3.123  16.059  1.2581  0.5437 -0.4289
 4328SOL    HW224447   3.643   3.246  16.109  0.7140  2.5107  1.3238
 4329SOL     OW24448   4.019   3.774   8.931  0.3420  0.4697 -0.6203
 4329SOL    HW124449   4.084   3.780   9.001  0.1837  1.2425 -0.5428
 4329SOL    HW224450   3.933   3.788   8.971  0.8231 -1.3786  1.0723
 4330SOL     OW24451   0.098   4.259   0.978  0.5069  0.5174  0.2663
 4330SOL    HW124452   0.113   4.177   1.023  2.8287  1.6139  1.4779
 4330SOL    HW224453   0.168   4.314   1.014 -0.4805  0.6706  1.9441
 4331SOL     OW24454   0.641   3.694   1.295 -0.4250 -0.3305  0.2345
 4331SOL    HW124455   0.650   3.778   1.250  0.3682  0.4014  1.7585
 4331SOL    HW224456   0.616   3.725   1.382 -0.5762  0.3724 -0.0592
 4332SOL     OW24457   4.238   3.907  16.711  0.5206 -0.3523 -0.3754
 4332SOL    HW124458   4.292   3.834  16.740  0.8190 -0.1042 -0.3022
 4332SOL    HW224459   4.177   3.857  16.657 -1.4098 -1.2320  2.6778
 4333SOL     OW24460   2.903   1.982   6.432  0.2866  0.2122  0.1602
 4333SOL    HW124461   2.976   1.924   6.453  1.2253  1.3110 -0.0760
 4333SOL    HW224462   2.853   1.929   6.370  0.7552  1.2823 -1.1347
 4334SOL     OW24463   2.898   4.174   2.845 -0.2499 -0.2922 -0.6718
 4334SOL    HW124464   2.843   4.213   2.776  1.0973 -0.3091 -1.7451
 4334SOL    HW224465   2.839   4.167   2.920  0.4821 -0.5188 -0.1263
 4335SOL     OW24466   2.864   2.389   7.339 -0.1726  0.1809  0.0527
 4335SOL    HW124467   2.902   2.345   7.414  0.9646  0.2147 -0.5061
 4335SOL    HW224468   2.837   2.471   7.381  1.1123  0.6538 -0.0488
 4336SOL     OW24469   1.633   2.058   0.453 -0.2019  0.4450  0.7093
 4336SOL    HW124470   1.606   2.008   0.530 -1.2758 -0.5372 -0.2917
 4336SOL    HW224471   1.720   2.023   0.436 -0.1918  0.2910  1.0739
 4337SOL     OW24472   0.886   2.990   1.279 -0.2555 -0.7352 -0.0739
 4337SOL    HW124473   0.886   3.032   1.365 -3.0869 -1.4158  0.2736
 4337SOL    HW224474   0.822   3.038   1.226 -0.1373  0.6832  1.0753
 4338SOL     OW24475   2.702   3.838   4.198  0.5606  0.1271  0.3820
 4338SOL    HW124476   2.760   3.911   4.217  1.4389 -0.9744  1.8926
 4338SOL    HW224477   2.771   3.774   4.219  0.5885  0.2106  0.5410
 4339SOL     OW24478   0.885   1.348   8.228 -0.1323  0.0704  0.2609
 4339SOL    HW124479   0.817   1.307   8.175  0.5329 -1.7738  0.8274
 4339SOL    HW224480   0.935   1.398   8.164 -1.3296 -0.3489 -1.0129
 4340SOL     OW24481   0.388   2.360   1.988 -0.2967 -0.0929  0.1060
 4340SOL    HW124482   0.442   2.281   1.993 -2.0901 -1.4892 -2.3911
 4340SOL    HW224483   0.423   2.411   1.915 -0.5454  1.2048  0.8992
 4341SOL     OW24484   2.772   0.217   9.965 -0.1447 -0.1527 -0.1846
 4341SOL    HW124485   2.821   0.137   9.944 -0.6910 -0.2190 -1.2410
 4341SOL    HW224486   2.756   0.197  10.057 -0.3747  0.2050 -0.1457
 4342SOL     OW24487   2.885   0.925   4.789  0.0308  0.4544 -0.0604
 4342SOL    HW124488   2.885   0.833   4.764  2.2229  0.1273  1.0843
 4342SOL    HW224489   2.910   0.964   4.706  0.3628  0.6837  0.1433
 4343SOL     OW24490   3.513   3.958  13.366 -0.1985  0.1889  0.5179
 4343SOL    HW124491   3.490   3.987  13.454  0.4892  1.4432  0.2852
 4343SOL    HW224492   3.606   3.979  13.355 -0.3042 -0.3698 -1.4083
 4344SOL     OW24493   1.079   4.229   6.111 -0.1217 -0.3613 -0.2695
 4344SOL    HW124494   1.104   4.317   6.137  3.3141 -1.7653  1.1596
 4344SOL    HW224495   1.117   4.189   6.189 -0.0227 -0.1459 -0.2087
 4345SOL     OW24496   0.324   0.531   3.712  0.2381  0.0821 -0.1496
 4345SOL    HW124497   0.265   0.509   3.784 -0.6701 -0.7479 -1.1553
 4345SOL    HW224498   0.390   0.570   3.769 -0.5690  4.1176 -1.9956
 4346SOL     OW24499   3.593   1.901   1.929  0.5503  0.4114  0.5274
 4346SOL    HW124500   3.600   1.962   1.855  2.4561 -2.0331 -1.3189
 4346SOL    HW224501   3.582   1.812   1.895 -0.3722  0.1372  1.5283
 4347SOL     OW24502   3.664   0.720  14.543  0.3714 -0.0214  0.2398
 4347SOL    HW124503   3.662   0.802  14.591  1.2694 -0.0978  0.4039
 4347SOL    HW224504   3.758   0.706  14.552  0.2997 -1.2262 -0.8168
 4348SOL     OW24505   4.252   1.320   5.121  0.4280 -0.2828  0.7280
 4348SOL    HW124506   4.294   1.347   5.039  0.1439 -0.9611  0.3578
 4348SOL    HW224507   4.176   1.276   5.083  0.1057 -0.3476  1.4553
 4349SOL     OW24508   1.396   1.505  12.126 -0.2435  0.5131 -0.2586
 4349SOL    HW124509   1.380   1.578  12.066  0.0179  1.1058  0.3880
 4349SOL    HW224510   1.374   1.552  12.207  1.9722  1.5691 -0.2759
 4350SOL     OW24511   3.415   4.005   7.405 -0.1907  0.0441  0.2596
 4350SOL    HW124512   3.441   3.971   7.320  1.4923 -0.6661  1.0584
 4350SOL    HW224513   3.329   4.045   7.393  0.0795  0.0338 -1.6635
 4351SOL     OW24514   2.406   1.748  16.202  0.4600 -0.3480  0.4371
 4351SOL    HW124515   2.445   1.660  16.197 -1.9314 -1.5088  1.7702
 4351SOL    HW224516   2.478   1.807  16.220  0.8815 -0.5714 -0.5440
 4352SOL     OW24517   0.586   0.086  14.649  0.0257 -0.1071 -0.8806
 4352SOL    HW124518   0.520   0.124  14.707  1.4472 -2.2492  2.1091
 4352SOL    HW224519   0.622   0.172  14.627  0.6955 -0.0041  0.6003
 4353SOL     OW24520   3.312   3.008   4.716  0.2689  0.0449 -0.1730
 4353SOL    HW124521   3.282   2.931   4.765 -2.3446  1.1800  0.0163
 4353SOL    HW224522   3.272   2.988   4.631  0.8985 -2.2223  0.0942
 4354SOL     OW24523   0.204   4.487   7.976 -0.1297  0.0945  0.5290
 4354SOL    HW124524   0.146   4.410   7.985 -0.4698  0.1174 -1.3926
 4354SOL    HW224525   0.266   4.448   7.914 -2.0962 -0.6377 -1.0082
 4355SOL     OW24526   1.044   1.468   8.738 -0.2051 -0.4714  0.3053
 4355SOL    HW124527   1.045   1.549   8.688  2.1834 -0.7759 -0.1403
 4355SOL    HW224528   1.129   1.457   8.780  0.5298 -1.6803 -1.5361
 4356SOL     OW24529   0.221   4.375   1.784  0.2173  0.4514  0.6125
 4356SOL    HW124530   0.129   4.398   1.771  0.0980 -0.8135 -0.8324
 4356SOL    HW224531   0.212   4.281   1.802 -0.4969  0.1197 -1.4625
 4357SOL     OW24532   1.996   4.307  12.155  0.4697 -0.1268  0.0497
 4357SOL    HW124533   2.090   4.314  12.173  0.0789 -0.2363  2.1448
 4357SOL    HW224534   1.982   4.332  12.064 -1.2371  1.6492  0.7965
 4358SOL     OW24535   0.799   0.726   0.877  0.2873 -0.0113 -0.4645
 4358SOL    HW124536   0.889   0.692   0.876 -0.1580 -1.1957 -0.4044
 4358SOL    HW224537   0.785   0.727   0.971  1.0746  2.8732 -0.3814
 4359SOL     OW24538   2.218   3.425   1.275  0.2227 -0.5332 -0.0943
 4359SOL    HW124539   2.205   3.337   1.239 -1.8754 -1.7085  3.6425
 4359SOL    HW224540   2.142   3.433   1.331  0.0142 -0.0815 -0.4369
 4360SOL     OW24541   2.213   2.043  14.759 -0.6854 -0.3238  0.5299
 4360SOL    HW124542   2.284   2.001  14.808  2.0360  0.6258 -2.6320
 4360SOL    HW224543   2.140   1.985  14.783  0.0387 -0.8777  1.3573
 4361SOL     OW24544   0.592   4.379   8.460 -0.8244  0.5181  0.0212
 4361SOL    HW124545   0.657   4.421   8.404 -0.3179  1.0557  1.0284
 4361SOL    HW224546   0.615   4.419   8.544  3.2065 -0.2807 -0.7274
 4362SOL     OW24547   3.318   4.391   3.073 -0.1993  0.5762 -0.5759
 4362SOL    HW124548   3.254   4.377   3.004 -2.5036  1.0626  1.4483
 4362SOL    HW224549   3.386   4.447   3.036  2.1277 -0.0124  2.7456
 4363SOL     OW24550   3.351   0.584  12.939  0.7350 -0.1515  0.2708
 4363SOL    HW124551   3.383   0.536  13.015  2.5662  1.9952  0.8655
 4363SOL    HW224552   3.298   0.523  12.888  0.6159 -0.2124  0.4665
 4364SOL     OW24553   2.724   4.619   4.631  0.1641 -0.2320  0.7247
 4364SOL    HW124554   2.669   4.553   4.673  2.7230 -3.1180 -0.4529
 4364SOL    HW224555   2.781   4.562   4.580  1.4593  0.0202  1.8659
 4365SOL     OW24556   0.634   3.919  11.214 -0.3086 -0.0931 -0.0138
 4365SOL    HW124557   0.583   3.948  11.139 -0.5938 -1.0946 -0.2063
 4365SOL    HW224558   0.583   3.963  11.282  1.4547  2.2413 -0.1696
 4366SOL     OW24559   3.352   4.393   3.575  0.6582  0.3403  0.3353
 4366SOL    HW124560   3.327   4.386   3.667  1.0242  1.9526  0.5632
 4366SOL    HW224561   3.442   4.362   3.584 -0.0861 -2.2934 -1.6716
 4367SOL     OW24562   2.731   0.097   6.814 -0.6381  0.8376 -0.5730
 4367SOL    HW124563   2.647   0.051   6.811 -1.2827  2.0422 -1.0231
 4367SOL    HW224564   2.758   0.069   6.726 -1.0268 -1.4111  0.0141
 4368SOL     OW24565   1.455   1.540   4.317  0.1376 -0.4986 -0.6055
 4368SOL    HW124566   1.541   1.499   4.304  0.4746 -0.0547  0.2160
 4368SOL    HW224567   1.391   1.471   4.302  0.0439 -0.3648 -0.8152
 4369SOL     OW24568   2.883   2.681   2.037  0.6097  0.1370  0.1263
 4369SOL    HW124569   2.958   2.731   2.068  1.1463 -0.3663 -0.3647
 4369SOL    HW224570   2.836   2.756   2.001 -0.5788 -1.4061 -1.5569
 4370SOL     OW24571   2.359   1.707   2.299  0.0026 -0.0405  0.4022
 4370SOL    HW124572   2.440   1.758   2.289 -0.0514  0.6087  3.2604
 4370SOL    HW224573   2.314   1.760   2.233 -1.8169 -3.4125 -1.0537
 4371SOL     OW24574   0.869   4.502  17.552 -0.1752  0.0674  0.3440
 4371SOL    HW124575   0.874   4.440  17.480  1.3164 -0.8944  1.2822
 4371SOL    HW224576   0.776   4.494  17.577 -0.0891  0.5412  0.8252
 4372SOL     OW24577   4.619   2.335   0.612  0.2338 -0.2048  0.2642
 4372SOL    HW124578   4.657   2.421   0.596  0.1193 -0.5471 -1.9279
 4372SOL    HW224579   4.667   2.278   0.551 -0.7337  0.9446 -1.5800
 4373SOL     OW24580   3.481   2.136  14.375  0.3962  0.2741  0.0507
 4373SOL    HW124581   3.576   2.147  14.362 -0.0964  1.9639 -1.9995
 4373SOL    HW224582   3.482   2.042  14.359 -1.6641 -0.1583  2.5780
 4374SOL     OW24583   3.501   0.632   7.357  0.3544 -0.0763 -0.4782
 4374SOL    HW124584   3.584   0.679   7.356 -0.7532  1.8785 -0.9529
 4374SOL    HW224585   3.480   0.635   7.450  0.4222  2.2116 -0.5475
 4375SOL     OW24586   3.888   1.839   4.789 -0.1341  0.4187 -0.0734
 4375SOL    HW124587   3.912   1.930   4.776 -0.6462  1.0913  3.5569
 4375SOL    HW224588   3.881   1.823   4.695 -0.1526  0.2667 -0.0474
 4376SOL     OW24589   0.096   2.060  17.276 -0.0434  0.0620 -0.0133
 4376SOL    HW124590   0.124   2.137  17.225  0.2770 -0.1762 -0.1998
 4376SOL    HW224591   0.059   2.104  17.352 -2.2175  2.0561 -2.2088
 4377SOL     OW24592   0.783   3.687   2.394 -0.0124 -0.4141 -0.4325
 4377SOL    HW124593   0.801   3.611   2.449  0.7194 -1.4663 -2.1105
 4377SOL    HW224594   0.703   3.718   2.436 -0.0741 -0.6626 -0.3659
 4378SOL     OW24595   2.037   3.341   9.786  0.4745  0.2251 -0.6926
 4378SOL    HW124596   2.097   3.356   9.713  3.0304  0.3967  1.4576
 4378SOL    HW224597   2.013   3.432   9.807 -0.9930 -0.3239 -0.0311
 4379SOL     OW24598   0.851   0.337   0.535  0.5705 -0.0655 -0.2971
 4379SOL    HW124599   0.907   0.269   0.498  0.1802  0.5488 -1.9986
 4379SOL    HW224600   0.774   0.280   0.540  1.1767 -0.8077  0.5791
 4380SOL     OW24601   2.905   3.549   7.347 -0.2301 -0.0619 -0.3233
 4380SOL    HW124602   2.923   3.642   7.334 -0.6605 -0.0736 -1.0426
 4380SOL    HW224603   2.858   3.540   7.264  0.9601  0.1565 -1.0118
 4381SOL     OW24604   3.446   4.070   2.253  0.4513  0.6537 -0.0756
 4381SOL    HW124605   3.486   3.988   2.226  3.7145  2.2950 -0.2725
 4381SOL    HW224606   3.363   4.061   2.208  0.2011 -0.1042  0.5491
 4382SOL     OW24607   4.168   1.700   2.762 -0.4461  0.3072  0.1499
 4382SOL    HW124608   4.241   1.644   2.787  0.3328  1.5873  0.7372
 4382SOL    HW224609   4.095   1.675   2.818 -1.1488  3.7465  0.7780
 4383SOL     OW24610   3.380   4.714   4.681 -0.0215 -0.2932 -0.1845
 4383SOL    HW124611   3.456   4.709   4.623  1.3971  6.1905  1.1316
 4383SOL    HW224612   3.394   4.662   4.760 -1.7759 -0.3429  0.1030
 4384SOL     OW24613   2.574   3.113   2.542  0.1128  0.3287 -0.1418
 4384SOL    HW124614   2.483   3.088   2.529  0.9206 -2.3363 -0.6966
 4384SOL    HW224615   2.607   3.035   2.587  0.4726  0.3083 -0.4420
 4385SOL     OW24616   2.235   1.837  15.098 -0.3930  0.2584 -0.2647
 4385SOL    HW124617   2.175   1.763  15.091  0.6735 -0.5746 -0.5740
 4385SOL    HW224618   2.279   1.830  15.013 -1.5270 -1.0618 -0.7570
 4386SOL     OW24619   1.393   0.400   4.676  1.0266  0.1760  0.0117
 4386SOL    HW124620   1.326   0.385   4.609  0.9933 -0.7949  0.2536
 4386SOL    HW224621   1.405   0.493   4.660  0.5285  0.8785  3.7521
 4387SOL     OW24622   1.898   2.914  16.280  0.0346 -0.1758 -0.1136
 4387SOL    HW124623   1.914   2.988  16.221 -2.4982  0.2267 -0.2937
 4387SOL    HW224624   1.806   2.934  16.298  0.8375  2.3288  1.2612
 4388SOL     OW24625   3.818   3.627   4.980 -0.1424 -0.0750  0.3640
 4388SOL    HW124626   3.773   3.575   4.914  0.8774  0.0201 -0.4100
 4388SOL    HW224627   3.770   3.598   5.058 -1.5601  1.9195  0.2195
 4389SOL     OW24628   1.783   2.412  12.948 -0.1567 -0.2696 -0.1849
 4389SOL    HW124629   1.776   2.434  13.041 -2.0053  0.0138 -0.3893
 4389SOL    HW224630   1.868   2.453  12.932  0.5477 -2.1656 -1.2201
 4390SOL     OW24631   0.683   0.167   8.123 -0.4377 -0.4267  0.5788
 4390SOL    HW124632   0.591   0.142   8.134 -1.1560  1.7334 -0.6916
 4390SOL    HW224633   0.707   0.175   8.215 -0.3644 -0.0307  0.5224
 4391SOL     OW24634   1.020   0.209  16.213 -0.6043  0.1485  0.2651
 4391SOL    HW124635   0.955   0.142  16.236  0.0001 -0.0466  1.4389
 4391SOL    HW224636   1.018   0.200  16.118 -0.0672 -0.6639  0.3261
 4392SOL     OW24637   4.008   1.576   2.989  0.0473 -0.0298 -0.0971
 4392SOL    HW124638   3.969   1.503   2.940 -0.9360  0.5296 -0.1536
 4392SOL    HW224639   4.018   1.548   3.080  0.1378 -0.2172 -0.1647
 4393SOL     OW24640   1.708   2.558   1.183 -0.1781 -0.0637 -0.1024
 4393SOL    HW124641   1.644   2.503   1.137  0.6308 -2.0070  1.0899
 4393SOL    HW224642   1.692   2.645   1.147  3.8719 -0.1004 -1.9984
 4394SOL     OW24643   4.637   4.110  10.291 -0.3209 -0.2385  0.1015
 4394SOL    HW124644   4.625   4.031  10.344 -0.4962  0.1262  0.6069
 4394SOL    HW224645   4.549   4.148  10.288 -0.3212 -0.1713  0.8847
 4395SOL     OW24646   2.757   4.162   3.066 -0.2921 -0.0774 -0.1699
 4395SOL    HW124647   2.698   4.198   3.133 -1.3184 -0.3955 -0.9003
 4395SOL    HW224648   2.727   4.072   3.077  1.6070 -0.8370 -1.2584
 4396SOL     OW24649   4.243   0.806   7.877  0.3938 -0.4501 -0.1667
 4396SOL    HW124650   4.322   0.804   7.822  0.1111 -2.0503 -0.5311
 4396SOL    HW224651   4.197   0.726   7.854  0.6714 -0.7597  0.3426
 4397SOL     OW24652   1.537   2.139   7.318 -0.2885 -0.4658 -0.1698
 4397SOL    HW124653   1.491   2.143   7.401 -1.3613 -2.0705 -0.6898
 4397SOL    HW224654   1.572   2.051   7.326 -0.0440 -0.0470  3.4131
 4398SOL     OW24655   0.679   0.489   2.270 -0.1280 -0.2662  0.0198
 4398SOL    HW124656   0.742   0.554   2.237  2.0436 -1.9580  0.8538
 4398SOL    HW224657   0.647   0.540   2.345 -1.7527 -0.5349 -0.5119
 4399SOL     OW24658   3.278   2.880  15.939 -0.1025 -0.1971 -0.2106
 4399SOL    HW124659   3.184   2.877  15.923  0.1299  0.6928 -1.7726
 4399SOL    HW224660   3.286   2.874  16.034 -1.1751 -0.7488 -0.1610
 4400SOL     OW24661   4.361   1.757   5.201 -0.0468  0.6069 -0.3426
 4400SOL    HW124662   4.316   1.727   5.122  1.2184  0.5480 -1.0543
 4400SOL    HW224663   4.285   1.753   5.258 -1.5761 -1.6530 -2.5478
 4401SOL     OW24664   3.256   1.552  17.347  0.3911  0.1580 -0.6041
 4401SOL    HW124665   3.314   1.594  17.283  1.2359  1.4638  1.0182
 4401SOL    HW224666   3.184   1.528  17.290 -1.6699  1.0640  1.6333
 4402SOL     OW24667   0.129   0.622   2.516  0.3706 -0.7990 -0.1298
 4402SOL    HW124668   0.108   0.712   2.540  0.6826 -0.1657 -2.2747
 4402SOL    HW224669   0.051   0.576   2.548 -0.1488 -0.2654 -0.6554
 4403SOL     OW24670   3.307   0.869   4.786  0.0318 -0.0844 -0.0025
 4403SOL    HW124671   3.302   0.801   4.854 -2.5549  0.0991 -0.0315
 4403SOL    HW224672   3.281   0.820   4.709  0.9411  1.5703 -1.3607
 4404SOL     OW24673   1.225   3.882  13.517 -0.0512  0.5139 -0.5933
 4404SOL    HW124674   1.285   3.937  13.565 -0.5114 -1.2954  2.0478
 4404SOL    HW224675   1.288   3.856  13.450 -0.8580  1.2916 -1.6542
 4405SOL     OW24676   0.348   3.388   9.311  0.1791  0.1698  0.5522
 4405SOL    HW124677   0.319   3.352   9.227 -1.1352 -1.8478  1.8785
 4405SOL    HW224678   0.286   3.459   9.330 -0.9916 -0.1841 -1.8133
 4406SOL     OW24679   3.205   0.422  15.192 -0.0331 -0.1706 -0.2951
 4406SOL    HW124680   3.151   0.349  15.224 -0.8674 -0.0625 -1.4261
 4406SOL    HW224681   3.154   0.467  15.124 -0.2607  0.1785  0.1103
 4407SOL     OW24682   1.647   0.928  13.563 -0.1674 -0.1903 -0.0806
 4407SOL    HW124683   1.722   0.895  13.513 -0.1791 -1.3953  0.6842
 4407SOL    HW224684   1.578   0.906  13.501 -2.2255  0.1371  2.1041
 4408SOL     OW24685   3.578   1.287  13.572 -0.1952  0.0649 -0.5072
 4408SOL    HW124686   3.596   1.199  13.606  1.2031  0.6492  0.2920
 4408SOL    HW224687   3.637   1.284  13.496  2.3853 -0.5727  1.4978
 4409SOL     OW24688   2.067   1.873   5.195 -0.4299  0.1997 -0.4198
 4409SOL    HW124689   2.093   1.853   5.285 -0.3421 -0.0129 -0.4909
 4409SOL    HW224690   2.110   1.956   5.177 -0.8413  0.0394 -2.1104
 4410SOL     OW24691   0.521   0.997   3.892 -0.2875 -0.4239 -0.1041
 4410SOL    HW124692   0.606   1.035   3.868 -0.8028  0.5647 -0.3671
 4410SOL    HW224693   0.479   0.973   3.809 -1.1452  2.9009 -0.6182
 4411SOL     OW24694   0.267   2.757   5.584  0.4038 -0.1272  0.3518
 4411SOL    HW124695   0.191   2.726   5.536 -0.2681  2.2605 -0.1214
 4411SOL    HW224696   0.280   2.850   5.566  0.6431 -0.3089 -0.4165
 4412SOL     OW24697   3.634   0.073   8.587  0.2813 -0.1597  0.2291
 4412SOL    HW124698   3.614   0.167   8.587 -1.4169 -0.5092  1.4763
 4412SOL    HW224699   3.729   0.067   8.580  0.1672 -0.3297 -1.2372
 4413SOL     OW24700   2.604   3.730  11.097  0.2714 -0.1260 -0.4958
 4413SOL    HW124701   2.685   3.686  11.125  0.1081 -0.2086 -0.1486
 4413SOL    HW224702   2.628   3.820  11.117  0.1561 -0.3569  0.7295
 4414SOL     OW24703   1.586   4.648   5.418  0.5332 -0.1642  0.5757
 4414SOL    HW124704   1.626   4.591   5.484 -0.7231 -1.2893  0.3542
 4414SOL    HW224705   1.556   0.001   5.468  0.6652  1.4478 -1.7661
 4415SOL     OW24706   3.994   3.174   8.800 -0.2119  0.1404  0.0310
 4415SOL    HW124707   4.020   3.256   8.844 -2.1923  1.4686 -1.2529
 4415SOL    HW224708   3.940   3.136   8.870  0.4932  0.5381  0.7962
 4416SOL     OW24709   4.147   4.693  17.002 -0.4712  0.4271  0.0274
 4416SOL    HW124710   4.172   4.645  16.923  2.0357 -0.9266  1.6490
 4416SOL    HW224711   4.191   0.055  16.987 -0.3738  0.3998  0.1612
 4417SOL     OW24712   1.192   3.265   1.640  0.4763  0.1224 -0.2989
 4417SOL    HW124713   1.208   3.333   1.706 -2.4203 -1.2308  1.7809
 4417SOL    HW224714   1.183   3.181   1.684  0.2748  0.5118  0.4058
 4418SOL     OW24715   0.985   0.546   1.241 -0.3540  0.4457  0.0165
 4418SOL    HW124716   0.959   0.624   1.193  1.5319  0.5887 -0.7888
 4418SOL    HW224717   0.899   0.512   1.265  0.1387 -0.3150  0.7147
 4419SOL     OW24718   0.096   3.866   4.060  0.1741  0.3754 -0.3936
 4419SOL    HW124719   0.156   3.888   4.131  0.1821  2.5679 -1.0812
 4419SOL    HW224720   0.072   3.953   4.029  0.5068  0.4316 -0.4847
 4420SOL     OW24721   0.176   0.975   3.741  0.3452 -0.0836 -0.2795
 4420SOL    HW124722   0.139   1.063   3.748  0.1380 -0.1899 -0.0300
 4420SOL    HW224723   0.107   0.934   3.688 -0.3885 -0.0049  0.6145
 4421SOL     OW24724   2.354   3.144  12.157  0.9334  0.1710  0.2714
 4421SOL    HW124725   2.316   3.093  12.229  1.9544  1.1915  1.5218
 4421SOL    HW224726   2.360   3.078  12.088  0.4582  0.4233 -0.0116
 4422SOL     OW24727   0.723   1.459  17.040  0.2178 -0.3585  0.3349
 4422SOL    HW124728   0.652   1.409  17.001 -1.2763  0.8040  1.6066
 4422SOL    HW224729   0.744   1.521  16.970  1.4100 -3.7213 -2.3085
 4423SOL     OW24730   3.895   2.326   6.695 -0.0618  0.4905 -0.5803
 4423SOL    HW124731   3.891   2.233   6.716  0.9087  0.4104 -0.7390
 4423SOL    HW224732   3.815   2.338   6.643  0.1108 -1.4328 -1.2640
 4424SOL     OW24733   1.919   0.815   2.340 -0.0779  0.3121  0.0945
 4424SOL    HW124734   1.933   0.771   2.256 -0.8734 -0.3120  0.2927
 4424SOL    HW224735   1.955   0.902   2.322 -3.0049  1.8247  1.5803
 4425SOL     OW24736   0.299   3.339  12.844 -0.7683 -0.0542  0.7126
 4425SOL    HW124737   0.305   3.298  12.757  1.0561  3.8137 -0.9883
 4425SOL    HW224738   0.309   3.433  12.832 -0.4322 -0.1003  0.6410
 4426SOL     OW24739   1.860   2.312   5.811  0.1473  0.4525  0.1615
 4426SOL    HW124740   1.868   2.350   5.898  1.8227  2.9330 -1.0961
 4426SOL    HW224741   1.829   2.226   5.839  3.0416 -0.3184  1.0761
 4427SOL     OW24742   2.813   2.229   5.673 -0.0828  0.0870 -0.6824
 4427SOL    HW124743   2.807   2.270   5.587 -1.0066  0.0707 -0.6293
 4427SOL    HW224744   2.722   2.204   5.688 -0.4453  2.3138  0.9007
 4428SOL     OW24745   0.167   2.357   4.459 -0.3232  0.5023  0.5446
 4428SOL    HW124746   0.236   2.375   4.395 -0.7060  0.4944  0.1321
 4428SOL    HW224747   0.108   2.298   4.412  2.6743 -2.3703  0.3791
 4429SOL     OW24748   0.976   2.209  11.025  0.1959 -0.1683 -0.5714
 4429SOL    HW124749   0.983   2.118  10.995 -4.3463 -0.3532 -1.0000
 4429SOL    HW224750   0.980   2.200  11.120  0.7038  1.1911 -0.4629
 4430SOL     OW24751   3.503   1.633   7.158 -0.5207 -0.5757 -0.6944
 4430SOL    HW124752   3.590   1.657   7.128  0.2355 -0.8768  1.2609
 4430SOL    HW224753   3.449   1.685   7.098 -0.1341 -0.1904 -0.7074
 4431SOL     OW24754   2.273   0.467   5.629  0.6503 -0.1048  0.3642
 4431SOL    HW124755   2.210   0.395   5.632 -0.6297  0.9663 -0.5231
 4431SOL    HW224756   2.227   0.541   5.670 -1.5086 -1.6744  0.7492
 4432SOL     OW24757   0.551   3.955  10.768 -0.0704  0.3691 -0.2678
 4432SOL    HW124758   0.639   3.934  10.800 -0.3837 -0.0929  0.2997
 4432SOL    HW224759   0.571   3.987  10.680 -1.0055 -2.4522 -1.5340
 4433SOL     OW24760   3.643   0.749   5.135  0.4037  0.5004 -0.1703
 4433SOL    HW124761   3.566   0.729   5.188  1.0642 -0.4713  0.4195
 4433SOL    HW224762   3.626   0.838   5.103  0.6083 -0.3771 -2.7108
 4434SOL     OW24763   2.576   3.609   8.674 -0.2435 -0.3358  0.5990
 4434SOL    HW124764   2.518   3.675   8.714  1.8563  1.5822  0.4958
 4434SOL    HW224765   2.565   3.640   8.585 -0.0097 -1.8944  0.0319
 4435SOL     OW24766   4.705   3.763   0.846  0.2146 -0.0413 -0.0917
 4435SOL    HW124767   4.673   3.853   0.837 -0.7995 -0.4352 -0.4519
 4435SOL    HW224768   4.666   3.728   0.765 -0.2725  0.4447 -0.0696
 4436SOL     OW24769   1.341   2.518   8.935 -0.0508  0.2731 -0.1688
 4436SOL    HW124770   1.290   2.558   9.004  1.6053 -0.2544  1.3616
 4436SOL    HW224771   1.431   2.508   8.968 -0.3301  1.9275  1.0898
 4437SOL     OW24772   3.638   2.525  12.106  0.1197 -0.3191  0.6305
 4437SOL    HW124773   3.555   2.544  12.150 -0.2954  1.1339 -0.7554
 4437SOL    HW224774   3.637   2.430  12.097  2.0464 -0.1943 -1.0756
 4438SOL     OW24775   0.132   0.196   6.203 -0.0470 -0.2586 -0.5996
 4438SOL    HW124776   0.061   0.240   6.250 -0.4968 -2.9049  1.1877
 4438SOL    HW224777   0.194   0.204   6.276 -0.5049 -1.3368 -0.0923
 4439SOL     OW24778   2.244   2.255  12.408  1.0517 -0.0316 -0.2973
 4439SOL    HW124779   2.288   2.334  12.377 -1.6115  1.1703 -0.9625
 4439SOL    HW224780   2.305   2.189  12.375  1.0434 -0.1904  0.0007
 4440SOL     OW24781   1.180   0.540   2.563 -0.0702 -0.2098 -0.2241
 4440SOL    HW124782   1.132   0.467   2.602 -0.9669  0.8905  0.7619
 4440SOL    HW224783   1.239   0.498   2.501 -0.4255 -0.3290 -0.4832
 4441SOL     OW24784   3.549   1.937  17.194  0.5777  0.3549 -0.2801
 4441SOL    HW124785   3.477   1.975  17.143  1.2248  2.2846  0.2508
 4441SOL    HW224786   3.517   1.848  17.211  0.3354  0.6408  0.7564
 4442SOL     OW24787   3.629   2.818   5.118 -0.2184  0.2622 -0.5496
 4442SOL    HW124788   3.693   2.793   5.051 -0.2064  1.4902 -0.9934
 4442SOL    HW224789   3.628   2.745   5.179  2.5788  0.0279 -0.8012
 4443SOL     OW24790   2.981   4.337   3.090 -0.2265  0.0565  0.2146
 4443SOL    HW124791   2.889   4.326   3.066 -0.0072 -2.6222  0.5012
 4443SOL    HW224792   3.011   4.246   3.095 -0.1896  0.0207 -0.6733
 4444SOL     OW24793   3.704   3.940   0.370 -0.5337  0.1872 -0.0848
 4444SOL    HW124794   3.645   3.866   0.361 -0.9524  0.6640 -1.2446
 4444SOL    HW224795   3.773   3.893   0.417  0.1202 -0.2897 -1.5189
 4445SOL     OW24796   3.893   3.722   3.504 -0.3290  0.4593  0.0664
 4445SOL    HW124797   3.898   3.644   3.559 -0.5233  1.1441  1.0674
 4445SOL    HW224798   3.944   3.694   3.429  1.4270  1.6386  0.8145
 4446SOL     OW24799   1.759   0.628  12.199  0.2172  0.2376  0.2545
 4446SOL    HW124800   1.802   0.579  12.269  0.8599 -0.4367 -0.6156
 4446SOL    HW224801   1.765   0.720  12.226  4.2190  0.3662 -1.0348
 4447SOL     OW24802   0.099   0.885   8.889 -0.2255 -0.2837  0.1719
 4447SOL    HW124803   0.060   0.851   8.809 -1.8244  0.7017  0.5296
 4447SOL    HW224804   0.047   0.853   8.963  0.0045  1.0596  0.9162
 4448SOL     OW24805   3.955   2.139   8.479  0.5575  0.2874 -0.3139
 4448SOL    HW124806   3.972   2.045   8.487 -0.5403  0.1895  0.8747
 4448SOL    HW224807   3.863   2.133   8.453  0.3371  1.7077  0.1615
 4449SOL     OW24808   1.244   2.937   8.830  0.6491  0.4032  0.1019
 4449SOL    HW124809   1.225   2.965   8.920  1.7441 -0.8900  0.7415
 4449SOL    HW224810   1.338   2.922   8.830  0.0743 -3.3692 -1.5010
 4450SOL     OW24811   4.437   0.619   3.856  0.2236 -0.0982 -1.0715
 4450SOL    HW124812   4.531   0.601   3.851  0.3508 -0.0009  0.7417
 4450SOL    HW224813   4.427   0.693   3.797  0.9557 -0.0894 -1.1927
 4451SOL     OW24814   0.457   0.608   4.878 -0.1279  0.4833  0.4306
 4451SOL    HW124815   0.497   0.659   4.948 -0.2354  1.8007 -0.4718
 4451SOL    HW224816   0.489   0.640   4.794 -3.6392 -0.3594 -1.2541
 4452SOL     OW24817   3.230   3.134  11.483  0.4078  0.3195  0.2237
 4452SOL    HW124818   3.152   3.086  11.454  0.7616  0.6033 -1.1897
 4452SOL    HW224819   3.194   3.208  11.532 -1.5432 -0.1663 -0.4808
 4453SOL     OW24820   2.542   2.454  14.670  0.6702 -0.2521 -0.2155
 4453SOL    HW124821   2.509   2.473  14.757 -2.3397 -2.4827 -0.8890
 4453SOL    HW224822   2.507   2.533  14.630 -0.1402 -0.7992 -0.5936
 4454SOL     OW24823   1.277   0.126   2.996 -0.3389  0.1794  0.5801
 4454SOL    HW124824   1.257   0.176   2.916  2.1236 -0.8728 -0.6825
 4454SOL    HW224825   1.332   0.188   3.044 -0.2655 -2.4531  3.8486
 4455SOL     OW24826   1.564   3.152   3.794  0.2481 -0.4422  0.2894
 4455SOL    HW124827   1.570   3.240   3.830  2.4468  0.2764 -1.7970
 4455SOL    HW224828   1.536   3.166   3.704 -1.7688  2.0511  1.3331
 4456SOL     OW24829   3.183   3.676   3.171  0.3906  0.1145 -0.0069
 4456SOL    HW124830   3.196   3.597   3.223  0.6864 -1.7597 -2.9075
 4456SOL    HW224831   3.253   3.732   3.205  1.1684  0.9031 -2.9256
 4457SOL     OW24832   3.233   3.365   7.183 -0.3156  0.3952  0.2172
 4457SOL    HW124833   3.322   3.397   7.166 -0.4522  0.4159 -0.4480
 4457SOL    HW224834   3.209   3.411   7.264  2.7969 -0.6607  1.7554
 4458SOL     OW24835   1.448   0.173   5.205 -0.4908  0.3867 -0.0693
 4458SOL    HW124836   1.398   0.130   5.275 -4.2470  0.5674 -2.5970
 4458SOL    HW224837   1.374   0.212   5.158 -0.0771  0.8080 -0.3686
 4459SOL     OW24838   2.287   1.967   4.150 -0.1069 -0.0121  0.4125
 4459SOL    HW124839   2.219   2.033   4.145  0.5697  0.4419 -2.3598
 4459SOL    HW224840   2.247   1.889   4.112 -0.2384  0.1235  0.2723
 4460SOL     OW24841   3.837   1.341   9.131  0.0003  0.5341  0.0007
 4460SOL    HW124842   3.750   1.354   9.168  0.4554 -1.1604  1.6676
 4460SOL    HW224843   3.826   1.387   9.048 -0.6393 -0.0634 -0.2465
 4461SOL     OW24844   3.476   3.876  10.118 -0.2064 -0.3061  0.3481
 4461SOL    HW124845   3.459   3.865  10.212 -2.3413 -0.6834 -0.0735
 4461SOL    HW224846   3.442   3.795  10.080  0.2811  0.3818 -1.5669
 4462SOL     OW24847   1.138   1.452   5.254 -0.5523 -0.0391 -0.4705
 4462SOL    HW124848   1.123   1.465   5.348 -1.7161  0.5019 -0.7176
 4462SOL    HW224849   1.185   1.369   5.247 -1.4322 -0.8172  2.8413
 4463SOL     OW24850   0.063   2.164   9.004 -0.1135 -0.0836 -0.0552
 4463SOL    HW124851   0.093   2.194   8.918  0.1666 -1.5058 -0.4597
 4463SOL    HW224852   0.001   2.233   9.026 -0.2201  0.4880 -2.1010
 4464SOL     OW24853   4.453   2.044   8.852  0.4805 -0.4179  0.4939
 4464SOL    HW124854   4.522   1.979   8.867  0.8359 -0.4894 -1.4915
 4464SOL    HW224855   4.375   1.990   8.838  1.2086 -2.1563  3.0708
 4465SOL     OW24856   4.480   1.992   3.658  0.2078 -0.0974  0.3084
 4465SOL    HW124857   4.450   1.905   3.686  1.6686 -0.6739  0.0758
 4465SOL    HW224858   4.403   2.024   3.610 -0.3649 -0.5686  0.9051
 4466SOL     OW24859   1.865   1.155  14.706  0.2053  0.2767  0.0545
 4466SOL    HW124860   1.879   1.181  14.616 -0.3970  0.1031 -0.0881
 4466SOL    HW224861   1.825   1.234  14.742 -2.3774 -1.1637  0.3541
 4467SOL     OW24862   4.676   3.259   4.032  0.4477  0.5854  0.6391
 4467SOL    HW124863   0.005   3.218   4.101 -1.2067 -0.1015  1.4534
 4467SOL    HW224864   4.585   3.236   4.050 -0.2736  2.8896 -0.0554
 4468SOL     OW24865   0.829   0.084   2.263  0.8132 -0.2910 -0.2253
 4468SOL    HW124866   0.745   0.124   2.241  0.2103 -1.3396  0.1918
 4468SOL    HW224867   0.884   0.162   2.277 -0.5274  0.1251  2.9334
 4469SOL     OW24868   4.021   1.625   5.035 -0.3846 -0.5271 -0.6923
 4469SOL    HW124869   3.939   1.643   4.990 -1.7334 -1.0507  1.5720
 4469SOL    HW224870   3.994   1.540   5.069  1.5681 -1.2483 -0.9453
 4470SOL     OW24871   1.283   0.035  16.107  0.4485 -0.1075  0.0563
 4470SOL    HW124872   1.207   4.701  16.100 -0.3424  1.1068 -1.0780
 4470SOL    HW224873   1.351   4.692  16.092 -0.3900 -0.8463 -0.5393
 4471SOL     OW24874   2.423   1.243   3.841  0.3482  0.5834 -0.2861
 4471SOL    HW124875   2.429   1.155   3.804 -0.0639  0.1261  0.7392
 4471SOL    HW224876   2.477   1.290   3.777  2.3979 -1.4235 -0.0167
 4472SOL     OW24877   1.419   2.255   5.235  0.2193  0.0868  0.4288
 4472SOL    HW124878   1.481   2.220   5.171 -0.3063  0.2546 -0.1724
 4472SOL    HW224879   1.454   2.344   5.237  1.4739 -0.3861 -0.6547
 4473SOL     OW24880   1.549   4.118   2.769  0.5261  0.5090 -0.2341
 4473SOL    HW124881   1.529   4.040   2.718  1.5070 -0.9147  1.5580
 4473SOL    HW224882   1.644   4.101   2.769  0.6068  0.9428 -0.1064
 4474SOL     OW24883   3.713   1.917   2.187 -0.0478  0.4380  0.1316
 4474SOL    HW124884   3.794   1.966   2.168  0.0154  0.8537  1.4896
 4474SOL    HW224885   3.682   1.916   2.096  0.5332 -2.4706 -0.0379
 4475SOL     OW24886   2.524   2.768   3.356  0.0847  0.0549 -0.1198
 4475SOL    HW124887   2.521   2.791   3.263 -2.4321 -3.1832 -0.8045
 4475SOL    HW224888   2.454   2.824   3.390 -0.2533  0.6368 -1.7325
 4476SOL     OW24889   0.473   0.809   5.808 -0.6536 -0.0574  0.2542
 4476SOL    HW124890   0.420   0.747   5.757  0.7434  0.0519 -1.3197
 4476SOL    HW224891   0.406   0.864   5.847  0.1192  0.7054  0.5177
 4477SOL     OW24892   4.212   2.006   1.015  0.1180  0.7665  0.3847
 4477SOL    HW124893   4.203   1.993   0.921 -1.6709 -0.0094  0.6580
 4477SOL    HW224894   4.191   1.914   1.035 -1.1725  1.3569  1.7837
 4478SOL     OW24895   4.334   0.045   2.315 -0.6466 -0.0835  0.4386
 4478SOL    HW124896   4.421   0.035   2.275 -1.2874 -1.6477 -0.5556
 4478SOL    HW224897   4.332   0.139   2.333 -1.0621  0.0397 -0.2339
 4479SOL     OW24898   1.481   4.357   2.653  0.7593 -0.3880 -0.2324
 4479SOL    HW124899   1.394   4.346   2.690 -0.6834 -0.9273 -3.8047
 4479SOL    HW224900   1.525   4.272   2.650  0.5676 -0.5562  1.8938
 4480SOL     OW24901   2.474   0.245   3.536 -0.0942  0.4806 -0.6506
 4480SOL    HW124902   2.511   0.333   3.535  1.5140 -0.1589  2.2955
 4480SOL    HW224903   2.381   0.259   3.550 -0.2896 -0.7657 -0.7357
 4481SOL     OW24904   4.070   2.571  11.898 -0.6033  0.1185  0.5464
 4481SOL    HW124905   3.983   2.548  11.867 -0.5049 -1.9995  1.8759
 4481SOL    HW224906   4.077   2.662  11.869  1.0592  0.4694  1.9830
 4482SOL     OW24907   3.190   1.171   1.449  0.2303  0.0066 -0.3387
 4482SOL    HW124908   3.166   1.190   1.539  1.5791  0.4891 -0.0878
 4482SOL    HW224909   3.138   1.229   1.393  2.4276  1.8841 -0.4487
 4483SOL     OW24910   3.802   1.207   5.690 -0.0049 -0.4334  0.2125
 4483SOL    HW124911   3.812   1.122   5.646 -0.4982 -1.0077  1.2097
 4483SOL    HW224912   3.888   1.218   5.729  0.6618  1.1226 -1.6918
 4484SOL     OW24913   4.540   2.132   2.819 -0.3644 -0.2620 -0.6148
 4484SOL    HW124914   4.529   2.086   2.736  0.6018  0.4861 -1.1497
 4484SOL    HW224915   4.471   2.198   2.817 -0.7959 -0.6763  0.4451
 4485SOL     OW24916   0.485   2.668  12.718  0.5736  0.0854 -0.2755
 4485SOL    HW124917   0.475   2.757  12.684  0.2802  0.1229 -0.0890
 4485SOL    HW224918   0.580   2.673  12.733  0.4255  0.9658  0.3691
 4486SOL     OW24919   3.740   2.215   6.331 -0.1651  0.1662  0.0162
 4486SOL    HW124920   3.679   2.150   6.296 -1.6533  0.5563  1.9283
 4486SOL    HW224921   3.816   2.161   6.351 -0.0036  0.4244  0.1076
 4487SOL     OW24922   0.601   2.930   5.336  0.1212 -0.0000 -0.3006
 4487SOL    HW124923   0.626   2.881   5.258 -0.6260  3.1166 -2.4479
 4487SOL    HW224924   0.611   2.866   5.407  0.8357 -0.3381 -0.7062
 4488SOL     OW24925   2.726   3.641  14.034  0.3993  0.7816  0.5741
 4488SOL    HW124926   2.657   3.676  13.978 -0.1619  0.4301  1.0552
 4488SOL    HW224927   2.795   3.701  14.003  0.7698 -0.2693 -0.6210
 4489SOL     OW24928   4.584   0.580   2.625 -0.0093 -0.0251 -0.1687
 4489SOL    HW124929   4.561   0.488   2.611  0.7428 -0.4253  1.2008
 4489SOL    HW224930   4.503   0.621   2.594 -0.0821 -0.8791 -1.0985
 4490SOL     OW24931   1.546   0.611   3.625  0.5928  0.3653 -0.0670
 4490SOL    HW124932   1.554   0.595   3.531 -0.5221 -0.9462  0.0603
 4490SOL    HW224933   1.467   0.561   3.644  1.2055  0.0010  1.4679
 4491SOL     OW24934   2.897   0.163  13.342  0.5843  0.1138 -0.1570
 4491SOL    HW124935   2.867   0.148  13.432 -1.7317  1.9100 -0.6265
 4491SOL    HW224936   2.943   0.083  13.316  0.8443  0.7277 -1.5578
 4492SOL     OW24937   4.077   0.945   8.351 -0.0124  0.3270  0.1251
 4492SOL    HW124938   4.161   0.985   8.374 -0.4787 -0.0580  2.5106
 4492SOL    HW224939   4.097   0.945   8.257  1.3709  1.3496  0.4157
 4493SOL     OW24940   1.437   1.243  12.046 -0.1602 -0.2672 -0.0031
 4493SOL    HW124941   1.378   1.187  12.097 -1.2530  0.5965 -0.3191
 4493SOL    HW224942   1.434   1.326  12.092 -0.0839 -1.9049  2.9295
 4494SOL     OW24943   2.399   2.299   9.842  0.3109  0.2783  0.0809
 4494SOL    HW124944   2.428   2.286   9.933  1.5719  0.4205 -0.3010
 4494SOL    HW224945   2.479   2.268   9.800  0.5944 -1.9679  2.2618
 4495SOL     OW24946   4.005   1.198   0.267  0.7814 -0.8681 -0.1735
 4495SOL    HW124947   4.029   1.290   0.257  0.5551 -0.8657 -0.6857
 4495SOL    HW224948   3.952   1.199   0.187 -2.2381  0.9585  1.8639
 4496SOL     OW24949   1.095   2.342   8.257  0.1465  0.0047  0.3273
 4496SOL    HW124950   1.030   2.304   8.197  0.3785 -1.0152  0.7249
 4496SOL    HW224951   1.046   2.342   8.339  0.0207 -0.1320  0.2540
 4497SOL     OW24952   0.375   2.265   8.930 -0.2205 -0.1460 -0.2023
 4497SOL    HW124953   0.444   2.331   8.920  0.2704 -0.4650  1.0368
 4497SOL    HW224954   0.325   2.306   9.000 -1.0681  0.1269 -0.9734
 4498SOL     OW24955   4.204   1.908   8.787  0.3952  0.0763  0.3481
 4498SOL    HW124956   4.120   1.864   8.801  0.3492  0.2281  0.5510
 4498SOL    HW224957   4.213   1.890   8.694 -0.9437 -0.1806  0.2773
 4499SOL     OW24958   4.368   4.363   1.768  0.0575  0.5248  0.0990
 4499SOL    HW124959   4.434   4.429   1.745 -0.1409  0.1613 -1.4640
 4499SOL    HW224960   4.284   4.405   1.784 -2.2541 -3.2042 -2.1907
 4500SOL     OW24961   1.028   2.286   3.859 -0.0138 -0.3299 -0.4769
 4500SOL    HW124962   1.110   2.323   3.827  0.7302 -1.4866  0.0788
 4500SOL    HW224963   1.041   2.196   3.829 -1.8040 -1.0244  0.8459
 4501SOL     OW24964   0.592   0.319  14.967 -0.2210 -0.1181  0.0810
 4501SOL    HW124965   0.574   0.371  15.045  0.6229  0.3474 -0.0403
 4501SOL    HW224966   0.562   0.229  14.985 -0.1930 -0.1001  0.2148
 4502SOL     OW24967   0.071   3.841  13.435  0.1158 -0.1666 -0.2434
 4502SOL    HW124968   0.133   3.772  13.458  1.1526  1.0886  0.7583
 4502SOL    HW224969   4.719   3.799  13.478  0.6319  1.1131  1.9520
 4503SOL     OW24970   1.239   3.149   4.525  0.4482  0.2674  0.2703
 4503SOL    HW124971   1.205   3.139   4.437 -1.2828  2.0429  0.7310
 4503SOL    HW224972   1.202   3.077   4.576  0.0874 -0.8207 -1.5427
 4504SOL     OW24973   2.581   0.549  12.090 -0.1943  0.6213  0.4579
 4504SOL    HW124974   2.612   0.614  12.026 -2.0837  1.6116  0.5497
 4504SOL    HW224975   2.584   0.469  12.037  0.3825  0.9291  0.0197
 4505SOL     OW24976   2.554   0.763  11.495 -1.0566  0.0893  0.1948
 4505SOL    HW124977   2.543   0.802  11.581 -1.9749 -2.6749  1.3322
 4505SOL    HW224978   2.466   0.725  11.491  0.2568 -2.8670 -0.8107
 4506SOL     OW24979   3.904   3.408  11.990 -0.1171 -0.0039 -0.1540
 4506SOL    HW124980   3.814   3.435  11.975 -0.5909 -0.5719  1.7996
 4506SOL    HW224981   3.914   3.442  12.078  0.8443 -1.6994  0.3964
 4507SOL     OW24982   0.707   4.442   8.697 -0.6705  0.1939  0.0599
 4507SOL    HW124983   0.731   4.350   8.709  1.2925  0.5005 -1.4624
 4507SOL    HW224984   0.786   4.483   8.731  0.9765 -2.1441 -0.9626
 4508SOL     OW24985   3.615   3.618   4.183 -0.0545  0.5163  0.0680
 4508SOL    HW124986   3.617   3.586   4.093 -0.9242 -0.1496  0.2807
 4508SOL    HW224987   3.520   3.634   4.185  0.1391  1.9761 -2.1605
 4509SOL     OW24988   4.570   3.846   6.442 -0.6766  1.0599 -0.2897
 4509SOL    HW124989   4.569   3.916   6.507  1.4317 -1.2275  2.1757
 4509SOL    HW224990   4.558   3.776   6.506  1.5145 -1.1370 -2.2802
 4510SOL     OW24991   2.986   3.810   8.270 -0.6799 -0.2306 -0.3989
 4510SOL    HW124992   2.933   3.735   8.297 -2.6115  1.6520  1.0138
 4510SOL    HW224993   3.025   3.782   8.187  3.1916  3.1000  0.2876
 4511SOL     OW24994   2.838   0.967   7.201  0.0777  0.3348  0.0670
 4511SOL    HW124995   2.922   0.997   7.166  0.4899 -1.8106 -0.7889
 4511SOL    HW224996   2.801   0.954   7.114 -1.2361  0.0799  0.6619
 4512SOL     OW24997   0.195   1.619   9.192  0.3155 -0.6701  0.0150
 4512SOL    HW124998   0.249   1.687   9.230 -0.8412  0.4519 -0.3316
 4512SOL    HW224999   0.111   1.634   9.236  1.2865  2.3491  0.7923
 4513SOL     OW25000   2.574   4.135   9.448  0.0035 -0.1326 -0.2599
 4513SOL    HW125001   2.504   4.198   9.431  1.3843  0.9891 -1.7424
 4513SOL    HW225002   2.641   4.188   9.489  1.1970 -1.1181 -0.9298
 4514SOL     OW25003   4.110   1.321   9.234 -0.2368 -0.6083  0.0975
 4514SOL    HW125004   4.019   1.335   9.211 -0.2573 -1.9427 -0.5962
 4514SOL    HW225005   4.139   1.282   9.152 -2.7921 -0.3039 -0.9266
 4515SOL     OW25006   4.439   3.210  10.140  0.1229  0.3630 -0.1698
 4515SOL    HW125007   4.411   3.240  10.054 -1.7088  0.0467  0.3319
 4515SOL    HW225008   4.392   3.274  10.193 -0.2114  1.3454 -1.6663
 4516SOL     OW25009   4.058   4.674   8.797  0.1498  0.0435 -0.2155
 4516SOL    HW125010   4.129   4.674   8.862  0.3493  1.6881 -0.4454
 4516SOL    HW225011   3.985   4.657   8.857 -0.0338  3.2666  0.4554
 4517SOL     OW25012   0.618   2.535  11.884 -0.1370  0.1672 -0.0593
 4517SOL    HW125013   0.541   2.513  11.936  0.3014 -2.0891 -0.3740
 4517SOL    HW225014   0.609   2.620  11.840 -2.2538 -1.1687 -2.1588
 4518SOL     OW25015   0.222   1.537   6.998  0.3849 -0.2927 -0.5076
 4518SOL    HW125016   0.278   1.561   7.072 -1.3317  1.8964  0.0989
 4518SOL    HW225017   0.159   1.487   7.049  0.7851  0.6758  0.9400
 4519SOL     OW25018   1.231   4.543  15.750 -0.7167  0.0535 -0.4911
 4519SOL    HW125019   1.197   4.455  15.765 -1.4275  0.2419 -0.9853
 4519SOL    HW225020   1.266   4.528  15.663 -1.5944 -0.0809 -0.8242
 4520SOL     OW25021   3.452   0.857  17.682 -0.0485 -0.5354 -0.2557
 4520SOL    HW125022   3.501   0.852  17.600  1.1160 -0.2807  0.4227
 4520SOL    HW225023   3.468   0.766   0.012  0.8512 -0.4730 -0.6394
 4521SOL     OW25024   2.195   2.137   2.408  0.6545 -0.0773 -0.2622
 4521SOL    HW125025   2.264   2.071   2.409  1.9279  1.2579 -0.0081
 4521SOL    HW225026   2.123   2.091   2.366  0.0347 -0.0124  0.7257
 4522SOL     OW25027   4.070   2.889   0.745  0.0255  1.1797 -0.1444
 4522SOL    HW125028   4.069   2.805   0.700  0.2475  2.1570 -1.9855
 4522SOL    HW225029   4.001   2.925   0.689 -1.4546 -0.6957  0.4566
 4523SOL     OW25030   2.151   0.747   6.449  0.1711  0.2261 -0.5276
 4523SOL    HW125031   2.115   0.836   6.451  0.8788  0.4720  0.8263
 4523SOL    HW225032   2.241   0.749   6.417  0.3740  2.1164  0.2164
 4524SOL     OW25033   3.021   0.302   8.732  0.4136 -0.3405  0.3418
 4524SOL    HW125034   2.967   0.381   8.724 -0.3669 -1.0987 -1.7336
 4524SOL    HW225035   3.106   0.343   8.717  0.7298 -0.7264  1.0875
 4525SOL     OW25036   0.223   4.162   0.442  0.0313  0.0060  0.2072
 4525SOL    HW125037   0.301   4.216   0.425  0.6407 -1.6633 -2.3682
 4525SOL    HW225038   0.210   4.185   0.534  0.3846 -1.2948  0.5744
 4526SOL     OW25039   0.977   2.286  10.753  0.0389 -0.5190 -0.6168
 4526SOL    HW125040   0.906   2.344  10.782  0.5783  0.0589 -0.4452
 4526SOL    HW225041   1.000   2.252  10.840 -1.1898  0.6192  0.1546
 4527SOL     OW25042   1.674   4.558  15.510 -0.5671 -0.1898  0.3646
 4527SOL    HW125043   1.614   4.633  15.519 -1.6426 -0.6284 -3.2180
 4527SOL    HW225044   1.649   4.515  15.428 -1.9012 -1.6440  1.5352
 4528SOL     OW25045   0.732   2.730  15.211  0.2716  0.3429 -0.4703
 4528SOL    HW125046   0.682   2.811  15.204 -1.0777 -0.2374  2.1806
 4528SOL    HW225047   0.705   2.686  15.131 -1.9566  0.3689  0.2692
 4529SOL     OW25048   1.746   1.281  12.751 -0.3124 -0.1859 -0.2598
 4529SOL    HW125049   1.727   1.205  12.807 -1.5223 -0.2463 -0.7477
 4529SOL    HW225050   1.760   1.346  12.820 -1.5321  0.5068 -0.6649
 4530SOL     OW25051   1.591   2.986   5.675 -0.1742  0.3396 -0.1095
 4530SOL    HW125052   1.572   2.895   5.652 -0.2663 -0.6205  3.7741
 4530SOL    HW225053   1.685   2.979   5.655  0.0775  1.2284  0.7776
 4531SOL     OW25054   0.120   0.071   5.766 -0.9112  0.2397 -0.1013
 4531SOL    HW125055   0.061   0.031   5.830 -0.2686  0.0829  0.3945
 4531SOL    HW225056   0.065   0.077   5.688 -1.7751 -0.9488  0.4077
 4532SOL     OW25057   4.336   3.885   4.000  0.7289 -0.8632  0.2688
 4532SOL    HW125058   4.262   3.873   3.940 -0.7938  1.6738  1.6541
 4532SOL    HW225059   4.338   3.981   4.000 -0.1872 -0.8441  0.6909
 4533SOL     OW25060   0.712   2.073   5.150 -0.0759  0.1618  0.3135
 4533SOL    HW125061   0.799   2.055   5.187  0.8780  3.3926 -0.3665
 4533SOL    HW225062   0.742   2.127   5.077 -0.2447 -0.8610 -0.5173
 4534SOL     OW25063   2.344   1.324   8.197  0.3633  0.7350 -1.0520
 4534SOL    HW125064   2.257   1.335   8.159  0.0393  2.5019  0.2304
 4534SOL    HW225065   2.370   1.233   8.179  1.6888  0.6215  1.4717
 4535SOL     OW25066   4.190   1.225   4.446  0.0937  0.2103  0.1764
 4535SOL    HW125067   4.279   1.235   4.479 -0.0465  0.0252  0.6116
 4535SOL    HW225068   4.183   1.310   4.404  0.7061 -1.0660 -2.5084
 4536SOL     OW25069   3.698   1.413   0.211  0.2307 -0.5190  0.0948
 4536SOL    HW125070   3.686   1.358   0.134  3.7333 -1.1280 -0.0004
 4536SOL    HW225071   3.609   1.444   0.228 -0.6103 -2.7114 -0.3734
 4537SOL     OW25072   0.082   4.246   4.281  0.1527  0.0416  0.1551
 4537SOL    HW125073   0.140   4.170   4.284  2.0083  1.4798  0.7137
 4537SOL    HW225074   0.134   4.312   4.327 -1.8686  1.6059  0.1699
 4538SOL     OW25075   0.824   4.714   5.856  0.1969 -0.5256 -0.0984
 4538SOL    HW125076   0.814   4.619   5.859 -2.0933 -0.3858 -3.3713
 4538SOL    HW225077   0.910   4.721   5.896 -0.6893  0.0103  1.7023
 4539SOL     OW25078   1.511   2.719   5.547 -0.3281  0.1559 -0.3019
 4539SOL    HW125079   1.514   2.626   5.567  1.0314  0.5189  1.0945
 4539SOL    HW225080   1.591   2.732   5.496  0.2733  0.2453  0.6681
 4540SOL     OW25081   0.307   0.067   1.623  0.9023  0.2752 -0.3951
 4540SOL    HW125082   0.216   0.082   1.649  1.7031  0.6330  2.2681
 4540SOL    HW225083   0.311   0.115   1.540 -0.4075 -1.0388 -1.2197
 4541SOL     OW25084   0.870   4.092   1.656  0.4641  0.9144 -0.8647
 4541SOL    HW125085   0.873   4.185   1.637  2.0980  0.7199 -1.5521
 4541SOL    HW225086   0.832   4.078   1.743 -1.0950  0.1499 -1.6605
 4542SOL     OW25087   0.616   3.414  10.356 -0.1361 -0.1783  0.1699
 4542SOL    HW125088   0.608   3.509  10.344  0.8499  0.0151  1.0127
 4542SOL    HW225089   0.688   3.395  10.296 -1.8165  0.6794 -2.0987
 4543SOL     OW25090   1.847   2.649   4.091  0.1372 -0.2982 -0.0167
 4543SOL    HW125091   1.755   2.630   4.076 -0.1358  0.8423  0.2215
 4543SOL    HW225092   1.884   2.618   4.008 -0.8936 -0.9991 -0.2012
 4544SOL     OW25093   1.344   1.701  12.354 -0.4249  0.6609  0.7442
 4544SOL    HW125094   1.342   1.624  12.411 -0.0017 -0.0168 -0.1571
 4544SOL    HW225095   1.271   1.754  12.385 -1.9547 -0.5386 -0.8315
 4545SOL     OW25096   2.088   4.326  11.309  0.1372  0.1131 -0.3241
 4545SOL    HW125097   2.046   4.323  11.396  0.8969  0.7167  0.0662
 4545SOL    HW225098   2.142   4.247  11.313 -0.4993 -0.3261 -0.2965
 4546SOL     OW25099   4.267   1.459   4.659  0.1802  0.5977  0.1375
 4546SOL    HW125100   4.291   1.437   4.749 -1.3590  0.8036  0.5886
 4546SOL    HW225101   4.185   1.409   4.653  0.8885 -0.4889 -0.5338
 4547SOL     OW25102   4.379   4.674   0.513  0.2280 -0.4526  0.1696
 4547SOL    HW125103   4.448   4.653   0.576  0.3627 -0.1735  0.1132
 4547SOL    HW225104   4.426   0.020   0.466 -0.2410 -0.8303 -0.8580
 4548SOL     OW25105   1.491   1.213  12.960 -0.3894  0.0302  0.1228
 4548SOL    HW125106   1.569   1.167  12.990  0.3686  1.0934 -0.2566
 4548SOL    HW225107   1.519   1.300  12.985  1.0589 -0.7626  1.2330
 4549SOL     OW25108   3.409   2.023   0.476  0.2693 -0.0359  0.3897
 4549SOL    HW125109   3.363   2.091   0.427 -0.7622  0.0299  1.4367
 4549SOL    HW225110   3.419   1.956   0.409  0.1714 -0.3304  0.6651
 4550SOL     OW25111   0.202   0.935   6.109  0.5797 -0.4321  0.3770
 4550SOL    HW125112   0.112   0.927   6.140 -0.2656  2.3180 -1.4735
 4550SOL    HW225113   0.245   0.971   6.186  1.2786  1.4839 -0.9349
 4551SOL     OW25114   0.228   4.143   7.150  0.3299  0.7331  0.1564
 4551SOL    HW125115   0.304   4.096   7.185  0.2984  1.8502  1.7476
 4551SOL    HW225116   0.163   4.082   7.185  2.8518 -1.7679  0.4990
 4552SOL     OW25117   1.231   1.565   2.931 -0.5641 -0.3477  0.3172
 4552SOL    HW125118   1.288   1.541   3.004  0.7756 -1.0574 -0.9473
 4552SOL    HW225119   1.276   1.519   2.860  0.6803 -0.5640  1.2521
 4553SOL     OW25120   3.177   2.333   8.726  0.2147 -0.4411 -0.3384
 4553SOL    HW125121   3.171   2.238   8.732 -1.3836 -0.3177  0.0018
 4553SOL    HW225122   3.087   2.363   8.710  0.4672  1.4004  1.6642
 4554SOL     OW25123   3.747   1.514  16.397 -0.5804 -1.1633 -0.1433
 4554SOL    HW125124   3.741   1.581  16.466  0.2118 -1.1538 -0.0816
 4554SOL    HW225125   3.842   1.505  16.387 -0.5178  0.9390 -1.4447
 4555SOL     OW25126   1.974   0.065   3.348 -0.5382  0.1852 -0.0002
 4555SOL    HW125127   2.026   0.020   3.282 -0.3420 -0.7756  0.8204
 4555SOL    HW225128   1.956   4.715   3.407  1.7485 -2.3745 -2.4922
 4556SOL     OW25129   3.458   3.641   2.899  0.0250  0.9229  0.0714
 4556SOL    HW125130   3.380   3.595   2.866  0.2208 -0.2639  1.2537
 4556SOL    HW225131   3.521   3.571   2.916 -0.0889  0.2421 -2.2680
 4557SOL     OW25132   0.489   3.516  15.197  0.1400  0.1323  0.5483
 4557SOL    HW125133   0.544   3.451  15.241 -0.1825 -0.9517 -0.6577
 4557SOL    HW225134   0.489   3.487  15.106  0.3476  1.1456  0.2180
 4558SOL     OW25135   3.199   3.718   4.331 -0.4617  0.1595 -0.5666
 4558SOL    HW125136   3.213   3.805   4.294  0.6219 -0.2950 -1.2364
 4558SOL    HW225137   3.159   3.673   4.257 -2.6863 -1.3953  1.5615
 4559SOL     OW25138   1.241   0.282   5.070  0.0063 -0.2109 -0.3215
 4559SOL    HW125139   1.244   0.369   5.111 -0.3230 -0.3169 -0.0738
 4559SOL    HW225140   1.254   0.309   4.979  0.3384  2.7150  0.5800
 4560SOL     OW25141   4.269   1.058   2.224 -0.1367  0.0122  0.2796
 4560SOL    HW125142   4.310   1.144   2.217 -0.4609  0.1476  0.0818
 4560SOL    HW225143   4.338   1.008   2.180  1.3750  2.1245  0.2366
 4561SOL     OW25144   3.626   4.386  17.584  0.0597  0.1273  1.0039
 4561SOL    HW125145   3.713   4.399  17.621  1.4378 -0.4936 -2.0308
 4561SOL    HW225146   3.646   4.374  17.491  0.6168  0.7619  1.0393
 4562SOL     OW25147   0.063   3.794   2.139 -0.0125  0.2309  0.1813
 4562SOL    HW125148   0.051   3.888   2.137  0.5455  0.2265 -3.1122
 4562SOL    HW225149   0.104   3.787   2.226 -1.1881  0.1112  0.7286
 4563SOL     OW25150   3.302   0.932   1.550  0.6484  0.4095  0.9056
 4563SOL    HW125151   3.310   0.950   1.644 -2.5894 -0.5236  1.3498
 4563SOL    HW225152   3.215   0.963   1.527  0.3862  0.4717  1.9773
 4564SOL     OW25153   1.706   0.693  14.856  0.1162 -0.2358 -0.0571
 4564SOL    HW125154   1.661   0.691  14.941 -1.0778  0.7370 -0.6695
 4564SOL    HW225155   1.707   0.787  14.843 -2.6853 -0.3627 -1.2239
 4565SOL     OW25156   0.609   3.484  13.863  0.5396  0.0802  0.7163
 4565SOL    HW125157   0.631   3.429  13.788 -1.4211  1.7124 -1.0308
 4565SOL    HW225158   0.553   3.422  13.910  0.2416  0.5076  0.9172
 4566SOL     OW25159   3.572   1.443   2.516  0.1914 -0.1765 -0.4222
 4566SOL    HW125160   3.593   1.462   2.607  0.7348 -1.1257 -0.3582
 4566SOL    HW225161   3.618   1.514   2.470 -0.2533 -0.3871 -1.1966
 4567SOL     OW25162   3.473   4.381   6.017  0.3384  0.7226  0.2156
 4567SOL    HW125163   3.396   4.363   6.071 -0.3750 -0.2529 -1.0913
 4567SOL    HW225164   3.496   4.471   6.036  0.0808  1.0064 -0.7973
 4568SOL     OW25165   0.922   1.553  10.294  0.8090  0.6567 -0.2779
 4568SOL    HW125166   0.994   1.605  10.257  1.4839 -0.9714 -1.2140
 4568SOL    HW225167   0.960   1.466  10.300  0.9879  0.8287  1.3407
 4569SOL     OW25168   1.709   4.285  17.665  0.4684 -0.1427  0.2111
 4569SOL    HW125169   1.766   4.359  17.643  0.0736 -0.4857 -2.0003
 4569SOL    HW225170   1.676   4.268  17.577 -2.8596 -1.3294  1.6913
 4570SOL     OW25171   3.114   0.437   8.187 -0.4633  0.5469 -0.3083
 4570SOL    HW125172   3.050   0.487   8.238  1.6935  2.6868  0.3518
 4570SOL    HW225173   3.144   0.369   8.247  1.7472  1.7131 -0.0770
 4571SOL     OW25174   3.828   3.734  14.355 -0.4950 -0.3067  0.5950
 4571SOL    HW125175   3.853   3.695  14.439 -1.5370  1.0275  1.5183
 4571SOL    HW225176   3.909   3.709  14.310  0.6524  4.8780 -0.2707
 4572SOL     OW25177   4.501   1.875   4.158  0.2131 -0.2872 -0.9138
 4572SOL    HW125178   4.442   1.804   4.184  0.7046 -0.8947 -1.4856
 4572SOL    HW225179   4.580   1.850   4.206  0.2070 -0.0108 -0.7592
 4573SOL     OW25180   3.752   3.656   2.288  0.3996 -0.0899  0.4165
 4573SOL    HW125181   3.752   3.697   2.375  1.1822 -2.8303  1.7452
 4573SOL    HW225182   3.732   3.564   2.307  0.6287 -0.0367  0.9187
 4574SOL     OW25183   1.088   0.155   4.550  0.2256  0.1266 -0.1978
 4574SOL    HW125184   1.073   0.228   4.610  1.1961 -0.2428  0.4981
 4574SOL    HW225185   1.170   0.170   4.503 -0.2503  1.4042 -0.6241
 4575SOL     OW25186   4.394   0.021   4.776 -0.9513 -0.1136  0.2725
 4575SOL    HW125187   4.359   0.110   4.784 -0.4381  0.2197 -1.1728
 4575SOL    HW225188   4.429   0.042   4.689  0.3856 -0.8023  0.6450
 4576SOL     OW25189   1.442   1.824   9.036 -0.1110  0.1085 -0.0288
 4576SOL    HW125190   1.349   1.818   9.057 -0.2265  1.2704 -0.1929
 4576SOL    HW225191   1.481   1.825   9.123 -0.4148 -2.4580  0.1552
 4577SOL     OW25192   2.677   3.491   5.697 -0.6002  0.1386  0.5452
 4577SOL    HW125193   2.723   3.545   5.761  1.8554 -0.5194 -0.6463
 4577SOL    HW225194   2.589   3.528   5.687  0.1386  1.5319 -0.7659
 4578SOL     OW25195   0.992   2.937   2.678  0.1900  0.0537  0.2117
 4578SOL    HW125196   1.086   2.957   2.676  0.3590 -1.0229 -2.7586
 4578SOL    HW225197   0.995   2.863   2.618 -0.3647  0.0974  0.1287
 4579SOL     OW25198   0.566   4.674   7.263  0.1211 -0.7507  0.2337
 4579SOL    HW125199   0.508   0.017   7.301 -0.3544 -2.6939  2.9295
 4579SOL    HW225200   0.623   4.660   7.339  3.4571  0.0083 -2.1542
 4580SOL     OW25201   1.285   4.564   5.593 -0.3598  0.1277  0.2639
 4580SOL    HW125202   1.315   4.585   5.681  0.4858  0.3300 -0.0741
 4580SOL    HW225203   1.335   4.486   5.572  1.0876  1.2628 -0.5068
 4581SOL     OW25204   1.427   0.562   3.354 -0.0616 -0.0967  0.0261
 4581SOL    HW125205   1.396   0.486   3.305  0.1138 -0.2557  0.1610
 4581SOL    HW225206   1.455   0.602   3.272  0.5548 -2.3997 -0.9095
 4582SOL     OW25207   0.728   1.730   7.238  1.0628  0.1886  0.0388
 4582SOL    HW125208   0.726   1.826   7.245 -0.3036  0.2893 -1.7156
 4582SOL    HW225209   0.639   1.712   7.207  1.5636 -0.2264 -1.1425
 4583SOL     OW25210   0.515   1.601   3.688  0.7306  0.4071 -0.2718
 4583SOL    HW125211   0.452   1.671   3.705 -0.5498 -0.2664 -2.1839
 4583SOL    HW225212   0.476   1.530   3.740  0.4259  1.3995  0.8371
 4584SOL     OW25213   4.664   0.403   0.569  0.0484 -0.2047 -0.3335
 4584SOL    HW125214   0.015   0.344   0.549  1.0782  0.6624  0.8966
 4584SOL    HW225215   4.702   0.456   0.640 -0.4436  0.6570 -0.7159
 4585SOL     OW25216   1.097   0.307  17.030 -0.1798  0.3086  0.3714
 4585SOL    HW125217   1.178   0.357  17.019  0.1177 -0.3342 -0.3478
 4585SOL    HW225218   1.047   0.345  16.957  0.3064  1.3667  0.5950
 4586SOL     OW25219   3.852   1.357   7.023 -0.4676 -0.3660 -0.0084
 4586SOL    HW125220   3.795   1.395   6.956  1.7344  1.0157 -1.1141
 4586SOL    HW225221   3.793   1.346   7.097 -0.6302  1.7128  0.1759
 4587SOL     OW25222   1.891   1.425  12.565 -0.2272  0.2504 -0.1671
 4587SOL    HW125223   1.829   1.386  12.627  1.9212 -1.2041  1.0791
 4587SOL    HW225224   1.880   1.520  12.573 -0.1449  0.2020  0.5222
 4588SOL     OW25225   0.005   4.457   0.775  0.1087  0.2889  0.4691
 4588SOL    HW125226   0.022   4.366   0.800  0.5715 -0.1907 -1.5889
 4588SOL    HW225227   4.670   4.495   0.842  1.1126 -0.7574  1.9257
 4589SOL     OW25228   2.481   3.340   3.097 -0.1676 -0.2137 -0.6079
 4589SOL    HW125229   2.413   3.401   3.070 -0.4910 -0.2368  0.1549
 4589SOL    HW225230   2.512   3.325   3.008  1.2956 -0.0817 -0.1109
 4590SOL     OW25231   4.454   0.572   1.290 -0.2664 -0.0337  0.8935
 4590SOL    HW125232   4.456   0.524   1.207 -1.3430 -1.9471  2.0060
 4590SOL    HW225233   4.514   0.513   1.334  0.4351  1.4544  1.9228
 4591SOL     OW25234   4.621   4.540  10.765  0.4841 -0.5654 -0.2558
 4591SOL    HW125235   4.666   4.457  10.746  1.2188 -0.2794  0.2614
 4591SOL    HW225236   4.605   4.532  10.859  0.5275 -0.3175 -0.2292
 4592SOL     OW25237   1.947   3.775   1.730  1.2492  0.4003 -0.3745
 4592SOL    HW125238   2.027   3.741   1.770  1.3541  0.3080 -0.6617
 4592SOL    HW225239   1.987   3.819   1.655  0.6295  0.5603 -0.6197
 4593SOL     OW25240   3.638   4.367  17.312  0.3029 -0.2483 -0.4233
 4593SOL    HW125241   3.730   4.380  17.290  0.8567 -1.8736  0.8919
 4593SOL    HW225242   3.598   4.416  17.240 -0.0959  2.0453  1.3857
 4594SOL     OW25243   4.701   2.878   8.552  0.3557 -0.3426  0.4995
 4594SOL    HW125244   4.616   2.834   8.551 -0.7539  1.7931 -0.3985
 4594SOL    HW225245   4.720   2.876   8.645 -3.0774 -1.8385  1.1566
 4595SOL     OW25246   3.588   0.577  13.377  0.2980  0.2843 -0.3309
 4595SOL    HW125247   3.595   0.482  13.380  2.2179  0.4147 -0.4750
 4595SOL    HW225248   3.492   0.583  13.377  0.1419 -2.4682 -0.3635
 4596SOL     OW25249   4.449   1.848  14.722  0.2763  0.3444 -0.1591
 4596SOL    HW125250   4.445   1.799  14.805  1.2661 -0.2299 -0.4535
 4596SOL    HW225251   4.386   1.812  14.659  0.6407  0.3365 -0.5113
 4597SOL     OW25252   3.100   1.981   8.535  0.0838  0.1511 -0.6318
 4597SOL    HW125253   3.174   1.965   8.594 -0.4378  0.6145  0.1545
 4597SOL    HW225254   3.043   1.926   8.588  0.8615  0.3598  0.4314
 4598SOL     OW25255   2.481   1.074   3.469  0.0846  0.3952  0.1139
 4598SOL    HW125256   2.424   1.032   3.405 -1.6239  1.5921  0.8306
 4598SOL    HW225257   2.431   1.156   3.471 -0.2659  0.2018 -0.7889
 4599SOL     OW25258   4.178   4.180   2.689 -0.8170  0.3800  0.4920
 4599SOL    HW125259   4.163   4.094   2.729  0.8268  0.2718  0.8872
 4599SOL    HW225260   4.156   4.163   2.597  0.9442  0.0611  0.1206
 4600SOL     OW25261   0.269   1.093   2.697  1.0149  0.1996 -0.4457
 4600SOL    HW125262   0.279   1.186   2.716 -4.1599  0.7316 -0.3557
 4600SOL    HW225263   0.344   1.059   2.747 -0.3436  0.6404  1.8953
 4601SOL     OW25264   0.949   1.113   2.003  0.5084  0.4825  0.3925
 4601SOL    HW125265   0.982   1.115   1.913 -0.9693 -0.9758 -0.1920
 4601SOL    HW225266   0.856   1.117   1.978  0.3151  0.4617  1.1286
 4602SOL     OW25267   1.973   1.650   4.899  0.8525  0.1933  0.4104
 4602SOL    HW125268   2.000   1.558   4.904 -0.1776 -0.1335  0.0703
 4602SOL    HW225269   2.057   1.693   4.913  1.8753 -2.2407  1.7616
 4603SOL     OW25270   3.364   4.407  17.479 -0.0290  0.3097  0.3571
 4603SOL    HW125271   3.347   4.320  17.516 -0.8095  0.2591 -0.0961
 4603SOL    HW225272   3.453   4.391  17.449 -0.6259 -0.4531 -1.0409
 4604SOL     OW25273   1.408   2.996   1.415 -0.2948 -0.2120 -0.0800
 4604SOL    HW125274   1.399   2.985   1.320  3.3121  0.9165 -0.5375
 4604SOL    HW225275   1.499   2.969   1.419  0.2379  1.4968 -0.5425
 4605SOL     OW25276   3.450   0.424   5.333 -0.1037 -0.3235  0.7119
 4605SOL    HW125277   3.530   0.372   5.327 -0.9499 -1.4868 -0.6282
 4605SOL    HW225278   3.460   0.478   5.255  0.3126 -1.5870 -0.1129
 4606SOL     OW25279   4.349   4.140   5.725 -0.1875  0.2550 -0.5933
 4606SOL    HW125280   4.322   4.196   5.652  1.4258  0.7908 -0.7811
 4606SOL    HW225281   4.393   4.067   5.681 -1.2571 -0.9800  0.3625
 4607SOL     OW25282   2.573   1.239   6.050  0.2058 -0.0733 -0.0319
 4607SOL    HW125283   2.493   1.290   6.042 -0.3675 -1.2099 -1.4308
 4607SOL    HW225284   2.618   1.266   5.970 -2.0572  2.9318 -0.2646
 4608SOL     OW25285   1.600   0.567  11.609  0.3171 -0.4015 -0.6835
 4608SOL    HW125286   1.527   0.505  11.614 -0.6968  0.7273 -1.5538
 4608SOL    HW225287   1.654   0.501  11.653  0.1503  0.3243  0.6137
 4609SOL     OW25288   2.809   2.276  15.433  0.4839  0.8401  0.5900
 4609SOL    HW125289   2.831   2.274  15.526  1.7511 -0.7795  0.2478
 4609SOL    HW225290   2.724   2.234  15.442 -0.7382  2.7445 -2.1992
 4610SOL     OW25291   3.065   2.595   8.395  0.5201 -0.6779  0.1667
 4610SOL    HW125292   3.159   2.581   8.407  0.8421  1.2718 -0.1852
 4610SOL    HW225293   3.058   2.657   8.467 -0.1091 -2.0561  1.2983
 4611SOL     OW25294   0.637   3.384   9.995 -0.3576 -0.1599  0.1543
 4611SOL    HW125295   0.699   3.311  10.002 -0.0017  0.1480  0.2345
 4611SOL    HW225296   0.588   3.353   9.920 -1.4695 -1.7147  1.5309
 4612SOL     OW25297   1.377   2.165   5.679  0.0453  0.0863  0.8698
 4612SOL    HW125298   1.311   2.203   5.621 -0.7743 -2.4909  0.0842
 4612SOL    HW225299   1.336   2.083   5.707 -2.6311  1.4417  0.8677
 4613SOL     OW25300   4.722   0.658   1.009 -0.2254  0.3512  0.0937
 4613SOL    HW125301   4.666   0.735   1.020  0.8925  1.1758 -0.0317
 4613SOL    HW225302   0.087   0.681   1.041  0.6530 -1.6544 -0.8493
 4614SOL     OW25303   0.322   2.983   5.791  0.4247  0.0872  0.1178
 4614SOL    HW125304   0.236   2.947   5.815  0.7427 -0.0635  1.0505
 4614SOL    HW225305   0.310   3.035   5.712 -1.0210  0.7923  0.8036
 4615SOL     OW25306   0.235   0.588   3.086  0.2765  0.1174 -0.7045
 4615SOL    HW125307   0.161   0.630   3.043 -0.7122  0.2561  1.1330
 4615SOL    HW225308   0.260   0.662   3.142 -1.2503  0.4589 -0.4710
 4616SOL     OW25309   2.885   4.185   0.736 -0.1527  0.1868 -0.2945
 4616SOL    HW125310   2.958   4.127   0.760 -0.4512  0.3197  0.9265
 4616SOL    HW225311   2.932   4.266   0.715 -0.3569  0.3340 -0.1814
 4617SOL     OW25312   0.686   0.425  13.659  0.1556 -0.4554 -0.0990
 4617SOL    HW125313   0.751   0.477  13.707 -0.6062 -1.0661  1.5915
 4617SOL    HW225314   0.742   0.362  13.614 -0.8838 -0.9295 -0.7192
 4618SOL     OW25315   1.162   0.346   0.103 -0.3453  0.5456  0.3290
 4618SOL    HW125316   1.080   0.345   0.152  1.0803 -0.0920  2.7308
 4618SOL    HW225317   1.129   0.319   0.017 -0.3455 -3.5866  1.6282
 4619SOL     OW25318   4.387   2.156   5.046 -0.0950 -0.4584 -0.4324
 4619SOL    HW125319   4.354   2.185   5.131 -1.5043  0.4871 -1.3041
 4619SOL    HW225320   4.417   2.242   5.017 -2.7249  0.4183 -0.5928
 4620SOL     OW25321   1.897   2.013   9.111  0.0675 -0.5051  0.2285
 4620SOL    HW125322   1.818   1.998   9.162  0.1838 -0.1626  0.5005
 4620SOL    HW225323   1.964   2.011   9.179  0.2507 -0.6624  0.0422
 4621SOL     OW25324   1.917   1.505   0.577  0.3138 -0.0181  0.5683
 4621SOL    HW125325   1.926   1.416   0.609 -1.2941 -0.4059 -0.0887
 4621SOL    HW225326   1.910   1.479   0.486  0.1969  0.2551  0.4997
 4622SOL     OW25327   2.420   0.286   4.731  0.1226 -0.4542 -0.8013
 4622SOL    HW125328   2.379   0.370   4.716 -0.8922 -1.2598 -2.4846
 4622SOL    HW225329   2.390   0.267   4.820 -1.2357  0.5380 -1.0529
 4623SOL     OW25330   2.769   1.545  14.262  0.1640 -0.0265 -0.5466
 4623SOL    HW125331   2.695   1.515  14.315 -0.7620  0.4685 -1.5663
 4623SOL    HW225332   2.815   1.464  14.237 -0.7648 -0.7723  0.1637
 4624SOL     OW25333   3.432   1.226  10.076 -0.0438 -1.0931 -0.8468
 4624SOL    HW125334   3.409   1.197   9.988 -1.1995  1.3679 -1.3436
 4624SOL    HW225335   3.444   1.135  10.104 -3.9509 -1.3595  0.0070
 4625SOL     OW25336   4.398   4.430   6.497  0.2861 -0.4495  0.6766
 4625SOL    HW125337   4.335   4.500   6.482 -0.5693 -1.4760 -0.4916
 4625SOL    HW225338   4.474   4.484   6.517  1.6078 -2.6477  1.6666
 4626SOL     OW25339   4.173   2.342   3.341 -0.2419 -0.2554 -0.2961
 4626SOL    HW125340   4.113   2.416   3.349 -0.9427 -0.7238 -1.3002
 4626SOL    HW225341   4.250   2.399   3.330  1.6859 -2.6705  0.6574
 4627SOL     OW25342   0.996   2.734   2.509  0.6007  0.7930  0.2467
 4627SOL    HW125343   0.968   2.736   2.418 -1.2771 -2.8285  0.7232
 4627SOL    HW225344   1.081   2.690   2.497  0.4116  1.2034 -2.6587
 4628SOL     OW25345   0.548   2.914   8.610  0.2386  0.1344  0.5788
 4628SOL    HW125346   0.497   2.992   8.631 -0.2087  0.1077 -0.4200
 4628SOL    HW225347   0.585   2.933   8.524 -1.0043 -0.6943 -0.1304
 4629SOL     OW25348   3.326   3.598   5.131  0.9712 -0.1983  0.4981
 4629SOL    HW125349   3.289   3.538   5.066  0.1769  2.0771 -1.1263
 4629SOL    HW225350   3.274   3.678   5.123 -0.2370 -1.0890 -0.4830
 4630SOL     OW25351   3.132   3.716   9.006  0.3322 -0.2228  0.6774
 4630SOL    HW125352   3.041   3.748   9.004  0.9662  1.5679  0.9286
 4630SOL    HW225353   3.172   3.767   9.076 -0.0281  1.6473 -0.4880
 4631SOL     OW25354   3.676   2.748  16.939 -0.0596  0.1034 -0.8258
 4631SOL    HW125355   3.650   2.732  17.029 -0.9496  0.8484 -0.9461
 4631SOL    HW225356   3.635   2.829  16.909 -0.2596  0.4274  0.3171
 4632SOL     OW25357   3.549   4.497   2.956 -0.4599 -0.0016  0.0879
 4632SOL    HW125358   3.519   4.568   2.899 -2.6063 -0.6566  0.4061
 4632SOL    HW225359   3.579   4.438   2.886  0.4089  0.4101  0.1148
 4633SOL     OW25360   0.058   3.011  15.241  0.0600 -0.0007 -0.1025
 4633SOL    HW125361   0.067   3.085  15.182  0.0665  1.0110  1.1627
 4633SOL    HW225362   4.713   2.955  15.202  1.4590 -3.4855  2.4415
 4634SOL     OW25363   1.005   2.718  10.846 -0.0028  0.4048 -0.5328
 4634SOL    HW125364   1.058   2.746  10.921 -2.5904  2.9485  0.3462
 4634SOL    HW225365   0.984   2.627  10.868  0.8289 -0.1921 -2.2131
 4635SOL     OW25366   2.422   2.504   2.137 -0.1275 -0.2236  0.1907
 4635SOL    HW125367   2.391   2.590   2.108  2.9926  0.8073 -0.0743
 4635SOL    HW225368   2.471   2.468   2.063  0.8958 -2.1172  1.7764
 4636SOL     OW25369   2.939   0.548   1.232 -0.0878  0.3219  0.1663
 4636SOL    HW125370   2.974   0.473   1.280 -2.6706 -2.5027 -2.3224
 4636SOL    HW225371   2.921   0.612   1.301  0.1841  0.4178  0.1499
 4637SOL     OW25372   4.203   2.714   8.690 -0.3335 -0.3071  0.5082
 4637SOL    HW125373   4.190   2.658   8.766 -0.6903 -0.3559  0.4109
 4637SOL    HW225374   4.134   2.779   8.702  1.6495  1.6786  1.1154
 4638SOL     OW25375   1.365   3.555   1.549 -0.0409 -0.1166  0.0902
 4638SOL    HW125376   1.323   3.617   1.489  0.6843 -1.7562 -2.0750
 4638SOL    HW225377   1.438   3.532   1.492 -0.0666  0.7002 -0.2714
 4639SOL     OW25378   0.871   0.824   1.149  0.8013 -0.2139  0.1408
 4639SOL    HW125379   0.793   0.872   1.175  0.4742  0.3058 -1.8545
 4639SOL    HW225380   0.929   0.899   1.150  0.2123  0.2345  0.9414
 4640SOL     OW25381   4.233   3.496   7.851 -0.8545  0.2855 -0.9415
 4640SOL    HW125382   4.265   3.576   7.893 -0.9691 -0.9154  1.4257
 4640SOL    HW225383   4.138   3.495   7.861 -0.4566 -0.2010  2.8047
 4641SOL     OW25384   1.329   3.416   3.138 -0.3244  0.5898  0.4216
 4641SOL    HW125385   1.383   3.368   3.075 -1.3775 -1.3055  0.9680
 4641SOL    HW225386   1.244   3.377   3.117  0.7195 -0.8089 -1.2017
 4642SOL     OW25387   2.871   3.719   3.354 -0.3052 -0.6985 -0.0981
 4642SOL    HW125388   2.957   3.697   3.318 -0.8127  0.6433 -2.1042
 4642SOL    HW225389   2.847   3.781   3.286  0.7522 -0.0939  0.0780
 4643SOL     OW25390   0.312   3.058   8.854 -0.1705  0.3714  0.0943
 4643SOL    HW125391   0.373   2.992   8.886 -1.2479 -0.9297 -0.4897
 4643SOL    HW225392   0.356   3.088   8.775 -0.2466  0.2930  0.0222
 4644SOL     OW25393   2.455   0.698   5.648  0.1383 -0.0134 -0.5226
 4644SOL    HW125394   2.457   0.732   5.558  1.4675  0.5792 -0.2783
 4644SOL    HW225395   2.409   0.616   5.633 -0.9734  0.6573 -0.7754
 4645SOL     OW25396   4.025   2.344   0.475 -0.4028  0.0210  0.7053
 4645SOL    HW125397   4.084   2.341   0.550 -0.1953 -1.7204  0.4628
 4645SOL    HW225398   4.005   2.251   0.480 -1.4954  0.2879  1.3870
 4646SOL     OW25399   2.268   1.570   5.526  0.3251 -0.0601  0.1226
 4646SOL    HW125400   2.344   1.516   5.506  0.6816  0.7199 -0.6254
 4646SOL    HW225401   2.232   1.577   5.437  0.8368  0.3599 -0.0531
 4647SOL     OW25402   3.847   1.856   2.824  0.4308  0.3350  0.6000
 4647SOL    HW125403   3.788   1.863   2.749 -1.6025  2.0548  2.3816
 4647SOL    HW225404   3.784   1.834   2.893 -1.9005  0.8894 -1.3762
 4648SOL     OW25405   3.795   4.296   9.694 -0.0886 -0.5077 -0.7958
 4648SOL    HW125406   3.845   4.263   9.769  1.6563  2.1385 -0.7957
 4648SOL    HW225407   3.819   4.387   9.713  0.2548 -0.6007 -0.7804
 4649SOL     OW25408   4.005   4.268   3.194  0.2720  0.3294 -0.0856
 4649SOL    HW125409   3.919   4.232   3.215 -0.0102  0.0713 -1.7223
 4649SOL    HW225410   4.055   4.192   3.164 -2.3002 -0.9438 -1.0943
 4650SOL     OW25411   0.072   0.033   3.194 -0.5105  0.4038  0.2078
 4650SOL    HW125412   0.047   0.117   3.157  0.0255  1.1534  1.5239
 4650SOL    HW225413   0.037   4.693   3.131  0.1531 -0.3131  0.5433
 4651SOL     OW25414   1.669   0.686  13.073 -0.6844 -0.2963  0.1016
 4651SOL    HW125415   1.633   0.688  13.162  1.8568 -1.7664  1.1592
 4651SOL    HW225416   1.587   0.706  13.027  1.1183  0.6828 -2.6969
 4652SOL     OW25417   0.760   2.261  13.331  0.9588 -0.3350 -0.0270
 4652SOL    HW125418   0.763   2.356  13.327 -1.4585 -0.2542  0.1498
 4652SOL    HW225419   0.852   2.239  13.314  0.3071 -1.4886 -2.0935
 4653SOL     OW25420   1.212   4.287   2.690 -0.2830  0.0611  0.0931
 4653SOL    HW125421   1.170   4.373   2.684 -1.1844 -0.4443 -0.7969
 4653SOL    HW225422   1.202   4.276   2.785 -1.6210  2.5464  0.2336
 4654SOL     OW25423   0.602   3.527   4.385  0.2743 -0.3689 -0.3490
 4654SOL    HW125424   0.579   3.446   4.339 -0.1097 -1.0805  1.0889
 4654SOL    HW225425   0.608   3.502   4.478 -0.0206 -2.9310 -1.0269
 4655SOL     OW25426   1.767   3.853   2.753  0.7471 -0.3127  0.4900
 4655SOL    HW125427   1.779   3.843   2.848 -1.6353  2.7631  1.0847
 4655SOL    HW225428   1.831   3.922   2.739  0.7211  0.2754  3.1583
 4656SOL     OW25429   1.327   3.818   7.261 -0.2487  0.3100  0.3336
 4656SOL    HW125430   1.346   3.838   7.353  0.8832 -0.5325  0.2837
 4656SOL    HW225431   1.252   3.876   7.251 -1.0003 -0.9044 -1.0326
 4657SOL     OW25432   2.333   4.046   0.853  0.8783  0.2223  0.5561
 4657SOL    HW125433   2.309   4.083   0.938  0.2614 -0.9425  0.8825
 4657SOL    HW225434   2.330   3.953   0.873  1.2315 -0.4207 -2.3300
 4658SOL     OW25435   4.492   3.733   7.002 -0.0685 -0.1339 -0.8972
 4658SOL    HW125436   4.463   3.646   6.974 -3.2006  0.5868  0.1203
 4658SOL    HW225437   4.415   3.782   6.974  0.1724  1.3581  1.0147
 4659SOL     OW25438   4.263   1.689   4.947 -0.8234  0.2741 -0.2977
 4659SOL    HW125439   4.254   1.745   4.871 -0.1945  1.3601  0.4261
 4659SOL    HW225440   4.172   1.659   4.952 -1.1019  1.1272 -0.4142
 4660SOL     OW25441   3.957   4.152   7.093 -0.6556 -0.1923  0.1896
 4660SOL    HW125442   3.963   4.247   7.101  2.7512 -0.3816 -0.3748
 4660SOL    HW225443   3.919   4.135   7.007  1.8244 -1.1190 -0.6915
 4661SOL     OW25444   3.530   4.441   7.027 -0.0648  0.2516 -0.3911
 4661SOL    HW125445   3.496   4.419   6.940  1.0682  1.4462 -1.1361
 4661SOL    HW225446   3.539   4.536   7.019 -1.2161  0.1342 -3.0980
 4662SOL     OW25447   0.371   4.177   6.200  0.5357 -0.0922 -0.0317
 4662SOL    HW125448   0.465   4.180   6.178  0.7289 -1.8168  0.5612
 4662SOL    HW225449   0.354   4.271   6.196 -1.4356 -0.5206 -1.3418
 4663SOL     OW25450   1.956   1.454   3.771 -0.2586 -0.1184 -0.3352
 4663SOL    HW125451   1.936   1.363   3.795  2.0961  0.4344  3.5997
 4663SOL    HW225452   1.994   1.440   3.683 -0.0280  0.1763 -0.2810
 4664SOL     OW25453   2.547   2.163   5.718  0.2440  0.2361 -0.0647
 4664SOL    HW125454   2.480   2.227   5.744 -0.4789  0.6029 -2.8396
 4664SOL    HW225455   2.485   2.109   5.669  0.9103 -0.8837  0.3432
 4665SOL     OW25456   4.703   3.068  11.605  0.3416  0.4287 -0.3674
 4665SOL    HW125457   4.669   3.102  11.688 -0.8965 -2.4629  0.3376
 4665SOL    HW225458   4.621   3.044  11.561 -1.0912  0.5942  2.2132
 4666SOL     OW25459   3.570   1.536   3.440 -0.7070  0.4476  0.2618
 4666SOL    HW125460   3.555   1.608   3.501 -0.8260  1.6286 -1.1765
 4666SOL    HW225461   3.496   1.483   3.471  0.7620 -1.2036  0.9116
 4667SOL     OW25462   4.155   2.419   5.436  0.2609  0.2774  0.1635
 4667SOL    HW125463   4.220   2.392   5.501 -0.4111 -0.4969  0.5075
 4667SOL    HW225464   4.078   2.385   5.481 -0.0332 -0.3753 -0.8239
 4668SOL     OW25465   1.169   2.142   3.009  0.1085  0.2028 -0.4337
 4668SOL    HW125466   1.247   2.138   2.954 -0.2595 -0.4655 -0.8983
 4668SOL    HW225467   1.178   2.236   3.026 -1.4525 -0.0786  1.9397
 4669SOL     OW25468   0.419   2.132  13.494 -0.1916  0.0863 -0.1852
 4669SOL    HW125469   0.359   2.195  13.454 -0.6662 -0.8309 -0.8946
 4669SOL    HW225470   0.439   2.078  13.418  0.4730  2.1785 -1.5225
 4670SOL     OW25471   0.045   4.585  17.234  0.4671 -0.1310 -0.0720
 4670SOL    HW125472   0.023   4.668  17.192 -1.3387  0.1830  1.4778
 4670SOL    HW225473   4.686   4.540  17.256 -1.0882  3.9874  2.5321
 4671SOL     OW25474   1.705   3.892   7.311  0.3156  0.7826 -0.2083
 4671SOL    HW125475   1.798   3.894   7.289  0.5615  0.3352  0.7771
 4671SOL    HW225476   1.700   3.798   7.324  1.3961  0.6500 -0.7466
 4672SOL     OW25477   4.132   2.631   2.304  0.3130 -0.0056  1.1546
 4672SOL    HW125478   4.190   2.702   2.279  0.5408 -0.2907  0.8682
 4672SOL    HW225479   4.085   2.621   2.221  1.8038 -0.1756  0.3268
 4673SOL     OW25480   0.960   0.426   6.247 -0.0836  0.0986  0.2300
 4673SOL    HW125481   1.045   0.445   6.209  0.0233 -0.2684  0.2878
 4673SOL    HW225482   0.923   0.377   6.173 -0.7670 -1.7600  1.7997
 4674SOL     OW25483   4.356   0.420   7.177 -0.4564  0.3192 -0.5654
 4674SOL    HW125484   4.308   0.477   7.238 -0.0536  0.9610 -0.8507
 4674SOL    HW225485   4.283   0.381   7.129 -0.8617  1.7844 -1.1599
 4675SOL     OW25486   0.574   3.486   2.846  0.4612  0.7124 -0.6352
 4675SOL    HW125487   0.505   3.541   2.884 -1.3235 -1.3913 -0.8303
 4675SOL    HW225488   0.537   3.398   2.854 -1.1015  1.5980  1.5841
 4676SOL     OW25489   1.087   3.062   5.799  0.0602 -0.5958 -0.3459
 4676SOL    HW125490   1.169   3.034   5.838 -0.0191  0.7331  0.7498
 4676SOL    HW225491   1.024   3.023   5.860  0.2520  2.1853  1.6622
 4677SOL     OW25492   2.395   2.460  15.726  0.2024 -0.2014  0.2260
 4677SOL    HW125493   2.348   2.439  15.806 -0.1974 -2.9891 -0.7395
 4677SOL    HW225494   2.441   2.542  15.741  1.3088 -0.8685  0.4644
 4678SOL     OW25495   3.797   4.023   8.904  0.1699 -0.7781 -0.2834
 4678SOL    HW125496   3.742   4.101   8.904 -0.3995 -1.1862  0.3644
 4678SOL    HW225497   3.804   4.009   8.998 -2.0970  0.4939  0.0775
 4679SOL     OW25498   2.662   2.925   3.928  0.2984 -0.0595  0.1351
 4679SOL    HW125499   2.587   2.916   3.987 -0.3995 -0.8053 -0.8671
 4679SOL    HW225500   2.738   2.893   3.978 -0.3358 -1.7900 -0.0105
 4680SOL     OW25501   0.792   4.607   2.673 -0.1330 -0.4021  0.1908
 4680SOL    HW125502   0.740   4.561   2.739  0.1358  0.5921  1.0985
 4680SOL    HW225503   0.722   4.650   2.624  0.9309  2.1705  0.9273
 4681SOL     OW25504   3.662   2.415   1.775  0.3004 -0.1363  0.3234
 4681SOL    HW125505   3.750   2.390   1.746  1.0368  1.7250  0.9785
 4681SOL    HW225506   3.620   2.333   1.746  0.3857  0.2522 -0.9042
 4682SOL     OW25507   2.093   3.017   6.167 -0.0186  0.0243  0.0566
 4682SOL    HW125508   2.055   2.953   6.107 -0.8262  2.2687 -1.7769
 4682SOL    HW225509   2.158   3.058   6.110  0.4954  0.1303  0.7074
 4683SOL     OW25510   0.298   2.318  12.786 -0.7585 -0.6719  0.2133
 4683SOL    HW125511   0.224   2.284  12.736 -1.4908  1.5201 -0.1894
 4683SOL    HW225512   0.248   2.362  12.855 -0.7720 -0.5837  0.1475
 4684SOL     OW25513   2.012   0.571   5.171 -0.1047 -0.2434 -0.7739
 4684SOL    HW125514   1.934   0.550   5.121  0.0127 -0.5836 -0.8160
 4684SOL    HW225515   2.031   0.659   5.139 -1.0628 -0.2284 -1.2923
 4685SOL     OW25516   1.037   3.247   5.172  0.1737 -0.3875 -0.4402
 4685SOL    HW125517   0.968   3.218   5.231  2.1592 -0.5655  1.7805
 4685SOL    HW225518   1.009   3.338   5.167 -0.9087 -0.7364 -0.7067
 4686SOL     OW25519   1.942   0.992   1.413  0.1099  0.2877 -0.2049
 4686SOL    HW125520   1.901   0.972   1.329 -1.4481 -3.6122  1.4556
 4686SOL    HW225521   1.883   1.061   1.444 -0.6691 -0.7527  0.6379
 4687SOL     OW25522   0.699   2.707   9.452  0.4265  0.3890 -0.6672
 4687SOL    HW125523   0.791   2.713   9.429  0.1593 -0.1563 -1.8736
 4687SOL    HW225524   0.674   2.795   9.481  1.2857  0.0250  1.1668
 4688SOL     OW25525   1.221   2.429   3.614 -0.1923 -0.0224 -0.0830
 4688SOL    HW125526   1.252   2.373   3.685 -1.0891 -0.0265  0.2986
 4688SOL    HW225527   1.293   2.411   3.553  1.0038  0.1196  1.2929
 4689SOL     OW25528   2.946   4.214  14.089 -0.2021 -0.4003 -0.8080
 4689SOL    HW125529   2.923   4.165  14.010  0.5678 -0.2471 -1.1334
 4689SOL    HW225530   2.891   4.172  14.154 -0.3229  0.8317 -0.1151
 4690SOL     OW25531   1.455   0.449   1.267 -0.4758  0.1986  0.2946
 4690SOL    HW125532   1.461   0.544   1.277  0.4683  0.2240 -0.4991
 4690SOL    HW225533   1.375   0.437   1.216 -1.2449  2.2950  0.9977
 4691SOL     OW25534   2.473   2.942  14.713 -0.2273  0.3435 -0.0395
 4691SOL    HW125535   2.563   2.920  14.735  0.1713  0.8938 -1.1427
 4691SOL    HW225536   2.431   2.865  14.673 -1.4578  1.4671 -0.9215
 4692SOL     OW25537   1.548   4.167  12.482 -0.1050  0.3813  0.3853
 4692SOL    HW125538   1.626   4.190  12.432  0.5640 -0.4799  1.0222
 4692SOL    HW225539   1.528   4.079  12.450 -1.1214  0.1055  1.7474
 4693SOL     OW25540   2.929   1.325  14.197 -0.0222  0.0046 -0.1625
 4693SOL    HW125541   2.995   1.372  14.146  0.2504 -2.8327 -2.3938
 4693SOL    HW225542   2.974   1.247  14.229 -2.2453 -1.2037  0.0372
 4694SOL     OW25543   2.409   3.662   8.225 -0.4649  0.4992 -0.2680
 4694SOL    HW125544   2.458   3.683   8.305 -0.1508  0.2254 -0.3876
 4694SOL    HW225545   2.323   3.641   8.260  0.1309  0.3972  1.1467
 4695SOL     OW25546   1.644   2.380   7.139  0.4528  0.2159 -0.0744
 4695SOL    HW125547   1.622   2.293   7.174 -2.1964  0.8907 -0.0011
 4695SOL    HW225548   1.714   2.408   7.198  1.0141 -0.8791 -0.2243
 4696SOL     OW25549   1.182   4.042   8.653 -0.6095  0.4374 -0.1690
 4696SOL    HW125550   1.213   4.108   8.591 -0.0668 -0.2771 -0.6572
 4696SOL    HW225551   1.090   4.041   8.626 -0.1767  0.1582 -1.6349
 4697SOL     OW25552   4.218   0.459   4.876 -0.3031  0.3406  0.5624
 4697SOL    HW125553   4.147   0.499   4.825  1.6694 -0.3402 -2.7218
 4697SOL    HW225554   4.205   0.369   4.848  3.0417  0.5901 -1.7866
 4698SOL     OW25555   3.292   1.831   8.687 -0.5754 -0.1437  0.2195
 4698SOL    HW125556   3.260   1.814   8.775  3.1318 -2.6010  1.0929
 4698SOL    HW225557   3.299   1.742   8.651 -1.3229 -0.2168  0.2681
 4699SOL     OW25558   3.637   0.837   6.681 -0.2309  0.1607 -0.0665
 4699SOL    HW125559   3.554   0.799   6.652  0.7682 -2.8837  1.1118
 4699SOL    HW225560   3.641   0.797   6.768 -0.6184  0.9047  0.2892
 4700SOL     OW25561   0.079   4.360   6.661  0.7999  0.6734  0.0034
 4700SOL    HW125562   0.024   4.414   6.717  1.9622  0.7531  1.0650
 4700SOL    HW225563   0.046   4.390   6.576 -0.9132 -0.5180  0.2488
 4701SOL     OW25564   1.811   3.885  10.411 -0.5768 -0.3330 -0.2825
 4701SOL    HW125565   1.826   3.837  10.492  0.3356  0.4204 -0.0051
 4701SOL    HW225566   1.900   3.889  10.377 -0.4946 -1.4111 -0.1671
 4702SOL     OW25567   2.787   0.584   4.205  0.1793 -0.3256 -0.2849
 4702SOL    HW125568   2.861   0.523   4.207 -0.1341 -0.6994 -0.0273
 4702SOL    HW225569   2.823   0.653   4.260 -0.6621 -0.8788  0.9575
 4703SOL     OW25570   1.594   2.656  16.407 -0.2729 -0.7047  0.4715
 4703SOL    HW125571   1.519   2.677  16.462 -0.0155  0.5531  0.3374
 4703SOL    HW225572   1.648   2.588  16.448  1.7351 -1.0509 -2.7183
 4704SOL     OW25573   3.823   2.163  15.829 -0.1864 -0.2544  0.3285
 4704SOL    HW125574   3.794   2.223  15.760  0.4125 -0.7393 -0.3469
 4704SOL    HW225575   3.747   2.157  15.886 -0.0608 -0.5629  0.4630
 4705SOL     OW25576   4.608   1.570   1.632  0.0768 -0.3166  0.2203
 4705SOL    HW125577   4.642   1.503   1.572 -0.4058  0.4286 -0.8862
 4705SOL    HW225578   4.515   1.563   1.613  0.1398 -0.9406  0.1450
 4706SOL     OW25579   2.044   0.875   3.457 -0.8254  0.4475  0.2161
 4706SOL    HW125580   2.100   0.869   3.534  0.3734 -1.6916 -0.8139
 4706SOL    HW225581   2.031   0.781   3.440 -3.0819  0.8557 -0.3762
 4707SOL     OW25582   4.703   2.864   8.274 -0.5149  0.3787 -0.1555
 4707SOL    HW125583   4.659   2.945   8.249  0.5066  0.2032 -2.4909
 4707SOL    HW225584   4.705   2.878   8.368  0.0680 -0.2888 -0.0689
 4708SOL     OW25585   1.231   4.626   4.072 -0.2376  0.0447 -0.2072
 4708SOL    HW125586   1.225   4.570   4.150  0.9949  0.9514  0.5407
 4708SOL    HW225587   1.290   4.573   4.020 -0.6780 -0.5804 -0.0675
 4709SOL     OW25588   3.610   3.230   4.380 -0.3341  0.9597 -0.7545
 4709SOL    HW125589   3.639   3.301   4.437  1.9822 -0.0705 -0.6529
 4709SOL    HW225590   3.603   3.268   4.292  0.1529  1.1333 -0.7201
 4710SOL     OW25591   1.579   2.662   6.111  0.3812  0.2542  0.0616
 4710SOL    HW125592   1.585   2.739   6.055  1.0054 -0.1903 -0.4923
 4710SOL    HW225593   1.509   2.678   6.173 -0.8686 -3.3960 -0.3747
 4711SOL     OW25594   0.253   1.202   4.367  0.3615 -0.4155 -0.7208
 4711SOL    HW125595   0.181   1.236   4.419  0.6997 -0.0526 -0.4878
 4711SOL    HW225596   0.206   1.148   4.303  1.7640 -1.2862 -1.0419
 4712SOL     OW25597   0.111   0.332   8.707  0.4424 -0.1422 -0.2137
 4712SOL    HW125598   0.121   0.392   8.780  0.1798  1.3915 -1.4495
 4712SOL    HW225599   0.112   0.257   8.766  1.3327 -0.7804 -1.0318
 4713SOL     OW25600   2.562   2.185   3.706  0.4413  0.0263 -0.1632
 4713SOL    HW125601   2.531   2.156   3.791 -0.5188 -0.8368 -0.8161
 4713SOL    HW225602   2.547   2.279   3.697  0.2959 -0.2481 -2.8518
 4714SOL     OW25603   1.715   4.074  11.572 -0.2727  0.2901  0.2956
 4714SOL    HW125604   1.709   4.127  11.493  0.5361 -0.5469 -0.3228
 4714SOL    HW225605   1.642   4.014  11.554 -2.1954  2.0019  2.3308
 4715SOL     OW25606   3.741   0.754  13.256 -0.0112  0.6961 -0.6829
 4715SOL    HW125607   3.692   0.687  13.303 -0.9552  1.4466 -0.5874
 4715SOL    HW225608   3.831   0.723  13.249 -0.8581 -1.9558  0.6226
 4716SOL     OW25609   4.378   2.208   3.138  0.4726  0.1751 -0.2586
 4716SOL    HW125610   4.456   2.152   3.134  0.7072  0.3839  1.1711
 4716SOL    HW225611   4.427   2.286   3.164  0.7711  0.5041 -1.8026
 4717SOL     OW25612   3.750   3.674   5.767 -0.4367  0.1949  0.1355
 4717SOL    HW125613   3.712   3.747   5.814  2.1585 -0.3410  3.0776
 4717SOL    HW225614   3.839   3.666   5.801  0.4953 -2.3224 -2.8499
 4718SOL     OW25615   0.370   4.498   4.651 -0.3408 -0.2709 -0.2247
 4718SOL    HW125616   0.367   4.553   4.730  0.3020 -0.2819 -0.1927
 4718SOL    HW225617   0.428   4.430   4.686 -0.1454  0.5701  1.0945
 4719SOL     OW25618   0.939   0.683   9.475  0.4262  0.1305 -0.2523
 4719SOL    HW125619   0.948   0.703   9.382 -0.7611  1.2164 -0.1482
 4719SOL    HW225620   0.907   0.770   9.500  0.7601 -0.7962  3.3995
 4720SOL     OW25621   3.791   2.510  11.855 -0.3621  0.0408 -0.2322
 4720SOL    HW125622   3.735   2.588  11.855 -1.1163 -0.4934  1.4832
 4720SOL    HW225623   3.792   2.489  11.949  0.2048  0.0869 -0.2302
 4721SOL     OW25624   0.472   0.173   6.587  0.0561 -0.0220 -0.4764
 4721SOL    HW125625   0.413   0.178   6.512 -1.3842  0.2649  0.6747
 4721SOL    HW225626   0.422   0.122   6.652 -2.8239  1.3116 -1.6515
 4722SOL     OW25627   2.053   4.109   4.825 -0.6234 -0.0315 -0.0561
 4722SOL    HW125628   2.069   4.198   4.793 -0.1166 -0.0248  0.2235
 4722SOL    HW225629   2.043   4.121   4.919  0.6205 -0.4346  0.1198
 4723SOL     OW25630   0.682   4.551   5.180  0.3591  0.3780 -0.2906
 4723SOL    HW125631   0.706   4.466   5.217 -2.1479  0.2776  1.0894
 4723SOL    HW225632   0.615   4.587   5.238 -0.7012 -1.0892 -0.5926
 4724SOL     OW25633   3.714   1.290   1.665  0.5770 -0.5121 -0.1981
 4724SOL    HW125634   3.743   1.352   1.731  1.6478  0.1753 -1.3121
 4724SOL    HW225635   3.675   1.224   1.722 -2.2111  0.7798 -0.6279
 4725SOL     OW25636   0.359   1.240   3.460 -0.0919  0.2041 -0.9545
 4725SOL    HW125637   0.331   1.323   3.419 -2.1426  0.8029  1.6893
 4725SOL    HW225638   0.411   1.197   3.392 -0.3591 -1.2639 -0.2282
 4726SOL     OW25639   4.445   3.332  12.013 -0.0215 -0.4172 -0.5294
 4726SOL    HW125640   4.496   3.353  12.091 -1.0659 -2.0981  0.6018
 4726SOL    HW225641   4.364   3.302  12.054  0.1879 -0.0727  0.1345
 4727SOL     OW25642   1.692   1.526   4.995  0.2625  0.5887 -0.6191
 4727SOL    HW125643   1.768   1.574   4.960  2.3197 -2.6491 -0.5858
 4727SOL    HW225644   1.632   1.597   5.020 -0.2465 -0.4314  1.0200
 4728SOL     OW25645   0.297   4.647   0.413  0.1040 -0.3305 -0.3104
 4728SOL    HW125646   0.205   4.674   0.424 -0.6613 -2.9699 -0.0155
 4728SOL    HW225647   0.281   4.609   0.327 -1.7348 -2.0412  0.7746
 4729SOL     OW25648   0.026   2.483  13.725  0.2590 -0.2984  0.1492
 4729SOL    HW125649   4.703   2.556  13.683 -1.0139 -1.0114  0.3258
 4729SOL    HW225650   0.044   2.427  13.649  0.2942 -1.1900  0.8206
 4730SOL     OW25651   2.380   4.353   3.506 -0.2264  0.2917  0.3102
 4730SOL    HW125652   2.341   4.295   3.440  0.3093  1.3972 -0.9776
 4730SOL    HW225653   2.420   4.283   3.558 -0.2400 -0.9625 -1.3572
 4731SOL     OW25654   1.726   1.239   1.874  0.4149  0.2049  0.1308
 4731SOL    HW125655   1.762   1.308   1.819 -0.9321 -0.7919 -2.0395
 4731SOL    HW225656   1.636   1.232   1.841  0.1826  1.1626  0.5563
 4732SOL     OW25657   0.847   3.067  17.004  0.0326  0.2704  0.0901
 4732SOL    HW125658   0.778   3.110  16.954 -1.4225 -2.5496 -0.3111
 4732SOL    HW225659   0.839   3.122  17.082 -1.8185 -2.0863  1.5543
 4733SOL     OW25660   0.372   2.293   4.264 -0.3673  0.3204 -0.1448
 4733SOL    HW125661   0.446   2.293   4.203 -0.8873  1.8728 -0.7797
 4733SOL    HW225662   0.316   2.229   4.222 -0.5780 -0.9693  2.1119
 4734SOL     OW25663   1.956   4.046   9.130 -0.5064 -0.3506  0.1030
 4734SOL    HW125664   1.914   3.966   9.100  1.0327 -1.2711  0.4048
 4734SOL    HW225665   1.920   4.051   9.219  0.3265  0.0115  0.4226
 4735SOL     OW25666   2.699   1.831   3.958  0.3139 -0.1649  0.1442
 4735SOL    HW125667   2.696   1.822   3.863  0.2803  1.1197  0.0228
 4735SOL    HW225668   2.631   1.766   3.979  0.1518 -0.8827 -2.6058
 4736SOL     OW25669   1.492   2.863   4.513  0.3296  0.1158  0.6520
 4736SOL    HW125670   1.554   2.936   4.501  0.1694  0.2381  0.5656
 4736SOL    HW225671   1.561   2.799   4.529  0.4353 -0.0060 -0.2867
 4737SOL     OW25672   3.970   0.419  17.476  0.2248 -0.0581  0.2066
 4737SOL    HW125673   3.982   0.493  17.535 -1.2256  1.0542 -0.8903
 4737SOL    HW225674   4.048   0.418  17.421 -0.3082  0.4806 -0.5688
 4738SOL     OW25675   2.224   2.515   1.255 -0.3590 -0.0972 -0.6299
 4738SOL    HW125676   2.280   2.460   1.310  0.7756  1.3982 -0.3087
 4738SOL    HW225677   2.137   2.475   1.259 -0.9399  1.0906 -1.3984
 4739SOL     OW25678   0.309   3.634   8.003  0.3496 -0.1461  0.4339
 4739SOL    HW125679   0.221   3.612   8.033  0.5908 -1.9300 -0.1667
 4739SOL    HW225680   0.349   3.547   8.000 -1.8657 -1.1375 -0.5219
 4740SOL     OW25681   1.342   1.481  11.587  0.1037  0.4305  0.1677
 4740SOL    HW125682   1.381   1.516  11.506  0.4773  0.4492  0.3567
 4740SOL    HW225683   1.422   1.452  11.631 -1.1073 -2.6956  0.2646
 4741SOL     OW25684   0.671   1.664   6.405  0.6267 -0.1862  0.0809
 4741SOL    HW125685   0.659   1.643   6.497 -1.6940  2.1765  0.3214
 4741SOL    HW225686   0.668   1.760   6.407 -0.5770 -0.1960 -0.9041
 4742SOL     OW25687   0.206   1.185  14.370  0.4495  0.4029  0.1054
 4742SOL    HW125688   0.125   1.229  14.346 -0.4293 -1.1551  0.2036
 4742SOL    HW225689   0.170   1.097  14.384 -1.1228  0.6213 -2.5026
 4743SOL     OW25690   3.677   1.713  13.792  0.3879  0.2749 -0.1376
 4743SOL    HW125691   3.728   1.670  13.724  0.3838 -0.3809  0.2729
 4743SOL    HW225692   3.746   1.769  13.827  1.7089 -0.6826 -1.2122
 4744SOL     OW25693   1.125   3.074  16.990 -0.0017 -0.5093  0.3108
 4744SOL    HW125694   1.032   3.096  16.997 -0.1858 -1.0966 -0.2826
 4744SOL    HW225695   1.127   2.993  16.939 -1.1349  0.1343 -0.7547
 4745SOL     OW25696   3.236   2.988   5.187 -0.0723 -0.1455  0.6161
 4745SOL    HW125697   3.252   3.083   5.187 -0.9966  0.0064 -1.0466
 4745SOL    HW225698   3.171   2.998   5.118  0.2278 -0.2795  0.3154
 4746SOL     OW25699   4.449   3.980  12.085  0.1501  0.4210  0.0423
 4746SOL    HW125700   4.413   4.063  12.116 -0.0741 -0.5522  2.4020
 4746SOL    HW225701   4.481   4.009  12.000 -0.7909  1.4098  0.0218
 4747SOL     OW25702   2.258   4.624  13.123  0.4920  0.1219 -0.3606
 4747SOL    HW125703   2.199   4.592  13.055 -0.1024 -0.3093  0.3704
 4747SOL    HW225704   2.214   4.595  13.203  0.0682 -1.3871 -1.1530
 4748SOL     OW25705   4.470   0.760   9.475  0.3401  0.2914 -0.7818
 4748SOL    HW125706   4.486   0.689   9.537  4.0862  1.2626 -0.6594
 4748SOL    HW225707   4.483   0.830   9.538  1.4866  1.5344 -2.3986
 4749SOL     OW25708   3.020   3.518   1.413  0.3642  0.2820  0.7177
 4749SOL    HW125709   3.024   3.422   1.415  0.5922  0.3123  1.8140
 4749SOL    HW225710   3.100   3.542   1.460  0.2185  2.1217  0.0047
 4750SOL     OW25711   0.225   3.690   3.875 -0.3677 -0.1635  0.1752
 4750SOL    HW125712   0.162   3.617   3.876 -0.8703  0.2968  2.0085
 4750SOL    HW225713   0.175   3.739   3.941 -1.1617  2.1869 -2.1529
 4751SOL     OW25714   3.899   0.348   7.281 -0.6340 -0.2771  0.2243
 4751SOL    HW125715   3.842   0.332   7.356 -0.3650 -0.9391  0.2919
 4751SOL    HW225716   3.917   0.257   7.256 -0.6331 -0.0863 -0.4558
 4752SOL     OW25717   0.557   0.929  12.194  0.3441  0.8945 -0.2401
 4752SOL    HW125718   0.544   0.882  12.112 -2.7095  1.2506  0.0521
 4752SOL    HW225719   0.649   0.911  12.211 -0.1490 -2.0784 -0.6591
 4753SOL     OW25720   1.352   4.080   5.411 -0.1117  0.3823  0.2613
 4753SOL    HW125721   1.375   3.987   5.400 -0.2569  0.4057 -0.2450
 4753SOL    HW225722   1.260   4.085   5.437 -0.1943 -2.9685  0.5957
 4754SOL     OW25723   0.884   2.236   8.134  0.5580  0.1953  0.1627
 4754SOL    HW125724   0.855   2.161   8.082  0.9696  0.9690 -1.1838
 4754SOL    HW225725   0.800   2.266   8.169 -0.0235  2.1640 -2.8773
 4755SOL     OW25726   0.865   2.495   2.539  0.2584 -0.6462  0.9442
 4755SOL    HW125727   0.913   2.576   2.560  0.3234  0.1212 -2.2825
 4755SOL    HW225728   0.781   2.516   2.500  0.3907 -2.4993 -0.3107
 4756SOL     OW25729   3.006   0.578   3.983 -0.6107 -0.0450 -0.5994
 4756SOL    HW125730   2.998   0.506   4.045  2.7043 -0.5200 -0.7545
 4756SOL    HW225731   3.094   0.571   3.948 -0.1553 -0.7816  0.6790
 4757SOL     OW25732   0.456   2.107   6.420  0.3707 -0.5116  0.4649
 4757SOL    HW125733   0.476   2.034   6.362  2.3296  1.2312 -1.0287
 4757SOL    HW225734   0.537   2.158   6.418 -1.6849  2.5568 -2.8716
 4758SOL     OW25735   4.287   1.910  17.624 -0.2135 -0.5653 -0.1476
 4758SOL    HW125736   4.246   1.823  17.627  0.1096 -0.7806 -1.9590
 4758SOL    HW225737   4.227   1.955  17.684 -1.0339  0.2367 -1.5622
 4759SOL     OW25738   4.287   0.646   1.886 -0.6160 -0.2086 -0.2318
 4759SOL    HW125739   4.221   0.644   1.955  3.0365 -3.9650  3.1453
 4759SOL    HW225740   4.235   0.681   1.813  2.1604 -0.3040 -2.2716
 4760SOL     OW25741   3.184   0.064   6.744 -0.5244  0.0792 -0.0205
 4760SOL    HW125742   3.143   0.087   6.828 -1.0949  0.5200 -0.4150
 4760SOL    HW225743   3.242   0.138   6.723 -0.8906 -0.1621 -1.8750
 4761SOL     OW25744   1.122   3.422   6.298  0.2270  0.1505  0.0711
 4761SOL    HW125745   1.215   3.430   6.276  0.1953 -2.3014 -0.9989
 4761SOL    HW225746   1.131   3.380   6.383 -0.2691 -1.7343 -0.7967
 4762SOL     OW25747   3.597   3.531   3.920  0.2136  0.3015  0.2368
 4762SOL    HW125748   3.633   3.470   3.854 -0.0324  0.8185 -0.3735
 4762SOL    HW225749   3.559   3.594   3.859  0.2779  1.4437  1.3761
 4763SOL     OW25750   2.258   0.820   3.954 -0.4812  0.0065  0.1904
 4763SOL    HW125751   2.314   0.897   3.951  1.9729 -1.7365  1.5658
 4763SOL    HW225752   2.289   0.786   4.038 -2.5718  2.3005  1.9291
 4764SOL     OW25753   4.348   2.892   3.069 -0.3369 -0.4613 -0.5807
 4764SOL    HW125754   4.302   2.824   3.021 -2.3908  1.4614 -1.3374
 4764SOL    HW225755   4.275   2.938   3.111  1.3559 -0.7756  2.7135
 4765SOL     OW25756   2.014   1.227   6.124 -0.3503  0.6450 -0.0550
 4765SOL    HW125757   2.026   1.218   6.029  0.5227 -2.2238  0.3204
 4765SOL    HW225758   1.989   1.319   6.133  0.2482  0.8895 -0.8571
 4766SOL     OW25759   2.221   2.472  10.299 -0.1040 -0.4351  0.6124
 4766SOL    HW125760   2.191   2.526  10.226  0.5899 -2.0822 -0.8935
 4766SOL    HW225761   2.249   2.389  10.260  0.7078  0.6727 -1.1230
 4767SOL     OW25762   2.850   1.200  17.223  0.2183  0.0840 -0.1069
 4767SOL    HW125763   2.768   1.156  17.203 -0.5751  1.5514 -0.0797
 4767SOL    HW225764   2.863   1.247  17.141  2.0489  2.0390  1.3127
 4768SOL     OW25765   3.197   0.451   5.745  0.1289  0.2726  0.0476
 4768SOL    HW125766   3.204   0.533   5.696  3.1786  0.4939  0.9213
 4768SOL    HW225767   3.234   0.385   5.686  0.2674  0.7287 -0.3771
 4769SOL     OW25768   1.688   3.494  14.196 -0.1809  0.3991 -0.4682
 4769SOL    HW125769   1.714   3.459  14.110 -1.9015  1.3450 -1.3823
 4769SOL    HW225770   1.708   3.586  14.180 -0.1525  0.3369 -0.7937
 4770SOL     OW25771   4.599   4.089  11.839  0.4440 -0.3388  0.6647
 4770SOL    HW125772   4.630   4.179  11.851 -0.7575  0.0686  0.6831
 4770SOL    HW225773   4.678   4.039  11.859  0.0336 -0.9896  0.6718
 4771SOL     OW25774   4.350   1.564  15.201  0.4775 -0.1670 -0.5137
 4771SOL    HW125775   4.277   1.594  15.146  0.4539 -0.9222 -0.8954
 4771SOL    HW225776   4.368   1.483  15.152  3.2358 -0.5853  1.2382
 4772SOL     OW25777   0.809   3.678   7.946  0.8361  0.2914  0.2255
 4772SOL    HW125778   0.829   3.612   7.879  0.1332 -0.7901  1.0829
 4772SOL    HW225779   0.892   3.667   7.994  0.9445  0.7982  0.1569
 4773SOL     OW25780   1.135   3.918  11.011 -0.0332 -0.5883 -0.2391
 4773SOL    HW125781   1.229   3.902  11.014 -0.0833 -1.0607 -1.2589
 4773SOL    HW225782   1.133   3.969  10.930  2.2666  0.3487  0.2978
 4774SOL     OW25783   0.640   2.396   1.226 -0.0437  0.2961  0.0318
 4774SOL    HW125784   0.683   2.404   1.311  0.1296 -0.3296  0.0038
 4774SOL    HW225785   0.711   2.415   1.165 -0.2710 -0.2236 -0.3965
 4775SOL     OW25786   1.500   1.805   8.391 -0.5294 -0.5269 -0.3735
 4775SOL    HW125787   1.447   1.882   8.410  0.1459 -0.2814  0.5189
 4775SOL    HW225788   1.459   1.778   8.308 -2.4410 -1.8778  0.9915
 4776SOL     OW25789   2.832   1.602   6.892 -0.1356 -0.1147 -0.2936
 4776SOL    HW125790   2.811   1.591   6.985 -0.5780  0.5613 -0.3070
 4776SOL    HW225791   2.872   1.515   6.886  3.0829  1.3484  0.1681
 4777SOL     OW25792   2.840   2.774   4.072 -0.5088  0.2513 -0.9492
 4777SOL    HW125793   2.882   2.777   4.158  0.4298  2.0940 -1.4780
 4777SOL    HW225794   2.796   2.690   4.087  0.4897 -0.2912 -1.0366
 4778SOL     OW25795   3.484   1.796  13.998 -0.2864  0.1954  0.4638
 4778SOL    HW125796   3.540   1.787  14.075 -1.2039 -3.0537  0.7599
 4778SOL    HW225797   3.547   1.776  13.929 -1.3254 -2.6911  0.3195
 4779SOL     OW25798   0.333   2.847  15.618  0.2501 -0.3203  0.0613
 4779SOL    HW125799   0.404   2.794  15.582 -0.0725 -0.5016 -0.3034
 4779SOL    HW225800   0.302   2.874  15.531  0.3727  0.7011  0.3337
 4780SOL     OW25801   4.007   3.643   4.019 -0.3931  0.3510  0.5861
 4780SOL    HW125802   4.053   3.589   4.083  1.5075  0.3786 -0.7716
 4780SOL    HW225803   3.943   3.585   3.979  0.9000 -0.8624  0.2821
 4781SOL     OW25804   0.652   1.465  16.488 -0.2515  0.3232 -0.0203
 4781SOL    HW125805   0.745   1.483  16.469  0.3489 -1.7618  0.9978
 4781SOL    HW225806   0.625   1.407  16.416  0.5152 -0.2380  0.1399
 4782SOL     OW25807   2.930   0.567  14.311 -0.2585  0.1245  0.0243
 4782SOL    HW125808   2.868   0.499  14.287  1.3420 -0.3540 -2.7300
 4782SOL    HW225809   2.862   0.630  14.337 -0.9620 -0.5350 -0.2369
 4783SOL     OW25810   2.633   3.354  13.899  0.0616  0.5128 -0.1287
 4783SOL    HW125811   2.622   3.420  13.831  1.0101 -1.0781 -1.8163
 4783SOL    HW225812   2.697   3.400  13.954  1.3924 -0.5986 -0.7482
 4784SOL     OW25813   0.774   3.895  16.392  0.4084 -0.2664 -0.4786
 4784SOL    HW125814   0.799   3.913  16.482 -1.8115  0.0225  0.0822
 4784SOL    HW225815   0.679   3.906  16.400  0.5546  0.2854  0.5232
 4785SOL     OW25816   2.277   3.850   3.506 -0.0490  0.6014 -0.3615
 4785SOL    HW125817   2.184   3.841   3.524 -0.0229  1.1391  0.0257
 4785SOL    HW225818   2.305   3.885   3.590  2.2511  0.4006 -1.0379
 4786SOL     OW25819   4.718   1.518   5.773 -0.2659 -0.4177  0.2038
 4786SOL    HW125820   0.055   1.444   5.777  1.1327  0.6416 -0.8709
 4786SOL    HW225821   0.029   1.555   5.692  0.6354 -1.3307  0.1593
 4787SOL     OW25822   3.685   3.092   3.568 -0.4413  0.4504  0.0202
 4787SOL    HW125823   3.751   3.029   3.597 -0.9571 -0.9724 -1.8750
 4787SOL    HW225824   3.707   3.101   3.476  2.0686 -2.1432  0.3566
 4788SOL     OW25825   0.723   1.032  10.857  0.4958 -0.0854 -0.0734
 4788SOL    HW125826   0.684   1.033  10.769  0.4203  0.5079 -0.0329
 4788SOL    HW225827   0.649   1.031  10.916  1.0636 -0.9062  0.6272
 4789SOL     OW25828   3.608   0.773  16.658 -0.8326  0.2905  0.6968
 4789SOL    HW125829   3.691   0.799  16.698 -0.1321 -0.4810 -0.2269
 4789SOL    HW225830   3.589   0.836  16.589  0.3310  0.5918  0.6475
 4790SOL     OW25831   3.510   3.109  14.874  0.1965  0.0536 -0.4778
 4790SOL    HW125832   3.593   3.120  14.828  0.6726 -0.3381  0.2976
 4790SOL    HW225833   3.532   3.057  14.951  0.2245  0.8231  0.0410
 4791SOL     OW25834   0.778   0.134   4.920  0.5672 -0.0553  0.2733
 4791SOL    HW125835   0.778   0.153   4.826  1.2035  0.5348  0.3904
 4791SOL    HW225836   0.684   0.122   4.933  0.5268  0.5333  0.5296
 4792SOL     OW25837   3.459   1.762   5.496 -0.2082  0.2730 -0.5447
 4792SOL    HW125838   3.526   1.695   5.505 -0.0702  0.4742 -0.0546
 4792SOL    HW225839   3.489   1.825   5.562 -0.8693  0.7712 -0.7176
 4793SOL     OW25840   2.695   2.948   6.091 -0.2658 -0.6447  0.3569
 4793SOL    HW125841   2.654   3.029   6.122  1.2269  0.2940 -0.1668
 4793SOL    HW225842   2.648   2.874   6.131  0.9815 -1.4153  0.4077
 4794SOL     OW25843   3.054   2.207  15.319 -0.1282  0.3763  0.0578
 4794SOL    HW125844   3.102   2.175  15.395 -1.0022 -0.5788  0.2012
 4794SOL    HW225845   2.966   2.215  15.355  0.3494  0.6189  1.1920
 4795SOL     OW25846   0.714   1.356   1.631 -0.5870 -0.2973  0.7051
 4795SOL    HW125847   0.746   1.324   1.547 -0.4517 -0.1322  0.6941
 4795SOL    HW225848   0.788   1.346   1.692  1.1409  0.1041 -1.3057
 4796SOL     OW25849   1.688   0.609  11.286  0.1512 -0.4707 -0.0608
 4796SOL    HW125850   1.736   0.640  11.363  1.3338 -1.0932 -0.5533
 4796SOL    HW225851   1.721   0.520  11.271  1.2328  0.0667 -0.8236
 4797SOL     OW25852   4.332   0.841   3.708 -0.0511 -0.4852 -0.3651
 4797SOL    HW125853   4.266   0.902   3.741 -0.5262 -2.6076  2.6556
 4797SOL    HW225854   4.282   0.760   3.720 -0.1811 -0.3657 -0.1061
 4798SOL     OW25855   2.903   1.405   5.150 -0.3323  0.1159  0.8038
 4798SOL    HW125856   2.818   1.381   5.186  0.3087 -0.2215  2.0871
 4798SOL    HW225857   2.921   1.338   5.084 -1.1174 -0.0122  0.7192
 4799SOL     OW25858   2.882   0.237   4.826 -0.3550  0.4662 -0.4157
 4799SOL    HW125859   2.832   0.230   4.908  0.5978 -1.0041  0.0261
 4799SOL    HW225860   2.958   0.287   4.855  0.5409 -1.2929  0.2212
 4800SOL     OW25861   1.558   3.404   3.867  0.4394 -0.0190 -0.0987
 4800SOL    HW125862   1.604   3.477   3.909 -3.2792  0.4095  3.2163
 4800SOL    HW225863   1.472   3.414   3.908  0.5059  0.4874 -0.0887
 4801SOL     OW25864   0.058   1.842  12.029  0.0149 -0.1795  0.1438
 4801SOL    HW125865   0.152   1.857  12.022  0.2938 -2.9548 -1.6974
 4801SOL    HW225866   0.043   1.753  11.998 -1.6957  0.4835 -0.9340
 4802SOL     OW25867   2.708   3.657   4.941 -0.1249  0.3708  0.1684
 4802SOL    HW125868   2.712   3.748   4.969  2.5872 -0.6455  3.0843
 4802SOL    HW225869   2.784   3.625   4.990 -0.9885 -0.8211  0.7370
 4803SOL     OW25870   2.075   3.162   1.429 -0.5355 -0.2446 -0.3420
 4803SOL    HW125871   2.166   3.149   1.456 -0.8154 -0.8491  0.2899
 4803SOL    HW225872   2.084   3.258   1.429 -1.0623 -0.1967 -0.1336
 4804SOL     OW25873   2.937   2.739  13.129 -0.0322  0.3934  0.9243
 4804SOL    HW125874   3.029   2.729  13.103 -0.8844  1.1193 -2.3666
 4804SOL    HW225875   2.914   2.646  13.121 -1.7449  1.1872 -3.1538
 4805SOL     OW25876   1.505   2.827   2.310 -0.5320  0.0670 -0.6259
 4805SOL    HW125877   1.440   2.895   2.326 -0.5573 -0.5406  1.8986
 4805SOL    HW225878   1.475   2.777   2.234 -0.7007 -0.7671 -0.0103
 4806SOL     OW25879   2.043   0.694   4.319  0.4515 -0.3188  0.2079
 4806SOL    HW125880   2.041   0.781   4.278  0.3549 -0.0907  0.6970
 4806SOL    HW225881   2.054   0.633   4.247  1.7637 -0.5305  0.5884
 4807SOL     OW25882   4.349   1.992   0.497 -0.3171 -0.4774  0.7722
 4807SOL    HW125883   4.438   2.016   0.474 -0.7943 -0.7991 -1.4186
 4807SOL    HW225884   4.319   1.951   0.416  1.6292 -2.8011  1.2487
 4808SOL     OW25885   4.200   1.460   5.343  0.3024 -0.0291  0.1097
 4808SOL    HW125886   4.276   1.452   5.401 -1.3972 -1.8824  2.0911
 4808SOL    HW225887   4.225   1.392   5.280 -2.2958  0.7923 -1.8002
 4809SOL     OW25888   3.887   1.675   2.118  1.0481  0.3879  0.1443
 4809SOL    HW125889   3.899   1.711   2.030 -2.9049  0.1552 -0.4841
 4809SOL    HW225890   3.802   1.706   2.150  1.1563  0.6703  0.1606
 4810SOL     OW25891   2.989   4.216   0.325 -0.1514  0.1220  0.1334
 4810SOL    HW125892   2.962   4.244   0.238 -1.5157  0.3857  0.6474
 4810SOL    HW225893   2.954   4.279   0.387 -0.5912 -0.5357  0.5512
 4811SOL     OW25894   4.387   3.084   9.886 -0.4555  0.2101  0.2381
 4811SOL    HW125895   4.335   3.031   9.825  2.3977 -0.5191 -1.5430
 4811SOL    HW225896   4.355   3.169   9.855 -1.1611 -0.2324 -0.2616
 4812SOL     OW25897   2.383   2.960   6.387  0.0179 -0.2025 -0.3766
 4812SOL    HW125898   2.389   2.955   6.483  1.5826  0.0959 -0.4553
 4812SOL    HW225899   2.444   2.890   6.365  0.8559  0.7523 -1.0900
 4813SOL     OW25900   0.991   3.636   5.020 -0.5666  0.2908 -0.4600
 4813SOL    HW125901   0.899   3.620   5.043  0.3747 -1.7374  1.8845
 4813SOL    HW225902   1.002   3.622   4.926 -1.4832 -3.0731 -0.0524
 4814SOL     OW25903   3.113   3.929   3.450  0.0551 -0.2691  0.1376
 4814SOL    HW125904   3.025   3.955   3.421 -0.1976 -0.0373  1.0808
 4814SOL    HW225905   3.165   3.980   3.388  2.4468  1.7143  3.7280
 4815SOL     OW25906   2.064   3.301   5.099  0.2126 -0.1872 -0.0367
 4815SOL    HW125907   1.977   3.288   5.135 -0.3806  0.0896 -1.3821
 4815SOL    HW225908   2.073   3.224   5.043  3.2161 -0.5492  0.9180
 4816SOL     OW25909   3.304   1.285   9.620 -0.2992 -0.0326 -0.3515
 4816SOL    HW125910   3.253   1.362   9.593  2.7117  2.0378 -0.0862
 4816SOL    HW225911   3.325   1.236   9.540 -2.0477  0.4128 -1.0914
 4817SOL     OW25912   3.940   3.145   4.199  0.0827  0.2560 -0.3002
 4817SOL    HW125913   3.862   3.200   4.190 -0.8565 -1.0701 -0.4135
 4817SOL    HW225914   3.949   3.134   4.294 -0.3111  1.6962 -0.0920
 4818SOL     OW25915   3.407   2.946   6.057 -0.0271  0.3812 -0.0462
 4818SOL    HW125916   3.469   3.019   6.058  1.0276 -0.4996 -0.9321
 4818SOL    HW225917   3.397   2.914   6.146 -0.3538 -1.1843 -0.6400
 4819SOL     OW25918   0.870   3.326   0.954 -0.2844 -0.1390  0.2701
 4819SOL    HW125919   0.857   3.309   1.047 -0.6711 -0.3932  0.1702
 4819SOL    HW225920   0.859   3.421   0.949 -0.1739 -0.0415  1.8587
 4820SOL     OW25921   0.094   2.819   0.003  0.0340 -0.9888  0.0243
 4820SOL    HW125922   0.061   2.896  17.649 -0.1942 -1.2439 -0.2357
 4820SOL    HW225923   0.029   2.817   0.073 -0.0724 -0.0952 -0.0470
 4821SOL     OW25924   3.455   1.826   4.705 -0.2635  0.0312 -0.2308
 4821SOL    HW125925   3.376   1.771   4.709  0.6734 -1.2876  0.0022
 4821SOL    HW225926   3.484   1.825   4.796  3.3700 -1.9098 -1.4103
 4822SOL     OW25927   4.686   3.835   7.490  0.2325 -0.2873 -0.2059
 4822SOL    HW125928   4.713   3.917   7.531  1.3960  0.3695 -2.2972
 4822SOL    HW225929   4.610   3.823   7.548 -0.3174  0.9470 -0.6650
 4823SOL     OW25930   2.384   4.719   7.703  0.0427  0.1684 -0.0326
 4823SOL    HW125931   2.292   4.693   7.703  0.0374  0.1827  0.4425
 4823SOL    HW225932   2.412   4.710   7.794  0.4237 -0.6725 -0.2291
 4824SOL     OW25933   3.851   0.612   6.815  0.2947  0.5113 -0.2635
 4824SOL    HW125934   3.864   0.636   6.907  1.6891  0.3644 -0.4270
 4824SOL    HW225935   3.810   0.526   6.830 -0.5662  0.8115 -0.9005
 4825SOL     OW25936   4.387   1.440   8.193  0.5491  0.4349  0.0630
 4825SOL    HW125937   4.324   1.380   8.153 -0.4164  2.3719 -1.3111
 4825SOL    HW225938   4.344   1.524   8.176  0.4065  0.5279  0.8910
 4826SOL     OW25939   2.795   1.356   3.388  0.6067  0.3855  0.2100
 4826SOL    HW125940   2.884   1.325   3.375  0.5242 -0.1971  1.0311
 4826SOL    HW225941   2.764   1.382   3.301  2.6073 -3.1867 -1.5770
 4827SOL     OW25942   2.437   1.561   6.534  0.0133 -0.0468 -0.6013
 4827SOL    HW125943   2.375   1.495   6.564 -0.4639  0.3145 -0.7854
 4827SOL    HW225944   2.497   1.563   6.609 -0.0887 -2.2856 -0.4658
 4828SOL     OW25945   2.488   1.361   5.809 -0.1223 -0.1355  0.4366
 4828SOL    HW125946   2.490   1.269   5.783  2.9923  0.1095 -0.2040
 4828SOL    HW225947   2.508   1.403   5.726 -3.1633 -1.0046 -0.7149
 4829SOL     OW25948   3.628   2.085  11.548  0.4298  0.3601 -0.1718
 4829SOL    HW125949   3.556   2.119  11.602  0.2241 -0.4251  0.0561
 4829SOL    HW225950   3.704   2.110  11.601 -1.2727  2.1862  1.4174
 4830SOL     OW25951   3.689   3.339   6.132 -0.2969 -0.1395  0.1044
 4830SOL    HW125952   3.668   3.345   6.039 -1.6153 -0.6994  0.3711
 4830SOL    HW225953   3.636   3.265   6.162  1.2207 -1.7401 -1.1252
 4831SOL     OW25954   2.564   4.175   3.624  0.1398 -0.6689 -0.1080
 4831SOL    HW125955   2.640   4.145   3.673  0.7443 -1.0211 -1.2533
 4831SOL    HW225956   2.608   4.220   3.551  1.2556 -1.0021  0.3558
 4832SOL     OW25957   2.028   3.660   9.186 -0.7436 -0.2218  0.3266
 4832SOL    HW125958   1.995   3.571   9.174  0.1493 -0.5912  0.5930
 4832SOL    HW225959   2.040   3.682   9.093  0.9978  1.3168  0.9137
 4833SOL     OW25960   1.898   1.503  15.688 -0.4603 -0.6428 -0.1481
 4833SOL    HW125961   1.824   1.561  15.669  1.8574  2.0518 -1.0525
 4833SOL    HW225962   1.893   1.443  15.614  0.6036 -2.8727  1.6181
 4834SOL     OW25963   0.474   2.438  13.188 -0.0875  0.1305  0.0168
 4834SOL    HW125964   0.493   2.361  13.136 -1.0580  1.1864 -1.9210
 4834SOL    HW225965   0.433   2.496  13.123 -1.2161  0.5954  1.1439
 4835SOL     OW25966   1.692   4.246  13.026 -0.2861 -0.5425  0.4766
 4835SOL    HW125967   1.656   4.261  13.114  1.2602  1.7027  0.7261
 4835SOL    HW225968   1.618   4.211  12.978 -1.3063  1.6200  0.4955
 4836SOL     OW25969   1.143   1.284   2.371 -0.1963 -0.1715  0.2762
 4836SOL    HW125970   1.087   1.316   2.442 -0.4252 -0.5276  0.2577
 4836SOL    HW225971   1.082   1.252   2.305  0.5896 -2.2282  0.5560
 4837SOL     OW25972   1.215   1.010   2.632  0.0152 -0.4606  0.7161
 4837SOL    HW125973   1.148   1.077   2.648 -0.3769 -1.0433  1.4682
 4837SOL    HW225974   1.178   0.934   2.676 -2.2006  1.6910  2.5757
 4838SOL     OW25975   1.370   2.250   2.853 -0.3976 -0.6638 -0.3209
 4838SOL    HW125976   1.403   2.206   2.774 -1.6039  1.4090 -2.0076
 4838SOL    HW225977   1.324   2.327   2.818  1.6342  0.3498 -0.7978
 4839SOL     OW25978   3.219   0.889   4.346 -0.4202 -0.4492 -0.1714
 4839SOL    HW125979   3.230   0.937   4.264 -1.2882  0.3641  0.1871
 4839SOL    HW225980   3.305   0.847   4.352  0.2259  0.9544  0.2590
 4840SOL     OW25981   0.339   4.721   2.393 -0.3726  0.3438 -0.4087
 4840SOL    HW125982   0.303   4.706   2.306  1.3464  0.0104 -1.0604
 4840SOL    HW225983   0.338   0.091   2.416 -0.8202  0.1106  0.5481
 4841SOL     OW25984   0.371   0.636   7.020 -0.1370  0.1144 -0.3093
 4841SOL    HW125985   0.432   0.698   6.979 -0.3800  1.5151  1.4479
 4841SOL    HW225986   0.359   0.580   6.944 -0.0890  0.8381 -0.8516
 4842SOL     OW25987   3.133   2.084   0.128  0.0455  0.6192  0.7377
 4842SOL    HW125988   3.089   2.044   0.054 -1.2525 -1.3927  2.6093
 4842SOL    HW225989   3.100   2.038   0.205 -0.8830 -1.6292 -1.0396
 4843SOL     OW25990   0.109   4.636   6.153 -0.1104 -0.2726 -0.3145
 4843SOL    HW125991   0.084   0.004   6.171 -3.7145 -1.7636  2.1226
 4843SOL    HW225992   0.071   4.634   6.065  3.2014 -0.7601 -1.7498
 4844SOL     OW25993   1.246   2.795   5.152 -0.1789 -0.4377 -0.5006
 4844SOL    HW125994   1.195   2.848   5.214  1.5033 -1.5713  1.8495
 4844SOL    HW225995   1.263   2.844   5.071 -0.8071 -0.8705 -0.8878
 4845SOL     OW25996   0.520   0.993   4.395 -0.1108  0.7814  0.1422
 4845SOL    HW125997   0.559   0.978   4.309 -1.3523 -1.5470 -0.0088
 4845SOL    HW225998   0.436   1.031   4.371  0.9721  3.0217 -0.0832
 4846SOL     OW25999   0.917   1.749   3.794 -0.2316  0.3930  0.2395
 4846SOL    HW126000   0.824   1.729   3.783  0.1485  0.1776 -2.5550
 4846SOL    HW226001   0.926   1.722   3.886  0.6428  0.0044  0.0447
 4847SOL     OW26002   1.643   4.081  11.170 -0.2179 -0.0865  0.2808
 4847SOL    HW126003   1.620   4.032  11.249  2.7515  1.2305  1.9231
 4847SOL    HW226004   1.672   4.164  11.206  0.2943 -0.0785 -0.1367
 4848SOL     OW26005   1.363   0.739   6.813 -0.1536  0.0742 -0.4774
 4848SOL    HW126006   1.275   0.708   6.835 -0.1321 -0.1510 -0.7031
 4848SOL    HW226007   1.409   0.709   6.891 -1.3281 -3.5101 -1.1547
 4849SOL     OW26008   2.189   3.084  17.373  0.1757 -0.5458 -0.1627
 4849SOL    HW126009   2.162   3.018  17.437 -0.8463 -0.8491 -0.8888
 4849SOL    HW226010   2.151   3.170  17.390  0.2960 -0.6734  0.7139
 4850SOL     OW26011   3.451   1.839   9.509  0.0596  0.2726 -0.5629
 4850SOL    HW126012   3.360   1.862   9.529  0.5604  1.2647  0.5404
 4850SOL    HW226013   3.483   1.791   9.585 -0.3896 -0.2067 -0.6792
 4851SOL     OW26014   2.110   4.689   7.646  0.2198  0.1934 -0.1730
 4851SOL    HW126015   2.150   4.638   7.576  1.4582  0.8227  0.0865
 4851SOL    HW226016   2.073   0.032   7.587 -3.0022 -1.0423  0.4637
 4852SOL     OW26017   1.372   1.897   1.041 -0.3172 -0.5257  0.1496
 4852SOL    HW126018   1.431   1.823   1.054  2.2711  1.3518 -0.8087
 4852SOL    HW226019   1.396   1.935   0.956  1.0365 -1.2399  0.2141
 4853SOL     OW26020   1.822   2.709   0.658  0.4933 -0.5747  0.0992
 4853SOL    HW126021   1.804   2.620   0.688  0.1306 -1.0039 -1.4110
 4853SOL    HW226022   1.815   2.697   0.563  0.8847 -0.3116  0.0398
 4854SOL     OW26023   3.851   2.875   5.383  0.5727 -0.0849  0.2571
 4854SOL    HW126024   3.913   2.803   5.382  1.0776  0.3050  2.8671
 4854SOL    HW226025   3.778   2.827   5.421 -0.0743  1.4528  0.9985
 4855SOL     OW26026   0.039   1.908   9.611  0.1416 -0.1106  0.5151
 4855SOL    HW126027   4.671   1.882   9.627  0.2800 -0.5235  0.6203
 4855SOL    HW226028   0.033   1.931   9.519  0.9079  1.4806  0.8523
 4856SOL     OW26029   4.256   1.003   3.320 -0.2100  0.3026 -0.0439
 4856SOL    HW126030   4.339   0.956   3.322  0.0153  0.8943  4.0884
 4856SOL    HW226031   4.280   1.084   3.365  0.1442 -0.0158  0.3482
 4857SOL     OW26032   3.456   2.991   3.639  0.2558  0.0192  0.4266
 4857SOL    HW126033   3.448   2.930   3.566 -0.5675  1.0818 -0.3819
 4857SOL    HW226034   3.533   3.039   3.611  0.6232 -0.9320 -0.1737
 4858SOL     OW26035   3.636   4.375   2.700 -0.2399 -0.2095 -0.1956
 4858SOL    HW126036   3.707   4.439   2.692 -1.2817  0.7693 -1.6660
 4858SOL    HW226037   3.563   4.417   2.654 -0.7605 -1.0421 -0.1327
 4859SOL     OW26038   0.131   3.096   2.031 -0.3243 -0.0557 -0.5632
 4859SOL    HW126039   0.178   3.047   1.964  3.0763 -1.2863  2.7065
 4859SOL    HW226040   0.130   3.187   2.001  1.0807 -0.1841 -1.0117
 4860SOL     OW26041   1.839   2.411   9.558 -0.9006  0.5292 -0.1226
 4860SOL    HW126042   1.861   2.503   9.544  0.1372  0.1944 -0.6604
 4860SOL    HW226043   1.919   2.381   9.600 -0.3239 -1.5887 -2.6697
 4861SOL     OW26044   3.133   3.557   6.317  0.5095  0.2613 -0.4234
 4861SOL    HW126045   3.212   3.503   6.326  0.0780  0.4078  4.5122
 4861SOL    HW226046   3.079   3.517   6.249  1.7510  1.0934 -1.9135
 4862SOL     OW26047   0.424   0.052   5.918  0.0930 -0.2968  0.0299
 4862SOL    HW126048   0.473   0.000   5.982  0.7929  1.4982  0.9371
 4862SOL    HW226049   0.374   4.712   5.865  0.8807  1.7672 -3.1267
 4863SOL     OW26050   4.040   0.091   4.215 -0.1855  0.1589 -0.1309
 4863SOL    HW126051   4.058   0.010   4.167  0.6236  0.3507 -0.1448
 4863SOL    HW226052   4.126   0.132   4.219  0.1528 -0.6720  1.2485
 4864SOL     OW26053   1.083   3.252   1.226  0.6387  0.6313  0.0276
 4864SOL    HW126054   1.031   3.322   1.267 -3.2592 -1.7566 -0.7808
 4864SOL    HW226055   1.171   3.272   1.256  1.4166 -0.2007 -1.7052
 4865SOL     OW26056   2.891   2.237   7.816 -0.5357 -0.0260  0.1362
 4865SOL    HW126057   2.963   2.181   7.844 -1.8514 -1.8700 -0.1846
 4865SOL    HW226058   2.924   2.326   7.830  1.9216 -0.6259 -1.7589
 4866SOL     OW26059   3.076   0.648   1.853 -0.1469  0.1112  0.5902
 4866SOL    HW126060   3.167   0.637   1.878  0.6924  2.1531 -1.5754
 4866SOL    HW226061   3.055   0.730   1.897  0.7670  1.2998 -1.2114
 4867SOL     OW26062   1.886   0.347  10.103 -0.1595  0.2904 -0.2669
 4867SOL    HW126063   1.852   0.329  10.016  1.5820  1.0269 -1.0950
 4867SOL    HW226064   1.972   0.369  10.069 -0.3302  1.3572 -0.0252
 4868SOL     OW26065   3.746   2.754   4.696 -0.4786 -0.3469  0.7640
 4868SOL    HW126066   3.655   2.749   4.667 -0.6416 -2.6684  1.6518
 4868SOL    HW226067   3.760   2.848   4.689 -3.0888  0.0474  0.8135
 4869SOL     OW26068   2.284   4.293   8.909 -0.6856  0.4766 -0.0185
 4869SOL    HW126069   2.231   4.324   8.982 -3.1513  2.4846 -2.6419
 4869SOL    HW226070   2.212   4.307   8.847 -1.7887 -1.6840  0.7750
 4870SOL     OW26071   4.072   1.472   3.217  0.2486 -0.7100  0.2462
 4870SOL    HW126072   4.114   1.530   3.282  0.2147  0.6699 -0.9690
 4870SOL    HW226073   4.006   1.437   3.277 -1.2583 -0.4889 -1.3063
 4871SOL     OW26074   1.478   2.122   0.880  0.5316 -0.1445 -0.0685
 4871SOL    HW126075   1.438   2.128   0.794  1.1005  1.3592 -0.2230
 4871SOL    HW226076   1.490   2.216   0.893 -0.7289 -0.0916  0.6756
 4872SOL     OW26077   0.262   4.083   3.690 -0.1590  0.1291 -0.1371
 4872SOL    HW126078   0.327   4.112   3.754  0.4000 -1.6625  0.1137
 4872SOL    HW226079   0.263   3.987   3.695 -2.3005  0.2352  2.0230
 4873SOL     OW26080   4.418   4.549  10.996 -0.3161  0.3044 -0.2403
 4873SOL    HW126081   4.394   4.564  11.087  1.6448  0.8462  0.1753
 4873SOL    HW226082   4.329   4.528  10.966  0.1416 -0.8867 -0.7454
 4874SOL     OW26083   4.062   2.096   4.365 -0.2896 -0.4761 -0.2339
 4874SOL    HW126084   4.029   2.056   4.285  3.2339 -0.7464 -1.5615
 4874SOL    HW226085   3.978   2.106   4.409 -0.6029 -1.3386 -0.6594
 4875SOL     OW26086   3.636   3.376   6.650  0.7226  0.5926 -0.1154
 4875SOL    HW126087   3.677   3.386   6.736 -0.1994 -1.0224  0.5011
 4875SOL    HW226088   3.704   3.398   6.586  1.4958  2.0543  1.2033
 4876SOL     OW26089   1.899   4.513   7.399  0.0393 -0.3616 -0.1001
 4876SOL    HW126090   1.905   4.456   7.476 -0.3953 -0.3432 -0.0552
 4876SOL    HW226091   1.810   4.542   7.418  0.5292 -0.0974  1.7984
 4877SOL     OW26092   3.036   0.295   1.323 -0.3437  0.1104  0.3121
 4877SOL    HW126093   2.974   0.230   1.356  0.3139 -1.5123 -1.6566
 4877SOL    HW226094   3.113   0.281   1.377 -0.0805 -0.0014 -0.0902
 4878SOL     OW26095   2.824   2.406   1.866  0.4681 -0.3682 -0.4154
 4878SOL    HW126096   2.786   2.494   1.862 -0.9804 -1.0121 -0.8979
 4878SOL    HW226097   2.802   2.386   1.775 -1.5453  0.5589 -0.1301
 4879SOL     OW26098   3.786   3.701  12.650  0.3290  0.3420  0.5189
 4879SOL    HW126099   3.873   3.731  12.623  0.1858  0.4058  0.1271
 4879SOL    HW226100   3.751   3.673  12.565  0.5009 -0.7080  0.7902
 4880SOL     OW26101   2.380   0.864   9.910 -0.7626 -0.3489  0.0993
 4880SOL    HW126102   2.473   0.849   9.921 -0.5504  0.2937 -0.8840
 4880SOL    HW226103   2.346   0.821   9.989  0.6369  1.1874  1.5332
 4881SOL     OW26104   3.491   2.348  14.080  0.5167 -0.5706  0.2201
 4881SOL    HW126105   3.586   2.343  14.068  0.7938  0.4358  1.9426
 4881SOL    HW226106   3.477   2.396  14.162  0.9126  1.1320 -0.7250
 4882SOL     OW26107   0.617   1.376  10.859 -0.0436 -0.1402 -0.3700
 4882SOL    HW126108   0.608   1.358  10.765 -2.0612  0.9149 -0.3773
 4882SOL    HW226109   0.545   1.320  10.888  0.5764 -0.4214  0.6035
 4883SOL     OW26110   3.841   0.683   5.704 -0.4299 -0.1706 -0.4491
 4883SOL    HW126111   3.792   0.641   5.633 -1.7586 -0.5144  0.6492
 4883SOL    HW226112   3.910   0.735   5.664 -1.2306  0.4898 -0.9833
 4884SOL     OW26113   0.737   4.215   9.620  0.5159  0.4326  0.3900
 4884SOL    HW126114   0.808   4.269   9.655 -0.5066  0.9722  1.6256
 4884SOL    HW226115   0.664   4.263   9.658  1.2768  0.2679  2.0660
 4885SOL     OW26116   0.110   2.910   7.930  0.4205 -0.0441  0.0723
 4885SOL    HW126117   0.120   2.830   7.982  1.5405 -0.9776 -1.5605
 4885SOL    HW226118   0.018   2.933   7.937 -0.0830 -2.0138  0.0449
 4886SOL     OW26119   3.142   3.665   3.806 -0.3987  0.4765  0.2813
 4886SOL    HW126120   3.102   3.597   3.860  2.1955 -2.1926 -1.1381
 4886SOL    HW226121   3.198   3.612   3.748 -1.1560  0.4103 -0.3957
 4887SOL     OW26122   4.126   0.119  12.381 -0.3744 -0.0516  0.6368
 4887SOL    HW126123   4.190   0.181  12.348 -0.3047  1.1302  2.9458
 4887SOL    HW226124   4.053   0.141  12.324 -0.4367  0.5648  0.9518
 4888SOL     OW26125   1.702   0.252   3.993 -0.5313 -0.4477  1.0732
 4888SOL    HW126126   1.722   0.344   4.010 -2.6804 -0.0160  1.2283
 4888SOL    HW226127   1.655   0.262   3.911 -0.8227  1.9070  1.5425
 4889SOL     OW26128   3.819   3.045  13.772  0.2172 -0.4191 -0.5893
 4889SOL    HW126129   3.877   2.999  13.712  1.5686 -0.2969  0.6522
 4889SOL    HW226130   3.806   3.128  13.725 -0.0940 -0.3718 -0.4218
 4890SOL     OW26131   2.517   2.222   8.134 -0.1109 -0.1180  0.6741
 4890SOL    HW126132   2.569   2.255   8.060 -0.7427 -2.0333 -0.5969
 4890SOL    HW226133   2.582   2.162   8.170 -0.6243  2.5335  5.9704
 4891SOL     OW26134   3.853   0.962   5.887 -0.1465 -0.0672 -0.0098
 4891SOL    HW126135   3.844   1.002   5.973 -1.5148  0.1802 -0.2654
 4891SOL    HW226136   3.947   0.976   5.886 -0.1616  0.0046 -1.8852
 4892SOL     OW26137   4.191   4.450   8.023 -0.1747 -0.4215 -0.4034
 4892SOL    HW126138   4.183   4.369   7.974  0.8677 -0.7631 -0.0058
 4892SOL    HW226139   4.243   4.429   8.101  0.2197 -1.4261 -0.9496
 4893SOL     OW26140   0.524   0.296   7.033 -0.2979 -0.2717 -0.4222
 4893SOL    HW126141   0.431   0.275   7.025 -0.2807 -1.4870  2.7717
 4893SOL    HW226142   0.569   0.214   7.016 -1.3794 -1.5314  2.8537
 4894SOL     OW26143   4.484   4.269   7.389 -0.0803  0.2516 -0.2137
 4894SOL    HW126144   4.545   4.335   7.421 -0.4913  1.2219 -1.4472
 4894SOL    HW226145   4.414   4.273   7.454  1.2377 -3.5863  1.4964
 4895SOL     OW26146   2.928   1.597   5.829 -0.2380 -0.1882 -0.2453
 4895SOL    HW126147   2.921   1.572   5.737 -0.9382  0.5416 -0.3914
 4895SOL    HW226148   2.907   1.511   5.865 -0.8460  0.6348  1.3705
 4896SOL     OW26149   2.203   0.415  14.341  0.0422  0.7610  0.0187
 4896SOL    HW126150   2.294   0.443  14.344  0.4243 -0.4823  0.0419
 4896SOL    HW226151   2.175   0.445  14.254  0.4469 -0.8861 -0.6965
 4897SOL     OW26152   1.614   0.794  15.705 -0.0352 -0.3652  0.1001
 4897SOL    HW126153   1.637   0.847  15.781 -0.5955  0.0122  0.0099
 4897SOL    HW226154   1.533   0.754  15.739 -0.9738  0.8267 -0.7079
 4898SOL     OW26155   0.803   4.181   7.440 -0.2104 -0.0367 -0.1192
 4898SOL    HW126156   0.849   4.239   7.378 -2.9918  3.0230  0.6563
 4898SOL    HW226157   0.756   4.128   7.375 -0.6881  1.7542 -1.2356
 4899SOL     OW26158   2.821   3.891   9.185  0.2706  0.5239 -0.0179
 4899SOL    HW126159   2.880   3.955   9.224 -0.3289 -0.1876  2.0493
 4899SOL    HW226160   2.861   3.878   9.099  0.2816 -2.3514  0.4329
 4900SOL     OW26161   2.675   1.479   8.686 -0.2919  0.7105  0.4083
 4900SOL    HW126162   2.655   1.497   8.594 -1.1739 -1.1769  0.2293
 4900SOL    HW226163   2.612   1.407   8.688 -1.3244  1.5992 -0.1923
 4901SOL     OW26164   3.596   1.372   6.216  0.1341 -0.4162  0.1392
 4901SOL    HW126165   3.662   1.379   6.147  0.5552  1.9813  0.7591
 4901SOL    HW226166   3.647   1.386   6.296  0.3404  1.6577 -0.3563
 4902SOL     OW26167   3.328   2.044  11.280 -0.2653  0.0163  0.1353
 4902SOL    HW126168   3.302   2.128  11.317  0.1522  0.3384 -0.2943
 4902SOL    HW226169   3.280   1.981  11.333 -1.0528  1.2117  0.8549
 4903SOL     OW26170   1.291   2.668   0.272 -0.0438  0.2965  0.2959
 4903SOL    HW126171   1.207   2.699   0.304 -2.0142 -2.1642 -2.4260
 4903SOL    HW226172   1.328   2.751   0.244 -0.6154  0.4643  0.0373
 4904SOL     OW26173   3.835   4.269   1.203  0.0913 -0.1262 -0.0485
 4904SOL    HW126174   3.907   4.327   1.179 -2.3692  3.2054  0.5266
 4904SOL    HW226175   3.880   4.209   1.261 -2.3598 -0.2064  1.7820
 4905SOL     OW26176   1.821   2.056   5.891 -0.2810  0.2523 -0.1487
 4905SOL    HW126177   1.867   1.983   5.932 -0.1119  0.2715 -0.3073
 4905SOL    HW226178   1.741   2.006   5.875 -1.1210  2.1249 -1.8373
 4906SOL     OW26179   2.396   0.122   7.398 -0.2194 -1.1272 -0.1382
 4906SOL    HW126180   2.362   0.201   7.441 -0.3763 -1.5882  0.5841
 4906SOL    HW226181   2.451   0.091   7.469 -0.7719  0.2463  0.8965
 4907SOL     OW26182   2.009   1.833   1.181  0.2233 -0.3841 -0.4865
 4907SOL    HW126183   2.075   1.896   1.211 -0.0489 -0.5986  0.5502
 4907SOL    HW226184   1.994   1.794   1.267  3.2869 -0.7829 -0.1220
 4908SOL     OW26185   1.255   1.610   7.890 -0.0654  0.9928  0.1019
 4908SOL    HW126186   1.311   1.548   7.938 -1.6547 -0.8548 -0.4646
 4908SOL    HW226187   1.291   1.614   7.802 -0.7917 -1.1607 -0.2853
 4909SOL     OW26188   3.743   1.558  13.579 -0.2970 -0.0598 -0.1956
 4909SOL    HW126189   3.657   1.571  13.539 -0.3137  0.3889 -0.0215
 4909SOL    HW226190   3.800   1.524  13.511  1.0205  2.2932 -0.2724
 4910SOL     OW26191   3.808   2.856   1.971 -0.0515 -0.7158  0.0124
 4910SOL    HW126192   3.773   2.768   1.984  0.1801 -1.1038 -2.0617
 4910SOL    HW226193   3.730   2.892   1.929  0.8963  0.7115 -0.5264
 4911SOL     OW26194   4.711   1.134  17.410 -0.5252  0.2704  0.0889
 4911SOL    HW126195   4.633   1.084  17.386 -0.6600 -0.0926  1.2740
 4911SOL    HW226196   4.723   1.119  17.504  2.0469 -0.0002 -0.2683
 4912SOL     OW26197   0.838   0.125  10.388  0.1955  0.1799 -0.1396
 4912SOL    HW126198   0.829   0.079  10.305  2.1371  1.3208 -1.0055
 4912SOL    HW226199   0.752   0.103  10.424 -0.1461  0.6486 -0.6662
 4913SOL     OW26200   3.216   2.008   6.328  0.2823 -0.0523  0.1365
 4913SOL    HW126201   3.191   1.992   6.237  1.7737  0.1446 -0.2959
 4913SOL    HW226202   3.172   1.933   6.369 -0.6265  0.3028 -0.1869
 4914SOL     OW26203   0.509   1.373  10.176  0.2037  0.2988  0.4313
 4914SOL    HW126204   0.582   1.349  10.119 -0.9386 -0.4137 -0.7378
 4914SOL    HW226205   0.474   1.284  10.186 -0.4665  0.2874 -1.9243
 4915SOL     OW26206   3.600   3.838   7.012  0.2308  0.2988  0.1127
 4915SOL    HW126207   3.546   3.785   6.954 -0.0020 -0.5157  1.0761
 4915SOL    HW226208   3.605   3.924   6.971 -0.0388  0.3891  0.2726
 4916SOL     OW26209   0.053   3.756   2.882  0.2738 -0.1343 -0.1821
 4916SOL    HW126210   0.143   3.759   2.915 -0.3263  0.9738  1.3403
 4916SOL    HW226211   0.021   3.844   2.899  1.4608  0.1142  0.7764
 4917SOL     OW26212   3.430   4.011  15.386 -0.0209 -0.1503  0.2818
 4917SOL    HW126213   3.516   4.052  15.389 -0.4464  0.8386 -1.5947
 4917SOL    HW226214   3.450   3.934  15.333  3.0400 -1.5260  3.4622
 4918SOL     OW26215   4.424   0.336  17.636  0.3775  0.2743  0.4560
 4918SOL    HW126216   4.356   0.376  17.583 -1.8686 -2.5090  1.2481
 4918SOL    HW226217   4.383   0.256  17.669  0.4301 -0.5157 -1.3891
 4919SOL     OW26218   4.388   2.209   7.380  1.2152  0.4086 -0.2010
 4919SOL    HW126219   4.446   2.285   7.391 -1.5510  2.8683 -2.4521
 4919SOL    HW226220   4.423   2.140   7.435  0.2296 -0.4946 -0.7010
 4920SOL     OW26221   4.533   2.992  15.012 -0.6277  0.1153 -0.2715
 4920SOL    HW126222   4.593   3.058  14.978 -1.1262  1.9722  2.4129
 4920SOL    HW226223   4.524   2.940  14.932  2.8146  0.1116 -0.6585
 4921SOL     OW26224   1.238   3.805   8.984 -0.0608  0.3769  0.2410
 4921SOL    HW126225   1.195   3.723   9.011  1.0686 -0.0081  0.8517
 4921SOL    HW226226   1.310   3.823   9.043 -0.7082  2.5677  0.3592
 4922SOL     OW26227   0.481   3.159   0.357 -0.0690 -0.8248 -0.5166
 4922SOL    HW126228   0.551   3.108   0.398  0.9366  1.4887  0.6414
 4922SOL    HW226229   0.470   3.233   0.417  1.0023 -0.0586 -1.2767
 4923SOL     OW26230   3.986   1.834   1.230  0.6164  0.0914  0.6339
 4923SOL    HW126231   4.018   1.759   1.180  3.0652  0.2171  2.0195
 4923SOL    HW226232   4.064   1.855   1.281  2.0887  0.2819 -1.7492
 4924SOL     OW26233   1.791   2.001   7.610 -0.3890 -0.0360  0.3004
 4924SOL    HW126234   1.824   1.926   7.561  1.6185  1.4475 -0.6710
 4924SOL    HW226235   1.756   1.966   7.692  1.2474 -1.7887  0.2516
 4925SOL     OW26236   3.341   3.922   3.279 -0.0423  0.9179 -0.1052
 4925SOL    HW126237   3.371   3.891   3.364 -0.0600 -0.6985 -0.6839
 4925SOL    HW226238   3.407   3.876   3.226 -1.1537  0.2242 -0.8754
 4926SOL     OW26239   2.846   0.012   7.773 -0.3581 -0.1682  0.2445
 4926SOL    HW126240   2.843   4.656   7.828  1.6273  0.6071  1.4694
 4926SOL    HW226241   2.787   0.066   7.825 -0.3552  0.2464 -0.1857
 4927SOL     OW26242   3.843   4.676   7.515  0.0691  0.1887 -0.0061
 4927SOL    HW126243   3.920   4.662   7.461  0.4251 -2.0461  1.0660
 4927SOL    HW226244   3.843   0.048   7.505  2.5606  0.2223  0.4192
 4928SOL     OW26245   4.309   0.753   5.166 -0.0093  0.5789  0.2286
 4928SOL    HW126246   4.308   0.670   5.213  0.8476  0.6649  0.4075
 4928SOL    HW226247   4.233   0.806   5.191 -0.5117  0.6558 -1.4733
 4929SOL     OW26248   3.563   4.558   6.680  0.0777  0.1289  0.7921
 4929SOL    HW126249   3.478   4.548   6.724  0.0727  0.4536  0.8571
 4929SOL    HW226250   3.543   4.608   6.601 -0.8892  0.4003  1.2065
 4930SOL     OW26251   4.149   4.434   3.012 -0.5292 -0.2002 -0.0786
 4930SOL    HW126252   4.135   4.511   3.067  4.4613  1.6392 -1.4028
 4930SOL    HW226253   4.078   4.379   3.047 -1.9711  1.2393 -0.7621
 4931SOL     OW26254   3.541   0.321   8.876 -0.2188 -0.0226  0.6640
 4931SOL    HW126255   3.487   0.242   8.880  1.3181 -1.0903  0.6267
 4931SOL    HW226256   3.494   0.380   8.934 -0.4239 -0.3880  0.8718
 4932SOL     OW26257   2.261   3.601   4.286 -0.1606  0.3498 -0.1572
 4932SOL    HW126258   2.253   3.667   4.218 -2.9699 -0.3933 -0.5647
 4932SOL    HW226259   2.263   3.530   4.222  0.9919 -1.2901  1.7014
 4933SOL     OW26260   3.348   3.503  16.270  0.1370 -0.1829  0.2281
 4933SOL    HW126261   3.270   3.530  16.222 -0.4930 -0.0566  1.3137
 4933SOL    HW226262   3.404   3.580  16.260  0.8165 -1.0581 -2.5206
 4934SOL     OW26263   1.481   1.486  16.495  0.2203  0.0530  0.1934
 4934SOL    HW126264   1.475   1.465  16.588 -0.9248  0.3477  0.1836
 4934SOL    HW226265   1.551   1.552  16.496  0.0546  0.2097  1.0025
 4935SOL     OW26266   3.335   2.167   5.202  0.1634  0.0708  0.1497
 4935SOL    HW126267   3.336   2.191   5.109 -0.1025 -0.6899 -0.0537
 4935SOL    HW226268   3.321   2.252   5.243  1.7425 -1.4303  3.7608
 4936SOL     OW26269   0.736   3.830   0.579 -0.5158  0.2693 -0.1056
 4936SOL    HW126270   0.759   3.762   0.643 -1.4071 -0.0859 -0.1627
 4936SOL    HW226271   0.648   3.854   0.607 -0.5423  0.2410 -0.1635
 4937SOL     OW26272   0.411   2.392   5.335 -0.7477  0.0200  0.4196
 4937SOL    HW126273   0.330   2.435   5.307 -0.0052  1.3652  0.3066
 4937SOL    HW226274   0.414   2.328   5.263 -1.9050 -0.2200  0.5979
 4938SOL     OW26275   2.064   0.224   2.471 -0.7633 -0.0019 -0.2300
 4938SOL    HW126276   2.149   0.264   2.487 -0.5541 -1.2955  1.9109
 4938SOL    HW226277   2.051   0.232   2.376  1.8064  2.6368 -0.3746
 4939SOL     OW26278   0.811   1.354   8.579 -0.2024 -0.2373 -0.1320
 4939SOL    HW126279   0.854   1.274   8.550 -0.8983 -1.5418  2.4510
 4939SOL    HW226280   0.875   1.376   8.646  0.4269  2.5294 -1.6457
 4940SOL     OW26281   4.643   3.807   1.853  0.1462 -0.4031  0.6370
 4940SOL    HW126282   4.694   3.858   1.790 -0.3486 -2.1044 -1.1418
 4940SOL    HW226283   4.689   3.824   1.935 -0.9659 -1.0549  1.3940
 4941SOL     OW26284   2.510   2.572   5.867  0.8625 -0.3693  0.0271
 4941SOL    HW126285   2.575   2.638   5.843  0.3535  1.4021  3.6402
 4941SOL    HW226286   2.571   2.505   5.900  0.1169 -0.9575  0.2208
 4942SOL     OW26287   1.631   2.784   3.575  0.1208 -0.1270 -0.8075
 4942SOL    HW126288   1.621   2.879   3.576 -1.4997 -0.3268  1.2489
 4942SOL    HW226289   1.555   2.758   3.626 -0.2877 -0.8870 -1.7993
 4943SOL     OW26290   2.130   3.857   7.115  0.1502  0.0668 -0.0315
 4943SOL    HW126291   2.076   3.849   7.193  0.7405 -0.5605  0.3068
 4943SOL    HW226292   2.072   3.831   7.043  0.5323  0.6074 -0.5423
 4944SOL     OW26293   4.110   0.444   8.403 -0.1895 -0.0786 -0.9113
 4944SOL    HW126294   4.070   0.436   8.490 -1.3932  1.1760 -1.3639
 4944SOL    HW226295   4.191   0.489   8.430 -1.0889  0.5008  0.8561
 4945SOL     OW26296   0.116   0.401  15.953  0.4075 -0.9909  0.1167
 4945SOL    HW126297   0.052   0.470  15.972 -1.4517 -1.6794 -3.6102
 4945SOL    HW226298   0.173   0.407  16.029 -0.2093  1.5538  0.4024
 4946SOL     OW26299   0.743   0.929   7.534 -0.1825 -0.3643 -0.3131
 4946SOL    HW126300   0.772   0.842   7.508 -0.0082 -0.9223  1.7619
 4946SOL    HW226301   0.665   0.903   7.584  1.2953 -1.0958  1.6308
 4947SOL     OW26302   0.078   1.280   4.956  0.3360 -0.2374 -0.2791
 4947SOL    HW126303   0.093   1.343   5.026  0.5870 -0.1642 -0.3980
 4947SOL    HW226304   0.154   1.223   4.970  0.3512 -0.4772 -1.3428
 4948SOL     OW26305   0.175   2.228   3.422 -0.1972 -0.3067 -0.0522
 4948SOL    HW126306   0.107   2.281   3.462  0.4563  0.0386  0.6052
 4948SOL    HW226307   0.148   2.139   3.446 -0.3787 -0.3904 -0.5636
 4949SOL     OW26308   2.976   4.666   8.613 -0.4088  0.5601  0.4165
 4949SOL    HW126309   2.978   4.608   8.689  0.8326  0.2477  0.1516
 4949SOL    HW226310   2.990   4.604   8.541  1.6942  0.3028  1.0441
 4950SOL     OW26311   1.900   1.832   6.033 -0.3921 -0.3527  0.4278
 4950SOL    HW126312   1.907   1.842   6.128  0.3128  1.9052  0.1556
 4950SOL    HW226313   1.961   1.760   6.014 -0.4004 -0.9868  2.8689
 4951SOL     OW26314   4.594   3.097   7.340  0.0287  0.3444 -0.3816
 4951SOL    HW126315   4.541   3.107   7.261 -0.3975  1.4079  0.0279
 4951SOL    HW226316   4.544   3.038   7.396 -3.0883  1.1059 -2.3428
 4952SOL     OW26317   3.655   3.539   8.099  0.4122  0.1233  0.2271
 4952SOL    HW126318   3.638   3.572   8.011  0.9826 -1.1525 -0.3732
 4952SOL    HW226319   3.670   3.615   8.154 -1.0725 -0.2999  1.2006
 4953SOL     OW26320   0.697   3.529   5.353  0.1913 -0.6684  0.4662
 4953SOL    HW126321   0.646   3.603   5.383  1.9642  0.2944  1.1099
 4953SOL    HW226322   0.702   3.477   5.434  1.3346  0.2558  0.9852
 4954SOL     OW26323   0.567   4.708   1.900  0.0468 -0.0130  0.3371
 4954SOL    HW126324   0.525   4.648   1.839  0.4609  1.1613 -1.0960
 4954SOL    HW226325   0.504   0.058   1.906 -0.6097 -0.6056  0.5516
 4955SOL     OW26326   4.551   2.376   4.628 -0.4503 -0.0670 -0.3598
 4955SOL    HW126327   4.620   2.359   4.692 -0.6334  0.8755  0.0868
 4955SOL    HW226328   4.512   2.289   4.619  0.8521 -0.4845 -2.0772
 4956SOL     OW26329   4.177   0.830  12.300  0.5142  0.7322 -0.1350
 4956SOL    HW126330   4.100   0.847  12.353 -1.4146 -3.9781 -1.4186
 4956SOL    HW226331   4.128   0.779  12.235  0.7099  0.7249 -0.2788
 4957SOL     OW26332   3.451   0.513   3.492 -0.1204 -0.1397 -0.0381
 4957SOL    HW126333   3.382   0.455   3.523  0.8435 -0.7223  1.0216
 4957SOL    HW226334   3.403   0.595   3.478 -1.5710 -1.2008 -1.2702
 4958SOL     OW26335   2.729   2.529   6.593 -0.3908  0.1791 -0.2893
 4958SOL    HW126336   2.816   2.494   6.615 -0.1661 -0.9783 -2.9490
 4958SOL    HW226337   2.684   2.457   6.548 -1.9995  0.3021  1.1379
 4959SOL     OW26338   2.160   0.617   7.436 -0.8106  0.0162  0.3448
 4959SOL    HW126339   2.193   0.698   7.398  2.5202 -2.7063 -2.4541
 4959SOL    HW226340   2.067   0.627   7.414 -0.3145  1.3184 -1.1123
 4960SOL     OW26341   3.475   1.309   5.198 -0.1354  0.6230 -0.1908
 4960SOL    HW126342   3.459   1.381   5.259  0.8666  1.5271 -0.9877
 4960SOL    HW226343   3.385   1.281   5.186  0.2307 -0.4029 -0.6105
 4961SOL     OW26344   4.557   3.611   2.789  0.1786 -0.1437  0.5888
 4961SOL    HW126345   4.634   3.625   2.844  2.3214  0.1066 -2.4902
 4961SOL    HW226346   4.589   3.659   2.712 -0.2054 -1.2927 -0.2945
 4962SOL     OW26347   0.085   1.415   1.779 -0.8764 -0.2337  0.0551
 4962SOL    HW126348   0.036   1.491   1.746  0.5794  0.8092  0.2722
 4962SOL    HW226349   0.130   1.398   1.697  1.4983 -1.0118  1.5435
 4963SOL     OW26350   2.754   2.984   7.972  0.2179  0.0792 -0.1630
 4963SOL    HW126351   2.840   2.951   7.997  0.7438  2.2838  0.9584
 4963SOL    HW226352   2.732   3.046   8.042  1.5360  0.8484 -0.4190
 4964SOL     OW26353   3.338   3.990   7.141 -0.2376 -0.2663  0.0956
 4964SOL    HW126354   3.302   4.077   7.160  2.0741  1.2019 -2.2228
 4964SOL    HW226355   3.317   3.988   7.047  0.7257 -3.8442 -0.0498
 4965SOL     OW26356   2.918   3.375   2.397  0.0804  0.2674 -0.3843
 4965SOL    HW126357   2.840   3.345   2.445  0.6969 -1.8786 -0.7594
 4965SOL    HW226358   2.879   3.447   2.348  1.4567  0.4832 -1.1487
 4966SOL     OW26359   3.599   3.924   3.758 -0.2722 -0.1481  0.2351
 4966SOL    HW126360   3.532   3.878   3.809 -0.9013  0.4268 -0.0810
 4966SOL    HW226361   3.548   4.000   3.730  0.2242  0.2708  0.4747
 4967SOL     OW26362   0.855   0.756   5.240  0.8256  0.3599  0.0304
 4967SOL    HW126363   0.898   0.822   5.187  1.0600  0.9431  0.9467
 4967SOL    HW226364   0.885   0.775   5.329  2.4904 -3.1566  0.2122
 4968SOL     OW26365   3.257   3.624  13.327  0.2256  0.5053 -0.1843
 4968SOL    HW126366   3.290   3.698  13.276  0.3213 -0.2441 -1.1991
 4968SOL    HW226367   3.186   3.610  13.265 -0.1608  0.9358  0.1549
 4969SOL     OW26368   0.323   3.393   6.196  0.2796 -0.2958  0.1829
 4969SOL    HW126369   0.387   3.462   6.179  0.4699 -0.5568 -0.1672
 4969SOL    HW226370   0.242   3.432   6.164 -0.1623 -1.2613  0.1349
 4970SOL     OW26371   1.893   2.865   1.024  0.2464 -0.4025 -0.3994
 4970SOL    HW126372   1.805   2.866   1.061  2.0400 -4.2355  3.8690
 4970SOL    HW226373   1.877   2.920   0.947  2.7084 -0.4080 -0.9074
 4971SOL     OW26374   2.839   1.510   7.625 -0.1903  0.3374  0.2668
 4971SOL    HW126375   2.779   1.461   7.681  1.0440 -1.1629  0.2803
 4971SOL    HW226376   2.819   1.601   7.646 -3.4685 -0.5488  0.9477
 4972SOL     OW26377   3.713   3.207   8.354  0.0616 -0.5009 -0.0121
 4972SOL    HW126378   3.749   3.136   8.409 -2.9619 -1.6606  0.4732
 4972SOL    HW226379   3.622   3.205   8.384  0.5479  2.2610  1.6302
 4973SOL     OW26380   0.272   4.593  17.089  0.0497 -0.2874  0.2843
 4973SOL    HW126381   0.329   4.670  17.083  0.0386 -0.2345  0.8790
 4973SOL    HW226382   0.221   4.616  17.167  1.7315 -0.3770  1.4069
 4974SOL     OW26383   1.501   4.656   4.334  0.0075  0.0725 -0.3472
 4974SOL    HW126384   1.586   4.679   4.371 -0.2374 -0.8263  0.7837
 4974SOL    HW226385   1.515   4.574   4.287 -0.7610  0.8414 -1.9265
 4975SOL     OW26386   2.650   0.666   8.037 -0.2841 -0.0082  0.1737
 4975SOL    HW126387   2.564   0.652   7.998  0.0267 -2.1475  0.2731
 4975SOL    HW226388   2.617   0.722   8.108 -0.2383 -0.4572  0.5521
 4976SOL     OW26389   3.654   4.421   5.594 -0.0474 -0.0637 -0.3571
 4976SOL    HW126390   3.667   4.379   5.679 -0.1085  0.8419  0.1053
 4976SOL    HW226391   3.706   4.501   5.606 -5.2535  3.2767  0.1880
 4977SOL     OW26392   2.542   3.628   4.309  0.5906  0.3535 -0.1976
 4977SOL    HW126393   2.561   3.681   4.232 -1.1048 -1.0800 -1.6014
 4977SOL    HW226394   2.448   3.641   4.313  0.4974 -0.2635 -0.3040
 4978SOL     OW26395   1.344   0.075   3.437  0.1611 -0.0078 -0.8113
 4978SOL    HW126396   1.296   0.157   3.424  1.2971  0.5827 -1.2466
 4978SOL    HW226397   1.323   0.034   3.353 -0.8477  0.3400 -0.7359
 4979SOL     OW26398   1.614   1.218   4.298 -0.5250  0.3493  0.4968
 4979SOL    HW126399   1.555   1.211   4.223  0.5902  0.8504 -0.4306
 4979SOL    HW226400   1.628   1.126   4.319 -1.5975  0.0066 -0.2853
 4980SOL     OW26401   4.017   3.487  14.423  0.2032  0.4434 -0.6320
 4980SOL    HW126402   4.018   3.524  14.335  0.5129  3.1459  0.5297
 4980SOL    HW226403   3.953   3.537  14.474  0.4201  1.2411 -1.1435
 4981SOL     OW26404   4.525   0.432   9.901 -0.1600  0.3197 -0.0093
 4981SOL    HW126405   4.543   0.357   9.958  2.0050 -0.9310 -2.2790
 4981SOL    HW226406   4.539   0.392   9.815  2.6498  2.8163 -0.7337
 4982SOL     OW26407   1.151   2.247   6.866 -0.1005 -0.4053 -0.0198
 4982SOL    HW126408   1.107   2.312   6.812  1.8254  1.7276  0.9628
 4982SOL    HW226409   1.229   2.235   6.811  1.1790  1.1168  1.4561
 4983SOL     OW26410   4.367   3.150   9.427  0.0694  0.5605  0.6874
 4983SOL    HW126411   4.450   3.184   9.460 -0.9374  0.7195  3.0252
 4983SOL    HW226412   4.376   3.060   9.396 -2.3994  0.9287 -1.1368
 4984SOL     OW26413   1.223   2.389  14.007 -0.8098  0.0384  0.0756
 4984SOL    HW126414   1.296   2.339  13.971 -0.7819  1.9537 -2.5665
 4984SOL    HW226415   1.150   2.328  13.995 -1.6538  0.8858  0.9399
 4985SOL     OW26416   0.473   3.959   5.635  0.6113  0.0925 -0.6343
 4985SOL    HW126417   0.479   3.961   5.731 -1.8118  2.0245 -0.5090
 4985SOL    HW226418   0.565   3.962   5.611  0.6050  1.1500 -0.5538
 4986SOL     OW26419   4.473   3.584  13.352  0.5385 -0.3765  0.0384
 4986SOL    HW126420   4.528   3.588  13.274 -0.7266  0.7236 -0.8076
 4986SOL    HW226421   4.517   3.637  13.419 -2.2446  0.3012  1.3275
 4987SOL     OW26422   3.215   2.976   9.569  0.3609  0.0033  0.5054
 4987SOL    HW126423   3.158   2.944   9.639  0.3647 -0.9414  0.0762
 4987SOL    HW226424   3.166   3.049   9.531  0.8676 -0.2421 -0.6154
 4988SOL     OW26425   4.304   2.869   2.260 -0.0443  0.4253 -0.6043
 4988SOL    HW126426   4.373   2.805   2.240 -0.2328 -0.1279  0.5113
 4988SOL    HW226427   4.352   2.945   2.293  0.6079 -0.8508  1.3813
 4989SOL     OW26428   1.469   4.260   7.374 -0.2731 -0.2620  0.0717
 4989SOL    HW126429   1.454   4.237   7.282  1.4830  1.4324 -0.6266
 4989SOL    HW226430   1.429   4.346   7.377 -0.4971 -0.2387 -3.6208
 4990SOL     OW26431   2.307   0.887  11.597  0.2217  0.1095 -0.0223
 4990SOL    HW126432   2.240   0.937  11.644 -1.8600 -2.0878 -0.6425
 4990SOL    HW226433   2.367   0.873  11.670 -0.6474 -0.6695  0.5419
 4991SOL     OW26434   4.503   2.819   9.586  0.4522 -0.0420 -0.0112
 4991SOL    HW126435   4.408   2.812   9.574  0.2420  0.8549  1.0789
 4991SOL    HW226436   4.532   2.784   9.502 -2.5562  0.6703 -1.3496
 4992SOL     OW26437   3.691   4.126  15.972 -0.1898  0.4024 -0.2492
 4992SOL    HW126438   3.613   4.172  16.003 -0.3092  0.9828 -1.4333
 4992SOL    HW226439   3.745   4.194  15.933 -0.2367  0.6148  0.0575
 4993SOL     OW26440   3.171   1.295   3.064 -0.1228  0.2793  0.0621
 4993SOL    HW126441   3.203   1.270   2.977  1.4381  4.6081 -0.6289
 4993SOL    HW226442   3.076   1.285   3.058 -0.1624  1.3096 -1.2266
 4994SOL     OW26443   4.293   2.623  15.917  0.3787 -0.5761 -0.4232
 4994SOL    HW126444   4.362   2.561  15.941  1.0115  0.5496  0.6971
 4994SOL    HW226445   4.350   2.679  15.864  2.0037 -1.4054  0.4486
 4995SOL     OW26446   0.084   4.356  11.137  0.1569  0.2985  0.0926
 4995SOL    HW126447   4.719   4.333  11.168 -0.0078 -0.1852 -0.7292
 4995SOL    HW226448   0.062   4.442  11.101 -0.5623  1.1297  2.5176
 4996SOL     OW26449   1.769   2.162   8.855  0.4256 -0.2009 -0.3019
 4996SOL    HW126450   1.685   2.118   8.868 -1.6705  4.0239  0.1595
 4996SOL    HW226451   1.814   2.106   8.919  1.2399  0.7814 -0.0231
 4997SOL     OW26452   2.939   0.093   8.231  0.5123  0.2405 -0.2807
 4997SOL    HW126453   2.880   0.167   8.215  0.4839  0.4829  0.9410
 4997SOL    HW226454   2.904   0.066   8.316  1.2245  1.1654  0.3160
 4998SOL     OW26455   3.735   1.990  11.985  0.1074  0.6037 -0.5810
 4998SOL    HW126456   3.799   1.923  12.008 -0.5800  0.4520  0.9045
 4998SOL    HW226457   3.652   1.943  11.994 -0.0558  0.7771 -1.1939
 4999SOL     OW26458   3.723   0.935   0.159  0.4738  0.0812 -0.5272
 4999SOL    HW126459   3.668   0.893   0.092  3.2059 -3.2339 -0.7187
 4999SOL    HW226460   3.724   0.872   0.231 -0.4162  1.3587  0.5714
 5000SOL     OW26461   0.071   2.142   2.482  0.1622 -0.4541 -0.3052
 5000SOL    HW126462   0.002   2.185   2.532 -1.1887 -4.1037  1.0164
 5000SOL    HW226463   0.148   2.162   2.536  0.3535  1.0259 -1.1331
 5001SOL     OW26464   0.479   0.989  13.276  0.6100 -0.0401 -0.5429
 5001SOL    HW126465   0.573   0.974  13.287  0.7871  0.7330 -1.0340
 5001SOL    HW226466   0.437   0.932  13.341  0.6280  3.1591  2.2523
 5002SOL     OW26467   0.052   4.328  10.758 -0.3472 -0.2238 -0.3463
 5002SOL    HW126468   0.069   4.255  10.817  0.5885  0.3872  0.1492
 5002SOL    HW226469   0.135   4.352  10.716  1.8043 -2.4645  2.6384
 5003SOL     OW26470   3.412   3.184  10.957  0.3559 -0.1949 -0.4352
 5003SOL    HW126471   3.449   3.133  11.029 -1.4138 -0.5273  0.2449
 5003SOL    HW226472   3.480   3.171  10.890 -2.8126 -2.9304 -3.1588
 5004SOL     OW26473   3.644   3.186  14.333 -0.1158 -0.4298  0.0921
 5004SOL    HW126474   3.574   3.186  14.267  0.1379  1.5089 -0.1699
 5004SOL    HW226475   3.712   3.238  14.291 -0.5626  0.8510  0.9522
 5005SOL     OW26476   1.864   2.500   6.485 -0.6943  0.1294  0.5236
 5005SOL    HW126477   1.883   2.447   6.408 -1.5003  1.7099 -0.7665
 5005SOL    HW226478   1.815   2.573   6.446 -1.5863 -1.2359 -0.8971
 5006SOL     OW26479   2.909   3.095   9.154 -0.0213  0.0036  0.6072
 5006SOL    HW126480   2.814   3.085   9.148 -0.3562  3.1458  0.5123
 5006SOL    HW226481   2.933   3.030   9.088  1.5974 -0.8968  2.0636
 5007SOL     OW26482   3.769   1.015  13.272 -0.1874  0.7172  0.0033
 5007SOL    HW126483   3.760   0.920  13.264 -1.2787  1.0000 -2.1881
 5007SOL    HW226484   3.840   1.016  13.336  0.1595  0.5247 -0.3832
 5008SOL     OW26485   2.319   3.699   4.724 -0.0259 -0.0913 -0.1979
 5008SOL    HW126486   2.286   3.658   4.644  2.3224 -1.9731 -0.1788
 5008SOL    HW226487   2.239   3.748   4.744  1.2688  1.0643  2.1282
 5009SOL     OW26488   2.235   0.400   8.172 -0.7576 -0.2200  0.2906
 5009SOL    HW126489   2.191   0.461   8.114 -1.4983  0.9318  2.0526
 5009SOL    HW226490   2.312   0.383   8.118 -0.7488 -0.7684  0.4740
 5010SOL     OW26491   4.224   3.175  16.845  0.6741 -0.1640  0.6851
 5010SOL    HW126492   4.252   3.089  16.815  1.3401  0.0042  0.8110
 5010SOL    HW226493   4.261   3.223  16.771 -1.0169  0.0513 -0.0144
 5011SOL     OW26494   4.683   2.405   9.537  0.0007  0.1171 -0.0542
 5011SOL    HW126495   4.603   2.405   9.484  0.6976 -0.3731 -1.0982
 5011SOL    HW226496   0.012   2.353   9.476  1.3677 -0.5916  1.6873
 5012SOL     OW26497   3.741   0.552   3.490  0.2391 -0.0174 -0.9682
 5012SOL    HW126498   3.731   0.628   3.433 -2.4917  0.5651  0.2866
 5012SOL    HW226499   3.652   0.534   3.520 -0.4767  0.7293 -2.6367
 5013SOL     OW26500   2.822   1.234   7.729  0.3678  0.1923 -0.0020
 5013SOL    HW126501   2.736   1.193   7.718  0.4547  0.7320 -2.6737
 5013SOL    HW226502   2.857   1.247   7.641  0.9812 -1.4938 -0.0126
 5014SOL     OW26503   4.033   1.403  15.407  0.0654 -0.7549 -0.9131
 5014SOL    HW126504   4.009   1.486  15.448  0.2427 -0.9809 -0.3354
 5014SOL    HW226505   4.027   1.426  15.315  2.4264  0.9740 -0.6317
 5015SOL     OW26506   0.831   4.452   5.687 -0.2139 -0.1989 -0.7061
 5015SOL    HW126507   0.868   4.433   5.601  1.4942  0.2097 -0.0704
 5015SOL    HW226508   0.859   4.380   5.742 -1.8136  0.0856  0.4752
 5016SOL     OW26509   2.109   3.694   5.673 -0.1572 -0.2114  0.1299
 5016SOL    HW126510   2.196   3.668   5.642 -0.1834  0.7906 -0.7924
 5016SOL    HW226511   2.107   3.784   5.640 -3.1578 -0.2519  0.1713
 5017SOL     OW26512   4.630   0.332  16.441  0.1750  0.2789 -0.1144
 5017SOL    HW126513   4.637   0.427  16.435  2.2963  0.0154 -1.7823
 5017SOL    HW226514   4.697   0.315  16.507  0.1354 -1.4251 -0.4904
 5018SOL     OW26515   0.745   4.597   3.260  0.1975 -0.2259  0.3756
 5018SOL    HW126516   0.710   4.606   3.171 -0.2674 -0.7884  0.4978
 5018SOL    HW226517   0.691   4.527   3.296  0.7210 -0.9938 -0.3548
 5019SOL     OW26518   1.730   1.079   2.554 -0.2502  0.6354 -0.2327
 5019SOL    HW126519   1.640   1.075   2.588 -0.2254 -1.4162 -0.4009
 5019SOL    HW226520   1.738   0.984   2.551  0.0642  0.6551  0.0723
 5020SOL     OW26521   1.233   1.488  12.827 -0.1693  0.2238  0.5589
 5020SOL    HW126522   1.190   1.425  12.885  0.0081 -0.9504 -0.5770
 5020SOL    HW226523   1.254   1.556  12.891 -0.7101  1.3417 -0.4410
 5021SOL     OW26524   4.419   4.285  14.560  0.2577 -0.0094  0.1071
 5021SOL    HW126525   4.376   4.254  14.640 -2.1486  2.2350 -0.3193
 5021SOL    HW226526   4.486   4.337  14.605  1.0380 -0.6371 -0.3524
 5022SOL     OW26527   2.519   2.059   8.570  0.5058 -0.4969 -0.5683
 5022SOL    HW126528   2.533   2.131   8.632 -1.9887  0.7771 -1.4812
 5022SOL    HW226529   2.439   2.014   8.596 -0.1758  1.1479  0.2503
 5023SOL     OW26530   0.454   1.471   1.709  0.5721  0.4023  0.0604
 5023SOL    HW126531   0.465   1.487   1.802  3.6282  2.4295 -0.6524
 5023SOL    HW226532   0.537   1.427   1.689 -0.7008 -1.4202 -1.2736
 5024SOL     OW26533   1.334   1.391   1.982  0.4548 -0.4470 -0.1887
 5024SOL    HW126534   1.349   1.434   2.067  0.3671  1.3700 -1.1049
 5024SOL    HW226535   1.317   1.303   2.016  1.4123 -0.5570 -0.0064
 5025SOL     OW26536   1.289   1.463   8.896  0.0644 -0.0306  0.0126
 5025SOL    HW126537   1.327   1.495   8.977 -1.9901 -0.3630  1.1040
 5025SOL    HW226538   1.277   1.372   8.923 -0.1204 -0.1560 -0.4773
 5026SOL     OW26539   0.806   0.322   2.579 -0.4988 -0.0772 -0.1249
 5026SOL    HW126540   0.876   0.331   2.513 -0.1586 -2.4035 -0.0813
 5026SOL    HW226541   0.825   0.395   2.638  0.0306 -1.4139  1.3402
 5027SOL     OW26542   2.146   0.386   8.649 -0.0499 -0.5598 -0.5379
 5027SOL    HW126543   2.077   0.399   8.714  1.8284 -2.6218  1.8566
 5027SOL    HW226544   2.104   0.401   8.565 -0.9452  0.7736  0.1358
 5028SOL     OW26545   1.524   0.625   4.299  0.4715  0.0267 -0.2059
 5028SOL    HW126546   1.507   0.616   4.206  0.7353 -0.6514 -0.1880
 5028SOL    HW226547   1.492   0.713   4.323 -0.6230  0.0643 -1.8468
 5029SOL     OW26548   0.826   1.080  10.231  0.0231  0.0647  0.1730
 5029SOL    HW126549   0.797   1.094  10.141 -1.8906 -1.4581  0.5715
 5029SOL    HW226550   0.834   0.985  10.234  0.7247  0.1433  0.8002
 5030SOL     OW26551   4.090   4.394   1.223  0.4013 -0.0247 -0.4658
 5030SOL    HW126552   4.103   4.300   1.209 -1.9248 -0.5232  0.7793
 5030SOL    HW226553   4.075   4.432   1.136 -0.6569  0.7490  0.0628
 5031SOL     OW26554   2.699   4.546  15.392 -0.1725 -0.3959  0.5486
 5031SOL    HW126555   2.752   4.536  15.313  0.6382 -1.3233  1.2112
 5031SOL    HW226556   2.773   4.552  15.453  2.5032 -0.5748 -2.7050
 5032SOL     OW26557   1.179   4.508  17.396  0.2132 -0.4499 -0.2104
 5032SOL    HW126558   1.134   4.573  17.450  0.4391 -0.7549  0.3512
 5032SOL    HW226559   1.194   4.446  17.468  3.2769 -0.0972 -0.5485
 5033SOL     OW26560   2.281   4.462  16.618  1.0559 -0.5389 -0.3743
 5033SOL    HW126561   2.291   4.556  16.604  0.0480 -0.0324  2.3858
 5033SOL    HW226562   2.313   4.462  16.708  0.7515 -3.0447 -0.2570
 5034SOL     OW26563   2.447   4.310  15.974 -0.2026 -0.1288 -0.3066
 5034SOL    HW126564   2.435   4.318  15.879  1.6328  2.6483 -0.3024
 5034SOL    HW226565   2.402   4.386  16.009  0.5099 -0.1093  0.5682
 5035SOL     OW26566   1.397   4.620   8.663 -0.7832 -0.7654  0.1007
 5035SOL    HW126567   1.415   4.709   8.636  0.2618 -1.1659 -0.4899
 5035SOL    HW226568   1.369   4.635   8.754 -0.2279 -1.9342  0.4669
 5036SOL     OW26569   2.461   2.055   1.667  0.1358 -0.4513  0.0333
 5036SOL    HW126570   2.455   1.983   1.730  2.1312 -0.5419  0.0967
 5036SOL    HW226571   2.545   2.094   1.690 -0.4913  0.0063  1.5548
 5037SOL     OW26572   2.986   3.606  13.505  0.0101 -0.7172  0.0428
 5037SOL    HW126573   2.990   3.582  13.413  0.6398 -0.0005 -0.1253
 5037SOL    HW226574   3.045   3.549  13.553 -0.0973 -0.8622  0.0003
 5038SOL     OW26575   2.871   1.680  15.931 -0.1104 -0.2085 -0.4953
 5038SOL    HW126576   2.776   1.682  15.943  0.1177  2.1946  1.1099
 5038SOL    HW226577   2.891   1.712  16.019 -1.5506  0.8457 -0.5441
 5039SOL     OW26578   4.679   0.547   5.266  0.0445  0.5182 -0.4008
 5039SOL    HW126579   4.659   0.640   5.256 -2.3688  0.0518  0.2649
 5039SOL    HW226580   4.717   0.559   5.353  1.8230 -0.5769 -1.0136
 5040SOL     OW26581   3.483   1.908   7.525  0.3651 -0.3549 -0.6377
 5040SOL    HW126582   3.442   1.992   7.505 -0.5123 -0.4808  0.6298
 5040SOL    HW226583   3.543   1.893   7.452  0.9518  1.1296 -0.4757
 5041SOL     OW26584   1.697   4.360   6.535  0.8146 -0.6026 -0.0284
 5041SOL    HW126585   1.755   4.411   6.479 -0.8412 -0.4854 -1.6173
 5041SOL    HW226586   1.672   4.288   6.477 -1.7955 -1.6413  2.3843
 5042SOL     OW26587   2.068   3.204  15.090 -0.5047  0.0375 -0.2762
 5042SOL    HW126588   2.127   3.129  15.078 -2.5986 -1.6001 -0.3842
 5042SOL    HW226589   2.016   3.181  15.013  1.1904  0.8694 -1.6787
 5043SOL     OW26590   0.136   1.033   7.566  0.1856  0.4864  0.1207
 5043SOL    HW126591   0.160   1.068   7.652 -0.1550 -0.6267  0.6768
 5043SOL    HW226592   0.046   1.005   7.584  0.0687  1.5377  1.1884
 5044SOL     OW26593   0.160   1.707   9.790 -0.4654  0.7494  0.0242
 5044SOL    HW126594   0.212   1.768   9.738 -1.5907  0.7883 -1.0596
 5044SOL    HW226595   0.084   1.766   9.795 -0.5421  0.8147 -2.1332
 5045SOL     OW26596   3.108   0.925   6.651 -0.1902  0.3115 -0.2344
 5045SOL    HW126597   3.048   0.859   6.686 -0.1434  1.0466  1.2359
 5045SOL    HW226598   3.142   0.948   6.738  1.0696 -1.4223 -0.2492
 5046SOL     OW26599   2.072   4.690   6.425 -0.2216 -0.4854  0.1081
 5046SOL    HW126600   2.053   0.061   6.433 -0.7758 -0.7786  2.3549
 5046SOL    HW226601   2.085   4.667   6.517  0.2619  1.5287  0.5441
 5047SOL     OW26602   0.495   3.788   7.148 -0.5445  0.0432 -0.4582
 5047SOL    HW126603   0.404   3.816   7.160 -0.9441  0.7415 -4.9868
 5047SOL    HW226604   0.505   3.735   7.227 -2.5548 -0.8137 -0.7787
 5048SOL     OW26605   3.583   4.497   2.435 -0.5661  0.1634  0.0183
 5048SOL    HW126606   3.672   4.463   2.427 -0.5741  0.1355  0.0452
 5048SOL    HW226607   3.532   4.432   2.387 -2.1631  1.4141  0.0238
 5049SOL     OW26608   0.253   3.952  13.265 -0.2964 -0.5532 -0.5287
 5049SOL    HW126609   0.190   3.897  13.312 -0.2215 -0.5836 -0.4648
 5049SOL    HW226610   0.191   4.005  13.214 -1.2664 -1.3300 -0.1617
 5050SOL     OW26611   2.627   3.098   4.238  0.3254 -0.1196 -0.1089
 5050SOL    HW126612   2.567   3.146   4.182  2.2012  2.6461  0.2023
 5050SOL    HW226613   2.578   3.094   4.320  1.3482  2.7048  0.6569
 5051SOL     OW26614   3.237   0.847  16.386 -0.5772  0.0094 -0.2345
 5051SOL    HW126615   3.267   0.901  16.312  0.8364  1.8469  1.6847
 5051SOL    HW226616   3.291   0.769  16.377 -1.4992 -0.4394 -2.1140
 5052SOL     OW26617   1.269   3.272   2.556  0.1967  0.0990  0.0205
 5052SOL    HW126618   1.326   3.335   2.598 -1.1695  1.3448  0.0036
 5052SOL    HW226619   1.181   3.301   2.581 -0.2565  2.1598 -4.0231
 5053SOL     OW26620   3.393   0.461   4.813  0.2262  0.1056  0.3940
 5053SOL    HW126621   3.334   0.534   4.797  0.3068 -0.2961 -1.6836
 5053SOL    HW226622   3.384   0.450   4.908  1.7672  1.0045  0.6480
 5054SOL     OW26623   2.049   3.368   0.628 -0.5509  0.7212  0.5471
 5054SOL    HW126624   2.134   3.405   0.651 -0.2468 -0.4373  1.2891
 5054SOL    HW226625   1.996   3.406   0.698  0.0021 -0.0517  1.3938
 5055SOL     OW26626   2.190   3.908   7.791  0.1203  0.3801  0.4473
 5055SOL    HW126627   2.190   3.891   7.885  1.9722 -1.4692  0.1303
 5055SOL    HW226628   2.109   3.860   7.776  1.4296 -0.6139 -3.4263
 5056SOL     OW26629   2.284   2.389   6.170  0.4204  0.2110 -0.3153
 5056SOL    HW126630   2.313   2.411   6.258  1.2517  1.0381 -0.7955
 5056SOL    HW226631   2.290   2.476   6.130  0.8388 -0.0396 -0.8153
 5057SOL     OW26632   1.998   1.904  14.824  0.6863  0.0117 -0.2065
 5057SOL    HW126633   1.959   1.833  14.873 -1.5597  1.4138  0.0366
 5057SOL    HW226634   1.959   1.987  14.852  2.3206  1.9478 -3.5181
 5058SOL     OW26635   3.357   0.311  16.665  0.1415 -0.4985 -0.3564
 5058SOL    HW126636   3.397   0.274  16.743 -0.4181 -0.5491 -0.0943
 5058SOL    HW226637   3.343   0.403  16.688  2.7343 -0.5749  1.5100
 5059SOL     OW26638   4.464   0.948   4.244  0.3260 -0.2832 -0.3465
 5059SOL    HW126639   4.497   0.899   4.319  1.8835  2.5159  0.7821
 5059SOL    HW226640   4.523   1.023   4.252 -1.1769  1.0328 -1.7332
 5060SOL     OW26641   2.358   3.686   7.564 -0.1265 -0.3235  0.2673
 5060SOL    HW126642   2.356   3.671   7.658  1.7177  0.9325  0.5078
 5060SOL    HW226643   2.429   3.751   7.562 -0.2871 -0.2484 -2.7634
 5061SOL     OW26644   0.986   2.624   6.049 -0.2875  0.1249 -0.5589
 5061SOL    HW126645   1.080   2.635   6.061 -0.7293  1.3028  1.8310
 5061SOL    HW226646   0.954   2.600   6.136 -0.3502  0.2409 -0.5496
 5062SOL     OW26647   0.661   0.545  17.282 -0.9360  0.3634  0.3484
 5062SOL    HW126648   0.740   0.539  17.336 -0.9676  0.6359  0.4250
 5062SOL    HW226649   0.667   0.457  17.244 -0.5182  1.7226 -2.7139
 5063SOL     OW26650   1.861   4.266  15.497  0.2661  0.3085  0.4137
 5063SOL    HW126651   1.893   4.275  15.587 -0.5551  0.3517  0.6961
 5063SOL    HW226652   1.871   4.351  15.456 -1.1160 -0.7419 -2.0994
 5064SOL     OW26653   2.192   4.010   7.479 -0.1431 -0.2397  0.4382
 5064SOL    HW126654   2.258   4.078   7.465 -0.2544 -0.1214  0.4994
 5064SOL    HW226655   2.214   3.987   7.569 -1.6012  0.3623  0.9459
 5065SOL     OW26656   2.020   2.540   1.563  0.2686 -0.3742  0.5079
 5065SOL    HW126657   2.021   2.632   1.589  0.5051 -0.9959  2.7103
 5065SOL    HW226658   1.935   2.545   1.518  0.6444 -0.9544 -0.2643
 5066SOL     OW26659   3.270   0.711   3.479 -0.0238 -0.2872 -0.3696
 5066SOL    HW126660   3.199   0.693   3.417  0.6600  0.0684 -1.2691
 5066SOL    HW226661   3.228   0.755   3.552  2.0777  0.3081  0.4643
 5067SOL     OW26662   4.024   1.809   0.468 -0.1385 -0.0946  0.1493
 5067SOL    HW126663   4.106   1.821   0.420 -0.5223  0.3985 -0.3822
 5067SOL    HW226664   3.999   1.900   0.482 -0.9766 -0.0139 -1.8756
 5068SOL     OW26665   0.109   4.210  10.467  0.9567 -0.3938 -0.0169
 5068SOL    HW126666   0.146   4.123  10.454  0.4971 -0.3851 -1.4045
 5068SOL    HW226667   0.038   4.203  10.403  1.6793  0.6506 -0.9496
 5069SOL     OW26668   3.779   4.682  13.754  0.0126 -0.1476 -0.0519
 5069SOL    HW126669   3.729   0.040  13.762 -3.1619 -2.2712  1.2619
 5069SOL    HW226670   3.866   4.710  13.782  0.3001  0.6654 -1.7791
 5070SOL     OW26671   3.542   2.465   4.473 -0.0842  0.3645 -0.2312
 5070SOL    HW126672   3.457   2.420   4.477  0.2661 -0.1562  1.0697
 5070SOL    HW226673   3.517   2.546   4.428  2.1435  1.5145  0.6009
 5071SOL     OW26674   3.828   2.652   3.907 -0.0149 -0.0711  0.2960
 5071SOL    HW126675   3.741   2.675   3.941 -0.3187  0.3685 -0.7940
 5071SOL    HW226676   3.837   2.570   3.955  2.9949  0.8112  1.2065
 5072SOL     OW26677   4.155   2.519   7.814  0.3541 -0.7923 -0.1091
 5072SOL    HW126678   4.110   2.485   7.891 -1.7284  0.0941 -0.9316
 5072SOL    HW226679   4.226   2.455   7.812  0.0911 -1.1137  1.1051
 5073SOL     OW26680   3.019   0.437   4.230 -0.2722 -0.1604  0.5183
 5073SOL    HW126681   3.000   0.384   4.308 -1.1208  1.8358  1.6800
 5073SOL    HW226682   3.102   0.468   4.265  1.1296 -1.6920 -1.4937
 5074SOL     OW26683   4.235   0.095   9.385  0.0396  0.6050  0.1851
 5074SOL    HW126684   4.218   0.119   9.293  0.3755 -1.7129 -0.4973
 5074SOL    HW226685   4.159   0.138   9.424 -1.5499  1.0503 -3.3537
 5075SOL     OW26686   3.039   3.142   3.517  0.1978  0.3540 -0.2431
 5075SOL    HW126687   3.017   3.199   3.444 -0.0649  0.7331  0.1294
 5075SOL    HW226688   3.056   3.057   3.478 -1.4956  0.0800 -0.3629
 5076SOL     OW26689   0.878   4.680  10.192 -0.1917 -0.7494  0.6089
 5076SOL    HW126690   0.970   4.658  10.180  0.3321  1.3910  0.6325
 5076SOL    HW226691   0.835   4.636  10.119 -0.7856  2.7120 -1.1167
 5077SOL     OW26692   4.217   3.711   7.267  0.5862 -0.3086 -0.5184
 5077SOL    HW126693   4.214   3.722   7.362 -0.9043  0.8911 -0.6996
 5077SOL    HW226694   4.187   3.797   7.237 -1.2043  0.0100  2.1395
 5078SOL     OW26695   2.861   4.431   5.830  0.1505  0.1957 -0.1331
 5078SOL    HW126696   2.810   4.353   5.848  0.2162 -0.4228 -2.5540
 5078SOL    HW226697   2.948   4.401   5.857 -0.3767  0.1351  1.4585
 5079SOL     OW26698   3.066   0.596   3.006  0.4090  0.3209  0.3891
 5079SOL    HW126699   3.150   0.634   3.032 -0.6073  1.0802  2.5152
 5079SOL    HW226700   3.048   0.528   3.070  1.6668 -0.0448  0.3480
 5080SOL     OW26701   1.038   3.445  14.216  0.1182  0.3400  0.0832
 5080SOL    HW126702   0.968   3.509  14.204  0.7139  0.8543 -0.6435
 5080SOL    HW226703   1.110   3.487  14.169  0.8336 -0.8859  0.0846
 5081SOL     OW26704   1.862   4.302   4.292  0.4031 -0.3520  0.4184
 5081SOL    HW126705   1.921   4.300   4.217  1.2315  1.1456  1.0225
 5081SOL    HW226706   1.913   4.255   4.357  0.3153 -1.2444 -0.1551
 5082SOL     OW26707   0.254   0.329   0.536  0.4980 -0.0333  0.4194
 5082SOL    HW126708   0.244   0.367   0.448 -1.2528  1.9956  1.4949
 5082SOL    HW226709   0.265   0.405   0.593  2.2521  0.3921 -0.4744
 5083SOL     OW26710   1.547   1.608   2.749 -0.3404  0.2200 -0.0818
 5083SOL    HW126711   1.590   1.561   2.678 -0.8213  0.3508 -0.4576
 5083SOL    HW226712   1.461   1.616   2.708  0.0693  0.2740 -0.9265
 5084SOL     OW26713   0.962   4.658   8.501  0.0051 -0.1950  0.0282
 5084SOL    HW126714   0.974   4.711   8.580  1.4229 -1.6649  0.7972
 5084SOL    HW226715   1.044   4.678   8.456 -0.8226 -1.3894 -2.0374
 5085SOL     OW26716   0.550   4.531  12.036  0.1720  0.0386  0.4847
 5085SOL    HW126717   0.606   4.511  12.110 -0.0296 -2.3712 -0.0010
 5085SOL    HW226718   0.609   4.510  11.963  0.2718 -0.3537  0.6774
 5086SOL     OW26719   3.297   0.404   1.814  0.4246 -0.3739 -0.3774
 5086SOL    HW126720   3.259   0.335   1.868  0.2956  0.2368  0.3156
 5086SOL    HW226721   3.300   0.477   1.876 -1.4920  0.2948 -1.0516
 5087SOL     OW26722   1.902   1.966   4.069 -0.1834  0.4770  0.5501
 5087SOL    HW126723   1.966   1.954   3.999  0.0992  1.2163  0.6803
 5087SOL    HW226724   1.879   2.056   4.045  0.6131  0.3817 -0.5631
 5088SOL     OW26725   3.648   2.838   6.498  0.5107  0.1123  0.3886
 5088SOL    HW126726   3.561   2.829   6.458  0.5372  3.1896 -0.3707
 5088SOL    HW226727   3.671   2.930   6.483 -0.7343  0.6176  1.4691
 5089SOL     OW26728   3.745   2.067   7.406 -0.4152  0.5898 -0.3427
 5089SOL    HW126729   3.728   2.008   7.332  2.3283 -0.4930 -0.1352
 5089SOL    HW226730   3.838   2.087   7.390 -0.1492 -1.1931 -1.0293
 5090SOL     OW26731   2.437   0.991   3.747 -0.1463 -0.0033 -0.0949
 5090SOL    HW126732   2.468   0.904   3.773  0.3957 -0.2900 -1.6806
 5090SOL    HW226733   2.443   0.990   3.651  1.9626  0.5610  0.0236
 5091SOL     OW26734   2.878   0.531   3.618  0.7790  0.3810 -0.2486
 5091SOL    HW126735   2.829   0.448   3.614  0.1370  0.7410  0.2404
 5091SOL    HW226736   2.841   0.564   3.536  2.3381  1.3106 -0.5690
 5092SOL     OW26737   1.741   0.096   1.595 -0.4769  0.2618 -0.7913
 5092SOL    HW126738   1.652   0.089   1.561 -0.8117 -2.4593  0.6222
 5092SOL    HW226739   1.763   0.004   1.603  2.4500  1.1244  1.0895
 5093SOL     OW26740   1.844   1.578  13.377 -0.2291  0.4168 -0.6803
 5093SOL    HW126741   1.754   1.595  13.349 -0.2498  1.6654  0.1211
 5093SOL    HW226742   1.887   1.602  13.295  1.8010  2.7089  1.0465
 5094SOL     OW26743   3.512   0.160   5.728  0.1238 -0.5670  0.2380
 5094SOL    HW126744   3.479   0.236   5.776  0.7951 -0.8633  1.1467
 5094SOL    HW226745   3.431   0.146   5.679 -0.2974  0.5722  0.6029
 5095SOL     OW26746   2.921   1.115  15.473  0.4126 -0.4088  0.7769
 5095SOL    HW126747   2.862   1.047  15.439 -0.5100  1.6894 -1.7958
 5095SOL    HW226748   2.962   1.156  15.397 -0.7475 -2.1602 -0.8014
 5096SOL     OW26749   4.047   4.566   2.473  0.3740  0.3071 -0.1161
 5096SOL    HW126750   4.104   4.508   2.523  2.8575  3.1647  0.3376
 5096SOL    HW226751   4.042   4.643   2.530  0.1057  1.3238 -1.5024
 5097SOL     OW26752   0.280   3.636   6.875 -0.1920  0.5715 -0.3119
 5097SOL    HW126753   0.197   3.682   6.893 -2.4966 -2.6089 -2.9337
 5097SOL    HW226754   0.241   3.574   6.814  0.2628 -0.7616  0.7724
 5098SOL     OW26755   2.296   0.751  10.143 -0.1819 -0.7131  0.2246
 5098SOL    HW126756   2.236   0.820  10.174 -2.6624 -2.6096 -0.3156
 5098SOL    HW226757   2.378   0.778  10.184 -0.6159  1.2587 -0.1783
 5099SOL     OW26758   1.705   2.313   9.343 -0.2652 -0.0866  0.3549
 5099SOL    HW126759   1.755   2.384   9.303  0.1389 -1.3428 -1.3528
 5099SOL    HW226760   1.728   2.335   9.434  0.1908  0.8492  0.0129
 5100SOL     OW26761   3.811   2.786   3.050  0.3792 -0.2263  0.7622
 5100SOL    HW126762   3.777   2.719   3.110 -0.9092 -1.1615 -1.0122
 5100SOL    HW226763   3.870   2.735   2.994  1.4455  2.1099 -0.2426
 5101SOL     OW26764   2.503   1.102   5.704 -0.1133 -0.1629 -0.1770
 5101SOL    HW126765   2.463   1.038   5.764  0.9963 -0.1144  0.6139
 5101SOL    HW226766   2.488   1.044   5.630  1.1301 -0.0223 -0.5262
 5102SOL     OW26767   0.320   0.396   5.308 -0.1853  0.0904 -0.5718
 5102SOL    HW126768   0.342   0.477   5.354 -1.4200 -0.4923  1.0466
 5102SOL    HW226769   0.405   0.354   5.296 -0.6111 -1.7190  2.7821
 5103SOL     OW26770   3.513   4.056   0.544  0.5053 -0.0345 -0.2753
 5103SOL    HW126771   3.528   3.976   0.595 -0.2303  0.1853  0.2888
 5103SOL    HW226772   3.574   4.034   0.474  4.5188  1.5315  2.7145
 5104SOL     OW26773   0.710   3.454  13.386 -0.4761 -0.0413  0.2733
 5104SOL    HW126774   0.805   3.457  13.381 -0.6675  2.4944 -1.6797
 5104SOL    HW226775   0.686   3.424  13.299  3.5181 -1.0448 -0.4913
 5105SOL     OW26776   3.316   1.576   6.323  0.3471  0.7655 -0.0768
 5105SOL    HW126777   3.305   1.657   6.374  0.0701 -0.2317  1.4525
 5105SOL    HW226778   3.224   1.553   6.315  0.2038  1.2144  0.2829
 5106SOL     OW26779   3.760   3.717   8.571 -1.1208 -0.8824 -0.7364
 5106SOL    HW126780   3.753   3.660   8.648 -0.8497  0.2317  0.1289
 5106SOL    HW226781   3.729   3.799   8.612  1.2312 -0.1253 -0.4487
 5107SOL     OW26782   2.829   2.406   6.354  0.1189  0.3446 -1.1107
 5107SOL    HW126783   2.898   2.381   6.293  0.0286 -2.4908 -0.0788
 5107SOL    HW226784   2.794   2.320   6.379 -1.0589  0.5570 -2.0773
 5108SOL     OW26785   4.454   1.564   5.849  0.2693  0.2171  0.0718
 5108SOL    HW126786   4.457   1.476   5.886  3.7848  0.0620 -0.5523
 5108SOL    HW226787   4.543   1.561   5.812 -0.1667  1.9938 -1.0841
 5109SOL     OW26788   0.787   4.417   3.704 -0.4665 -0.1774  0.3766
 5109SOL    HW126789   0.713   4.474   3.684 -0.3941 -0.6160 -1.1054
 5109SOL    HW226790   0.771   4.406   3.798 -0.6883  1.5114  0.5468
 5110SOL     OW26791   3.735   1.347   8.424 -0.4259  0.7689 -0.4972
 5110SOL    HW126792   3.762   1.256   8.413 -2.7307 -0.1191  1.0989
 5110SOL    HW226793   3.660   1.327   8.481  0.8919 -2.1931  0.1833
 5111SOL     OW26794   3.403   3.678  10.612 -0.2343 -0.2230  0.2292
 5111SOL    HW126795   3.323   3.649  10.569  0.9246 -1.5336 -1.0394
 5111SOL    HW226796   3.370   3.759  10.652  2.0670  0.9613 -0.2415
 5112SOL     OW26797   1.363   4.061  13.648 -0.7775 -0.2722 -0.3944
 5112SOL    HW126798   1.378   4.155  13.640 -2.1387  0.0697  1.0494
 5112SOL    HW226799   1.321   4.058  13.734 -1.6559  0.2208 -0.8087
 5113SOL     OW26800   1.736   3.994   6.520  0.5454  0.0416  0.0542
 5113SOL    HW126801   1.809   4.001   6.581  0.6606  0.8990 -0.1866
 5113SOL    HW226802   1.780   4.015   6.438 -0.9797  3.3006  0.0467
 5114SOL     OW26803   3.321   4.685  12.348  0.1744  0.2842 -0.0689
 5114SOL    HW126804   3.304   4.683  12.442  2.1121  2.0054  0.3325
 5114SOL    HW226805   3.292   4.601  12.314  1.0101  0.9731 -2.4617
 5115SOL     OW26806   0.065   3.102   4.203 -0.0899 -0.4475 -0.4530
 5115SOL    HW126807   0.065   3.138   4.292  0.1978 -0.3390 -0.4950
 5115SOL    HW226808   0.018   3.020   4.221  1.0961 -1.0544 -0.0995
 5116SOL     OW26809   3.479   3.751   1.818 -1.0503  0.3773  0.4517
 5116SOL    HW126810   3.392   3.713   1.806 -1.2222  0.3369  1.8004
 5116SOL    HW226811   3.509   3.691   1.886 -2.5088  0.9765  1.6386
 5117SOL     OW26812   0.444   0.114   4.447  0.5510  0.2332 -0.5608
 5117SOL    HW126813   0.379   0.127   4.378  0.2043 -1.3637 -0.5398
 5117SOL    HW226814   0.415   0.173   4.516  0.5818 -0.3835 -0.0298
 5118SOL     OW26815   2.791   1.946  16.040 -0.7349  0.3048 -0.3356
 5118SOL    HW126816   2.723   1.887  16.007 -1.3072  0.7478  0.0436
 5118SOL    HW226817   2.824   1.880  16.102  0.3316 -1.3161 -2.6189
 5119SOL     OW26818   1.351   0.325   3.913  0.0310  0.5992  0.7281
 5119SOL    HW126819   1.289   0.256   3.934  1.3311 -1.0332 -0.7359
 5119SOL    HW226820   1.349   0.339   3.818  1.8393 -0.6880  0.4966
 5120SOL     OW26821   2.968   2.860   8.058  0.1730  0.0029  0.0598
 5120SOL    HW126822   2.996   2.768   8.060 -1.4923 -0.5195 -0.7744
 5120SOL    HW226823   3.012   2.887   8.139 -0.2783 -0.4948  0.4703
 5121SOL     OW26824   4.672   0.765   9.088  0.4230 -0.5936  0.1644
 5121SOL    HW126825   4.651   0.760   9.181 -0.8387 -1.1042 -0.1441
 5121SOL    HW226826   4.604   0.707   9.056 -1.8508  0.9930  2.1449
 5122SOL     OW26827   3.194   2.825   7.000  0.0668  0.0316  0.5232
 5122SOL    HW126828   3.221   2.914   7.024  2.7437 -0.6160 -0.0609
 5122SOL    HW226829   3.100   2.838   6.990 -0.3138 -1.9739  1.6871
 5123SOL     OW26830   0.315   1.408   9.042 -0.2095  0.4835 -0.0840
 5123SOL    HW126831   0.268   1.476   9.091 -1.1343  0.3951 -0.8456
 5123SOL    HW226832   0.240   1.386   8.986 -0.6592 -0.0453  0.7218
 5124SOL     OW26833   4.619   0.854   5.204 -0.3141  0.1134 -0.0967
 5124SOL    HW126834   4.526   0.834   5.189 -0.1393 -1.2197  0.6356
 5124SOL    HW226835   4.621   0.926   5.141 -2.2840 -0.0751 -0.3837
 5125SOL     OW26836   0.110   4.292  14.594  0.0954  0.2608  0.2348
 5125SOL    HW126837   0.196   4.334  14.590  0.3558  0.0031  3.2762
 5125SOL    HW226838   0.132   4.204  14.565  0.0547 -0.2683  1.7945
 5126SOL     OW26839   3.370   1.887  10.515 -0.3765 -0.7442  0.6608
 5126SOL    HW126840   3.436   1.952  10.538 -1.0342  0.6342 -1.3001
 5126SOL    HW226841   3.291   1.928  10.550 -0.2104  0.5781 -0.5162
 5127SOL     OW26842   3.413   2.131   3.557 -0.0441 -0.7626 -0.2546
 5127SOL    HW126843   3.334   2.078   3.572 -0.4556  0.3777  1.5460
 5127SOL    HW226844   3.446   2.095   3.474  3.1396  2.3301 -0.3145
 5128SOL     OW26845   1.310   1.617   6.110 -0.1585 -0.2749 -0.0318
 5128SOL    HW126846   1.236   1.625   6.170  0.1501  1.7760  0.0822
 5128SOL    HW226847   1.372   1.576   6.170 -0.8154 -0.4005  0.5552
 5129SOL     OW26848   0.771   2.068   5.913  0.2790 -0.3549 -0.2572
 5129SOL    HW126849   0.844   2.121   5.881  0.5648 -1.0987 -0.8551
 5129SOL    HW226850   0.698   2.107   5.865  0.9554  0.3413 -0.7290
 5130SOL     OW26851   0.103   0.994   3.369  0.3376  0.1834 -0.2814
 5130SOL    HW126852   0.041   1.044   3.422  0.5888 -0.1393  0.3115
 5130SOL    HW226853   0.119   1.059   3.301  1.0593  0.9052  0.5936
 5131SOL     OW26854   3.664   0.872   4.653  0.1906  0.3471 -0.5120
 5131SOL    HW126855   3.628   0.943   4.599  0.5923  2.0372  1.4220
 5131SOL    HW226856   3.638   0.800   4.597 -0.2096  0.5347 -0.5642
 5132SOL     OW26857   1.673   3.066   4.514  0.0743  0.3759  0.2043
 5132SOL    HW126858   1.643   3.132   4.576 -0.3252  1.0849 -0.7484
 5132SOL    HW226859   1.768   3.076   4.515  0.1903 -0.7292  0.8306
 5133SOL     OW26860   4.093   3.787  16.527 -0.1071 -0.6188  0.0014
 5133SOL    HW126861   4.100   3.725  16.454  0.2360 -0.2572 -0.2732
 5133SOL    HW226862   4.006   3.820  16.506 -0.6491 -2.4416 -0.6711
 5134SOL     OW26863   4.273   3.416   9.475  0.0537 -0.0368 -0.0148
 5134SOL    HW126864   4.224   3.392   9.554 -0.3085  1.7113  0.2702
 5134SOL    HW226865   4.325   3.337   9.457 -0.5242 -0.2493 -0.7547
 5135SOL     OW26866   0.021   4.278   9.079 -0.6068 -0.1142 -0.0564
 5135SOL    HW126867   0.010   4.363   9.123 -1.1562  0.6305 -1.6529
 5135SOL    HW226868   4.654   4.257   9.053 -0.7998  1.7273 -0.8795
 5136SOL     OW26869   2.515   2.470   3.409 -0.3027  0.4337 -0.4463
 5136SOL    HW126870   2.427   2.503   3.421 -1.3723 -2.4854 -0.1637
 5136SOL    HW226871   2.572   2.547   3.404 -0.1122  0.3467  0.4579
 5137SOL     OW26872   3.419   2.620   3.329  0.4302 -0.3392  0.2706
 5137SOL    HW126873   3.438   2.593   3.239  0.0538  0.8736 -0.1693
 5137SOL    HW226874   3.438   2.537   3.374 -1.1045 -2.1628 -2.4883
 5138SOL     OW26875   0.526   3.253   3.113  0.7399 -0.8272 -0.2244
 5138SOL    HW126876   0.479   3.284   3.036  1.4484 -0.0711 -0.3551
 5138SOL    HW226877   0.551   3.337   3.152 -1.2176 -0.2733 -0.2048
 5139SOL     OW26878   4.064   1.415  10.049  1.2741 -0.1800  0.5588
 5139SOL    HW126879   4.043   1.322  10.051  1.6975 -0.3374 -2.0440
 5139SOL    HW226880   4.036   1.443  10.136 -1.6484 -2.1685  0.2402
 5140SOL     OW26881   2.185   1.916  10.013  0.3878  0.1698  0.1011
 5140SOL    HW126882   2.221   1.829   9.996  3.1312  1.4890 -0.8226
 5140SOL    HW226883   2.187   1.914  10.109 -0.6963 -1.8226  0.0920
 5141SOL     OW26884   1.941   4.015  16.729  0.0178 -0.0553  0.8260
 5141SOL    HW126885   1.960   3.923  16.747  3.0793  0.5673  0.6558
 5141SOL    HW226886   2.030   4.046  16.716 -1.0528  1.0879 -3.7569
 5142SOL     OW26887   3.831   3.734  16.635 -0.1732 -0.4087 -0.1051
 5142SOL    HW126888   3.882   3.657  16.662  0.4875  0.4558  1.0770
 5142SOL    HW226889   3.850   3.720  16.542 -0.5229  1.6729 -0.4726
 5143SOL     OW26890   3.397   1.527   5.333 -0.5219  0.5384 -0.1549
 5143SOL    HW126891   3.400   1.616   5.368 -0.8424  0.6465 -0.4053
 5143SOL    HW226892   3.312   1.523   5.289 -0.8254  2.7310  0.2307
 5144SOL     OW26893   2.480   4.563   8.434  0.3339 -0.2034  0.2327
 5144SOL    HW126894   2.452   4.487   8.484  0.5064 -0.4366 -0.0298
 5144SOL    HW226895   2.575   4.553   8.431  0.3799  0.8430 -2.1176
 5145SOL     OW26896   0.193   2.007   4.372  0.0367  0.2921 -0.2743
 5145SOL    HW126897   0.263   2.012   4.437 -0.9406 -0.4805  0.8317
 5145SOL    HW226898   0.253   2.026   4.300  0.1953 -1.0735 -0.5008
 5146SOL     OW26899   3.024   0.221  10.465  0.3009  0.0109 -0.0419
 5146SOL    HW126900   2.935   0.251  10.445  0.1968 -0.0215  0.3713
 5146SOL    HW226901   3.057   0.298  10.510  1.5923  1.0901 -2.8075
 5147SOL     OW26902   3.637   3.229  15.796 -0.0831 -0.9494 -0.0502
 5147SOL    HW126903   3.631   3.249  15.703  1.3960  3.7029  0.8666
 5147SOL    HW226904   3.657   3.136  15.801 -3.2770 -1.5657  1.3565
 5148SOL     OW26905   4.705   2.543   2.238 -0.2684  0.3645 -0.4468
 5148SOL    HW126906   4.623   2.494   2.227 -0.2596  0.4603 -0.9326
 5148SOL    HW226907   0.043   2.498   2.178 -2.2564 -0.4757 -1.8510
 5149SOL     OW26908   0.871   3.621   2.137  0.3844 -0.1879  0.3159
 5149SOL    HW126909   0.789   3.582   2.106 -0.3680  0.5553  1.4021
 5149SOL    HW226910   0.852   3.649   2.226 -2.5350  1.5080 -0.8731
 5150SOL     OW26911   3.708   1.352  15.287 -0.3977 -0.4100  0.0309
 5150SOL    HW126912   3.682   1.363  15.196  0.4479  0.6916 -0.0750
 5150SOL    HW226913   3.696   1.258  15.304 -1.1998 -0.6081 -1.6221
 5151SOL     OW26914   3.077   0.366  17.200 -0.1635  0.1789 -0.0304
 5151SOL    HW126915   3.069   0.335  17.110 -0.6003 -2.5156  0.9474
 5151SOL    HW226916   3.114   0.283  17.228 -1.1180 -0.7252 -1.4320
 5152SOL     OW26917   2.814   3.452   8.629 -0.0937  0.1509 -0.2096
 5152SOL    HW126918   2.722   3.479   8.637 -0.4034 -0.9354 -0.0560
 5152SOL    HW226919   2.819   3.392   8.704  0.6932 -0.3697 -0.6750
 5153SOL     OW26920   1.867   1.216   0.720  0.0795 -0.0377 -0.7570
 5153SOL    HW126921   1.818   1.247   0.797 -0.9992 -1.2246 -0.9635
 5153SOL    HW226922   1.825   1.133   0.697  1.9861 -1.3785  0.5134
 5154SOL     OW26923   0.011   1.849   3.038  0.1095  0.2170 -0.0152
 5154SOL    HW126924   0.105   1.851   3.022 -0.2285 -0.9584 -2.1014
 5154SOL    HW226925   0.006   1.922   3.099 -3.1921  0.2701 -0.3392
 5155SOL     OW26926   1.616   2.100  10.375 -0.0504  1.2081  0.1206
 5155SOL    HW126927   1.603   2.182  10.421  1.0826  1.8683 -0.7335
 5155SOL    HW226928   1.537   2.056  10.405  1.0791 -2.1572 -1.7869
 5156SOL     OW26929   2.481   2.318   5.444 -0.3626  0.2361 -0.0052
 5156SOL    HW126930   2.411   2.254   5.451 -0.0095 -0.2317 -0.7915
 5156SOL    HW226931   2.451   2.381   5.378  1.9957 -0.3921 -1.6911
 5157SOL     OW26932   1.716   1.406   5.980 -0.0879 -0.5014  0.1168
 5157SOL    HW126933   1.685   1.463   5.909 -0.7092 -0.0519  0.7527
 5157SOL    HW226934   1.628   1.392   6.015 -0.8308  0.5795 -1.2854
 5158SOL     OW26935   1.981   3.095   9.705  0.0360 -0.2579  0.4341
 5158SOL    HW126936   1.995   3.131   9.792 -0.0024 -0.9318  0.7229
 5158SOL    HW226937   1.923   3.156   9.660  1.9952  1.0345 -0.3019
 5159SOL     OW26938   0.873   0.827  17.188 -0.0091  0.0364 -0.1169
 5159SOL    HW126939   0.788   0.855  17.223 -0.0817 -0.7212  0.3138
 5159SOL    HW226940   0.930   0.826  17.265 -0.6915  1.1299  0.4098
 5160SOL     OW26941   0.004   4.055   2.087 -0.1440  0.3100 -0.1532
 5160SOL    HW126942   0.010   4.082   2.179 -0.3063  0.4808 -0.1941
 5160SOL    HW226943   0.019   4.140   2.047 -2.0394  0.7634  0.0741
 5161SOL     OW26944   2.879   3.547  11.778 -0.1016 -0.0159 -0.3540
 5161SOL    HW126945   2.909   3.533  11.688  0.5047 -2.1576  0.1918
 5161SOL    HW226946   2.969   3.551  11.810 -0.2369  1.7395 -0.1578
 5162SOL     OW26947   2.931   3.024   3.745  0.2117 -0.1670 -0.1714
 5162SOL    HW126948   2.847   3.034   3.701  0.3438  2.3678  0.1655
 5162SOL    HW226949   2.978   3.090   3.694 -0.9205  1.2125  0.5897
 5163SOL     OW26950   4.505   4.170   5.037  0.8957  0.2170  0.0665
 5163SOL    HW126951   4.529   4.251   5.083 -1.1130 -0.1764  1.8019
 5163SOL    HW226952   4.475   4.125   5.115 -1.2336 -0.5336 -1.2053
 5164SOL     OW26953   1.295   0.844   3.705  0.0711 -0.0002  0.4516
 5164SOL    HW126954   1.247   0.807   3.630 -0.7868 -0.3578  1.1707
 5164SOL    HW226955   1.385   0.859   3.676  0.0438 -0.8987 -0.1299
 5165SOL     OW26956   0.461   2.084   3.169 -0.2292  0.4398 -0.4690
 5165SOL    HW126957   0.556   2.077   3.158 -0.3259  0.7809 -1.5336
 5165SOL    HW226958   0.451   2.130   3.252  0.5615  2.0068 -1.2571
 5166SOL     OW26959   2.111   4.496  13.348 -0.2794 -0.1786 -0.1216
 5166SOL    HW126960   2.076   4.520  13.434 -0.0501  2.0674 -0.6680
 5166SOL    HW226961   2.130   4.404  13.366 -0.0164  0.0978  0.9952
 5167SOL     OW26962   0.287   0.389   5.690 -0.1191 -0.2313 -0.6790
 5167SOL    HW126963   0.294   0.342   5.607 -1.4683 -1.2123 -0.2257
 5167SOL    HW226964   0.362   0.348   5.735 -0.8130 -0.3388  0.3951
 5168SOL     OW26965   3.687   0.282  15.057 -0.2353  0.5877 -0.1591
 5168SOL    HW126966   3.606   0.327  15.032  0.2287  0.4490 -1.8837
 5168SOL    HW226967   3.681   0.290  15.152  0.8031  1.9981 -0.2097
 5169SOL     OW26968   1.776   4.689   4.781 -0.8088  0.0691  0.0397
 5169SOL    HW126969   1.762   4.627   4.853  1.8714 -0.0835  0.4261
 5169SOL    HW226970   1.810   0.036   4.837  0.5487 -0.8683  0.3831
 5170SOL     OW26971   1.866   3.720   2.534 -0.5306 -0.1641 -0.3708
 5170SOL    HW126972   1.809   3.789   2.571 -0.4057 -0.0242 -0.4384
 5170SOL    HW226973   1.891   3.676   2.616  0.2166  1.3741  0.2366
 5171SOL     OW26974   0.789   4.351  10.543 -0.6420  0.3100  0.0178
 5171SOL    HW126975   0.859   4.359  10.477 -0.8376  0.7939 -0.1328
 5171SOL    HW226976   0.851   4.367  10.614  2.0871 -0.6767 -2.1338
 5172SOL     OW26977   3.014   4.005   3.945 -0.2206  0.3598 -0.2186
 5172SOL    HW126978   3.062   4.064   3.887 -1.3130  0.7874 -0.6710
 5172SOL    HW226979   2.974   3.953   3.875  0.5236  0.4357 -0.7083
 5173SOL     OW26980   1.290   4.145  10.902 -0.6405  0.4193 -0.5231
 5173SOL    HW126981   1.338   4.066  10.923 -1.9717 -0.4868 -0.8886
 5173SOL    HW226982   1.306   4.207  10.974 -0.7929  0.3919 -0.4656
 5174SOL     OW26983   4.154   0.540   7.326 -0.5706  0.0958 -0.3561
 5174SOL    HW126984   4.078   0.486   7.350 -1.5571  1.9465  0.6623
 5174SOL    HW226985   4.176   0.579   7.411 -1.2546 -1.2035  0.4350
 5175SOL     OW26986   3.525   3.572  17.057  0.0936 -0.3001  0.2492
 5175SOL    HW126987   3.573   3.654  17.068  1.9483 -1.1477 -1.5934
 5175SOL    HW226988   3.452   3.579  17.119 -0.7037  1.0384 -0.8422
 5176SOL     OW26989   3.518   1.656  17.234  0.0768  0.0116 -0.8999
 5176SOL    HW126990   3.588   1.591  17.236  1.1635  1.2195  0.6370
 5176SOL    HW226991   3.505   1.666  17.139  0.3260  0.3799 -0.8969
 5177SOL     OW26992   4.598   4.279  15.335  0.0156  0.2915  0.1832
 5177SOL    HW126993   4.537   4.281  15.261  0.4526  0.9732 -0.1595
 5177SOL    HW226994   4.675   4.230  15.304  0.4616  2.2229 -1.8034
 5178SOL     OW26995   0.493   0.170   0.580  0.0890 -0.2599 -0.0597
 5178SOL    HW126996   0.422   0.138   0.636  1.4924  1.6708  2.8111
 5178SOL    HW226997   0.451   0.250   0.551  1.5045 -0.1549 -1.8636
 5179SOL     OW26998   3.058   2.676  14.515  0.2961 -0.2521 -0.2904
 5179SOL    HW126999   2.965   2.678  14.536  0.7937 -1.8975  2.0691
 5179SOL    HW227000   3.073   2.769  14.500 -1.1219 -0.0013 -0.1150
 5180SOL     OW27001   2.720   0.100  10.455 -0.2222 -0.2640 -0.1723
 5180SOL    HW127002   2.690   0.157  10.526  1.1836 -0.1045  0.2868
 5180SOL    HW227003   2.745   0.021  10.503 -0.5177  0.7621  1.6600
 5181SOL     OW27004   3.849   1.662   3.561  0.1665  0.1835 -0.5022
 5181SOL    HW127005   3.780   1.596   3.547  0.4209 -0.5856  1.9265
 5181SOL    HW227006   3.872   1.681   3.470  0.4275 -1.8916 -0.8843
 5182SOL     OW27007   1.249   0.812   4.830  0.1309 -0.2671 -0.0850
 5182SOL    HW127008   1.281   0.841   4.916  1.4080  2.8973 -1.6399
 5182SOL    HW227009   1.164   0.855   4.826 -0.2174 -1.0359 -0.8397
 5183SOL     OW27010   2.816   2.369   2.869 -0.2270  0.2009 -0.2419
 5183SOL    HW127011   2.739   2.401   2.914 -1.5997 -2.1070 -0.9566
 5183SOL    HW227012   2.782   2.303   2.808 -0.1150  0.4371 -0.5643
 5184SOL     OW27013   3.181   3.625   5.641 -0.1106 -0.1996  0.3400
 5184SOL    HW127014   3.243   3.631   5.568  0.1807  2.3113  0.8014
 5184SOL    HW227015   3.237   3.639   5.718 -1.3491 -2.4574  1.6307
 5185SOL     OW27016   1.562   3.946  10.350  0.4479 -0.2412  0.4075
 5185SOL    HW127017   1.657   3.936  10.350  0.2339 -2.1697  0.5023
 5185SOL    HW227018   1.548   3.957  10.444 -0.1911  0.0470  0.2792
 5186SOL     OW27019   1.698   1.458   1.340 -0.1319  0.6832 -0.1805
 5186SOL    HW127020   1.654   1.543   1.341  2.3847  2.0163 -1.0359
 5186SOL    HW227021   1.697   1.432   1.432 -2.0438  1.0229 -0.1195
 5187SOL     OW27022   2.264   4.703  15.920  0.0191 -0.0446  0.5909
 5187SOL    HW127023   2.275   4.653  15.839  2.1989  1.4867 -0.0824
 5187SOL    HW227024   2.315   4.654  15.985 -0.4724  0.0254  1.0284
 5188SOL     OW27025   1.883   0.109  14.520 -0.8293  0.3833 -0.3229
 5188SOL    HW127026   1.946   0.094  14.590 -1.4861 -0.3537  0.1146
 5188SOL    HW227027   1.913   0.184  14.469  4.6619 -2.3794 -1.1947
 5189SOL     OW27028   2.578   4.433  11.971  0.1847 -0.1508 -0.0514
 5189SOL    HW127029   2.514   4.371  11.936  0.2677 -0.3255  0.1066
 5189SOL    HW227030   2.532   4.516  11.987  1.6332  0.8553 -1.1368
 5190SOL     OW27031   3.397   1.403  13.766 -0.3015 -0.6062  0.0667
 5190SOL    HW127032   3.403   1.498  13.757  0.3433 -0.5319  1.3203
 5190SOL    HW227033   3.460   1.380  13.698 -1.7340  0.7172 -1.7203
 5191SOL     OW27034   0.380   2.411   6.616 -1.0030 -0.2824 -0.0719
 5191SOL    HW127035   0.426   2.422   6.533  0.1560 -1.0739  0.4654
 5191SOL    HW227036   0.381   2.501   6.647  0.3937 -1.1693  2.4274
 5192SOL     OW27037   1.074   3.006   1.791 -0.1935  0.3348 -0.1392
 5192SOL    HW127038   1.147   3.005   1.853  1.9818 -0.3788 -2.7470
 5192SOL    HW227039   1.032   2.922   1.812 -0.0909 -0.0450 -1.4543
 5193SOL     OW27040   3.772   0.999   1.302 -0.0595 -0.6735 -0.3035
 5193SOL    HW127041   3.766   0.904   1.296 -1.9636 -0.6050  0.4383
 5193SOL    HW227042   3.839   1.003   1.370  0.0685 -0.9781 -0.4099
 5194SOL     OW27043   4.050   1.043   7.140 -0.2327 -0.6080  0.3219
 5194SOL    HW127044   4.022   0.952   7.140 -3.8202  0.4793 -0.5526
 5194SOL    HW227045   4.008   1.075   7.220 -0.0639 -0.0579  0.1909
 5195SOL     OW27046   1.519   1.229   3.337  0.0349  0.2151  0.4914
 5195SOL    HW127047   1.504   1.183   3.420  0.3857  0.6178  0.7773
 5195SOL    HW227048   1.613   1.240   3.349  0.1428 -0.0223 -0.1952
 5196SOL     OW27049   2.744   4.256   9.629  0.0869  0.1498 -0.5449
 5196SOL    HW127050   2.813   4.257   9.695 -0.3537 -3.8766 -0.0420
 5196SOL    HW227051   2.685   4.191   9.667  1.0797 -1.2558 -1.4280
 5197SOL     OW27052   4.200   1.576   6.683  0.1907  0.1240  0.0200
 5197SOL    HW127053   4.286   1.618   6.693 -1.1071  2.0267  3.0812
 5197SOL    HW227054   4.145   1.603   6.756 -2.3598  0.6215 -2.0956
 5198SOL     OW27055   4.410   3.418   6.200  0.1271  0.1517  0.0461
 5198SOL    HW127056   4.455   3.336   6.181  0.7033  0.3827  0.4102
 5198SOL    HW227057   4.369   3.407   6.286 -0.5928  1.2872 -0.1406
 5199SOL     OW27058   2.899   0.557   6.725 -0.1420 -0.0354  0.2962
 5199SOL    HW127059   2.982   0.511   6.707  0.1482  0.3654  0.6047
 5199SOL    HW227060   2.841   0.485   6.700 -0.5428 -0.0035  1.1444
 5200SOL     OW27061   0.722   1.359   0.716 -0.0673 -0.0789  0.1247
 5200SOL    HW127062   0.804   1.381   0.759  1.3367 -1.2038 -1.9555
 5200SOL    HW227063   0.745   1.311   0.636 -2.6227 -1.2112  0.0712
 5201SOL     OW27064   3.725   4.275   8.028 -0.1009  0.2758 -0.1424
 5201SOL    HW127065   3.789   4.320   8.083  0.9215  0.6890 -1.6630
 5201SOL    HW227066   3.780   4.254   7.952 -0.9628 -1.2729 -0.3529
 5202SOL     OW27067   2.982   1.992   5.714 -0.1963 -0.6057  0.2879
 5202SOL    HW127068   3.023   2.059   5.658 -1.8312  0.2676  0.1221
 5202SOL    HW227069   2.893   2.002   5.679  1.1767  0.4880 -2.9064
 5203SOL     OW27070   1.914   4.321   7.668 -0.2689 -0.7665 -0.5638
 5203SOL    HW127071   1.844   4.371   7.710  0.5792 -0.2488  0.2442
 5203SOL    HW227072   1.866   4.248   7.628 -0.4271 -0.8319 -0.2564
 5204SOL     OW27073   4.350   4.054  10.517  0.3035 -0.0679  0.2265
 5204SOL    HW127074   4.434   4.076  10.556  0.4182 -0.1343  0.0171
 5204SOL    HW227075   4.372   3.962  10.500 -1.0705 -0.5582  1.0600
 5205SOL     OW27076   0.612   2.303  13.647 -0.2501 -0.2716 -0.1401
 5205SOL    HW127077   0.551   2.268  13.582 -0.3146 -4.5213  2.2511
 5205SOL    HW227078   0.560   2.369  13.693 -1.3417 -0.6638 -0.7820
 5206SOL     OW27079   2.899   3.179   8.248  0.3837  0.3128 -0.0128
 5206SOL    HW127080   2.918   3.086   8.260 -0.2013 -0.0209 -1.7124
 5206SOL    HW227081   2.918   3.219   8.333  0.3919  0.5157 -0.1091
 5207SOL     OW27082   0.218   0.451   1.640  0.2786 -0.1752  0.2801
 5207SOL    HW127083   0.153   0.385   1.666 -1.4222  1.0192 -0.9434
 5207SOL    HW227084   0.298   0.398   1.638  0.7039  0.5068 -0.7162
 5208SOL     OW27085   2.855   2.005   9.821  0.8304 -0.2577  0.6658
 5208SOL    HW127086   2.926   1.943   9.835  0.9890 -0.0760  0.6769
 5208SOL    HW227087   2.792   1.961   9.763  1.7547 -0.3504 -0.2668
 5209SOL     OW27088   2.275   1.945   9.135  0.4563 -0.5105 -0.2719
 5209SOL    HW127089   2.244   2.025   9.091  0.8553 -0.4265 -0.4106
 5209SOL    HW227090   2.214   1.945   9.208  2.6953  0.5776  1.6033
 5210SOL     OW27091   0.124   4.056   2.672  0.5734 -0.4495  0.2314
 5210SOL    HW127092   0.120   4.136   2.620 -2.9172 -1.0412 -0.4498
 5210SOL    HW227093   0.208   4.016   2.650  0.7610 -0.1807  0.4574
 5211SOL     OW27094   4.696   2.480   7.951  0.3646 -0.0080 -0.4727
 5211SOL    HW127095   0.023   2.415   8.001  0.2703  0.8662  0.7615
 5211SOL    HW227096   0.000   2.561   7.995  0.4501 -1.2256  1.6990
 5212SOL     OW27097   3.290   1.585   4.794  0.0325  0.1290  0.3118
 5212SOL    HW127098   3.356   1.516   4.793  1.8704  1.9127 -0.9995
 5212SOL    HW227099   3.212   1.537   4.823  0.1355 -0.4298 -0.3428
 5213SOL     OW27100   3.794   1.111   3.465  0.2889 -0.2930 -0.1445
 5213SOL    HW127101   3.888   1.114   3.447  0.2356 -0.3320 -0.4364
 5213SOL    HW227102   3.785   1.024   3.505 -1.0358  0.6939  1.6734
 5214SOL     OW27103   1.289   2.649  13.965  0.5429 -0.5703 -0.0865
 5214SOL    HW127104   1.254   2.561  13.981  1.8387 -0.8657  1.0842
 5214SOL    HW227105   1.259   2.696  14.043  2.2788  2.1052 -1.0341
 5215SOL     OW27106   4.668   4.322  17.479  0.4719  0.5839 -0.6089
 5215SOL    HW127107   4.625   4.374  17.412  0.9071  0.7838 -0.7370
 5215SOL    HW227108   0.028   4.296  17.438 -0.8619 -1.4523 -2.0139
 5216SOL     OW27109   2.279   3.723  12.628  0.0314  0.8679  0.1230
 5216SOL    HW127110   2.187   3.698  12.624  0.5917 -1.3177  0.7089
 5216SOL    HW227111   2.278   3.799  12.571 -1.1666  0.0939 -0.8746
 5217SOL     OW27112   4.036   4.079   6.173 -0.0482 -0.3058  0.1144
 5217SOL    HW127113   4.111   4.139   6.178 -1.5216  1.4229  1.5849
 5217SOL    HW227114   4.011   4.095   6.083  2.9658 -2.1459 -1.0485
 5218SOL     OW27115   1.164   4.188   3.481 -0.7552  0.6689 -0.0034
 5218SOL    HW127116   1.091   4.220   3.534 -0.1689  0.8935  0.6649
 5218SOL    HW227117   1.163   4.257   3.414  0.1733 -0.0098 -0.7164
 5219SOL     OW27118   1.290   2.953   2.629  0.1849 -0.3124  0.1026
 5219SOL    HW127119   1.315   3.031   2.579  0.8403 -2.0040 -2.2025
 5219SOL    HW227120   1.283   2.885   2.562 -0.9356 -1.8761  1.8162
 5220SOL     OW27121   2.519   3.449   6.627 -0.4548  0.3097 -0.4347
 5220SOL    HW127122   2.518   3.449   6.723 -1.1952 -1.0071 -0.4414
 5220SOL    HW227123   2.444   3.391   6.612 -0.4878  0.0076  0.9246
 5221SOL     OW27124   0.598   2.191   3.695  0.5174 -0.0024  0.1953
 5221SOL    HW127125   0.527   2.241   3.655  0.7362  0.1076 -0.0550
 5221SOL    HW227126   0.671   2.253   3.689  0.8081 -0.4612 -0.8394
 5222SOL     OW27127   1.061   0.949   6.551  0.9308  0.0989 -0.0715
 5222SOL    HW127128   1.070   0.857   6.574  2.6596  0.7653  1.9856
 5222SOL    HW227129   1.040   0.936   6.458 -0.9095 -0.1222  0.3899
 5223SOL     OW27130   4.456   1.193  13.022  0.4570 -0.1232 -0.0105
 5223SOL    HW127131   4.507   1.263  12.980  0.3417 -0.4313 -0.6675
 5223SOL    HW227132   4.406   1.245  13.085  0.0554 -0.7847  0.2070
 5224SOL     OW27133   4.601   3.377  11.019 -0.2319 -0.3846  0.1681
 5224SOL    HW127134   4.650   3.385  11.102  1.1628 -0.4464 -0.6437
 5224SOL    HW227135   4.666   3.399  10.952  1.4169 -2.6464  1.0007
 5225SOL     OW27136   4.115   2.870   5.677 -0.4674 -0.2361  0.2039
 5225SOL    HW127137   4.156   2.906   5.756  0.2736  0.7694 -0.6369
 5225SOL    HW227138   4.023   2.897   5.677  0.6239  3.4097 -2.2560
 5226SOL     OW27139   0.795   4.497   8.352 -0.0928 -0.3514 -0.0834
 5226SOL    HW127140   0.851   4.556   8.402 -0.5786  0.1317 -0.1143
 5226SOL    HW227141   0.863   4.429   8.344 -1.1577 -1.2158 -1.5979
 5227SOL     OW27142   3.859   4.365   1.557 -0.3093 -0.3899 -0.3220
 5227SOL    HW127143   3.866   4.440   1.497 -0.4457  0.5359  0.8097
 5227SOL    HW227144   3.780   4.328   1.518  1.5608 -2.1217 -2.4849
 5228SOL     OW27145   0.460   2.932   3.886  0.2145  0.3896  0.5278
 5228SOL    HW127146   0.388   2.937   3.948 -0.0547  0.8136  0.1748
 5228SOL    HW227147   0.526   2.982   3.934  1.7785 -1.4427  0.2801
 5229SOL     OW27148   3.619   0.084  14.065  0.0340  0.4462  0.1604
 5229SOL    HW127149   3.709   0.069  14.092  0.1539 -0.7094 -0.8329
 5229SOL    HW227150   3.582   4.720  14.083  1.8259 -0.1887  0.7918
 5230SOL     OW27151   3.347   2.139  10.401 -0.4430 -0.2942  0.0756
 5230SOL    HW127152   3.343   2.180  10.487  2.4664 -0.5110  0.3423
 5230SOL    HW227153   3.254   2.139  10.380 -0.6069 -0.9617  0.8207
 5231SOL     OW27154   3.598   0.419  13.913 -0.0037  0.0068 -0.0287
 5231SOL    HW127155   3.664   0.463  13.968  0.7404 -2.6020  1.1512
 5231SOL    HW227156   3.621   0.466  13.833  0.5250 -0.4427 -0.1365
 5232SOL     OW27157   2.019   3.836   3.561 -0.9145 -0.3416  0.4751
 5232SOL    HW127158   2.015   3.932   3.561  0.1895 -0.2897 -2.1114
 5232SOL    HW227159   1.958   3.806   3.629  1.4122 -0.6969  2.4027
 5233SOL     OW27160   4.263   3.497   8.390 -0.3528  0.4770  0.0720
 5233SOL    HW127161   4.294   3.426   8.334  0.2807  0.1779  0.7976
 5233SOL    HW227162   4.223   3.451   8.464 -2.5023  2.1725 -0.0521
 5234SOL     OW27163   3.630   0.112   1.549  0.5876 -0.0120  0.1869
 5234SOL    HW127164   3.573   0.035   1.554  1.5610 -0.7672 -0.3286
 5234SOL    HW227165   3.630   0.137   1.641 -1.5081 -0.0010  0.1934
 5235SOL     OW27166   3.504   1.004   4.341 -0.2761 -0.0430  0.0937
 5235SOL    HW127167   3.544   1.047   4.416 -1.0793 -0.5173  0.8003
 5235SOL    HW227168   3.545   1.035   4.260  1.3575 -0.3071  0.8313
 5236SOL     OW27169   3.430   0.446  12.142  0.3871 -1.2289 -0.6867
 5236SOL    HW127170   3.443   0.356  12.171  1.0126 -1.0391 -0.3735
 5236SOL    HW227171   3.458   0.482  12.227 -1.2471 -1.5486 -0.0131
 5237SOL     OW27172   3.401   2.133  11.045  0.4340  0.0225  0.3406
 5237SOL    HW127173   3.337   2.202  11.025  1.3389  1.1155  1.2474
 5237SOL    HW227174   3.362   2.095  11.124  1.2418  1.6124  1.4915
 5238SOL     OW27175   1.509   1.816   9.286 -0.2279  0.4622 -0.0288
 5238SOL    HW127176   1.479   1.752   9.350  2.1120 -0.0706  0.5512
 5238SOL    HW227177   1.467   1.893   9.325  0.5370 -0.5461  2.8195
 5239SOL     OW27178   2.155   0.543  10.048  0.3439 -0.5383 -0.3328
 5239SOL    HW127179   2.082   0.598  10.021  0.1446 -0.3237  0.6329
 5239SOL    HW227180   2.206   0.613  10.090  0.1526 -0.3668 -0.3859
 5240SOL     OW27181   3.946   3.504  10.808 -0.2570 -0.1288 -0.0981
 5240SOL    HW127182   3.951   3.593  10.773 -1.5456  0.1962  0.5737
 5240SOL    HW227183   3.904   3.535  10.888 -1.0976  1.6648 -1.2355
 5241SOL     OW27184   2.260   0.667   8.978  0.1591  0.0920  1.1845
 5241SOL    HW127185   2.289   0.579   8.999 -2.8555 -0.9895  0.9250
 5241SOL    HW227186   2.175   0.653   8.935  0.3596 -0.2921  0.9167
 5242SOL     OW27187   1.421   2.878  10.868 -0.2529 -0.4259  0.0507
 5242SOL    HW127188   1.409   2.789  10.836  0.5746  0.0766 -1.7144
 5242SOL    HW227189   1.400   2.856  10.958 -1.6668 -1.9288 -0.6493
 5243SOL     OW27190   4.071   4.444   5.877 -0.1447  0.2677 -0.2019
 5243SOL    HW127191   4.092   4.402   5.794 -1.5918 -0.8092 -0.0220
 5243SOL    HW227192   4.140   4.510   5.885  0.8997 -0.3599 -4.1298
 5244SOL     OW27193   2.080   0.122   8.816  0.1452  0.1731 -0.3402
 5244SOL    HW127194   2.130   0.191   8.772  1.2411 -0.5164 -0.1768
 5244SOL    HW227195   2.025   0.089   8.746 -0.3372  1.0877 -0.3903
 5245SOL     OW27196   2.547   3.542  13.737 -0.4778  0.2868  0.1327
 5245SOL    HW127197   2.581   3.631  13.728  0.9899 -0.3646 -0.7776
 5245SOL    HW227198   2.492   3.552  13.814 -1.3454  1.2931 -0.6002
 5246SOL     OW27199   1.145   0.740   0.591  0.0734 -0.8655  0.3548
 5246SOL    HW127200   1.140   0.791   0.510 -3.3071 -1.4618  0.2158
 5246SOL    HW227201   1.131   0.655   0.549  2.9626 -1.0691 -0.1970
 5247SOL     OW27202   0.921   2.892   5.945  0.1353 -0.1015 -0.1836
 5247SOL    HW127203   0.950   2.837   6.018  1.3582 -0.0510 -0.6342
 5247SOL    HW227204   0.913   2.971   5.997  1.0023  0.5036 -0.9628
 5248SOL     OW27205   4.588   2.601   4.839 -0.5255 -0.7946  0.1225
 5248SOL    HW127206   4.649   2.555   4.782 -1.4842  0.8546 -2.2532
 5248SOL    HW227207   4.564   2.677   4.785 -1.5272 -1.7569 -0.8195
 5249SOL     OW27208   0.438   1.133  10.222 -0.2248  0.2057  0.1756
 5249SOL    HW127209   0.459   1.043  10.196 -1.9127  0.1213 -0.8814
 5249SOL    HW227210   0.458   1.122  10.315  0.7950 -0.8488 -0.1622
 5250SOL     OW27211   4.562   4.494  15.517  0.2265 -0.0015  0.3912
 5250SOL    HW127212   4.628   4.538  15.463 -0.2930 -2.0179 -1.9176
 5250SOL    HW227213   4.543   4.415  15.466 -0.2417 -0.7811  1.7865
 5251SOL     OW27214   3.579   0.185  15.743  0.0584 -0.3700  0.0580
 5251SOL    HW127215   3.486   0.194  15.721 -0.1184 -2.0322  0.1483
 5251SOL    HW227216   3.614   0.167  15.656  2.2062  0.5735  0.7091
 5252SOL     OW27217   2.020   1.308   4.508  0.7694  0.0214 -0.3496
 5252SOL    HW127218   1.997   1.365   4.582 -2.3286  0.6662 -1.8145
 5252SOL    HW227219   2.115   1.298   4.515  0.9582 -0.1092 -3.2724
 5253SOL     OW27220   0.836   3.196   5.960  0.0118  0.3412  0.6182
 5253SOL    HW127221   0.902   3.234   6.019  1.0980  0.0708 -0.4221
 5253SOL    HW227222   0.826   3.271   5.901 -2.3110 -0.0177  0.5516
 5254SOL     OW27223   1.645   0.810   6.134  0.0004  0.0551 -0.0745
 5254SOL    HW127224   1.720   0.794   6.077  0.0494 -1.0284  0.2940
 5254SOL    HW227225   1.637   0.905   6.132  1.0910  0.1617  0.8391
 5255SOL     OW27226   2.890   2.948   9.676 -0.0529 -0.2195  0.2457
 5255SOL    HW127227   2.964   2.936   9.735 -2.3110 -1.1177  2.9439
 5255SOL    HW227228   2.900   3.035   9.636  3.1677 -0.9501 -0.4497
 5256SOL     OW27229   3.254   0.477  10.713  0.0103 -0.4533  0.3007
 5256SOL    HW127230   3.246   0.571  10.698 -2.1389 -0.4691  1.3452
 5256SOL    HW227231   3.179   0.441  10.665 -0.6347  0.7235  0.4348
 5257SOL     OW27232   1.901   4.501  13.616 -0.7435  0.2241 -0.0714
 5257SOL    HW127233   1.839   4.463  13.554 -0.0262  1.1748 -1.3763
 5257SOL    HW227234   1.849   4.521  13.694  0.4272  0.1305  0.7305
 5258SOL     OW27235   0.749   0.107  15.321 -0.2413  0.0520 -0.6040
 5258SOL    HW127236   0.743   0.092  15.226 -1.6451  0.5850 -0.5953
 5258SOL    HW227237   0.759   0.202  15.333  0.4510 -0.3290  1.6924
 5259SOL     OW27238   0.394   1.303   4.928  0.3416 -0.0960 -0.5428
 5259SOL    HW127239   0.365   1.394   4.934  0.7644 -0.0131  0.2153
 5259SOL    HW227240   0.483   1.316   4.897  0.8872 -2.1248  0.1813
 5260SOL     OW27241   1.257   0.627  11.258  0.0966  0.3662  0.4324
 5260SOL    HW127242   1.183   0.687  11.250  0.5388  0.8721  0.1124
 5260SOL    HW227243   1.322   0.677  11.209 -0.8057  0.9374 -0.1719
 5261SOL     OW27244   3.987   1.498   6.071  0.4201  0.5468 -0.1026
 5261SOL    HW127245   4.054   1.460   6.014  1.6412  0.4273  1.4263
 5261SOL    HW227246   4.025   1.473   6.155 -3.7679  0.1615  1.6660
 5262SOL     OW27247   3.038   4.414   0.698 -0.3159  0.4867  0.0069
 5262SOL    HW127248   3.123   4.370   0.694 -0.5466  0.1296 -0.9162
 5262SOL    HW227249   3.068   4.499   0.732  0.7180 -0.1847  0.7608
 5263SOL     OW27250   2.044   1.606  13.109  0.7975  0.2770  0.1231
 5263SOL    HW127251   2.048   1.578  13.201 -0.1074  0.1644  0.1200
 5263SOL    HW227252   2.139   1.617  13.096  0.6771  1.2812  0.0731
 5264SOL     OW27253   3.825   2.626   9.433 -0.1445  0.2581 -0.3014
 5264SOL    HW127254   3.884   2.675   9.375  0.3841  0.3945  0.3448
 5264SOL    HW227255   3.811   2.686   9.505 -1.2875  0.8683 -1.0434
 5265SOL     OW27256   1.501   1.807  16.004 -0.3844 -0.1073  0.4123
 5265SOL    HW127257   1.472   1.845  16.087 -0.8032  1.5717 -0.5006
 5265SOL    HW227258   1.556   1.872  15.961  0.8926 -1.3417  0.1851
 5266SOL     OW27259   2.366   2.270   4.673 -0.0787  0.0914  0.3530
 5266SOL    HW127260   2.343   2.261   4.581 -3.5150 -0.5938  1.2793
 5266SOL    HW227261   2.301   2.333   4.705 -0.2593  0.2216 -0.2684
 5267SOL     OW27262   3.035   0.073   5.632 -0.0412  0.2131 -0.9945
 5267SOL    HW127263   3.010   0.135   5.701 -0.8923 -0.6505 -0.5311
 5267SOL    HW227264   2.975   0.004   5.661 -1.7564  1.4831 -1.4704
 5268SOL     OW27265   3.441   0.667   3.956  0.1736  0.7085 -0.1630
 5268SOL    HW127266   3.363   0.648   3.904 -0.7075  1.0680  1.0006
 5268SOL    HW227267   3.490   0.587   3.937 -1.4420 -0.8229  1.9922
 5269SOL     OW27268   3.356   2.867   5.673  0.2378  0.1002  0.3449
 5269SOL    HW127269   3.289   2.815   5.718 -1.1150  0.7113 -0.9596
 5269SOL    HW227270   3.357   2.821   5.589  1.8461  1.4220 -0.3494
 5270SOL     OW27271   4.667   4.475   6.877 -0.0370 -0.1456 -0.4397
 5270SOL    HW127272   4.696   4.446   6.964  0.8192  1.6736 -0.1156
 5270SOL    HW227273   4.596   4.415   6.854 -0.8682  0.4337  0.6601
 5271SOL     OW27274   2.812   0.320   7.526  0.4185 -0.1573  0.1965
 5271SOL    HW127275   2.717   0.306   7.533  0.3746  1.6153  2.8928
 5271SOL    HW227276   2.845   0.235   7.555 -3.2191 -1.9953 -1.0043
 5272SOL     OW27277   1.942   2.932   1.387  0.0421  0.4788 -0.6020
 5272SOL    HW127278   2.001   2.896   1.322  2.8292  1.7772  1.2085
 5272SOL    HW227279   2.001   2.996   1.426  0.6573 -1.9145  2.3567
 5273SOL     OW27280   1.225   1.100   5.980  0.0898 -0.6203  0.2483
 5273SOL    HW127281   1.247   1.142   6.064 -0.9279 -1.4213  0.9202
 5273SOL    HW227282   1.276   1.019   5.990  0.4763 -0.3996  0.0849
 5274SOL     OW27283   0.688   3.198   7.783  0.1483  0.1741 -0.4913
 5274SOL    HW127284   0.685   3.196   7.879 -1.2283 -0.6152 -0.5492
 5274SOL    HW227285   0.608   3.247   7.766 -0.2071 -0.2430 -0.0161
 5275SOL     OW27286   3.468   3.086   5.837  0.4858  0.1788 -0.0806
 5275SOL    HW127287   3.428   3.030   5.904  0.3469  1.2590  0.7481
 5275SOL    HW227288   3.464   3.024   5.764 -0.4759 -1.6881  1.5490
 5276SOL     OW27289   3.015   2.771   4.936  0.0756 -0.1286  0.0086
 5276SOL    HW127290   3.058   2.769   4.850  1.2189 -1.3598  0.6153
 5276SOL    HW227291   3.009   2.866   4.947  0.9276 -0.2550  1.5956
 5277SOL     OW27292   0.444   3.626   5.063 -0.4316 -0.2307  0.4006
 5277SOL    HW127293   0.365   3.673   5.038 -0.5628  0.2566  1.7536
 5277SOL    HW227294   0.462   3.687   5.135 -0.8293  0.1848  0.1440
 5278SOL     OW27295   4.115   3.541  11.596 -0.1609 -0.2253  0.5436
 5278SOL    HW127296   4.197   3.581  11.570  0.0081 -1.4024 -0.7161
 5278SOL    HW227297   4.082   3.525  11.508 -1.1127 -0.8802  1.0083
 5279SOL     OW27298   1.092   0.608   9.809  0.6360  0.4323 -0.8156
 5279SOL    HW127299   1.091   0.559   9.892  0.9291  1.6876 -0.0666
 5279SOL    HW227300   1.146   0.679   9.843  2.0853 -0.3480 -1.4875
 5280SOL     OW27301   3.761   0.081  14.887  0.3252  0.3770 -0.3742
 5280SOL    HW127302   3.757   0.127  14.802 -1.3019  0.4544 -0.2455
 5280SOL    HW227303   3.725   0.146  14.948 -1.7494 -0.8145 -0.3531
 5281SOL     OW27304   0.942   0.477   4.578  0.0948 -0.0538  0.8450
 5281SOL    HW127305   1.028   0.504   4.546 -0.3820  0.6561  0.1545
 5281SOL    HW227306   0.923   0.401   4.522  2.0934  0.3486 -0.3768
 5282SOL     OW27307   2.354   1.235   5.455  0.6041 -0.9509 -0.0191
 5282SOL    HW127308   2.379   1.262   5.543  0.2804 -1.3627  0.1992
 5282SOL    HW227309   2.388   1.310   5.407 -0.6452 -0.3710 -0.0066
 5283SOL     OW27310   1.943   2.877   6.973  0.7478  0.3398 -0.1340
 5283SOL    HW127311   1.924   2.905   6.884  1.2270 -0.1687 -0.3966
 5283SOL    HW227312   1.871   2.814   6.983  1.4538 -0.8872 -2.9752
 5284SOL     OW27313   1.419   2.874   3.729 -0.5465 -0.3237 -0.4087
 5284SOL    HW127314   1.413   2.966   3.756  1.3674 -0.2414 -0.2559
 5284SOL    HW227315   1.405   2.825   3.810 -1.5127 -0.6952 -0.8069
 5285SOL     OW27316   3.357   0.730   1.031  0.0839 -0.0874  0.1923
 5285SOL    HW127317   3.396   0.706   1.115 -3.0274  0.6878  1.8874
 5285SOL    HW227318   3.272   0.689   1.050  0.5373  0.7541  3.9712
 5286SOL     OW27319   0.746   3.521  11.109  0.4327  0.0200 -0.1615
 5286SOL    HW127320   0.824   3.502  11.160  0.2403 -1.3361 -0.3868
 5286SOL    HW227321   0.765   3.611  11.081 -2.9543  1.1270  1.0581
 5287SOL     OW27322   1.760   2.377  17.238  0.3213 -0.1991  0.5731
 5287SOL    HW127323   1.780   2.353  17.328  0.2999 -0.0302  0.6221
 5287SOL    HW227324   1.680   2.325  17.229  0.5641 -0.4210 -0.3245
 5288SOL     OW27325   1.130   0.293   5.594 -0.0742  0.4638  0.2614
 5288SOL    HW127326   1.096   0.296   5.683  0.4469 -2.2057  0.5452
 5288SOL    HW227327   1.068   0.233   5.554 -1.3712  1.7897  0.2719
 5289SOL     OW27328   0.633   3.409   5.907 -0.4011  0.1782  0.1094
 5289SOL    HW127329   0.561   3.356   5.872 -0.5093  0.1254  0.4123
 5289SOL    HW227330   0.638   3.382   5.999  2.1870  1.4558  0.3317
 5290SOL     OW27331   4.386   0.839   6.318  0.3468  0.5850  0.0533
 5290SOL    HW127332   4.460   0.870   6.371  0.5604  0.2018 -0.0205
 5290SOL    HW227333   4.321   0.872   6.380 -0.0570  1.5183 -0.8455
 5291SOL     OW27334   0.029   1.554   6.045  0.2629  0.1754  0.6835
 5291SOL    HW127335   0.121   1.530   6.051  0.3217  0.1085 -0.4534
 5291SOL    HW227336   0.011   1.555   5.951  3.2564  1.3216  0.1398
 5292SOL     OW27337   1.675   4.132  15.874 -0.2482  0.1162  0.6268
 5292SOL    HW127338   1.731   4.077  15.930 -0.8736 -1.5119 -0.3607
 5292SOL    HW227339   1.701   4.221  15.900  0.8277 -0.1428  0.4391
 5293SOL     OW27340   3.953   0.936   3.926 -0.3869 -0.6044  0.5809
 5293SOL    HW127341   3.874   0.883   3.915 -2.0781  2.0522 -0.2607
 5293SOL    HW227342   3.996   0.898   4.003  1.0510 -1.2643 -0.5526
 5294SOL     OW27343   1.689   3.369   3.412 -0.4196  0.1609  0.2511
 5294SOL    HW127344   1.595   3.363   3.391 -0.7363  2.4583  1.0334
 5294SOL    HW227345   1.695   3.289   3.465 -2.7009  0.6124  1.2026
 5295SOL     OW27346   4.319   0.914   6.979 -0.8814  0.0155 -0.0745
 5295SOL    HW127347   4.329   0.831   7.027 -1.4630 -0.2564 -0.4173
 5295SOL    HW227348   4.243   0.949   7.025  0.3371 -0.9018  2.5873
 5296SOL     OW27349   3.895   2.936   3.598 -0.2814 -0.1049 -0.6085
 5296SOL    HW127350   3.961   3.003   3.580  0.5334 -0.6095  0.4648
 5296SOL    HW227351   3.944   2.885   3.664 -1.9053 -1.7169 -0.6464
 5297SOL     OW27352   4.634   4.225   3.321 -0.5029 -0.0057  0.0500
 5297SOL    HW127353   4.692   4.250   3.393  1.7687 -3.0545 -0.7441
 5297SOL    HW227354   4.669   4.289   3.259  1.9471 -0.9423  0.4840
 5298SOL     OW27355   4.694   4.606  11.086 -0.0036 -0.0165 -0.0176
 5298SOL    HW127356   4.606   4.592  11.050 -0.0060  0.4747 -0.1941
 5298SOL    HW227357   4.697   4.695  11.121  0.8866 -0.6167  1.4544
 5299SOL     OW27358   4.369   2.876  10.940 -0.4870  0.0925 -0.0427
 5299SOL    HW127359   4.318   2.808  10.984  0.7968  0.0584  1.3523
 5299SOL    HW227360   4.295   2.930  10.912  0.7939  2.0261  0.3652
 5300SOL     OW27361   2.707   4.251   7.569  0.3228  0.1328 -0.4284
 5300SOL    HW127362   2.637   4.255   7.634  0.0183 -0.0457 -0.7389
 5300SOL    HW227363   2.785   4.247   7.623 -1.0018 -3.8816  1.1445
 5301SOL     OW27364   2.925   2.421   2.122  0.1138 -0.1459 -0.0914
 5301SOL    HW127365   2.927   2.516   2.115 -1.8058 -0.0489  0.6416
 5301SOL    HW227366   2.893   2.408   2.033  0.9545  1.2993 -0.6003
 5302SOL     OW27367   3.964   2.541  13.700  0.2784 -0.0814 -0.0698
 5302SOL    HW127368   3.961   2.457  13.653 -1.7853  0.2445 -0.5413
 5302SOL    HW227369   4.057   2.550  13.717  0.1981 -0.4606  0.5827
 5303SOL     OW27370   1.069   3.833   5.467 -0.8328 -0.0097  1.0576
 5303SOL    HW127371   1.052   3.774   5.393  1.9693 -0.4817  0.7577
 5303SOL    HW227372   1.061   3.770   5.538 -0.6201 -2.6486 -1.2356
 5304SOL     OW27373   0.418   2.524   7.770  0.0347 -0.1479  0.1470
 5304SOL    HW127374   0.354   2.510   7.701 -0.9662  0.2435  1.0091
 5304SOL    HW227375   0.489   2.560   7.716 -1.1450 -1.2812 -2.1320
 5305SOL     OW27376   1.299   3.940   4.780 -0.5225  0.1947  0.6641
 5305SOL    HW127377   1.294   3.901   4.867  3.3459 -1.0045  0.3620
 5305SOL    HW227378   1.311   4.030   4.811  1.2268 -0.5401  2.0805
 5306SOL     OW27379   1.409   0.000   6.400  0.3029  0.1496  0.3911
 5306SOL    HW127380   1.351   4.647   6.395  0.3362  0.1101  0.6029
 5306SOL    HW227381   1.399   0.038   6.487  0.8302  1.5445 -0.1488
 5307SOL     OW27382   3.936   1.057  15.175  0.3196 -0.2249 -0.0545
 5307SOL    HW127383   3.856   1.073  15.124  0.5389 -1.5504 -0.8053
 5307SOL    HW227384   3.993   1.040  15.100  0.0649 -3.3420  0.4591
 5308SOL     OW27385   1.030   4.416   8.668  0.0723 -0.2986 -0.1991
 5308SOL    HW127386   0.980   4.437   8.589  1.0314  0.9779 -0.4681
 5308SOL    HW227387   1.016   4.321   8.677 -1.3108 -0.1671 -0.9437
 5309SOL     OW27388   3.002   2.557   6.700 -0.4091 -0.0762 -0.4480
 5309SOL    HW127389   2.947   2.634   6.714  0.5639  0.3189  1.1245
 5309SOL    HW227390   3.050   2.542   6.782 -2.1584 -2.0455  0.2098
 5310SOL     OW27391   1.875   4.259  15.092 -0.1518 -0.1784  0.1312
 5310SOL    HW127392   1.870   4.191  15.160  1.2081  0.8066  1.2065
 5310SOL    HW227393   1.905   4.336  15.140 -0.3748 -1.0659  1.6898
 5311SOL     OW27394   1.343   3.493   5.676 -0.1932 -0.3056  0.4508
 5311SOL    HW127395   1.372   3.474   5.586  1.9015  1.6268  0.7138
 5311SOL    HW227396   1.402   3.442   5.731 -2.3765 -1.0131  2.1083
 5312SOL     OW27397   0.090   2.252   5.622 -0.5460  0.0310  1.2399
 5312SOL    HW127398   0.124   2.280   5.707 -0.3166 -0.2698  1.2468
 5312SOL    HW227399   0.148   2.176   5.619 -0.7481 -0.1171  1.0170
 5313SOL     OW27400   4.580   2.349   6.975 -0.4036  0.0899 -1.1229
 5313SOL    HW127401   4.652   2.406   6.947 -0.2173  1.1156  1.3990
 5313SOL    HW227402   4.572   2.298   6.895 -1.6835 -0.9936 -0.3146
 5314SOL     OW27403   3.444   0.732   9.866 -0.5542 -0.2243 -0.0254
 5314SOL    HW127404   3.374   0.790   9.896 -0.7164  0.3562 -1.4947
 5314SOL    HW227405   3.437   0.667   9.935  2.3078 -0.1841  0.2940
 5315SOL     OW27406   4.554   0.632   0.155  0.3046  0.3372  0.5310
 5315SOL    HW127407   4.567   0.606   0.246 -0.4254  2.2868  1.1963
 5315SOL    HW227408   4.485   0.697   0.168 -0.7598 -0.5325 -0.7751
 5316SOL     OW27409   1.113   0.326  14.624 -0.5430 -0.2281 -0.1312
 5316SOL    HW127410   1.185   0.264  14.630  0.2099  0.5165 -1.5477
 5316SOL    HW227411   1.168   0.404  14.623 -0.1269 -0.5240 -0.2736
 5317SOL     OW27412   0.132   1.280   1.296  0.2980  0.0441 -0.0141
 5317SOL    HW127413   0.067   1.222   1.336  2.7784 -0.8004  2.8351
 5317SOL    HW227414   0.163   1.341   1.362 -3.3573 -0.4922  2.1422
 5318SOL     OW27415   2.082   4.304  11.031 -0.5680  0.0120 -0.2531
 5318SOL    HW127416   2.062   4.302  11.125 -0.1074  0.9750 -0.1346
 5318SOL    HW227417   2.143   4.377  11.028  0.4035 -0.7438  0.8716
 5319SOL     OW27418   1.988   3.391   8.078  0.1557 -0.3177 -0.0624
 5319SOL    HW127419   2.082   3.374   8.085  0.7652  3.4458  0.8879
 5319SOL    HW227420   1.961   3.305   8.045  1.9465 -0.4003 -1.3024
 5320SOL     OW27421   3.907   3.236  10.884 -0.5338  0.2860 -0.0281
 5320SOL    HW127422   3.954   3.312  10.849  0.5023 -0.6426 -0.6228
 5320SOL    HW227423   3.980   3.189  10.922  0.1869 -0.3484 -2.2183
 5321SOL     OW27424   3.407   4.395   7.259 -0.7556  0.0453  0.4489
 5321SOL    HW127425   3.337   4.457   7.237 -1.7008 -1.0237  0.4571
 5321SOL    HW227426   3.470   4.423   7.193 -0.7511 -0.8077  0.0856
 5322SOL     OW27427   1.055   2.902   5.320 -0.4882  0.7182  0.7493
 5322SOL    HW127428   0.965   2.921   5.294 -0.9092  0.1692  1.8197
 5322SOL    HW227429   1.064   2.920   5.414  0.2001  1.2065  0.5869
 5323SOL     OW27430   2.254   1.103   8.599  0.0374  0.2846  0.0237
 5323SOL    HW127431   2.236   1.184   8.552  0.2821  0.2456 -0.1381
 5323SOL    HW227432   2.164   1.074   8.616  1.2397 -2.9392  0.9425
 5324SOL     OW27433   2.330   3.049   2.168  0.3893 -0.0827  0.1977
 5324SOL    HW127434   2.241   3.073   2.191  0.6791  2.4412 -1.3810
 5324SOL    HW227435   2.318   3.004   2.084 -0.7450 -1.2348  0.9717
 5325SOL     OW27436   4.494   3.532   8.176  0.0724 -0.3422 -0.3327
 5325SOL    HW127437   4.452   3.618   8.183  1.4125  0.4073 -1.5615
 5325SOL    HW227438   4.513   3.500   8.264 -1.4794  0.3116  0.2508
 5326SOL     OW27439   4.397   3.329   3.994  0.0561  0.1175  0.1770
 5326SOL    HW127440   4.329   3.270   4.027 -1.1414  0.6551 -1.2833
 5326SOL    HW227441   4.392   3.387   4.070  0.8230 -0.2530  0.4979
 5327SOL     OW27442   3.634   1.506   7.411  0.5727  0.5609 -0.3732
 5327SOL    HW127443   3.591   1.551   7.338  0.5926 -0.8298 -1.2475
 5327SOL    HW227444   3.722   1.494   7.376  0.5469  2.5213 -1.1037
 5328SOL     OW27445   3.017   2.269   0.711 -0.7443 -0.3204 -0.4288
 5328SOL    HW127446   3.055   2.224   0.635  2.1984  0.6049  0.4667
 5328SOL    HW227447   2.960   2.329   0.664 -0.9962  0.0862  0.3954
 5329SOL     OW27448   4.519   2.716   6.458 -0.5790  0.1864  0.1179
 5329SOL    HW127449   4.511   2.811   6.454  2.0368  0.3968 -0.0410
 5329SOL    HW227450   4.478   2.694   6.374 -2.2534  0.0952  0.9582
 5330SOL     OW27451   4.480   0.209   9.006  0.5715 -0.4367 -0.4673
 5330SOL    HW127452   4.463   0.128   8.959  1.2217 -1.0440  0.3486
 5330SOL    HW227453   4.554   0.180   9.060 -1.1230 -1.9628  1.0059
 5331SOL     OW27454   1.898   0.492  10.368 -0.0807 -0.2327 -0.3634
 5331SOL    HW127455   1.891   0.570  10.313  1.4389 -0.7802 -1.3403
 5331SOL    HW227456   1.991   0.484  10.388 -0.0992  1.5690  0.4114
 5332SOL     OW27457   4.267   3.761   7.705 -0.1928 -0.3261 -0.0899
 5332SOL    HW127458   4.183   3.760   7.659 -0.3452 -0.2319  0.1829
 5332SOL    HW227459   4.245   3.770   7.798 -0.1415 -2.5217  0.1328
 5333SOL     OW27460   4.379   1.182   1.634  0.3337 -0.0631 -0.2125
 5333SOL    HW127461   4.306   1.226   1.677  1.4534  1.7597 -0.1691
 5333SOL    HW227462   4.451   1.191   1.696  0.8049  0.2395 -0.7953
 5334SOL     OW27463   1.219   0.051  10.693 -0.4149 -0.0646  0.6688
 5334SOL    HW127464   1.157   0.024  10.761 -1.0932 -0.2760 -0.0344
 5334SOL    HW227465   1.300   0.043  10.743  0.0040 -0.4697 -0.0791
 5335SOL     OW27466   3.317   3.505  11.604  0.1212  0.1631  0.4175
 5335SOL    HW127467   3.265   3.454  11.666 -1.7665  1.2381 -0.2862
 5335SOL    HW227468   3.270   3.588  11.596 -1.4301 -0.6541  0.9666
 5336SOL     OW27469   0.365   3.828   1.298 -0.2905  0.2582  0.5359
 5336SOL    HW127470   0.344   3.734   1.300  0.8552 -0.0278 -0.5398
 5336SOL    HW227471   0.451   3.818   1.258 -0.5208 -0.7883  0.2933
 5337SOL     OW27472   2.755   3.538  11.234 -0.1290 -0.8844 -0.0667
 5337SOL    HW127473   2.741   3.444  11.248  1.3582 -1.3104 -1.4346
 5337SOL    HW227474   2.825   3.532  11.169 -0.7259  1.1019 -0.8589
 5338SOL     OW27475   2.127   2.303   8.643  0.2711  0.0058 -0.0965
 5338SOL    HW127476   2.169   2.326   8.726 -1.9134 -0.9709  1.2703
 5338SOL    HW227477   2.204   2.303   8.586 -1.7489  0.3037 -2.8456
 5339SOL     OW27478   0.111   3.955   6.167  0.8713  0.6484 -0.3254
 5339SOL    HW127479   0.141   3.991   6.083  1.9879 -0.9730 -0.6216
 5339SOL    HW227480   0.030   3.914   6.137  2.0350 -2.4758  0.8625
 5340SOL     OW27481   2.294   2.436   6.806  0.0722 -0.6798  0.1488
 5340SOL    HW127482   2.371   2.401   6.762 -0.2841 -1.4675  0.1450
 5340SOL    HW227483   2.236   2.360   6.818  1.4652 -1.6775  0.6078
 5341SOL     OW27484   0.616   2.069   0.960 -0.5614  0.3641 -0.1003
 5341SOL    HW127485   0.569   2.153   0.956 -2.7312 -0.9015 -0.6871
 5341SOL    HW227486   0.660   2.072   1.046 -0.3590  2.0337 -0.2572
 5342SOL     OW27487   2.738   0.683   3.945 -0.0893  0.1310 -0.3727
 5342SOL    HW127488   2.711   0.680   4.037  2.4954 -1.9381  0.3039
 5342SOL    HW227489   2.827   0.648   3.943  0.3371  1.1988  0.0358
 5343SOL     OW27490   0.793   1.170   5.960  0.2713  0.0464  0.0100
 5343SOL    HW127491   0.882   1.140   5.943  0.0098 -0.1177 -1.0280
 5343SOL    HW227492   0.753   1.083   5.961 -0.8288  0.5540 -0.4243
 5344SOL     OW27493   0.587   0.571   1.388  0.2402 -0.2603  0.0401
 5344SOL    HW127494   0.676   0.537   1.375  0.7521  1.0500  0.0444
 5344SOL    HW227495   0.572   0.565   1.482 -1.7401 -1.7642 -0.3909
 5345SOL     OW27496   3.291   1.554   6.709  0.7557 -0.2009  0.2077
 5345SOL    HW127497   3.357   1.513   6.654  1.3778  1.4218 -0.2642
 5345SOL    HW227498   3.230   1.482   6.723 -0.1237  0.0846 -2.2587
 5346SOL     OW27499   3.204   1.628  16.485 -0.2162 -0.2829 -0.0723
 5346SOL    HW127500   3.165   1.544  16.509 -2.4333  1.0888  1.1255
 5346SOL    HW227501   3.287   1.586  16.461 -1.5330 -2.2961 -1.1371
 5347SOL     OW27502   0.559   2.254   7.268 -0.6651  0.3220  0.2425
 5347SOL    HW127503   0.577   2.290   7.355 -0.9284 -0.6185  0.6880
 5347SOL    HW227504   0.467   2.233   7.289 -1.0789  0.5198 -1.3713
 5348SOL     OW27505   3.965   3.970   4.418  1.1454  0.3235 -0.2132
 5348SOL    HW127506   3.883   3.988   4.371  0.7863  0.5629  0.4992
 5348SOL    HW227507   3.978   3.877   4.398 -0.9961  0.0991 -0.6582
 5349SOL     OW27508   4.349   1.048   2.999 -0.0039  0.1347  0.3367
 5349SOL    HW127509   4.411   1.079   2.934  1.2949 -0.9718  1.0608
 5349SOL    HW227510   4.293   1.125   3.008 -0.5838 -0.5674  2.8782
 5350SOL     OW27511   4.200   3.128   0.839  0.2963 -0.1981 -0.2058
 5350SOL    HW127512   4.239   3.120   0.752 -0.1928 -2.6471 -0.1994
 5350SOL    HW227513   4.143   3.051   0.833  1.1237 -0.9378  1.3004
 5351SOL     OW27514   3.287   3.887  11.051 -0.4583  0.0980  0.3038
 5351SOL    HW127515   3.261   3.795  11.065 -0.2981  0.1636  1.0149
 5351SOL    HW227516   3.243   3.907  10.969  1.4719  2.7696 -0.0451
 5352SOL     OW27517   4.678   3.829  11.494 -0.2026  0.6554  0.1711
 5352SOL    HW127518   4.718   3.747  11.521 -1.3134  0.4650  1.2807
 5352SOL    HW227519   4.604   3.834  11.555  0.1754 -2.4886  0.8469
 5353SOL     OW27520   4.603   4.375  12.838  0.0212 -0.3176 -0.3177
 5353SOL    HW127521   4.552   4.456  12.843  1.0643  0.1641  2.6632
 5353SOL    HW227522   4.675   4.399  12.897  0.3798 -0.1923 -0.8070
 5354SOL     OW27523   3.408   1.187   8.245 -0.6865 -0.2145  0.3747
 5354SOL    HW127524   3.361   1.133   8.182  0.3319 -1.6365  0.8311
 5354SOL    HW227525   3.473   1.119   8.264  0.1320 -0.0974 -1.9745
 5355SOL     OW27526   1.149   3.918   6.690  0.0187 -0.1388 -0.1880
 5355SOL    HW127527   1.067   3.877   6.717  1.0532 -1.3960  1.0083
 5355SOL    HW227528   1.207   3.899   6.763 -1.1816 -2.6064  0.1252
 5356SOL     OW27529   4.637   1.301   2.452  0.2791 -0.3942 -0.5712
 5356SOL    HW127530   0.009   1.301   2.445  0.2156 -0.3215 -1.4735
 5356SOL    HW227531   4.607   1.211   2.467  1.5601 -0.5158  1.2274
 5357SOL     OW27532   2.579   0.294   3.845  0.0459 -0.3540 -0.2150
 5357SOL    HW127533   2.547   0.224   3.789  2.7220 -1.7069 -0.0549
 5357SOL    HW227534   2.665   0.315   3.810 -0.4973 -0.6582 -1.6959
 5358SOL     OW27535   1.103   0.490   8.126  0.5919 -0.3005 -0.6429
 5358SOL    HW127536   1.092   0.583   8.147  0.0366  0.1506 -2.9357
 5358SOL    HW227537   1.012   0.465   8.117  0.7991 -2.8023  3.8312
 5359SOL     OW27538   2.561   2.718   6.122  0.0932 -0.2294  0.1417
 5359SOL    HW127539   2.528   2.638   6.082 -1.9342  0.7991 -0.2273
 5359SOL    HW227540   2.616   2.693   6.196 -0.9771 -1.0966  0.6337
 5360SOL     OW27541   1.607   3.746  17.217 -0.3632 -0.4211  0.3715
 5360SOL    HW127542   1.546   3.810  17.254 -1.3913  0.0268 -2.0394
 5360SOL    HW227543   1.599   3.777  17.127 -0.2636  0.9445  0.8415
 5361SOL     OW27544   0.907   2.502   7.849 -0.0925  0.1799  0.0430
 5361SOL    HW127545   0.819   2.516   7.885 -0.5598  1.6600 -1.6591
 5361SOL    HW227546   0.887   2.450   7.772  0.8324 -0.5580  0.3128
 5362SOL     OW27547   1.726   0.727   1.234 -0.2370 -0.0231  0.4771
 5362SOL    HW127548   1.773   0.807   1.211 -0.6486  0.2535  0.5861
 5362SOL    HW227549   1.688   0.694   1.152 -0.5325  0.3861  0.4491
 5363SOL     OW27550   1.850   1.992  16.677  0.2261 -0.0910 -0.2987
 5363SOL    HW127551   1.918   1.984  16.744  1.4555 -0.1482 -1.5378
 5363SOL    HW227552   1.809   2.078  16.687 -1.2623 -0.9264  0.6818
 5364SOL     OW27553   1.105   1.642   5.900  0.2101 -0.5779 -0.3351
 5364SOL    HW127554   1.029   1.586   5.884 -0.5481 -0.1421  1.7685
 5364SOL    HW227555   1.169   1.576   5.927 -0.3417 -2.1793 -2.8645
 5365SOL     OW27556   4.128   0.371   1.690 -0.3118 -0.1516  0.1040
 5365SOL    HW127557   4.072   0.369   1.613  1.1901  2.5466 -1.0880
 5365SOL    HW227558   4.200   0.429   1.664 -0.0513 -0.5337 -0.0247
 5366SOL     OW27559   0.437   2.797   7.204 -0.1798 -0.1695  0.2641
 5366SOL    HW127560   0.456   2.844   7.123  0.3755  0.0728  0.5357
 5366SOL    HW227561   0.342   2.803   7.198 -0.3595 -0.5786  2.8113
 5367SOL     OW27562   4.147   0.451   2.922 -0.4015 -0.5198 -0.1217
 5367SOL    HW127563   4.141   0.534   2.875 -1.6289 -1.7157 -2.0775
 5367SOL    HW227564   4.242   0.438   2.926 -0.5545 -1.2329  1.2303
 5368SOL     OW27565   1.707   1.300  13.259 -0.0724 -0.1995  0.5644
 5368SOL    HW127566   1.714   1.205  13.269 -2.3414 -0.3562  0.6374
 5368SOL    HW227567   1.725   1.326  13.349  0.1864  2.9716 -0.4133
 5369SOL     OW27568   0.065   1.869   6.044  0.2064 -0.5983  0.6216
 5369SOL    HW127569   0.042   1.776   6.049  0.2137 -0.5568  1.3844
 5369SOL    HW227570   0.158   1.866   6.019  0.0942 -1.6480  0.3425
 5370SOL     OW27571   0.711   2.899   2.365  0.5037 -0.0855 -0.2433
 5370SOL    HW127572   0.799   2.932   2.345  0.0887  1.9672  1.3681
 5370SOL    HW227573   0.712   2.821   2.309 -0.2910 -0.0773 -0.2753
 5371SOL     OW27574   3.458   0.442  13.655  0.0480 -0.4583 -0.1444
 5371SOL    HW127575   3.415   0.459  13.572 -1.5006 -2.2757  0.2880
 5371SOL    HW227576   3.546   0.478  13.644  0.6974 -1.2941  2.1155
 5372SOL     OW27577   3.501   4.603   0.009  0.0660 -0.2369  0.5756
 5372SOL    HW127578   3.548   4.527  17.666  0.6874 -0.3480  1.6394
 5372SOL    HW227579   3.413   4.576  17.677  0.5426 -1.1851 -0.1218
 5373SOL     OW27580   3.897   4.612   9.041  0.6152 -0.0496  0.1849
 5373SOL    HW127581   3.900   4.516   9.040  0.3967 -0.0546  0.0196
 5373SOL    HW227582   3.802   4.626   9.039  0.6985  0.5572  0.5023
 5374SOL     OW27583   3.453   1.098  14.124 -0.0041 -0.3792  0.2764
 5374SOL    HW127584   3.392   1.145  14.067 -1.0732  0.1057  1.8225
 5374SOL    HW227585   3.387   1.031  14.143  0.8208 -1.1644  0.3522
 5375SOL     OW27586   3.692   2.018   2.605 -0.5994  0.7756  0.0345
 5375SOL    HW127587   3.640   2.056   2.534  1.7833  1.8413 -1.1134
 5375SOL    HW227588   3.742   1.949   2.561  0.0469  2.3787 -1.7518
 5376SOL     OW27589   1.155   2.633   9.154  0.2706 -0.4900  0.4091
 5376SOL    HW127590   1.248   2.647   9.169  0.3458  0.2697 -0.7277
 5376SOL    HW227591   1.128   2.722   9.132 -0.9600 -0.9686 -0.0364
 5377SOL     OW27592   3.909   2.528   4.189  0.2222  0.0215  0.7430
 5377SOL    HW127593   3.875   2.453   4.237 -1.6259 -1.1442 -2.3663
 5377SOL    HW227594   3.927   2.484   4.106 -1.3326 -0.6209  0.7555
 5378SOL     OW27595   0.274   4.431   4.155 -0.1813  0.0743  0.4272
 5378SOL    HW127596   0.215   4.495   4.114 -2.5271 -0.8429  2.3950
 5378SOL    HW227597   0.243   4.424   4.245 -0.7369 -0.1434  0.2183
 5379SOL     OW27598   1.540   0.692   7.017 -0.4907 -0.4004  0.1580
 5379SOL    HW127599   1.614   0.634   7.035 -1.1220 -0.9451  1.0482
 5379SOL    HW227600   1.492   0.681   7.100  0.6662 -1.8878  0.6369
 5380SOL     OW27601   4.592   0.957   6.981  0.3357 -0.2315  0.0555
 5380SOL    HW127602   4.497   0.954   6.969  0.5863 -0.9910 -1.6770
 5380SOL    HW227603   4.594   0.998   7.068 -0.3215  1.2875 -0.6558
 5381SOL     OW27604   4.024   4.707  12.804 -0.0808  0.4783  0.3018
 5381SOL    HW127605   3.929   4.721  12.803 -0.1900 -0.0608  1.9577
 5381SOL    HW227606   4.049   0.000  12.895 -0.5258 -2.7230  0.9840
 5382SOL     OW27607   1.088   4.482   6.230  0.0611 -0.0287 -0.1065
 5382SOL    HW127608   1.178   4.493   6.261  1.0320 -0.7291 -2.7086
 5382SOL    HW227609   1.058   4.572   6.242 -3.0550 -1.1520  0.5713
 5383SOL     OW27610   4.065   0.259   5.112  0.1293 -0.3815  0.4605
 5383SOL    HW127611   4.034   0.169   5.101 -1.0063  0.1157 -0.4295
 5383SOL    HW227612   4.159   0.247   5.097  0.1638  0.0962  0.2926
 5384SOL     OW27613   1.612   1.017   7.235  0.1554  0.7026 -0.4501
 5384SOL    HW127614   1.590   0.927   7.258  2.2138  0.0987 -0.8981
 5384SOL    HW227615   1.627   1.066   7.316  2.6719  0.5687 -0.8354
 5385SOL     OW27616   1.123   4.408   7.734  0.1216 -0.2803 -0.5049
 5385SOL    HW127617   1.089   4.323   7.708  0.7947 -0.9204  0.6932
 5385SOL    HW227618   1.116   4.404   7.829  2.0691 -0.2679 -0.3469
 5386SOL     OW27619   4.540   4.722   8.833  0.3313  0.1252 -1.0372
 5386SOL    HW127620   4.631   0.009   8.863 -0.2478  0.0075  0.7149
 5386SOL    HW227621   4.551   0.010   8.738 -0.6562 -3.7773 -1.5704
 5387SOL     OW27622   1.632   4.202   9.113  1.0740  0.2187 -0.4597
 5387SOL    HW127623   1.547   4.243   9.132  0.5711 -1.6302  1.1994
 5387SOL    HW227624   1.631   4.142   9.187  1.3999 -1.6732 -1.9858
 5388SOL     OW27625   2.005   3.802   5.337 -0.4844  0.9115  0.2777
 5388SOL    HW127626   2.034   3.890   5.362  0.4406  0.5389  0.5313
 5388SOL    HW227627   1.935   3.838   5.283  0.1745  0.9707 -0.5231
 5389SOL     OW27628   1.725   1.862   7.825  0.0198 -0.1777  0.1942
 5389SOL    HW127629   1.637   1.826   7.812 -0.5340  0.7543  1.3930
 5389SOL    HW227630   1.711   1.895   7.913  1.0680 -0.1728  0.3633
 5390SOL     OW27631   2.597   4.121  12.606 -0.1772  0.4144 -0.1760
 5390SOL    HW127632   2.590   4.034  12.646  0.3486  1.0594  1.3171
 5390SOL    HW227633   2.530   4.171  12.652 -0.7156 -2.3115  2.0037
 5391SOL     OW27634   4.441   2.054  16.608 -0.1013  0.5979  0.4574
 5391SOL    HW127635   4.507   1.989  16.632  0.4668  0.7290 -0.7152
 5391SOL    HW227636   4.421   2.102  16.689 -0.8136  0.8988  0.0989
 5392SOL     OW27637   3.255   4.330   8.420 -0.0810 -0.5318  0.2766
 5392SOL    HW127638   3.279   4.416   8.456  0.7632 -0.0420 -1.5120
 5392SOL    HW227639   3.223   4.354   8.333  0.0868 -1.2845  0.0084
 5393SOL     OW27640   4.474   4.024  13.474 -0.3137  0.2845 -0.0299
 5393SOL    HW127641   4.430   4.101  13.508 -0.5852 -1.5215  3.7226
 5393SOL    HW227642   4.425   3.955  13.520  0.3810  0.0057  0.3004
 5394SOL     OW27643   1.606   0.059  12.596 -0.3048  0.2495  0.3676
 5394SOL    HW127644   1.662   0.051  12.519 -0.2747 -2.9213  0.7273
 5394SOL    HW227645   1.524   0.086  12.554  0.3819  0.5257 -0.8195
 5395SOL     OW27646   3.952   0.343  13.054 -0.2841  0.0294 -0.3759
 5395SOL    HW127647   3.922   0.260  13.091  0.9346  0.3323  1.3077
 5395SOL    HW227648   3.941   0.327  12.961  0.5292 -2.0810 -0.0982
 5396SOL     OW27649   0.984   0.087   2.700 -0.5260  0.5541 -0.1294
 5396SOL    HW127650   0.965   0.157   2.638  1.3022  1.3775  0.2403
 5396SOL    HW227651   0.909   0.028   2.693  0.7521 -0.9271 -1.2701
 5397SOL     OW27652   3.736   3.812   8.179 -0.0824  0.6169  0.0558
 5397SOL    HW127653   3.743   3.896   8.132  0.5768  0.1614 -0.6685
 5397SOL    HW227654   3.825   3.798   8.211  0.1253  0.1696 -0.7200
 5398SOL     OW27655   4.281   0.569   1.579 -0.3725 -0.3730 -0.3232
 5398SOL    HW127656   4.283   0.665   1.574  1.4875 -0.4371 -0.8159
 5398SOL    HW227657   4.315   0.544   1.493 -1.0313 -0.0689 -0.6818
 5399SOL     OW27658   2.392   3.570  15.191 -0.5146 -0.3625  0.1119
 5399SOL    HW127659   2.329   3.500  15.207 -0.6860 -0.0072  0.9508
 5399SOL    HW227660   2.405   3.556  15.097  2.0771  0.0504  0.4054
 5400SOL     OW27661   3.624   2.486  16.874 -0.3290  0.3611 -0.6732
 5400SOL    HW127662   3.585   2.462  16.958 -0.1522  2.8010  0.1294
 5400SOL    HW227663   3.663   2.574  16.877  1.1603 -0.2816 -1.7580
 5401SOL     OW27664   1.054   2.600   4.770  0.0353 -0.3725  0.0099
 5401SOL    HW127665   1.038   2.681   4.721  0.6087  1.4252  2.8177
 5401SOL    HW227666   1.039   2.529   4.707  5.3268  0.6831 -2.4071
 5402SOL     OW27667   0.592   1.786   2.295  0.2744 -0.3600  0.2014
 5402SOL    HW127668   0.633   1.815   2.376  1.7799 -0.1329 -0.6399
 5402SOL    HW227669   0.604   1.864   2.241 -0.0923  1.3699  2.5973
 5403SOL     OW27670   4.197   3.467  14.926 -0.3618 -0.4440 -0.2269
 5403SOL    HW127671   4.191   3.472  15.021  1.8242  0.3736 -0.1356
 5403SOL    HW227672   4.121   3.520  14.900 -0.2147  0.2998  0.8342
 5404SOL     OW27673   4.426   2.427   7.944  0.1485 -0.5354  0.3808
 5404SOL    HW127674   4.514   2.455   7.970  0.8102 -1.6530 -0.6414
 5404SOL    HW227675   4.382   2.497   7.992  0.1089  0.0130 -0.4750
 5405SOL     OW27676   0.534   0.415   6.356 -0.0579 -0.4174 -1.3897
 5405SOL    HW127677   0.473   0.377   6.419  1.5426  0.0522  0.4780
 5405SOL    HW227678   0.549   0.500   6.399 -0.4302 -0.8336 -0.4217
 5406SOL     OW27679   1.384   3.166   5.726 -0.2225  0.2504 -0.1661
 5406SOL    HW127680   1.464   3.118   5.705 -0.9211 -1.3078  0.7809
 5406SOL    HW227681   1.367   3.156   5.819  0.2208 -0.2171 -0.1392
 5407SOL     OW27682   4.376   2.716   5.640 -0.2554  0.0450 -0.3553
 5407SOL    HW127683   4.289   2.736   5.675  0.6681  3.0463  0.1540
 5407SOL    HW227684   4.431   2.715   5.718 -2.5308 -1.4397  1.2209
 5408SOL     OW27685   1.226   0.470   1.101 -0.1352 -0.4975  0.9234
 5408SOL    HW127686   1.186   0.406   1.042  0.4491  1.0354 -1.1522
 5408SOL    HW227687   1.152   0.521   1.134 -0.1345 -1.1004  1.8524
 5409SOL     OW27688   1.647   1.663   0.284  0.1435 -0.2116  0.1368
 5409SOL    HW127689   1.557   1.676   0.312 -0.0242 -1.9957  0.4366
 5409SOL    HW227690   1.644   1.690   0.192  0.6573 -0.9893 -0.1069
 5410SOL     OW27691   4.542   2.124  16.898 -0.1851 -0.1585 -0.1044
 5410SOL    HW127692   4.553   2.035  16.865  1.4987 -0.2136  0.6324
 5410SOL    HW227693   4.448   2.138  16.891  0.0410  1.2798 -0.2449
 5411SOL     OW27694   0.783   0.556   0.267 -0.4116 -0.0976  0.3403
 5411SOL    HW127695   0.694   0.562   0.302 -0.4736  0.6889  0.0506
 5411SOL    HW227696   0.789   0.645   0.232 -1.8452 -0.0732  0.1642
 5412SOL     OW27697   1.443   3.343   9.769  0.3389 -0.0914  0.4336
 5412SOL    HW127698   1.358   3.379   9.794 -0.4105 -0.5888 -1.4003
 5412SOL    HW227699   1.466   3.282   9.839  2.8782 -0.7508 -0.9774
 5413SOL     OW27700   3.247   0.184   5.286  0.0144  0.3079 -0.3732
 5413SOL    HW127701   3.270   0.171   5.194  0.1974 -2.3163  0.0346
 5413SOL    HW227702   3.170   0.126   5.292 -0.5980  1.1936  0.3473
 5414SOL     OW27703   3.633   2.825   5.531  0.4116 -0.2766  0.5403
 5414SOL    HW127704   3.556   2.882   5.523  1.4931  1.1362  0.1631
 5414SOL    HW227705   3.585   2.745   5.513  0.3527 -0.4234  1.3496
 5415SOL     OW27706   4.438   1.875   3.048  0.0472  0.6963  0.0346
 5415SOL    HW127707   4.526   1.906   3.027 -0.2210  0.4718 -1.4688
 5415SOL    HW227708   4.396   1.884   2.962 -0.4206  0.3515  0.2268
 5416SOL     OW27709   4.720   1.709  15.760 -0.0779 -0.6751  0.0335
 5416SOL    HW127710   0.093   1.701  15.764 -0.0830 -0.6889  0.1218
 5416SOL    HW227711   4.706   1.749  15.674 -1.7866 -1.0630  0.1255
 5417SOL     OW27712   2.423   2.761   7.515  0.8222  0.5183  0.0911
 5417SOL    HW127713   2.497   2.735   7.569 -0.2104  2.3220  2.3831
 5417SOL    HW227714   2.355   2.797   7.572  0.3956  2.0821 -1.3873
 5418SOL     OW27715   3.688   0.446   3.202 -0.3198  0.1065  0.1942
 5418SOL    HW127716   3.751   0.442   3.130 -0.9998  2.5177 -0.5481
 5418SOL    HW227717   3.713   0.531   3.239  1.9757 -0.5971  0.2382
 5419SOL     OW27718   2.933   2.361   8.464  0.4172 -0.2828 -0.5316
 5419SOL    HW127719   2.959   2.439   8.415  2.4472 -0.6374  0.0028
 5419SOL    HW227720   2.927   2.397   8.553 -1.7730  1.5551 -1.3949
 5420SOL     OW27721   0.982   1.065   2.278  0.0762 -0.1528 -0.0974
 5420SOL    HW127722   0.993   0.971   2.285  2.8456 -0.0282 -2.6687
 5420SOL    HW227723   0.965   1.079   2.185  1.4967 -0.2402 -0.3729
 5421SOL     OW27724   2.763   0.212   7.054  0.2375 -0.1936  0.2213
 5421SOL    HW127725   2.749   0.161   6.974  1.6215  0.1965 -0.2571
 5421SOL    HW227726   2.691   0.274   7.044  0.6277  0.1048 -0.7433
 5422SOL     OW27727   0.531   4.116   6.754 -0.0754 -0.1487 -0.2606
 5422SOL    HW127728   0.514   4.058   6.679  1.0560 -1.1282  0.2451
 5422SOL    HW227729   0.561   4.054   6.820  0.4668  1.5615  1.0567
 5423SOL     OW27730   2.532   3.869   4.661  0.1973  0.0754 -0.1655
 5423SOL    HW127731   2.459   3.813   4.634  0.7079 -0.0104 -1.4053
 5423SOL    HW227732   2.594   3.829   4.600  1.0364  2.1998 -0.7117
 5424SOL     OW27733   2.256   2.607   2.399 -0.5279 -0.1382  0.1143
 5424SOL    HW127734   2.189   2.541   2.418 -1.4248  0.8861  0.5070
 5424SOL    HW227735   2.279   2.588   2.308  0.6175 -0.0759  0.3950
 5425SOL     OW27736   0.137   4.492   5.420  0.1250  0.6327  0.0364
 5425SOL    HW127737   0.061   4.435   5.408  1.3774 -0.8240 -0.9802
 5425SOL    HW227738   0.197   4.436   5.470 -0.7376 -0.5587 -0.2504
 5426SOL     OW27739   1.504   0.665  10.709 -0.0085  0.2317 -0.1955
 5426SOL    HW127740   1.469   0.723  10.642  0.1713  0.3223 -0.2126
 5426SOL    HW227741   1.420   0.628  10.735 -0.6429  1.7105 -0.1846
 5427SOL     OW27742   2.665   1.803   8.574 -0.7034  0.1466  0.3635
 5427SOL    HW127743   2.662   1.767   8.486  1.1288  0.9060 -0.0113
 5427SOL    HW227744   2.624   1.890   8.568 -0.5811  0.4097  3.0468
 5428SOL     OW27745   0.842   0.932  13.901 -0.0252 -0.2926  0.2907
 5428SOL    HW127746   0.784   0.861  13.876  0.0225  0.1727 -1.1530
 5428SOL    HW227747   0.793   1.013  13.884 -0.5429 -1.1448 -2.2909
 5429SOL     OW27748   4.572   0.506   6.110  0.2824  0.4868 -0.1028
 5429SOL    HW127749   4.593   0.446   6.038 -0.9290 -1.3210  1.0582
 5429SOL    HW227750   4.500   0.560   6.077 -2.1722 -2.7000  0.0083
 5430SOL     OW27751   2.780   1.640   8.003 -0.1298 -0.2930 -0.0876
 5430SOL    HW127752   2.820   1.575   7.945  0.2425 -1.5324  1.5502
 5430SOL    HW227753   2.721   1.575   8.041  1.0020 -2.3137 -1.8218
 5431SOL     OW27754   3.296   0.037   0.369  0.6434  0.0756 -0.2069
 5431SOL    HW127755   3.291   4.717   0.455 -1.4518 -0.7764 -0.7465
 5431SOL    HW227756   3.212   0.017   0.328  1.3635 -0.0238 -1.5993
 5432SOL     OW27757   1.641   3.436   9.408 -0.1605 -0.3083  0.2086
 5432SOL    HW127758   1.684   3.511   9.366 -1.1027  0.0866 -0.0446
 5432SOL    HW227759   1.638   3.470   9.498 -1.9828  0.2704 -0.0840
 5433SOL     OW27760   0.141   4.068  14.463 -0.6012 -0.1254 -0.3371
 5433SOL    HW127761   0.106   4.128  14.397  0.2644  2.7164  1.7778
 5433SOL    HW227762   0.179   4.003  14.405  0.5760 -1.4120  1.8650
 5434SOL     OW27763   4.409   1.430   5.521 -0.1704 -0.3796  0.5644
 5434SOL    HW127764   4.494   1.403   5.486 -1.0709 -2.3007 -0.1593
 5434SOL    HW227765   4.442   1.518   5.541 -1.1091 -0.2014  1.3099
 5435SOL     OW27766   2.969   2.071   7.297  0.0519 -0.5455 -0.2351
 5435SOL    HW127767   3.024   2.133   7.248 -3.5816  2.7070 -0.1724
 5435SOL    HW227768   2.974   2.108   7.385  0.9553 -1.3090  0.0427
 5436SOL     OW27769   2.253   2.941   7.009 -0.0346 -0.0072  0.1862
 5436SOL    HW127770   2.205   2.980   7.082 -0.5624  0.2942 -0.3296
 5436SOL    HW227771   2.185   2.903   6.955 -0.5080 -1.4084  1.7836
 5437SOL     OW27772   0.459   2.890  12.904  0.0696 -0.0337  0.2589
 5437SOL    HW127773   0.465   2.871  12.998 -0.1033  2.1052  0.7081
 5437SOL    HW227774   0.430   2.981  12.895  2.3170  0.6633  0.0813
 5438SOL     OW27775   4.639   0.879   6.586  0.2262  0.4703 -0.0750
 5438SOL    HW127776   4.563   0.898   6.641 -0.1629 -0.6365 -0.2392
 5438SOL    HW227777   4.678   0.967   6.582  0.2205  0.3604 -2.1367
 5439SOL     OW27778   0.173   1.953   7.530 -0.4128  0.2323 -0.0574
 5439SOL    HW127779   0.105   1.990   7.474 -0.6979  0.6857  0.5851
 5439SOL    HW227780   0.130   1.931   7.612 -1.6011 -0.3390 -0.8408
 5440SOL     OW27781   4.707   2.120   3.614 -0.2570 -0.1896 -0.6476
 5440SOL    HW127782   0.033   2.101   3.695  0.2945  0.7071 -0.7622
 5440SOL    HW227783   4.638   2.056   3.630 -0.8152 -0.1973 -3.1946
 5441SOL     OW27784   2.441   4.510   7.317 -0.1496 -0.1264  0.5536
 5441SOL    HW127785   2.414   4.436   7.263  0.4136  0.6795 -0.8420
 5441SOL    HW227786   2.359   4.524   7.364  0.8550  1.1130  1.9489
 5442SOL     OW27787   0.039   0.011   6.850 -0.0991  0.4117 -0.2126
 5442SOL    HW127788   0.016   4.642   6.864  0.5967  0.1985 -0.4646
 5442SOL    HW227789   4.690   0.059   6.891 -0.1465  0.4719 -0.3640
 5443SOL     OW27790   1.097   4.343   6.673 -0.2709  0.1288  0.2239
 5443SOL    HW127791   1.186   4.354   6.706 -1.0477  3.2767  1.2452
 5443SOL    HW227792   1.055   4.292   6.743  4.1525 -2.2268  1.1789
 5444SOL     OW27793   3.605   1.832   7.769 -0.3140 -0.2732  0.1437
 5444SOL    HW127794   3.618   1.741   7.742  0.0572  0.3695 -1.8616
 5444SOL    HW227795   3.561   1.863   7.690 -0.9479  1.9989  1.4015
 5445SOL     OW27796   4.334   2.720  15.444  0.1143 -0.0521  0.2449
 5445SOL    HW127797   4.351   2.652  15.510 -0.1701 -1.0910 -0.7486
 5445SOL    HW227798   4.240   2.703  15.436  0.2899 -1.5881  1.2716
 5446SOL     OW27799   0.178   1.502   4.704  0.1615  0.4105  0.1638
 5446SOL    HW127800   0.201   1.486   4.795 -1.5587  1.1882  0.7352
 5446SOL    HW227801   0.202   1.595   4.702  0.7224  0.2396 -1.5642
 5447SOL     OW27802   0.575   0.264   5.290  0.2541  0.5688 -0.5042
 5447SOL    HW127803   0.650   0.318   5.265  0.6384  0.1805 -0.1887
 5447SOL    HW227804   0.612   0.181   5.260  2.3665  2.2042 -2.4261
 5448SOL     OW27805   4.695   2.536   3.793  0.5334 -0.1485  0.5232
 5448SOL    HW127806   4.703   2.473   3.721  1.2956  0.6707 -0.0990
 5448SOL    HW227807   4.629   2.588   3.747  0.6491 -0.2752  0.2110
 5449SOL     OW27808   1.211   1.518   7.059  0.4065  0.2929  0.2136
 5449SOL    HW127809   1.151   1.563   7.119  0.6061 -1.6861  1.9261
 5449SOL    HW227810   1.159   1.517   6.978  1.0772 -2.7507 -0.1663
 5450SOL     OW27811   0.059   0.647  15.282  0.2564 -0.3371  0.0045
 5450SOL    HW127812   0.114   0.636  15.205  1.4343  1.4616  0.5848
 5450SOL    HW227813   0.110   0.589  15.339  0.2212  0.1049  0.4861
 5451SOL     OW27814   0.719   2.957  12.869  0.1938  0.2784  0.2225
 5451SOL    HW127815   0.641   2.901  12.870 -0.0147  0.5673  0.5228
 5451SOL    HW227816   0.693   3.049  12.873  0.8255  0.5069 -0.9411
 5452SOL     OW27817   0.326   2.530   3.110  0.2944 -0.6007 -0.4856
 5452SOL    HW127818   0.360   2.557   3.195 -0.1835 -1.0759 -0.1425
 5452SOL    HW227819   0.264   2.464   3.142 -0.8422  2.0072  2.6617
 5453SOL     OW27820   4.677   1.498   6.489 -0.1194  0.4622 -0.0842
 5453SOL    HW127821   4.694   1.564   6.421  0.4311  1.9783  1.5401
 5453SOL    HW227822   4.650   1.553   6.561 -1.9582 -2.6363  1.5959
 5454SOL     OW27823   3.163   1.664   3.126 -0.5397  0.7398  0.0162
 5454SOL    HW127824   3.222   1.592   3.146 -0.2503  0.7571 -0.7802
 5454SOL    HW227825   3.114   1.628   3.053  1.1687  1.0878 -1.3033
 5455SOL     OW27826   0.119   3.114  13.199  0.6464  0.0766 -0.4858
 5455SOL    HW127827   0.024   3.119  13.202  0.7194  2.0089 -1.3689
 5455SOL    HW227828   0.146   3.100  13.109  0.4064 -1.7994 -0.2621
 5456SOL     OW27829   2.304   3.252   6.058 -0.1298  0.0617  0.5217
 5456SOL    HW127830   2.378   3.204   6.096 -0.8345 -2.1513 -0.9496
 5456SOL    HW227831   2.335   3.328   6.010  0.5112 -0.1619  0.5836
 5457SOL     OW27832   1.349   2.872   4.050  0.4060  0.4710  0.7691
 5457SOL    HW127833   1.311   2.791   4.085 -1.2870  1.6743  1.7567
 5457SOL    HW227834   1.430   2.878   4.101  1.3413 -0.0169 -0.6632
 5458SOL     OW27835   1.806   2.803   5.564 -0.6424 -0.3890 -0.5078
 5458SOL    HW127836   1.761   2.737   5.617  0.3467 -0.4736  0.2195
 5458SOL    HW227837   1.802   2.762   5.477 -2.1728  0.3764 -0.7945
 5459SOL     OW27838   2.325   2.593   8.990  0.2343  0.3657  0.7577
 5459SOL    HW127839   2.388   2.580   9.060  1.0299 -0.5166 -0.1199
 5459SOL    HW227840   2.294   2.676   9.027 -1.5081  0.0259  0.0979
 5460SOL     OW27841   2.331   1.988   8.086 -0.3081  0.2234 -0.1966
 5460SOL    HW127842   2.331   2.058   8.020  0.9617  1.0385  0.6794
 5460SOL    HW227843   2.409   2.006   8.138  0.7951  0.6624 -1.9995
 5461SOL     OW27844   2.231   2.104   6.762  0.0637 -0.3249 -0.4638
 5461SOL    HW127845   2.213   2.181   6.707 -0.8458 -0.5432 -0.4665
 5461SOL    HW227846   2.176   2.037   6.721 -0.2998  0.1229 -0.7131
 5462SOL     OW27847   2.472   4.613  16.286 -0.1902  0.2557  0.0361
 5462SOL    HW127848   2.432   4.637  16.370 -1.7215 -0.0038 -0.6120
 5462SOL    HW227849   2.561   4.597  16.317  0.6018  0.5099 -2.1634
 5463SOL     OW27850   0.962   4.355  12.072 -0.4366 -0.1983  0.3235
 5463SOL    HW127851   0.994   4.444  12.065 -1.0611 -0.0181 -0.2279
 5463SOL    HW227852   0.869   4.366  12.091  0.6750  4.9063  2.8180
 5464SOL     OW27853   0.370   1.795   2.617  0.3543  0.3017 -0.0888
 5464SOL    HW127854   0.330   1.722   2.571 -0.2036 -0.1210  1.0683
 5464SOL    HW227855   0.453   1.757   2.645  0.9225  1.5787 -0.0184
 5465SOL     OW27856   1.093   2.351   8.746 -0.5015 -0.5851 -0.5821
 5465SOL    HW127857   1.001   2.326   8.738 -0.5219 -0.8241  0.4274
 5465SOL    HW227858   1.123   2.313   8.828 -3.4048  0.8362  1.1537
 5466SOL     OW27859   3.656   4.464  13.834  0.3499 -0.1650 -0.3870
 5466SOL    HW127860   3.720   4.393  13.843 -0.9446 -0.9375  2.9070
 5466SOL    HW227861   3.703   4.541  13.802  1.4868 -1.0922 -0.9515
 5467SOL     OW27862   1.716   1.707  15.667  0.1063  0.1237  0.5618
 5467SOL    HW127863   1.759   1.756  15.737  0.6610 -0.4731  0.6297
 5467SOL    HW227864   1.639   1.675  15.714  0.0438  2.6310  2.1731
 5468SOL     OW27865   0.518   2.811  14.318 -0.5312 -0.1432  0.5029
 5468SOL    HW127866   0.549   2.873  14.252  0.6996  0.0852  1.2822
 5468SOL    HW227867   0.466   2.875  14.366  1.2874  1.5676  0.1594
 5469SOL     OW27868   4.673   4.144   0.279  0.0528 -0.3173 -0.3526
 5469SOL    HW127869   4.670   4.235   0.249  3.1529  0.4988  1.7866
 5469SOL    HW227870   0.024   4.138   0.339  0.7323 -0.2421 -1.1701
 5470SOL     OW27871   0.213   2.877   2.493  0.6188  0.3503 -0.0988
 5470SOL    HW127872   0.175   2.794   2.465  0.2093  1.1072 -1.8569
 5470SOL    HW227873   0.158   2.938   2.443  1.4378 -0.1164 -1.5724
 5471SOL     OW27874   4.319   0.261   3.378 -1.0583 -0.1475 -0.1628
 5471SOL    HW127875   4.231   0.299   3.373 -0.4316  1.4210  0.7752
 5471SOL    HW227876   4.320   0.196   3.308 -1.1816  0.7348 -0.9889
 5472SOL     OW27877   4.160   3.805  14.017  0.7088 -0.2196  0.0519
 5472SOL    HW127878   4.169   3.816  13.923 -0.7077  0.2753 -0.0174
 5472SOL    HW227879   4.227   3.870  14.040 -1.9030  2.1708  0.9570
 5473SOL     OW27880   3.778   4.012   2.102  0.4117 -0.9511  0.2583
 5473SOL    HW127881   3.763   4.069   2.178 -0.0120 -0.5685 -0.1126
 5473SOL    HW227882   3.713   3.946   2.126 -0.2379 -0.6848 -0.7630
 5474SOL     OW27883   1.160   0.091  17.324  0.4795  0.2409 -0.0506
 5474SOL    HW127884   1.250   0.059  17.331  0.3452 -0.1867 -0.2567
 5474SOL    HW227885   1.125   0.067  17.410  2.0768  1.4338  0.9260
 5475SOL     OW27886   3.346   2.373   7.799 -0.1538  0.3905  0.2370
 5475SOL    HW127887   3.422   2.348   7.746  0.1195  1.9238 -0.1144
 5475SOL    HW227888   3.398   2.421   7.864 -1.0991 -1.1356  2.1046
 5476SOL     OW27889   3.230   0.922   6.236  0.2501  0.1961 -0.2853
 5476SOL    HW127890   3.232   0.996   6.298 -0.9829 -2.9426  3.5087
 5476SOL    HW227891   3.195   0.972   6.162 -2.9655 -2.3356 -0.4839
 5477SOL     OW27892   2.082   0.353  13.100  0.2815 -0.9768 -0.0367
 5477SOL    HW127893   2.033   0.428  13.133  0.9679 -0.2407 -0.6542
 5477SOL    HW227894   2.160   0.375  13.151  0.5035  0.2918 -0.9040
 5478SOL     OW27895   0.980   3.950   5.241  0.2250  0.0891  0.5842
 5478SOL    HW127896   0.959   4.043   5.246  0.1863  0.0534  1.1358
 5478SOL    HW227897   1.022   3.938   5.326 -1.8237  0.8058  1.7033
 5479SOL     OW27898   0.711   2.625  14.190 -0.2432  0.0804  0.2890
 5479SOL    HW127899   0.696   2.714  14.221 -2.6028 -0.1838 -0.0949
 5479SOL    HW227900   0.801   2.623  14.157 -0.0111 -1.3442  0.9832
 5480SOL     OW27901   3.885   3.946   5.728 -0.2180  0.0631 -0.3164
 5480SOL    HW127902   3.800   3.988   5.727  0.0381  0.5454 -1.4933
 5480SOL    HW227903   3.946   4.017   5.749 -0.2295 -0.0879  0.2264
 5481SOL     OW27904   2.448   2.424   9.366  0.0483  0.3381  0.3365
 5481SOL    HW127905   2.444   2.330   9.348 -1.1396  0.9085 -2.3984
 5481SOL    HW227906   2.369   2.435   9.420 -0.7510  0.0367 -0.7880
 5482SOL     OW27907   2.408   0.766   4.525 -0.3674 -0.1897 -0.1462
 5482SOL    HW127908   2.459   0.846   4.513 -0.8618  0.2461  0.6381
 5482SOL    HW227909   2.472   0.701   4.552 -0.3809 -0.1504 -0.0173
 5483SOL     OW27910   0.775   4.224   4.153  0.8564  0.4948 -0.3281
 5483SOL    HW127911   0.751   4.226   4.245  0.7810 -0.3692 -0.3312
 5483SOL    HW227912   0.797   4.134   4.129 -0.5338 -0.3716  1.6666
 5484SOL     OW27913   3.414   2.991   3.135  1.1913 -0.0229 -0.9230
 5484SOL    HW127914   3.433   3.079   3.101  3.4714 -1.1513 -2.5533
 5484SOL    HW227915   3.465   2.935   3.077  1.6982 -1.1844  0.6453
 5485SOL     OW27916   0.215   4.673   2.849  0.0090  0.0998  0.1501
 5485SOL    HW127917   0.245   0.032   2.809  2.8607 -0.5816  0.9321
 5485SOL    HW227918   0.293   4.651   2.899 -1.9268 -2.6766  1.9515
 5486SOL     OW27919   4.430   3.854   4.260 -0.0892 -0.0361  0.8183
 5486SOL    HW127920   4.406   3.866   4.168  1.7531  0.3570  0.3982
 5486SOL    HW227921   4.474   3.769   4.253  0.5588  0.5726 -2.2348
 5487SOL     OW27922   2.553   2.459   2.922 -0.5163  0.0962 -0.2917
 5487SOL    HW127923   2.530   2.502   2.839 -0.4819  2.1556  0.7806
 5487SOL    HW227924   2.540   2.521   2.993  2.0253 -1.3213  1.4103
 5488SOL     OW27925   2.944   3.287   5.333 -0.5043  0.0031  0.5883
 5488SOL    HW127926   2.993   3.361   5.298  1.3444 -1.3650  0.2952
 5488SOL    HW227927   2.857   3.327   5.336 -0.4605  0.1232  0.2862
 5489SOL     OW27928   0.688   4.469  16.245 -0.3662 -0.5096  0.0370
 5489SOL    HW127929   0.597   4.456  16.270 -0.2699 -0.4805  0.4129
 5489SOL    HW227930   0.732   4.412  16.308 -1.6616 -0.6007  0.8640
 5490SOL     OW27931   2.298   4.087   4.724  0.1537  0.1905  0.1156
 5490SOL    HW127932   2.221   4.089   4.781 -0.3233  0.0408 -0.5236
 5490SOL    HW227933   2.364   4.051   4.784 -0.1607 -0.7801 -0.1169
 5491SOL     OW27934   1.209   0.683   4.507 -0.2919  0.1534 -0.1609
 5491SOL    HW127935   1.264   0.740   4.454 -0.2160 -0.3136 -0.5785
 5491SOL    HW227936   1.222   0.730   4.590 -1.5347  0.3299 -0.0621
 5492SOL     OW27937   3.179   0.025   2.939  0.1113 -0.0232 -0.1520
 5492SOL    HW127938   3.115   4.681   2.914 -2.8775  2.0856  1.9624
 5492SOL    HW227939   3.154   0.040   3.030  0.1022 -0.0376 -0.1523
 5493SOL     OW27940   1.895   1.972   0.469  0.1148 -1.0057 -0.2803
 5493SOL    HW127941   1.985   1.941   0.469 -0.0750 -1.5732 -0.3512
 5493SOL    HW227942   1.837   1.896   0.461  0.4102 -1.4208  1.4623
 5494SOL     OW27943   3.592   1.099  12.919 -0.5725 -0.6347 -0.1151
 5494SOL    HW127944   3.546   1.016  12.906  1.8741 -2.0414  0.1128
 5494SOL    HW227945   3.668   1.054  12.956 -1.7653 -0.1241  2.9502
 5495SOL     OW27946   2.964   4.496   0.081  0.1066 -0.1615  0.7512
 5495SOL    HW127947   2.883   4.512   0.031  0.0913 -3.8700 -0.3579
 5495SOL    HW227948   2.963   4.401   0.071  2.1408 -0.3034  1.9744
 5496SOL     OW27949   1.329   4.164   8.459 -0.1153 -0.1594 -0.0209
 5496SOL    HW127950   1.411   4.169   8.409 -1.4174  2.5075 -1.8551
 5496SOL    HW227951   1.342   4.241   8.515 -0.6655 -1.5589  2.0460
 5497SOL     OW27952   4.557   2.280   5.723  0.0896  0.4127  0.7890
 5497SOL    HW127953   4.646   2.283   5.687  0.0516 -0.3478  0.6317
 5497SOL    HW227954   4.585   2.317   5.807  1.3999 -1.0924  1.0078
 5498SOL     OW27955   1.443   0.679   4.681  0.5174  0.7044  0.5617
 5498SOL    HW127956   1.468   0.754   4.627  1.7162 -1.2613 -1.6550
 5498SOL    HW227957   1.381   0.725   4.737  3.5891  2.8834  2.1587
 5499SOL     OW27958   1.047   3.358   2.688  0.5333 -0.2090  0.1334
 5499SOL    HW127959   1.012   3.427   2.745 -1.1932 -2.1999  1.4641
 5499SOL    HW227960   0.976   3.295   2.683  0.7611 -0.1873 -3.3278
 5500SOL     OW27961   0.306   0.081  15.218 -0.0080  0.1479  0.0206
 5500SOL    HW127962   0.379   0.057  15.161  0.1612  0.1834  0.2251
 5500SOL    HW227963   0.362   0.098  15.293 -0.8431  4.0333 -0.2476
 5501SOL     OW27964   1.543   2.123   5.032  0.6574  0.3642 -0.2482
 5501SOL    HW127965   1.523   2.030   5.022  1.0422  0.3390 -0.7396
 5501SOL    HW227966   1.638   2.127   5.032  0.7307 -1.4164 -1.4127
 5502SOL     OW27967   0.621   2.822  15.498  0.5705  0.7169  0.5272
 5502SOL    HW127968   0.649   2.748  15.444 -0.1127  1.7069 -1.1816
 5502SOL    HW227969   0.640   2.789  15.586  0.8532 -0.6157 -0.0360
 5503SOL     OW27970   3.155   1.740   4.619 -0.2164 -0.2703  0.1473
 5503SOL    HW127971   3.181   1.685   4.692  0.9590  0.5028  0.3038
 5503SOL    HW227972   3.076   1.781   4.653  0.2427 -1.2673  2.4135
 5504SOL     OW27973   0.875   3.445  13.943 -0.0615 -0.3298 -0.4569
 5504SOL    HW127974   0.792   3.494  13.937  0.0430 -0.5195 -3.6789
 5504SOL    HW227975   0.952   3.498  13.925  0.8076 -1.5663 -0.3368
 5505SOL     OW27976   3.831   4.416   6.029 -0.3406 -0.0599 -0.2730
 5505SOL    HW127977   3.910   4.466   6.010  0.0804 -0.7151 -0.2229
 5505SOL    HW227978   3.811   4.454   6.114 -2.8699  2.3335 -1.9007
 5506SOL     OW27979   0.154   4.313  12.718 -0.3212  0.1130 -0.2039
 5506SOL    HW127980   0.061   4.338  12.722  0.0407  1.7112 -1.9859
 5506SOL    HW227981   0.185   4.374  12.785 -1.7052  0.4901  0.1022
 5507SOL     OW27982   1.635   1.867  13.056  0.2406  0.2102  0.2645
 5507SOL    HW127983   1.591   1.952  13.060 -2.2439 -1.1536  1.8324
 5507SOL    HW227984   1.654   1.863  12.962  2.6813  1.6005  0.6944
 5508SOL     OW27985   0.932   1.382  17.194 -0.1843 -0.3632  0.7549
 5508SOL    HW127986   0.857   1.418  17.147  0.9415 -0.4264 -1.0643
 5508SOL    HW227987   0.894   1.361  17.280  0.8478 -2.8512  0.5924
 5509SOL     OW27988   4.468   2.051   5.811  0.0524 -0.1834 -0.2234
 5509SOL    HW127989   4.397   2.021   5.754 -0.2223 -0.7236  0.4077
 5509SOL    HW227990   4.489   2.133   5.766  0.8480 -0.0992  0.3018
 5510SOL     OW27991   2.491   3.374  10.094 -0.0060 -0.4414 -0.1142
 5510SOL    HW127992   2.441   3.455  10.102  0.5806 -0.0223 -0.7005
 5510SOL    HW227993   2.422   3.308  10.089 -2.3292  2.0100 -0.3045
 5511SOL     OW27994   4.620   0.028   0.636  0.2716 -0.6911  0.1556
 5511SOL    HW127995   4.606   0.116   0.671 -0.7098  0.0532 -2.1204
 5511SOL    HW227996   4.665   4.707   0.708 -1.6558 -0.6713  1.3639
 5512SOL     OW27997   2.706   1.579   2.760  0.0305  0.1349 -0.3927
 5512SOL    HW127998   2.774   1.529   2.714  0.7684  2.7940 -2.1678
 5512SOL    HW227999   2.742   1.668   2.763 -0.5732  0.3277  1.1793
 5513SOL     OW28000   1.133   0.645   5.858 -0.5438  0.0421  0.7148
 5513SOL    HW128001   1.075   0.631   5.783 -0.4176  0.0889  0.6077
 5513SOL    HW228002   1.180   0.724   5.833  1.3429 -1.4954 -0.6591
 5514SOL     OW28003   0.656   0.408   3.619 -0.4889  0.3806 -0.0191
 5514SOL    HW128004   0.730   0.372   3.668 -1.7492 -0.7290  1.0884
 5514SOL    HW228005   0.595   0.334   3.628 -1.8755  1.6023  0.6549
 5515SOL     OW28006   2.132   3.003   1.715 -0.5893  0.0529  0.7830
 5515SOL    HW128007   2.167   3.090   1.697  0.6618 -0.1262  2.3758
 5515SOL    HW228008   2.178   2.977   1.795 -0.0543  0.9995  0.7934
 5516SOL     OW28009   4.689   4.129   0.637  0.0003  0.0441  0.2904
 5516SOL    HW128010   4.677   4.205   0.580 -4.9921 -0.9672  0.0139
 5516SOL    HW228011   4.651   4.058   0.585  2.2068 -2.2341  1.7600
 5517SOL     OW28012   2.094   0.702   7.740 -0.0683 -0.1789  0.4894
 5517SOL    HW128013   2.108   0.668   7.652 -2.3497  0.0569  0.0360
 5517SOL    HW228014   2.164   0.767   7.745 -0.8611  0.6807  0.4064
 5518SOL     OW28015   1.844   3.481   0.772 -0.2981 -0.1769  0.9250
 5518SOL    HW128016   1.864   3.559   0.824 -0.3662 -0.3748  1.2464
 5518SOL    HW228017   1.752   3.502   0.784 -0.6959 -0.4687 -1.6729
 5519SOL     OW28018   0.814   3.456   2.536 -0.0778 -0.1341  0.5250
 5519SOL    HW128019   0.812   3.386   2.601 -0.8358  0.6282  1.3193
 5519SOL    HW228020   0.775   3.419   2.457  1.6467  0.2561 -0.5167
 5520SOL     OW28021   4.110   4.555   4.133  0.0639  0.3577  0.1536
 5520SOL    HW128022   4.069   4.470   4.120  1.0218 -0.2232  0.9213
 5520SOL    HW228023   4.132   4.572   4.041  0.1669  2.1184  0.5096
 5521SOL     OW28024   2.884   4.697   4.359  0.2235 -0.0349  0.5505
 5521SOL    HW128025   2.804   4.661   4.319  0.2237  1.6460 -0.9798
 5521SOL    HW228026   2.857   0.012   4.443 -0.2393  0.5355  0.1483
 5522SOL     OW28027   4.530   1.185  12.103  0.0217 -0.0835  0.1219
 5522SOL    HW128028   4.479   1.216  12.028  3.1719 -1.3834 -2.5406
 5522SOL    HW228029   4.464   1.141  12.157  0.9503 -0.9845  0.5114
 5523SOL     OW28030   2.812   3.386  14.131  0.3116 -0.1620  0.0819
 5523SOL    HW128031   2.857   3.410  14.212  0.3619  1.3836 -0.3941
 5523SOL    HW228032   2.777   3.474  14.116  0.0782 -0.1845  0.4978
 5524SOL     OW28033   0.692   0.824  13.647  0.7303 -0.5671 -0.7018
 5524SOL    HW128034   0.640   0.806  13.725  0.1542 -2.0274 -1.4247
 5524SOL    HW228035   0.761   0.757  13.656 -0.3643 -1.3600  1.8958
 5525SOL     OW28036   0.344   2.550  10.672 -0.3036 -0.0182  0.5259
 5525SOL    HW128037   0.289   2.522  10.599  0.3173  0.7312 -0.2390
 5525SOL    HW228038   0.428   2.511  10.650  0.6005  2.5590 -0.6314
 5526SOL     OW28039   0.457   1.077  10.678  0.5293 -0.1234 -0.0043
 5526SOL    HW128040   0.428   1.144  10.740  1.1415  0.0399  0.1086
 5526SOL    HW228041   0.406   1.009  10.721 -0.7523 -0.0661 -1.4654
 5527SOL     OW28042   4.104   2.819   4.895 -0.2876 -0.0086 -0.1103
 5527SOL    HW128043   4.167   2.843   4.827 -1.6766  2.2839 -0.5929
 5527SOL    HW228044   4.133   2.730   4.911  0.9503  0.3919 -0.1819
 5528SOL     OW28045   1.374   0.484  16.891 -0.3405  0.3220 -0.3532
 5528SOL    HW128046   1.368   0.488  16.796 -1.0687  0.7353 -0.2921
 5528SOL    HW228047   1.469   0.485  16.895 -0.3033  3.0955 -1.7433
 5529SOL     OW28048   4.365   0.941  12.736  0.6291 -0.3743 -0.5706
 5529SOL    HW128049   4.362   0.988  12.819 -1.9610  0.8069 -1.3496
 5529SOL    HW228050   4.460   0.938  12.721  0.6176 -1.7847 -0.3705
 5530SOL     OW28051   2.269   4.414   6.308  0.3761  0.3139  0.6267
 5530SOL    HW128052   2.275   4.508   6.294 -1.2366  0.1830 -0.9297
 5530SOL    HW228053   2.351   4.390   6.265  1.3332  1.4257  1.8232
 5531SOL     OW28054   1.144   3.285   6.548 -0.4796  0.1727  0.0421
 5531SOL    HW128055   1.059   3.322   6.571 -1.1884 -0.9940 -0.7064
 5531SOL    HW228056   1.205   3.336   6.601 -1.6259  0.2325  1.2797
 5532SOL     OW28057   0.326   4.313  15.430 -0.7430 -0.5227 -0.4063
 5532SOL    HW128058   0.309   4.335  15.521 -1.1005  2.2014 -1.1317
 5532SOL    HW228059   0.342   4.219  15.442 -0.0896 -0.3810 -0.2200
 5533SOL     OW28060   4.550   4.101  14.378  0.1223 -0.3160  0.1656
 5533SOL    HW128061   4.631   4.143  14.352 -1.1906  0.3131 -2.8473
 5533SOL    HW228062   4.499   4.163  14.430 -0.1766  0.7125 -1.3556
 5534SOL     OW28063   1.992   4.134  11.905  0.7181 -0.5660  0.9168
 5534SOL    HW128064   2.001   4.115  11.812 -0.0412 -1.0534  0.9380
 5534SOL    HW228065   1.901   4.165  11.895  2.2816  2.8105 -2.8663
 5535SOL     OW28066   1.187   2.477  12.840 -0.1745 -0.0381 -0.2898
 5535SOL    HW128067   1.281   2.492  12.837 -0.3438  1.2892  0.6434
 5535SOL    HW228068   1.144   2.551  12.797 -0.2986  0.2977  0.4029
 5536SOL     OW28069   4.651   2.147   4.456  0.0850 -0.2533 -0.5780
 5536SOL    HW128070   0.012   2.102   4.467 -0.8887 -2.0560 -0.6004
 5536SOL    HW228071   4.665   2.194   4.374 -1.7766  0.1299 -0.6658
 5537SOL     OW28072   3.621   3.727   1.548 -0.3218  0.2777 -0.3666
 5537SOL    HW128073   3.570   3.649   1.568  0.2384  0.4085  1.5997
 5537SOL    HW228074   3.625   3.726   1.452 -1.7818  0.2469 -0.4304
 5538SOL     OW28075   4.546   2.825   7.952  0.2662  0.2825  0.5167
 5538SOL    HW128076   4.522   2.910   7.915 -0.9080  1.3261  3.6381
 5538SOL    HW228077   4.568   2.772   7.876 -1.4184 -1.2219  1.0797
 5539SOL     OW28078   3.923   3.524   8.793  0.0434 -0.6484  0.1138
 5539SOL    HW128079   3.930   3.619   8.806 -1.2774 -0.1996 -2.5193
 5539SOL    HW228080   3.956   3.492   8.876  2.5655  0.5611 -0.4216
 5540SOL     OW28081   0.342   2.260   8.498  0.1111 -0.2704  0.2615
 5540SOL    HW128082   0.326   2.337   8.553  0.8580 -1.7673  2.5601
 5540SOL    HW228083   0.414   2.211   8.537 -0.6032 -2.7215 -1.5259
 5541SOL     OW28084   1.574   0.452   2.851  0.0611 -0.6989  0.0511
 5541SOL    HW128085   1.640   0.522   2.855 -0.2450 -0.5958  3.2171
 5541SOL    HW228086   1.495   0.494   2.818 -0.1452  2.0786  4.1269
 5542SOL     OW28087   2.905   0.811   8.852 -0.2939  0.1343  0.2630
 5542SOL    HW128088   2.892   0.869   8.927 -2.6786 -0.9305  0.6888
 5542SOL    HW228089   2.932   0.863   8.776  0.7454  0.3133  0.7603
 5543SOL     OW28090   0.778   4.537   2.205  0.0893  0.0378 -0.1099
 5543SOL    HW128091   0.800   4.623   2.242  0.6453 -0.1939  0.1069
 5543SOL    HW228092   0.860   4.500   2.173 -1.1496  0.3618 -3.5912
 5544SOL     OW28093   0.241   4.273   2.984 -0.0598  0.0107 -0.4669
 5544SOL    HW128094   0.147   4.272   3.001  0.0293 -0.6786 -0.0319
 5544SOL    HW228095   0.249   4.226   2.900  0.7772  2.2853 -1.6677
 5545SOL     OW28096   3.684   2.477   4.699 -0.3177 -0.4671  0.2267
 5545SOL    HW128097   3.732   2.560   4.701  0.3117 -0.7756 -2.0850
 5545SOL    HW228098   3.626   2.494   4.624  0.5007  1.9795  0.1527
 5546SOL     OW28099   2.111   2.253   2.769  0.1113 -0.1606 -0.1356
 5546SOL    HW128100   2.190   2.301   2.745  0.2685 -0.5895 -0.4776
 5546SOL    HW228101   2.059   2.275   2.691 -1.2554 -0.6288  0.6366
 5547SOL     OW28102   1.807   0.283   3.500 -0.3875  0.1790  0.1442
 5547SOL    HW128103   1.742   0.213   3.507 -1.4947  0.9321 -2.6654
 5547SOL    HW228104   1.827   0.259   3.409 -2.2992  1.2570 -0.5485
 5548SOL     OW28105   4.452   1.252   2.132 -0.4912  0.1279  0.0068
 5548SOL    HW128106   4.539   1.244   2.093  0.7850 -2.4584  3.3176
 5548SOL    HW228107   4.457   1.341   2.167 -1.7161  0.4449 -0.6290
 5549SOL     OW28108   2.428   3.967   3.728  0.2435  0.5071 -0.0153
 5549SOL    HW128109   2.465   4.046   3.689 -0.8245  1.1378  0.2405
 5549SOL    HW228110   2.503   3.935   3.778  2.1364  2.4660 -1.5938
 5550SOL     OW28111   2.953   4.571   2.905 -0.3066  0.7388  0.2927
 5550SOL    HW128112   2.914   4.622   2.977  0.8369  2.1388 -0.0834
 5550SOL    HW228113   2.877   4.577   2.847 -0.1953  1.9990  0.2774
 5551SOL     OW28114   0.852   0.108   1.158 -0.4547  0.1072  0.3869
 5551SOL    HW128115   0.895   0.102   1.243 -3.0039  1.2596  1.7581
 5551SOL    HW228116   0.761   0.089   1.182 -0.9103  1.5423 -0.1752
 5552SOL     OW28117   2.030   2.385  15.502  0.2844  0.1223  0.0693
 5552SOL    HW128118   2.053   2.323  15.572  0.1684  2.0192  1.7756
 5552SOL    HW228119   1.938   2.393  15.525  0.0949 -0.5782 -0.4514
 5553SOL     OW28120   0.691   3.298  11.924 -0.1286 -0.0503 -0.3153
 5553SOL    HW128121   0.774   3.339  11.899 -0.1672 -1.2366 -2.3352
 5553SOL    HW228122   0.706   3.267  12.013  1.4610  0.3534 -0.4383
 5554SOL     OW28123   0.895   2.284   5.740  0.0386 -0.4979  0.4208
 5554SOL    HW128124   0.945   2.355   5.700 -1.1800 -0.0513 -0.2942
 5554SOL    HW228125   0.832   2.268   5.670  0.1707 -1.3013  0.4907
 5555SOL     OW28126   4.712   3.738  10.881 -0.8936  0.0037  0.0562
 5555SOL    HW128127   4.620   3.765  10.878 -0.9721 -0.4240 -1.4352
 5555SOL    HW228128   4.699   3.643  10.884  3.1351 -0.5415 -0.2351
 5556SOL     OW28129   4.642   0.533  17.612 -0.5412 -0.3772 -0.2335
 5556SOL    HW128130   4.612   0.578  17.691  2.2308  1.6442 -0.3209
 5556SOL    HW228131   4.623   0.440  17.624 -0.6624 -0.5561 -1.8067
 5557SOL     OW28132   0.484   1.607   4.684 -0.7532 -0.4481 -0.2474
 5557SOL    HW128133   0.467   1.549   4.610  0.4983  1.4483 -2.0261
 5557SOL    HW228134   0.549   1.561   4.738 -1.2573 -2.2521 -1.1949
 5558SOL     OW28135   0.339   1.897   9.736 -0.8454  0.2651 -0.0421
 5558SOL    HW128136   0.290   1.979   9.732 -0.0676  0.7656  0.6695
 5558SOL    HW228137   0.430   1.926   9.730 -1.2415  1.3535 -0.7809
 5559SOL     OW28138   3.701   4.663  12.573 -0.2655  0.4006  0.8405
 5559SOL    HW128139   3.665   4.581  12.608  0.9974 -0.4384  0.1765
 5559SOL    HW228140   3.651   4.716  12.635  1.8495  2.7083  0.5391
 5560SOL     OW28141   3.602   3.033  10.759  0.2536  0.4021  0.1335
 5560SOL    HW128142   3.552   3.010  10.681 -0.8763  1.4910  0.5248
 5560SOL    HW228143   3.595   2.962  10.822  0.0214  0.3683  0.0676
 5561SOL     OW28144   2.393   2.742   5.211 -0.3497 -0.2170  0.7257
 5561SOL    HW128145   2.333   2.811   5.183 -1.2080 -1.4393 -0.5035
 5561SOL    HW228146   2.457   2.750   5.140 -0.4578 -0.2996  0.6181
 5562SOL     OW28147   1.377   1.513   8.621  0.1563  0.3611  0.6964
 5562SOL    HW128148   1.384   1.513   8.717  0.6041  0.3570  0.6610
 5562SOL    HW228149   1.329   1.595   8.608 -1.4572 -0.6181  0.4479
 5563SOL     OW28150   1.593   3.832   6.225 -0.2892  0.4593 -0.3922
 5563SOL    HW128151   1.602   3.884   6.145 -0.6200  0.0316 -0.7137
 5563SOL    HW228152   1.634   3.882   6.296 -0.4981 -0.5848  0.4646
 5564SOL     OW28153   3.534   2.075  10.631 -0.2614  0.5551 -0.1584
 5564SOL    HW128154   3.480   2.074  10.710  1.2525 -2.8079  0.8389
 5564SOL    HW228155   3.504   2.152  10.583 -0.4297  1.1308  0.8636
 5565SOL     OW28156   3.471   2.359   2.243  0.2694  0.2050 -0.6331
 5565SOL    HW128157   3.410   2.301   2.196 -0.1050  0.3191 -0.2896
 5565SOL    HW228158   3.478   2.441   2.194 -0.1822  1.0065  0.6391
 5566SOL     OW28159   4.397   4.200   7.113  0.2291 -0.1056  0.0653
 5566SOL    HW128160   4.418   4.245   7.195  0.3577 -0.8374  0.4338
 5566SOL    HW228161   4.381   4.115   7.155  0.0465 -0.3999 -0.6053
 5567SOL     OW28162   2.406   3.759   2.852  0.0781 -0.2762 -0.0994
 5567SOL    HW128163   2.476   3.789   2.793  0.2386 -1.6895 -0.6455
 5567SOL    HW228164   2.340   3.826   2.837  2.0790  1.5012 -1.1424
 5568SOL     OW28165   1.322   0.451   3.650 -0.4111 -0.2413  0.2323
 5568SOL    HW128166   1.228   0.439   3.663 -0.4001 -0.0618  0.4830
 5568SOL    HW228167   1.325   0.458   3.555  1.8786 -1.6274  0.2122
 5569SOL     OW28168   1.024   3.747  14.361  0.2803 -0.1684  0.1492
 5569SOL    HW128169   1.097   3.691  14.336 -0.9912 -1.5870 -0.3664
 5569SOL    HW228170   1.063   3.834  14.356 -0.6421  0.3288  1.5797
 5570SOL     OW28171   3.187   3.200   6.087  0.4719  0.0858  0.2861
 5570SOL    HW128172   3.226   3.269   6.140  2.1191 -1.8846  1.6152
 5570SOL    HW228173   3.151   3.146   6.157  0.7742 -0.1716  0.2421
 5571SOL     OW28174   0.590   0.784   5.064 -0.4498  0.4034  0.2061
 5571SOL    HW128175   0.675   0.794   5.021  0.0373 -0.2117  1.0238
 5571SOL    HW228176   0.598   0.797   5.158 -0.6148 -1.4147  0.4626
 5572SOL     OW28177   0.964   3.162   9.417 -0.0137  0.3471  0.1132
 5572SOL    HW128178   1.043   3.208   9.390 -0.3300 -0.1392 -1.6377
 5572SOL    HW228179   0.998   3.102   9.483  0.4214  0.9949  0.4809
 5573SOL     OW28180   3.394   2.634   6.778 -0.1565  0.0434  0.1411
 5573SOL    HW128181   3.470   2.663   6.829 -1.3080  2.6153  0.3858
 5573SOL    HW228182   3.377   2.712   6.725  1.1595  0.5623  0.4721
 5574SOL     OW28183   2.793   3.391  13.519  0.0289  0.7883 -0.0377
 5574SOL    HW128184   2.850   3.468  13.507 -0.4473  1.3414  1.3682
 5574SOL    HW228185   2.854   3.330  13.561  0.5155  0.8302 -0.6644
 5575SOL     OW28186   0.463   0.880   8.061  0.1778 -0.1490  0.0992
 5575SOL    HW128187   0.408   0.887   8.139 -1.3232 -1.3295 -0.8549
 5575SOL    HW228188   0.400   0.844   8.000 -0.1300 -1.5102  1.2168
 5576SOL     OW28189   4.458   4.011   2.004  0.3746  0.1828  0.4536
 5576SOL    HW128190   4.403   3.974   2.073 -0.4628 -0.9310 -0.8118
 5576SOL    HW228191   4.546   3.983   2.029 -0.0871 -2.9441 -1.3845
 5577SOL     OW28192   4.503   2.113  13.616 -0.3612 -0.1775 -0.2275
 5577SOL    HW128193   4.433   2.118  13.682 -0.2453  0.0781 -0.1261
 5577SOL    HW228194   4.564   2.156  13.676 -0.4230 -1.5148  0.7839
 5578SOL     OW28195   3.271   4.501   4.080 -0.2255 -0.5889  0.2988
 5578SOL    HW128196   3.355   4.523   4.039  0.0143 -1.6804  0.1976
 5578SOL    HW228197   3.298   4.494   4.171 -0.0131 -1.6708  0.1451
 5579SOL     OW28198   3.777   4.103   4.246  0.2912 -0.1489  0.2498
 5579SOL    HW128199   3.825   4.025   4.219 -1.7914 -1.3268 -0.0810
 5579SOL    HW228200   3.752   4.147   4.165  0.4207 -0.3879  0.0776
 5580SOL     OW28201   3.872   0.598  14.702  0.1958 -0.2209 -0.0524
 5580SOL    HW128202   3.952   0.603  14.755  0.9246  1.9572 -1.3499
 5580SOL    HW228203   3.810   0.567  14.768  1.7622  0.9703  1.9628
 5581SOL     OW28204   3.295   2.462   5.620 -0.1598  0.3174  0.4773
 5581SOL    HW128205   3.274   2.531   5.683 -0.5669  0.8698 -0.2713
 5581SOL    HW228206   3.213   2.413   5.611 -0.0627 -0.1924  2.2115
 5582SOL     OW28207   3.098   0.122   4.282  0.4320  0.1675 -0.0801
 5582SOL    HW128208   3.051   0.198   4.315 -2.1696 -1.2958 -0.4461
 5582SOL    HW228209   3.033   0.053   4.290  2.1921 -1.7455 -2.2555
 5583SOL     OW28210   0.158   2.279   7.849  0.2296  0.5867  0.6284
 5583SOL    HW128211   0.177   2.310   7.760  0.8743 -0.7902  0.3024
 5583SOL    HW228212   0.241   2.252   7.889  0.2381 -1.0970 -0.5240
 5584SOL     OW28213   2.341   1.198   6.797 -0.0291 -0.5369  0.6960
 5584SOL    HW128214   2.295   1.120   6.828  0.4842 -0.2490  2.1912
 5584SOL    HW228215   2.342   1.202   6.702  1.0631 -0.5950  0.7120
 5585SOL     OW28216   1.481   0.984   7.873  0.0717  0.5020  0.0874
 5585SOL    HW128217   1.487   0.894   7.903 -0.5146  0.1783 -0.7733
 5585SOL    HW228218   1.388   1.005   7.870 -0.0389  0.0676  0.7127
 5586SOL     OW28219   3.360   0.704   6.309  0.1212  0.5137  0.0593
 5586SOL    HW128220   3.324   0.633   6.255  1.0802  1.3063 -1.6063
 5586SOL    HW228221   3.315   0.780   6.272  2.1399  1.0515 -1.3108
 5587SOL     OW28222   0.586   2.672   9.062 -0.1288 -0.0629 -0.4519
 5587SOL    HW128223   0.584   2.661   9.158 -1.2861  1.1246 -0.3353
 5587SOL    HW228224   0.668   2.624   9.050  0.3167  0.3986  0.7075
 5588SOL     OW28225   1.103   3.688   8.582 -0.0070 -0.5439  0.0994
 5588SOL    HW128226   1.190   3.666   8.616 -0.0096  0.2733  0.6159
 5588SOL    HW228227   1.042   3.642   8.639 -1.9961  1.3635 -0.4893
 5589SOL     OW28228   2.686   0.531  16.960 -0.2766  0.6155 -0.7999
 5589SOL    HW128229   2.742   0.596  17.002 -3.4029  2.1099  1.1231
 5589SOL    HW228230   2.608   0.547  17.014 -0.9775 -0.0001 -1.6202
 5590SOL     OW28231   1.759   1.743  14.831  0.2386 -0.6425  0.3590
 5590SOL    HW128232   1.762   1.812  14.764  2.2566  0.2876  1.3893
 5590SOL    HW228233   1.806   1.674  14.785 -4.0112 -1.0637 -3.3058
 5591SOL     OW28234   2.119   0.302  10.565 -0.2665  0.2263  0.5139
 5591SOL    HW128235   2.182   0.252  10.514 -0.7567  0.0895  0.0520
 5591SOL    HW228236   2.040   0.269  10.522 -0.7828  0.5979  1.1707
 5592SOL     OW28237   2.679   2.510   7.045  0.2701  0.0953 -0.0940
 5592SOL    HW128238   2.723   2.556   7.117 -1.5315 -0.8599  1.5934
 5592SOL    HW228239   2.687   2.565   6.967  0.0774 -0.6022 -0.6023
 5593SOL     OW28240   1.392   1.684   3.855  0.6360  0.0761  0.4210
 5593SOL    HW128241   1.300   1.672   3.833  1.2323  1.3501 -2.6992
 5593SOL    HW228242   1.388   1.674   3.950 -1.9667 -0.5400  0.2324
 5594SOL     OW28243   3.365   0.664   3.069  0.2085  0.7667 -0.3468
 5594SOL    HW128244   3.362   0.588   3.129 -1.1476  0.9390 -0.1879
 5594SOL    HW228245   3.421   0.632   2.998  0.4505 -1.0688  0.6597
 5595SOL     OW28246   0.118   2.206  16.727  0.0019  0.2728 -0.1137
 5595SOL    HW128247   0.133   2.208  16.632  0.4964  0.6556 -0.0239
 5595SOL    HW228248   0.043   2.148  16.738 -0.0773  0.8090  2.0067
 5596SOL     OW28249   4.628   3.333   6.654 -0.1527  0.2221 -0.5860
 5596SOL    HW128250   4.615   3.311   6.562  0.2889 -0.7707 -0.4115
 5596SOL    HW228251   4.618   3.247   6.696 -1.0079 -0.5914 -2.4532
 5597SOL     OW28252   3.208   1.601  14.313 -0.2011  0.2656 -0.2582
 5597SOL    HW128253   3.255   1.684  14.300  0.6988 -0.3483 -0.9901
 5597SOL    HW228254   3.211   1.598  14.409 -1.5979  2.4670 -0.1606
 5598SOL     OW28255   0.602   0.886   5.311 -0.3124  0.2079 -0.0837
 5598SOL    HW128256   0.644   0.826   5.372 -0.6936  0.0904  0.0617
 5598SOL    HW228257   0.518   0.874   5.355 -0.3941 -0.8454 -0.5419
 5599SOL     OW28258   2.899   2.807   4.346 -0.3486 -0.0889 -0.4357
 5599SOL    HW128259   2.858   2.783   4.429 -0.3808 -0.0100 -0.4291
 5599SOL    HW228260   2.864   2.895   4.334  0.7901  0.3435 -0.5072
 5600SOL     OW28261   0.553   4.609   4.371  0.2982 -0.2094  0.1468
 5600SOL    HW128262   0.560   4.702   4.352 -2.1791 -0.0172  0.1721
 5600SOL    HW228263   0.505   4.630   4.451 -0.1537  2.2854 -0.7978
 5601SOL     OW28264   1.770   1.621   5.644 -0.0742  0.0216 -0.6543
 5601SOL    HW128265   1.703   1.641   5.579 -0.6454 -0.4719 -0.2183
 5601SOL    HW228266   1.845   1.596   5.589 -0.8224 -0.8679 -1.2712
 5602SOL     OW28267   3.292   4.348   9.147  0.1057  0.0018  0.7518
 5602SOL    HW128268   3.312   4.289   9.219  0.2781  0.8230  1.3652
 5602SOL    HW228269   3.327   4.300   9.072 -0.2410 -1.4289  1.4974
 5603SOL     OW28270   1.337   2.233   7.158 -0.2252  0.1787 -0.2207
 5603SOL    HW128271   1.409   2.207   7.216 -0.7411  1.7426  1.1463
 5603SOL    HW228272   1.282   2.265   7.230 -1.1174  1.9763 -1.7118
 5604SOL     OW28273   3.603   2.383   3.227 -0.3985 -0.1953 -1.0836
 5604SOL    HW128274   3.694   2.365   3.249 -0.5340 -0.8147 -1.0519
 5604SOL    HW228275   3.561   2.298   3.220 -0.6358 -0.2683  1.3601
 5605SOL     OW28276   3.666   0.897  15.486  0.0146  0.8343 -0.0917
 5605SOL    HW128277   3.687   0.812  15.526 -0.5315  1.1344  0.8446
 5605SOL    HW228278   3.588   0.922  15.535  2.0167  0.7901  3.1238
 5606SOL     OW28279   2.774   2.288  11.846  0.4209  0.6664 -0.0804
 5606SOL    HW128280   2.734   2.241  11.919  0.9638 -0.0338 -0.2269
 5606SOL    HW228281   2.757   2.376  11.880  0.2156 -0.0689  1.7040
 5607SOL     OW28282   4.579   1.431  12.945  0.1929  0.7897  0.4723
 5607SOL    HW128283   4.560   1.520  12.974 -1.9755  0.3765  0.3417
 5607SOL    HW228284   4.589   1.457  12.854  1.2356  0.2354  0.4368
 5608SOL     OW28285   0.242   4.009   4.246  0.2597  0.0687 -0.5163
 5608SOL    HW128286   0.221   4.016   4.339  1.7551 -0.0231 -0.1690
 5608SOL    HW228287   0.336   4.029   4.241 -0.3786  2.5900 -2.0284
 5609SOL     OW28288   4.030   0.518   6.599  0.0470  0.2888  0.5133
 5609SOL    HW128289   3.963   0.502   6.533 -0.4236 -0.2245  1.1186
 5609SOL    HW228290   3.984   0.575   6.661 -0.1984  1.5240 -0.7885
 5610SOL     OW28291   1.803   2.176   9.871  0.5551 -0.1940  0.6208
 5610SOL    HW128292   1.788   2.125   9.951 -2.5559 -0.1836  0.0421
 5610SOL    HW228293   1.897   2.160   9.863  0.2940 -1.0199 -0.7613
 5611SOL     OW28294   3.716   2.703   2.240  0.1497 -0.6414  0.3525
 5611SOL    HW128295   3.688   2.665   2.157  2.1714  2.3204 -1.7105
 5611SOL    HW228296   3.778   2.635   2.267 -0.8532 -1.8108 -0.3184
 5612SOL     OW28297   1.224   1.276   8.535 -0.5284  0.5837 -0.1796
 5612SOL    HW128298   1.228   1.283   8.630  1.3352  2.4051 -0.3836
 5612SOL    HW228299   1.295   1.333   8.505  1.6077 -2.1913 -0.3921
 5613SOL     OW28300   1.274   2.726   2.445  0.4357  0.3313  0.1262
 5613SOL    HW128301   1.276   2.703   2.352 -1.1845 -0.7492  0.3661
 5613SOL    HW228302   1.338   2.668   2.486  0.0634  0.5219  0.9769
 5614SOL     OW28303   4.482   4.343   9.034 -0.0712 -0.6083 -0.3399
 5614SOL    HW128304   4.526   4.428   9.034  0.5773 -0.9371 -1.2817
 5614SOL    HW228305   4.390   4.361   9.052 -0.1529 -0.7748 -0.5835
 5615SOL     OW28306   0.882   2.698   7.409 -0.0488  0.3366 -0.1136
 5615SOL    HW128307   0.874   2.778   7.358 -1.3075  0.7056  0.6596
 5615SOL    HW228308   0.821   2.643   7.360 -0.9795 -0.8401  2.3144
 5616SOL     OW28309   1.358   1.460   3.144  0.8809  0.5864  0.0655
 5616SOL    HW128310   1.349   1.486   3.236  0.2986  0.3513  0.0709
 5616SOL    HW228311   1.451   1.466   3.120  1.0352 -0.6038  0.3778
 5617SOL     OW28312   4.589   2.112   6.776 -0.2355 -0.5087 -0.2554
 5617SOL    HW128313   4.618   2.191   6.730 -0.7478  1.4154  2.7629
 5617SOL    HW228314   4.627   2.042   6.724 -0.7163 -0.3457 -0.8291
 5618SOL     OW28315   2.529   1.762   8.326 -0.4315  0.0307  0.6127
 5618SOL    HW128316   2.499   1.730   8.241  1.6304  1.4177 -0.6452
 5618SOL    HW228317   2.454   1.725   8.372 -0.1821 -1.5323 -0.2364
 5619SOL     OW28318   0.317   2.512   7.182 -0.2563  0.2498 -0.0101
 5619SOL    HW128319   0.330   2.577   7.252  0.9595 -0.4644  0.4324
 5619SOL    HW228320   0.225   2.519   7.157 -0.7354 -1.4449  1.2918
 5620SOL     OW28321   0.220   1.498   6.372  0.0090  0.2685 -0.3280
 5620SOL    HW128322   0.163   1.574   6.370  0.8513  0.9310  1.2734
 5620SOL    HW228323   0.257   1.510   6.284  0.4597 -2.5687 -0.5343
 5621SOL     OW28324   3.010   3.404   6.114  0.1591  0.2806 -0.7091
 5621SOL    HW128325   3.012   3.322   6.065 -2.7905 -1.0512  1.4356
 5621SOL    HW228326   2.917   3.421   6.103  0.2116  0.5637 -0.7053
 5622SOL     OW28327   2.485   1.690  16.747 -0.0917 -0.5584 -0.6992
 5622SOL    HW128328   2.500   1.779  16.715 -0.4037  0.1774  1.2584
 5622SOL    HW228329   2.454   1.636  16.674 -2.1421  1.5582 -1.3889
 5623SOL     OW28330   1.603   1.673  13.248  0.3002 -0.1643 -0.4937
 5623SOL    HW128331   1.560   1.600  13.203  1.6815 -0.7811 -0.8209
 5623SOL    HW228332   1.603   1.743  13.182  1.0419  0.5073  0.2223
 5624SOL     OW28333   0.171   3.049  13.598  0.1232  0.5922  0.2736
 5624SOL    HW128334   0.244   3.100  13.634  0.8399 -1.4046  1.6743
 5624SOL    HW228335   0.215   3.004  13.525  1.3780  0.6636  0.9799
 5625SOL     OW28336   3.980   0.476   6.311  0.1303  0.1914  0.3273
 5625SOL    HW128337   3.901   0.516   6.275 -0.5887 -2.4940 -1.1144
 5625SOL    HW228338   4.055   0.531   6.289  1.6014 -2.0162 -0.1580
 5626SOL     OW28339   4.201   4.033   4.741 -0.5362 -0.5697  0.1164
 5626SOL    HW128340   4.266   4.101   4.757  0.0241 -0.6034 -1.9617
 5626SOL    HW228341   4.189   4.003   4.831 -2.1940 -1.7598 -0.5106
 5627SOL     OW28342   0.327   2.923   4.567  0.1528  0.0822  0.2576
 5627SOL    HW128343   0.353   2.833   4.587  2.0373  0.8935  1.4438
 5627SOL    HW228344   0.260   2.901   4.502  1.3132  0.1638 -0.9557
 5628SOL     OW28345   4.496   0.498   9.010 -0.0677 -0.0872  0.1082
 5628SOL    HW128346   4.566   0.497   8.944 -1.4491 -1.1702 -1.3423
 5628SOL    HW228347   4.486   0.403   9.015 -1.3040  0.0977  1.1374
 5629SOL     OW28348   2.019   3.649   9.572  0.0322  0.4198  0.0521
 5629SOL    HW128349   2.081   3.711   9.534  1.3280  0.3855  2.1255
 5629SOL    HW228350   2.036   3.656   9.666 -3.0053  0.7253  0.5748
 5630SOL     OW28351   1.921   1.840   7.350  0.4167  0.1162  0.2566
 5630SOL    HW128352   1.867   1.881   7.282  0.7643 -0.7206 -0.5307
 5630SOL    HW228353   2.010   1.846   7.316  0.7276 -0.2530  1.0082
 5631SOL     OW28354   3.336   3.055   2.421  0.0981  0.0041  0.7268
 5631SOL    HW128355   3.425   3.035   2.448 -0.1187 -2.2659 -0.2991
 5631SOL    HW228356   3.363   3.099   2.340 -1.6601 -2.4799 -1.2349
 5632SOL     OW28357   0.921   2.571   4.191  0.8085 -0.8646  0.2887
 5632SOL    HW128358   1.009   2.605   4.176  0.7654 -0.0449  1.9274
 5632SOL    HW228359   0.894   2.538   4.105  2.4831 -1.2036 -0.1031
 5633SOL     OW28360   0.887   3.352   6.578 -0.0268  0.1085 -0.0124
 5633SOL    HW128361   0.809   3.363   6.633 -0.7044  0.4904 -1.0557
 5633SOL    HW228362   0.847   3.356   6.491  1.0371 -1.8699 -0.6037
 5634SOL     OW28363   0.250   3.136   2.990 -0.1904  0.0739  0.3619
 5634SOL    HW128364   0.320   3.179   2.941  0.0910  1.9726  2.4273
 5634SOL    HW228365   0.228   3.085   2.912  0.9393 -0.9668  0.7221
 5635SOL     OW28366   3.362   0.049   1.221 -0.4337  0.5013 -0.8780
 5635SOL    HW128367   3.445   0.091   1.243 -0.0508  0.5788 -2.4607
 5635SOL    HW228368   3.301   0.081   1.288 -1.0156 -0.8390 -0.7680
 5636SOL     OW28369   2.178   3.162   6.382  0.0781 -0.0545  0.0348
 5636SOL    HW128370   2.118   3.125   6.316 -1.0767  1.4365  0.2585
 5636SOL    HW228371   2.255   3.105   6.381  0.2732  0.2162 -1.6323
 5637SOL     OW28372   3.946   2.073   2.151 -0.6395 -0.3566 -0.3757
 5637SOL    HW128373   4.009   2.120   2.207 -0.7964  0.8708 -1.2199
 5637SOL    HW228374   3.967   2.109   2.065  3.2929  3.0996  1.9877
 5638SOL     OW28375   2.059   0.920  12.285  0.0910 -0.0818 -0.4341
 5638SOL    HW128376   1.969   0.895  12.304  0.1188 -0.3905 -0.7102
 5638SOL    HW228377   2.049   0.918  12.189 -1.8142 -1.1632 -0.2043
 5639SOL     OW28378   3.957   3.859   5.039 -0.0980  0.3182  0.0598
 5639SOL    HW128379   3.931   3.769   5.024 -0.7460  0.5582 -0.2393
 5639SOL    HW228380   4.044   3.850   5.000  1.0914 -0.7189  2.9485
 5640SOL     OW28381   0.007   0.473   7.886 -0.2333  0.0644 -0.0138
 5640SOL    HW128382   0.033   0.514   7.803  0.0152  1.2746  0.6719
 5640SOL    HW228383   4.703   0.395   7.836  1.3757 -0.7743  0.4445
 5641SOL     OW28384   1.058   1.583   1.230 -0.0294  0.2149 -0.3529
 5641SOL    HW128385   1.107   1.535   1.164 -0.2738 -1.6466  0.8261
 5641SOL    HW228386   0.977   1.593   1.181  0.3872  0.3056 -1.0191
 5642SOL     OW28387   0.806   3.217   2.723 -0.1546  0.4355  0.4329
 5642SOL    HW128388   0.715   3.201   2.748 -0.7006  1.4936 -0.8390
 5642SOL    HW228389   0.828   3.131   2.687 -1.7188  0.3761 -0.4075
 5643SOL     OW28390   1.329   2.551   4.747  0.3926  0.3373  0.1939
 5643SOL    HW128391   1.336   2.548   4.651 -2.3544 -0.8697  0.0424
 5643SOL    HW228392   1.239   2.576   4.765  0.2286 -0.6994  0.7921
 5644SOL     OW28393   1.485   3.019  17.160  0.7122 -0.1740 -0.4297
 5644SOL    HW128394   1.575   2.993  17.179  0.8779  1.3050  0.7504
 5644SOL    HW228395   1.440   2.948  17.206  2.7008 -1.2090 -0.0855
 5645SOL     OW28396   3.435   4.278   4.790  0.1858 -0.2829  0.1036
 5645SOL    HW128397   3.502   4.303   4.727  0.4993  0.0935  0.5867
 5645SOL    HW228398   3.361   4.263   4.731 -1.8909  0.0600  2.5891
 5646SOL     OW28399   1.027   3.441   1.473  0.1241 -0.3811 -0.3484
 5646SOL    HW128400   1.067   3.365   1.517  1.1301  0.2548 -0.1560
 5646SOL    HW228401   0.938   3.408   1.483  0.4658 -0.1086  3.6957
 5647SOL     OW28402   2.062   3.001  10.508 -0.5634  0.5249  0.2928
 5647SOL    HW128403   2.024   3.088  10.497 -1.5341  0.2312  1.3534
 5647SOL    HW228404   2.022   2.977  10.592  0.1727  1.6813  0.9777
 5648SOL     OW28405   2.315   2.320  13.227 -0.2235 -0.4888  0.5342
 5648SOL    HW128406   2.302   2.230  13.199 -0.6473  0.5316 -2.5987
 5648SOL    HW228407   2.226   2.355  13.237  0.5270  1.2861  1.1129
 5649SOL     OW28408   2.326   3.106  13.874  0.6048 -0.3591  0.3278
 5649SOL    HW128409   2.299   3.140  13.960 -1.4617 -1.1478 -0.0058
 5649SOL    HW228410   2.400   3.058  13.910  2.1660  1.5206 -0.3918
 5650SOL     OW28411   4.126   1.368  16.431 -0.0506  0.2494 -0.1108
 5650SOL    HW128412   4.071   1.408  16.364  1.0903 -0.3654 -1.4078
 5650SOL    HW228413   4.207   1.418  16.426 -0.2065  0.3476 -1.6099
 5651SOL     OW28414   1.502   3.332   6.522 -0.0410 -0.1031 -0.0535
 5651SOL    HW128415   1.590   3.367   6.532  0.3006 -0.1930 -2.7778
 5651SOL    HW228416   1.464   3.392   6.458  1.6229  0.7000 -0.2890
 5652SOL     OW28417   0.464   2.406   4.494 -0.3404  0.4532  0.6978
 5652SOL    HW128418   0.437   2.362   4.414 -3.7518 -1.2984  2.8069
 5652SOL    HW228419   0.399   2.476   4.501 -0.7326  0.0459  1.1200
 5653SOL     OW28420   1.208   1.576   5.617  0.8099 -0.1595 -0.1119
 5653SOL    HW128421   1.161   1.503   5.575  0.1511 -0.1472  0.6048
 5653SOL    HW228422   1.191   1.558   5.710 -1.7735  2.6071 -0.0396
 5654SOL     OW28423   2.417   0.753   6.423  0.0607 -0.3116 -0.7318
 5654SOL    HW128424   2.475   0.729   6.351  3.1784  3.0631  0.6649
 5654SOL    HW228425   2.472   0.724   6.496  0.7772 -0.3332 -1.2786
 5655SOL     OW28426   3.966   3.734   0.193 -0.2213  0.2880 -0.4276
 5655SOL    HW128427   3.928   3.724   0.280 -0.0242 -0.9095 -0.4859
 5655SOL    HW228428   3.984   3.828   0.188 -1.7490  0.5162 -1.4748
 5656SOL     OW28429   1.550   4.589  12.798 -0.9531 -0.1732 -0.1700
 5656SOL    HW128430   1.573   4.669  12.750  1.6490  0.8068  2.6289
 5656SOL    HW228431   1.550   4.620  12.889 -1.2597 -0.0746 -0.2064
 5657SOL     OW28432   1.459   2.866   7.681 -0.4200  0.0699 -0.3384
 5657SOL    HW128433   1.508   2.835   7.757 -1.5371 -0.8142  0.0222
 5657SOL    HW228434   1.453   2.784   7.633  0.1809 -0.5640  0.6620
 5658SOL     OW28435   0.227   4.513   2.573  0.1757 -0.4887  0.5269
 5658SOL    HW128436   0.250   4.577   2.505 -1.0146  0.6995  1.2395
 5658SOL    HW228437   0.248   4.566   2.650 -2.1211  2.4302 -0.8231
 5659SOL     OW28438   1.690   2.192   2.697 -0.2383  0.0239 -0.0342
 5659SOL    HW128439   1.765   2.149   2.655 -1.0397 -0.6745 -0.7484
 5659SOL    HW228440   1.638   2.112   2.692  1.3150 -1.1764  2.7535
 5660SOL     OW28441   3.859   0.812   4.193  0.5001  0.5010  0.1830
 5660SOL    HW128442   3.845   0.745   4.126 -2.1113  0.6329  0.5943
 5660SOL    HW228443   3.768   0.842   4.192  0.3885  0.0392 -3.0310
 5661SOL     OW28444   1.749   2.242  16.729 -0.2156  0.1745  0.4133
 5661SOL    HW128445   1.708   2.326  16.709 -0.5546 -0.0963 -0.0169
 5661SOL    HW228446   1.824   2.254  16.671 -0.3390  1.6094  0.5646
 5662SOL     OW28447   0.004   4.408   6.374  0.0195  0.0162 -0.1911
 5662SOL    HW128448   4.661   4.369   6.317 -1.0301  2.3193 -0.5335
 5662SOL    HW228449   0.080   4.388   6.319 -0.1763  0.8000 -0.7391
 5663SOL     OW28450   1.523   4.122   3.630  1.0315 -0.3759  0.7488
 5663SOL    HW128451   1.529   4.036   3.673  0.3691 -0.7550  0.0846
 5663SOL    HW228452   1.557   4.174   3.703 -0.5001 -0.2418  1.3725
 5664SOL     OW28453   2.031   3.840   4.786  0.4003  0.2987 -0.3656
 5664SOL    HW128454   2.046   3.932   4.808  0.6127  0.7331 -2.3958
 5664SOL    HW228455   2.004   3.832   4.695  2.3800 -1.5482 -0.7931
 5665SOL     OW28456   4.268   3.916   0.260  0.0933 -0.4779 -0.3692
 5665SOL    HW128457   4.308   3.864   0.191  1.1408  0.3393 -0.3679
 5665SOL    HW228458   4.181   3.939   0.227 -0.8056 -2.6448  0.4587
 5666SOL     OW28459   4.635   4.715   8.565 -0.0437  0.0027 -0.2969
 5666SOL    HW128460   4.721   0.030   8.544 -0.1302  0.2946 -0.1304
 5666SOL    HW228461   4.634   4.637   8.510 -1.3786  1.3743 -2.1949
 5667SOL     OW28462   2.034   0.178   2.166  0.2598  0.1765  0.0639
 5667SOL    HW128463   2.065   0.094   2.132 -1.1851  0.0567 -0.9794
 5667SOL    HW228464   1.954   0.184   2.114  0.1318 -1.5738  0.0389
 5668SOL     OW28465   1.150   2.067   0.605 -0.4053 -0.4516  0.1037
 5668SOL    HW128466   1.058   2.041   0.603 -0.6457  0.5544 -1.9598
 5668SOL    HW228467   1.158   2.147   0.658  0.4622  1.2817 -2.6081
 5669SOL     OW28468   3.584   4.286  14.629  0.0280  0.6996  0.0145
 5669SOL    HW128469   3.501   4.240  14.623  1.3236 -1.6170 -0.3160
 5669SOL    HW228470   3.614   4.283  14.538 -0.4335 -0.5872 -0.0839
 5670SOL     OW28471   2.602   1.450   8.102  0.4633 -0.4700  0.0883
 5670SOL    HW128472   2.676   1.423   8.157  0.1946 -0.1279  0.6109
 5670SOL    HW228473   2.524   1.452   8.157 -0.2226 -0.0111 -0.9108
 5671SOL     OW28474   1.037   1.710   6.525  0.3222  0.1451  0.1565
 5671SOL    HW128475   1.109   1.655   6.495  1.2142  0.8789  0.9950
 5671SOL    HW228476   1.026   1.762   6.446 -0.8386 -1.0615 -0.4935
 5672SOL     OW28477   1.335   3.384  11.039  0.1357  0.0911 -0.3610
 5672SOL    HW128478   1.422   3.369  11.002 -0.0567  1.8420 -1.5099
 5672SOL    HW228479   1.294   3.445  10.978 -0.0148 -0.8999 -1.2328
 5673SOL     OW28480   3.454   2.126  15.858  0.3624 -0.5946 -0.2307
 5673SOL    HW128481   3.359   2.124  15.867  0.5182  0.3187  1.5669
 5673SOL    HW228482   3.463   2.220  15.878 -2.2338 -0.3669 -0.1476
 5674SOL     OW28483   4.142   1.795   6.096  0.2649 -1.4223  0.6699
 5674SOL    HW128484   4.234   1.778   6.073  1.3437  2.6428  1.9094
 5674SOL    HW228485   4.098   1.756   6.020  0.7822 -0.5334 -0.0840
 5675SOL     OW28486   2.937   4.218   9.874  0.0428  0.5767 -0.2781
 5675SOL    HW128487   3.013   4.233   9.817  0.1282  1.3829  0.0487
 5675SOL    HW228488   2.957   4.145   9.933  0.7333  0.2325 -0.9381
 5676SOL     OW28489   3.373   3.390   6.377 -0.9137  0.3663 -0.5949
 5676SOL    HW128490   3.389   3.311   6.325 -0.1012 -0.3108  0.6937
 5676SOL    HW228491   3.458   3.430   6.394  0.4400 -3.1033  0.7897
 5677SOL     OW28492   4.023   3.886   0.515 -0.2301 -0.3951 -0.2457
 5677SOL    HW128493   4.101   3.834   0.498  1.4553  2.7923 -2.3880
 5677SOL    HW228494   3.957   3.824   0.484 -0.3359  0.4027 -1.6272
 5678SOL     OW28495   1.284   0.956  15.659  0.2526 -0.2928  0.0247
 5678SOL    HW128496   1.318   0.997  15.580 -2.9851  1.4840 -0.4581
 5678SOL    HW228497   1.264   1.039  15.703 -0.2631  0.7266 -2.1109
 5679SOL     OW28498   2.988   1.019   4.509  0.0683  0.5766  0.0249
 5679SOL    HW128499   3.003   1.111   4.529 -2.9435  1.0683 -0.1020
 5679SOL    HW228500   3.073   0.996   4.470 -0.0055 -1.0055  0.7707
 5680SOL     OW28501   3.741   2.773  12.151 -0.0588 -0.1828  0.6819
 5680SOL    HW128502   3.714   2.682  12.163 -1.1953  0.2163  1.1492
 5680SOL    HW228503   3.689   2.826  12.212  1.6322  0.6030  1.4457
 5681SOL     OW28504   0.050   4.298   5.682  0.3279  0.1969 -0.2980
 5681SOL    HW128505   0.061   4.216   5.634  0.6159  0.9140 -1.4836
 5681SOL    HW228506   0.138   4.326   5.656  0.8094 -0.2355  0.8867
 5682SOL     OW28507   0.451   2.121   3.904  0.2163 -1.3938  0.9140
 5682SOL    HW128508   0.479   2.164   3.823 -0.2807 -0.7087  1.1060
 5682SOL    HW228509   0.518   2.054   3.914  1.1322 -0.6261 -0.1165
 5683SOL     OW28510   1.574   0.732  15.091 -0.1134 -0.0085  0.3012
 5683SOL    HW128511   1.512   0.804  15.096  0.5738  0.6358 -0.5240
 5683SOL    HW228512   1.591   0.719  15.184 -0.9197  0.5801  0.5293
 5684SOL     OW28513   0.118   2.361   3.194  0.4798 -0.4994 -0.2662
 5684SOL    HW128514   0.050   2.300   3.164  0.5978  0.3446 -2.2393
 5684SOL    HW228515   0.153   2.308   3.266  2.2535 -0.8761 -1.4160
 5685SOL     OW28516   3.554   1.528  16.080  0.1555 -0.1130  0.6948
 5685SOL    HW128517   3.516   1.608  16.117 -1.8297  1.3271 -4.3625
 5685SOL    HW228518   3.473   1.489  16.047  1.3400 -1.2359 -0.9011
 5686SOL     OW28519   2.557   4.393   7.924 -0.0353  0.0870 -0.0593
 5686SOL    HW128520   2.518   4.480   7.918  0.4470  0.3283  0.3701
 5686SOL    HW228521   2.649   4.404   7.947 -0.4748 -2.1079  2.7522
 5687SOL     OW28522   1.036   4.498  13.348  0.3318 -0.0899  0.3647
 5687SOL    HW128523   1.095   4.572  13.355  1.3178 -0.8877  0.4702
 5687SOL    HW228524   0.972   4.530  13.284  0.5637  1.3363  0.8533
 5688SOL     OW28525   1.607   1.881   7.222  0.4918  0.4935  0.7534
 5688SOL    HW128526   1.514   1.898   7.227  0.3286 -0.1617  0.0104
 5688SOL    HW228527   1.632   1.884   7.130 -1.3878  2.0750  0.3257
 5689SOL     OW28528   2.445   1.078  11.451 -0.8084 -0.4057 -0.4243
 5689SOL    HW128529   2.461   1.000  11.398 -0.8490 -1.5352  1.2397
 5689SOL    HW228530   2.392   1.034  11.518 -1.6832 -0.6908 -1.2927
 5690SOL     OW28531   1.724   0.184   5.332  0.7094  0.0667  0.0271
 5690SOL    HW128532   1.651   0.183   5.270 -0.2552  1.9780  1.1261
 5690SOL    HW228533   1.694   0.110   5.386 -1.0291 -0.7431 -2.0612
 5691SOL     OW28534   1.229   4.474   5.291  0.1822 -0.1903 -0.0604
 5691SOL    HW128535   1.249   4.521   5.372  1.6199 -2.1670  0.7186
 5691SOL    HW228536   1.253   4.384   5.313 -0.3123 -0.5049 -0.7994
 5692SOL     OW28537   3.428   0.668   7.673 -0.1574  0.0363 -0.4662
 5692SOL    HW128538   3.342   0.665   7.631 -0.6161  0.7999  0.4111
 5692SOL    HW228539   3.419   0.760   7.698 -1.8713 -0.6486  1.4965
 5693SOL     OW28540   0.018   3.537   6.416  0.1009 -0.7414 -0.2374
 5693SOL    HW128541   4.695   3.586   6.347 -0.5562  1.9090  2.0936
 5693SOL    HW228542   0.074   3.609   6.445 -3.8293  2.1764  0.0621
 5694SOL     OW28543   0.997   0.039   6.126 -0.5520  0.2232  0.1799
 5694SOL    HW128544   1.064   0.092   6.168  1.1100 -1.7156 -0.0422
 5694SOL    HW228545   1.043   0.014   6.046 -0.1513  1.2696  0.0875
 5695SOL     OW28546   2.942   0.564   8.752  0.4382 -0.1235 -0.5997
 5695SOL    HW128547   2.927   0.653   8.783  1.2727 -0.4084  0.6268
 5695SOL    HW228548   2.858   0.537   8.715  0.4576 -0.8031 -0.1545
 5696SOL     OW28549   0.875   0.801  10.087  0.2077  0.0462  0.3385
 5696SOL    HW128550   0.856   0.849  10.007 -0.2242  0.1280  0.4908
 5696SOL    HW228551   0.970   0.809  10.091  0.1347  1.2285 -0.2155
 5697SOL     OW28552   4.077   0.193   9.991  0.2031  0.2561 -0.5493
 5697SOL    HW128553   4.058   0.287   9.994 -1.6423 -0.1106 -0.9268
 5697SOL    HW228554   4.083   0.160  10.081 -0.8125  0.7491 -0.3065
 5698SOL     OW28555   0.824   2.198   6.629  0.2192  0.1405  0.1120
 5698SOL    HW128556   0.796   2.258   6.699  1.2400 -1.3033  1.7824
 5698SOL    HW228557   0.765   2.216   6.556 -0.3556  0.3390  0.6161
 5699SOL     OW28558   1.750   1.694  16.635  0.1811  0.0063  0.3511
 5699SOL    HW128559   1.839   1.659  16.632 -0.3236 -1.2386  0.1526
 5699SOL    HW228560   1.763   1.743  16.553 -2.2605  0.4880  0.2413
 5700SOL     OW28561   4.595   2.888   3.150 -0.2330  0.2457  1.1892
 5700SOL    HW128562   4.503   2.900   3.126 -0.6992  0.8924  3.2908
 5700SOL    HW228563   4.623   2.841   3.071 -1.0822  1.9942 -0.1678
 5701SOL     OW28564   3.693   2.424  16.499  0.3297  0.2841  0.2889
 5701SOL    HW128565   3.630   2.402  16.568  0.3235  0.3620  0.3087
 5701SOL    HW228566   3.636   2.435  16.423  0.2641 -0.8124  0.1824
 5702SOL     OW28567   2.905   0.866  12.366  0.2843  0.0873 -0.0905
 5702SOL    HW128568   2.991   0.906  12.383  0.6456 -0.4245 -0.7653
 5702SOL    HW228569   2.907   0.855  12.271  0.0312 -3.3492  0.3076
 5703SOL     OW28570   3.239   2.150   6.807  0.3016  0.2147  0.5578
 5703SOL    HW128571   3.179   2.198   6.749 -0.1100 -0.3701  0.5051
 5703SOL    HW228572   3.214   2.059   6.794  2.3203  0.0255 -2.0903
 5704SOL     OW28573   0.447   1.848   4.880  0.1719 -0.0852  0.1873
 5704SOL    HW128574   0.415   1.778   4.823 -0.7607 -0.3907  1.0877
 5704SOL    HW228575   0.522   1.883   4.832 -0.1577 -0.1656 -0.3778
 5705SOL     OW28576   3.852   2.980   5.692 -0.0067 -0.3671  0.2675
 5705SOL    HW128577   3.874   3.061   5.647  0.2468 -1.4055 -1.4744
 5705SOL    HW228578   3.796   2.923   5.639  0.3251 -0.8780  0.4596
 5706SOL     OW28579   1.532   2.238  12.872 -0.7695 -0.3108  0.0326
 5706SOL    HW128580   1.571   2.169  12.926 -3.0147 -0.1490  1.8616
 5706SOL    HW228581   1.543   2.192  12.789  1.1835 -0.3018  0.2833
 5707SOL     OW28582   1.889   3.834   8.581  0.4073  0.1239  0.0558
 5707SOL    HW128583   1.825   3.899   8.612 -1.0696  0.5503 -3.9423
 5707SOL    HW228584   1.841   3.751   8.578 -0.3119  0.6540 -2.4599
 5708SOL     OW28585   2.573   1.471  14.706  0.1163  0.2779  0.0133
 5708SOL    HW128586   2.570   1.567  14.703 -2.4922  0.2325  0.9486
 5708SOL    HW228587   2.591   1.458  14.613 -0.6924  1.8205 -0.3574
 5709SOL     OW28588   0.569   1.419   7.150 -0.0387 -0.4169  0.0249
 5709SOL    HW128589   0.559   1.389   7.241 -0.7994 -0.1452  0.0359
 5709SOL    HW228590   0.509   1.494   7.160  0.4033 -0.2300  1.2598
 5710SOL     OW28591   1.918   1.477   6.149  0.1295  0.1320 -0.3775
 5710SOL    HW128592   1.973   1.542   6.105 -1.1681  1.3174 -0.2791
 5710SOL    HW228593   1.839   1.484   6.095 -0.1588 -0.0535  0.0196
 5711SOL     OW28594   3.192   0.117   8.541 -0.1893 -0.4668 -0.2168
 5711SOL    HW128595   3.227   0.196   8.584 -0.9952 -0.9349  1.2825
 5711SOL    HW228596   3.114   0.094   8.590 -1.1425 -0.5501 -1.7967
 5712SOL     OW28597   3.628   2.740  13.733  0.2577  0.7430  0.5864
 5712SOL    HW128598   3.572   2.663  13.721 -0.8072  1.5170  0.5410
 5712SOL    HW228599   3.664   2.721  13.819  1.3070 -0.6130 -0.1546
 5713SOL     OW28600   4.105   0.593  13.989  0.3125  0.8043  0.3440
 5713SOL    HW128601   4.030   0.588  14.048  0.5320 -1.9765  0.3924
 5713SOL    HW228602   4.090   0.508  13.947  1.2518 -0.1920  2.0420
 5714SOL     OW28603   1.210   1.710   8.497  0.2121  0.0644  0.0279
 5714SOL    HW128604   1.259   1.787   8.468  1.6544 -0.6120  0.7050
 5714SOL    HW228605   1.188   1.664   8.416 -1.2760 -1.2360  1.1619
 5715SOL     OW28606   1.953   0.942   5.169 -0.1354  0.1295 -0.3042
 5715SOL    HW128607   1.938   0.951   5.075  0.5413  3.2811 -0.0894
 5715SOL    HW228608   2.026   0.880   5.163 -0.1306  0.0462  0.5112
 5716SOL     OW28609   3.915   3.592   7.721 -0.1964 -0.2596 -0.1823
 5716SOL    HW128610   3.944   3.577   7.811 -1.8083  2.7314  0.8451
 5716SOL    HW228611   3.825   3.620   7.741 -0.4143  1.2590 -3.3631
 5717SOL     OW28612   3.185   4.132   8.632 -0.3131 -0.2262 -0.9032
 5717SOL    HW128613   3.253   4.065   8.623  1.0919  1.3403 -1.8920
 5717SOL    HW228614   3.226   4.196   8.574  2.4553 -1.8014 -0.6786
 5718SOL     OW28615   3.013   3.823   2.279 -0.4222  0.0876  0.6455
 5718SOL    HW128616   3.055   3.844   2.363  0.5929  0.3673  0.0603
 5718SOL    HW228617   3.064   3.751   2.242 -1.6056  0.7394 -2.2486
 5719SOL     OW28618   2.379   0.097   3.036  0.1798  0.0408  0.0900
 5719SOL    HW128619   2.442   0.139   2.976 -2.1870  0.9901 -1.7504
 5719SOL    HW228620   2.434   0.026   3.068  2.2833  1.4794 -0.3162
 5720SOL     OW28621   3.587   0.164   4.969 -0.0867  0.1994 -0.3298
 5720SOL    HW128622   3.662   0.192   4.917  1.3929 -1.8591  0.6778
 5720SOL    HW228623   3.610   0.181   5.060  0.9592 -0.8309 -0.3978
 5721SOL     OW28624   0.312   4.111   5.265 -0.1037  0.3188 -0.0053
 5721SOL    HW128625   0.388   4.089   5.211 -1.0817 -2.1983 -0.3623
 5721SOL    HW228626   0.268   4.178   5.213 -1.1982 -0.8312 -0.5684
 5722SOL     OW28627   0.349   2.127  16.881 -0.2230 -0.2402  0.4096
 5722SOL    HW128628   0.399   2.199  16.920  1.0976 -1.1969  0.4793
 5722SOL    HW228629   0.262   2.163  16.862 -0.6538 -1.6011 -0.1263
 5723SOL     OW28630   4.304   1.350   2.995 -0.0549  0.0654 -0.0382
 5723SOL    HW128631   4.365   1.358   2.922  2.1386  0.2809  1.8067
 5723SOL    HW228632   4.270   1.439   3.007  1.0023  0.1273  2.5700
 5724SOL     OW28633   3.569   0.644   0.896  0.0126  0.2839  0.4311
 5724SOL    HW128634   3.498   0.677   0.950  0.4445  0.0297  1.1552
 5724SOL    HW228635   3.535   0.583   0.831  0.3190 -2.0390  2.4733
 5725SOL     OW28636   1.064   3.364   9.626 -0.0128  0.2371  0.1422
 5725SOL    HW128637   1.046   3.445   9.578 -2.9988 -0.1417  0.5905
 5725SOL    HW228638   1.134   3.392   9.685  0.0152 -0.8512  0.6364
 5726SOL     OW28639   0.709   0.107   6.447 -0.0200  0.3592  0.0179
 5726SOL    HW128640   0.676   0.026   6.409 -3.2333  1.9144 -0.4851
 5726SOL    HW228641   0.635   0.166   6.462 -0.7980 -0.2202 -1.6154
 5727SOL     OW28642   3.445   2.713   2.587  0.1162 -0.3491  0.2198
 5727SOL    HW128643   3.439   2.776   2.514  1.4238 -1.3486 -0.7640
 5727SOL    HW228644   3.488   2.640   2.542  0.3327 -2.1645  3.4526
 5728SOL     OW28645   1.757   0.931   0.732 -0.4067  0.3944  0.0807
 5728SOL    HW128646   1.764   0.965   0.821 -1.6197  0.7967  0.0103
 5728SOL    HW228647   1.794   0.844   0.750  1.1697  1.6712  3.0952
 5729SOL     OW28648   3.753   0.112   2.685 -0.3533  0.3510 -0.0248
 5729SOL    HW128649   3.733   0.187   2.741 -3.5983 -0.5970  0.0600
 5729SOL    HW228650   3.671   0.117   2.637  0.2218 -0.8829 -1.1495
 5730SOL     OW28651   1.345   4.623   4.769 -0.0310  0.1027  0.2805
 5730SOL    HW128652   1.352   4.718   4.777 -2.4347  0.2696  0.4122
 5730SOL    HW228653   1.252   4.606   4.785  0.3209 -0.8844  1.2878
 5731SOL     OW28654   3.263   1.225  13.585 -0.2649  0.0932 -0.3189
 5731SOL    HW128655   3.339   1.225  13.527  0.4191 -1.6243  0.5754
 5731SOL    HW228656   3.301   1.236  13.673  0.2258  0.3863 -0.5664
 5732SOL     OW28657   1.874   0.550   1.407 -0.2103  0.2010  0.1879
 5732SOL    HW128658   1.788   0.587   1.389  0.0900  2.0032  2.3093
 5732SOL    HW228659   1.922   0.633   1.420  0.6037 -0.7235  3.1027
 5733SOL     OW28660   4.136   3.005   8.577 -0.3317  0.2585  0.1477
 5733SOL    HW128661   4.084   3.007   8.657  0.6808 -3.5249  0.8959
 5733SOL    HW228662   4.071   3.018   8.508  0.5477 -1.0018 -0.9072
 5734SOL     OW28663   0.284   0.142   4.241  0.3850 -0.1828  0.1443
 5734SOL    HW128664   0.213   0.179   4.190  0.2133  3.0951  2.7089
 5734SOL    HW228665   0.245   0.056   4.258  0.8700 -0.5932 -0.8403
 5735SOL     OW28666   4.118   0.410   4.562  0.1476  1.0476  0.5780
 5735SOL    HW128667   4.066   0.347   4.513  0.6716  1.0310  0.0399
 5735SOL    HW228668   4.067   0.481   4.524 -2.1791 -1.1172 -0.3906
 5736SOL     OW28669   1.528   3.425   0.405 -0.0882  0.0599  0.7271
 5736SOL    HW128670   1.540   3.506   0.354 -0.8851 -0.9279 -1.0205
 5736SOL    HW228671   1.608   3.443   0.455  0.1642  0.7289  0.0944
 5737SOL     OW28672   1.026   2.075   3.544 -0.0957 -0.2293 -0.5870
 5737SOL    HW128673   1.015   2.062   3.639  0.2712  1.3914 -0.3305
 5737SOL    HW228674   1.119   2.095   3.545  0.0468 -1.0102  1.6454
 5738SOL     OW28675   0.540   1.642  11.999  0.0512  0.5322  0.6428
 5738SOL    HW128676   0.608   1.676  12.058  0.7545 -0.1548  0.2356
 5738SOL    HW228677   0.521   1.556  12.038 -0.3548  0.6583  0.7215
 5739SOL     OW28678   1.837   3.471   7.697  0.2187 -0.5043  0.8914
 5739SOL    HW128679   1.906   3.534   7.717  0.5239 -1.2293  2.1174
 5739SOL    HW228680   1.787   3.465   7.779  1.4217 -0.1115  1.6470
 5740SOL     OW28681   1.831   2.734   6.713 -0.0660 -0.2066  0.0792
 5740SOL    HW128682   1.855   2.656   6.764  0.9463  0.4430  0.5969
 5740SOL    HW228683   1.826   2.704   6.622  1.6539 -0.5566  0.0980
 5741SOL     OW28684   1.728   1.521   4.262  0.0075  0.0991  0.1808
 5741SOL    HW128685   1.805   1.465   4.259  0.3410  0.4631  2.0644
 5741SOL    HW228686   1.715   1.548   4.171  2.1769 -0.1969 -0.2066
 5742SOL     OW28687   0.168   3.687   7.731  0.0196  0.2265 -0.2378
 5742SOL    HW128688   0.161   3.621   7.801 -1.1389  0.0903 -0.4922
 5742SOL    HW228689   0.105   3.646   7.672  0.5245 -1.2257  0.2255
 5743SOL     OW28690   0.733   0.555   3.419 -0.4350  0.0668 -0.4527
 5743SOL    HW128691   0.677   0.515   3.485  1.2895 -0.2063  0.8388
 5743SOL    HW228692   0.738   0.640   3.463 -0.1081  0.1713 -0.6896
 5744SOL     OW28693   4.420   2.090   6.418 -0.3452 -0.0053  0.2184
 5744SOL    HW128694   4.357   2.079   6.347 -0.9907  0.8324  0.6603
 5744SOL    HW228695   4.417   2.002   6.457  2.1243  0.2647  1.0546
 5745SOL     OW28696   1.187   2.469  14.859  0.3867  0.0630 -0.6549
 5745SOL    HW128697   1.125   2.499  14.926  0.5021 -0.6059 -0.2537
 5745SOL    HW228698   1.178   2.375  14.873 -0.8932  0.2873 -0.0109
 5746SOL     OW28699   2.248   3.849   3.234 -0.2775  0.0794 -0.0161
 5746SOL    HW128700   2.260   3.864   3.328 -1.4027 -1.7053  0.4135
 5746SOL    HW228701   2.339   3.831   3.210  0.0026  2.1123 -0.4465
 5747SOL     OW28702   0.544   2.055   5.434 -0.0759 -0.2497  0.1496
 5747SOL    HW128703   0.545   1.959   5.425 -0.9578 -0.0019 -2.3636
 5747SOL    HW228704   0.533   2.088   5.345 -0.6268 -0.6543  0.0662
 5748SOL     OW28705   4.253   0.098  17.692  0.0739  0.1165  0.0705
 5748SOL    HW128706   4.268   0.018  17.641  3.8533  1.4587 -0.8789
 5748SOL    HW228707   4.200   0.059   0.069 -0.7021 -0.3628 -0.7746
 5749SOL     OW28708   1.931   2.936   0.759  0.2079  0.4062  0.0575
 5749SOL    HW128709   1.888   2.851   0.745  0.2117  0.2920  0.7469
 5749SOL    HW228710   1.902   2.988   0.684 -0.8084 -0.2222  0.0160
 5750SOL     OW28711   1.542   1.972   8.820 -0.6928  0.5232  0.5192
 5750SOL    HW128712   1.490   1.918   8.879 -2.8138 -0.7600 -2.4888
 5750SOL    HW228713   1.624   1.928   8.842 -0.8470  0.6588  1.3738
 5751SOL     OW28714   0.037   3.763  14.742  0.0188 -0.6314  0.0976
 5751SOL    HW128715   0.109   3.756  14.679  1.0811 -1.3909  1.3678
 5751SOL    HW228716   4.712   3.836  14.703  0.5735 -1.0466 -1.3542
 5752SOL     OW28717   0.509   0.051  12.298 -0.1508 -0.8176  0.0555
 5752SOL    HW128718   0.416   0.046  12.320 -0.0268  1.6580  1.0827
 5752SOL    HW228719   0.541   4.706  12.357  3.5534  0.9553  0.0603
 5753SOL     OW28720   0.066   4.182  14.241  0.2656 -0.3405  0.1506
 5753SOL    HW128721   0.095   4.153  14.155 -0.6070 -1.9235  0.3920
 5753SOL    HW228722   0.098   4.272  14.251  0.7701 -0.5781  0.6488
 5754SOL     OW28723   0.175   0.545   1.328  0.3018 -0.4480  0.1379
 5754SOL    HW128724   0.261   0.505   1.334  1.2612  1.6261  0.2818
 5754SOL    HW228725   0.147   0.492   1.253  0.5185  0.9431 -0.9360
 5755SOL     OW28726   0.821   0.131   4.139 -0.0650  0.1304  0.3017
 5755SOL    HW128727   0.844   0.082   4.059 -1.4273  0.0486 -0.0396
 5755SOL    HW228728   0.765   0.200   4.104  2.3010  1.9410  0.1035
 5756SOL     OW28729   3.746   1.861   9.190 -0.0644 -0.0948  0.1069
 5756SOL    HW128730   3.730   1.898   9.277 -2.2961 -0.7689 -0.0038
 5756SOL    HW228731   3.841   1.872   9.191 -0.1471  0.6027 -0.0426
 5757SOL     OW28732   4.671   2.197  17.456 -0.5171  1.0374 -0.5938
 5757SOL    HW128733   4.593   2.148  17.430 -0.5497  0.6405  0.2358
 5757SOL    HW228734   4.656   2.199  17.551 -3.3385  2.4039 -1.0699
 5758SOL     OW28735   2.966   2.307   4.970 -0.1673 -0.1387 -0.1275
 5758SOL    HW128736   3.009   2.221   4.971 -1.7330 -0.9356 -1.9212
 5758SOL    HW228737   2.993   2.325   4.880 -0.6180 -0.5339 -0.3407
 5759SOL     OW28738   2.872   3.190   9.534  0.4582 -0.5712 -0.2275
 5759SOL    HW128739   2.811   3.238   9.591  0.4895  0.4193 -1.0177
 5759SOL    HW228740   2.823   3.192   9.451 -0.0837  1.4541  0.1451
 5760SOL     OW28741   3.624   4.369   3.699 -0.5842 -0.3806  0.4624
 5760SOL    HW128742   3.680   4.447   3.695 -3.7766  1.7725 -1.7889
 5760SOL    HW228743   3.685   4.315   3.648 -0.5457  0.6194 -0.5653
 5761SOL     OW28744   1.584   0.028  16.325  0.0518 -0.4293 -0.4334
 5761SOL    HW128745   1.630   4.709  16.252  1.7040  1.1729 -0.3044
 5761SOL    HW228746   1.525   0.094  16.289  1.0724  0.0997 -1.1282
 5762SOL     OW28747   1.727   2.432   8.871  0.0108 -0.1524  0.4550
 5762SOL    HW128748   1.763   2.347   8.895 -2.1820 -1.0842  0.4660
 5762SOL    HW228749   1.762   2.450   8.784 -0.4556  0.5640  0.4092
 5763SOL     OW28750   4.443   4.645   6.075  0.0009 -0.2277  0.2488
 5763SOL    HW128751   4.387   4.683   6.144 -1.5489  1.9924 -2.2333
 5763SOL    HW228752   4.490   4.583   6.131 -1.3483  0.5251  2.2524
 5764SOL     OW28753   0.896   0.884   6.807 -0.2100 -0.5639 -0.2088
 5764SOL    HW128754   0.849   0.967   6.814 -0.6648 -0.7548 -0.9911
 5764SOL    HW228755   0.854   0.847   6.729  0.6591 -2.3343  0.1708
 5765SOL     OW28756   4.573   2.768   2.292  0.8889  0.3024  0.0921
 5765SOL    HW128757   4.617   2.691   2.256 -0.7684 -0.8945  0.6566
 5765SOL    HW228758   4.604   2.840   2.237  0.0321  0.7529  0.1975
 5766SOL     OW28759   2.790   3.837   8.578  0.5336 -0.0180  0.5398
 5766SOL    HW128760   2.730   3.842   8.652 -1.1946 -1.7382 -0.7603
 5766SOL    HW228761   2.862   3.893   8.608  0.3808  0.7932 -0.6321
 5767SOL     OW28762   2.052   3.597  12.707 -0.1367 -0.2623 -0.8068
 5767SOL    HW128763   2.010   3.540  12.772  2.8756 -0.6411  0.7633
 5767SOL    HW228764   1.986   3.613  12.639 -0.6828  0.9605  0.0208
 5768SOL     OW28765   0.396   3.846   2.350 -0.1500  0.6640 -0.0540
 5768SOL    HW128766   0.431   3.935   2.359  0.2465  0.4137  0.9280
 5768SOL    HW228767   0.304   3.867   2.333 -0.5133 -0.3750  0.6146
 5769SOL     OW28768   0.291   3.805   3.635 -0.5175 -0.6664 -0.4396
 5769SOL    HW128769   0.249   3.727   3.599 -2.5137 -1.7922  4.2364
 5769SOL    HW228770   0.292   3.777   3.727  0.8903 -0.9504 -0.5457
 5770SOL     OW28771   4.430   2.463   4.388  0.1427  0.4786  0.3840
 5770SOL    HW128772   4.402   2.375   4.365 -0.9209  0.8576  0.2161
 5770SOL    HW228773   4.480   2.447   4.468 -0.0274 -1.7064  0.0321
 5771SOL     OW28774   1.344   0.708  15.727  0.1929  0.4250 -0.2366
 5771SOL    HW128775   1.309   0.678  15.644 -0.5946 -1.6953  0.8574
 5771SOL    HW228776   1.335   0.804  15.729  0.6791  0.4565  0.8931
 5772SOL     OW28777   3.452   4.680   2.790  0.0298  0.1537 -0.0243
 5772SOL    HW128778   3.360   4.701   2.805 -0.1158 -0.9671  0.6757
 5772SOL    HW228779   3.473   0.014   2.716 -0.3016 -0.9989 -0.9915
 5773SOL     OW28780   2.432   4.373   4.017 -0.4006  0.3727  0.2683
 5773SOL    HW128781   2.469   4.360   4.104 -1.6641 -0.0648  0.7438
 5773SOL    HW228782   2.402   4.464   4.013 -1.0330  0.0739 -1.7933
 5774SOL     OW28783   2.924   3.404   2.022 -0.0412  0.3527  0.0135
 5774SOL    HW128784   2.996   3.449   1.977  0.1492 -0.8358 -0.8540
 5774SOL    HW228785   2.894   3.479   2.074  0.5961 -0.7123  1.9122
 5775SOL     OW28786   2.047   0.946   7.288  0.5375 -1.1924  0.1884
 5775SOL    HW128787   2.059   0.880   7.220  0.8674 -0.2697 -0.6402
 5775SOL    HW228788   2.023   1.022   7.236 -1.0689 -0.0014  2.6472
 5776SOL     OW28789   2.758   2.651   3.388  0.4476  0.2128  0.0441
 5776SOL    HW128790   2.679   2.705   3.377 -0.9945 -2.1917 -1.7165
 5776SOL    HW228791   2.765   2.652   3.483 -0.3253  4.1088  0.0494
 5777SOL     OW28792   1.664   1.910   8.123 -0.6033  0.3049 -0.6480
 5777SOL    HW128793   1.692   1.975   8.187  1.7013  0.3413 -1.7030
 5777SOL    HW228794   1.586   1.871   8.163 -0.6074  1.0912  0.1173
 5778SOL     OW28795   4.065   1.891   7.583  0.3130 -0.1240  0.2063
 5778SOL    HW128796   4.066   1.963   7.519  0.7586  0.5592  0.9896
 5778SOL    HW228797   3.985   1.847   7.553 -2.2468  3.6930  1.4010
 5779SOL     OW28798   2.640   3.420   4.466  0.1071 -0.4747  0.3160
 5779SOL    HW128799   2.692   3.467   4.532 -0.2718 -1.1259  1.0784
 5779SOL    HW228800   2.596   3.492   4.422  3.5311  1.1737 -0.4709
 5780SOL     OW28801   0.673   0.345   4.016 -0.0581 -0.1933 -0.1959
 5780SOL    HW128802   0.639   0.389   4.094 -1.0591 -0.8445 -0.2609
 5780SOL    HW228803   0.588   0.318   3.980  0.8870  0.7137 -3.1291
 5781SOL     OW28804   0.857   3.059   4.512 -0.0936  0.2174 -0.4011
 5781SOL    HW128805   0.872   2.994   4.443 -0.4143 -1.7385  1.3459
 5781SOL    HW228806   0.762   3.071   4.510 -0.2370 -0.4513  1.9555
 5782SOL     OW28807   3.499   3.399   8.765  0.4671 -0.4995  0.7556
 5782SOL    HW128808   3.437   3.470   8.783  0.2293 -0.4116 -0.4262
 5782SOL    HW228809   3.543   3.396   8.850  1.3658  0.6282  0.3201
 5783SOL     OW28810   2.963   3.933   0.939  0.1953 -0.3604  0.3656
 5783SOL    HW128811   3.010   3.965   0.862 -3.2875 -0.6660 -1.8733
 5783SOL    HW228812   3.041   3.898   0.983  2.1939  0.7363 -2.3193
 5784SOL     OW28813   3.695   0.580  13.621 -0.1461 -0.4008 -0.3353
 5784SOL    HW128814   3.674   0.599  13.530 -0.1975  0.7518 -0.0931
 5784SOL    HW228815   3.761   0.645  13.647 -2.0204  1.8045 -1.0021
 5785SOL     OW28816   1.477   4.367  11.491  0.3943 -0.9442 -0.7644
 5785SOL    HW128817   1.427   4.446  11.469  0.4521 -1.0363 -1.2312
 5785SOL    HW228818   1.405   4.314  11.525  1.6522 -1.1576  1.5557
 5786SOL     OW28819   0.863   0.608   4.793 -0.3057 -0.0551  0.5386
 5786SOL    HW128820   0.862   0.548   4.868 -1.8839  0.9353  1.2856
 5786SOL    HW228821   0.886   0.553   4.717 -0.1774 -0.6757  1.0291
 5787SOL     OW28822   4.333   4.716   2.965  0.0472  0.0112  0.4958
 5787SOL    HW128823   4.259   0.053   2.973  1.9204  2.0347  2.7281
 5787SOL    HW228824   4.392   0.028   3.032  1.5886 -2.3279  0.3698
 5788SOL     OW28825   1.143   4.664   6.667  0.4346 -0.3526  0.1910
 5788SOL    HW128826   1.212   4.693   6.727  1.1914 -3.2455  0.6958
 5788SOL    HW228827   1.061   4.660   6.717 -0.8103 -0.8127 -1.8799
 5789SOL     OW28828   0.510   0.575   1.626  0.4222  0.8969  0.4845
 5789SOL    HW128829   0.414   0.580   1.624  0.4522  1.2399 -0.2928
 5789SOL    HW228830   0.536   0.659   1.664  0.5457  1.8338 -1.6829
 5790SOL     OW28831   2.023   0.584   0.131 -0.3508 -0.5184  0.7794
 5790SOL    HW128832   2.118   0.572   0.126  0.1392  2.2498  3.7659
 5790SOL    HW228833   1.992   0.525   0.062  0.3071  0.5071 -0.3962
 5791SOL     OW28834   2.690   1.426   4.565  0.2030 -0.4500  0.0813
 5791SOL    HW128835   2.655   1.399   4.480  1.4225 -1.3690 -0.1264
 5791SOL    HW228836   2.610   1.444   4.615 -0.1512  0.0405 -0.6707
 5792SOL     OW28837   1.726   1.707   7.452 -0.4364 -0.4849  0.0497
 5792SOL    HW128838   1.669   1.760   7.395  0.4152 -0.7087 -1.0197
 5792SOL    HW228839   1.801   1.756   7.418 -2.1060  0.3871 -2.4416
 5793SOL     OW28840   4.681   1.280   8.603  0.5545  0.3542  0.7722
 5793SOL    HW128841   4.620   1.220   8.561  1.1963 -0.7478  1.3942
 5793SOL    HW228842   4.626   1.357   8.594  0.6232  0.3423  0.2425
 5794SOL     OW28843   4.589   1.714   6.674  0.3044  0.3886  0.0940
 5794SOL    HW128844   4.570   1.653   6.745 -0.0909  1.1629  0.6464
 5794SOL    HW228845   4.648   1.780   6.709 -2.1634  1.7632  1.6703
 5795SOL     OW28846   2.497   0.677   0.371 -0.1303  0.1702  0.1452
 5795SOL    HW128847   2.446   0.731   0.431 -2.8837 -0.4197 -1.6664
 5795SOL    HW228848   2.583   0.710   0.397 -0.2225  2.5628 -2.6096
 5796SOL     OW28849   1.957   0.356  10.809 -0.0329  0.0747 -0.0888
 5796SOL    HW128850   1.999   0.438  10.785  0.7406  0.3125  2.0439
 5796SOL    HW228851   2.025   0.307  10.762  1.0054  1.2604  0.1707
 5797SOL     OW28852   0.877   1.939   6.725 -0.3509  0.4928  0.2003
 5797SOL    HW128853   0.799   1.909   6.678 -0.6430  1.3051  0.1710
 5797SOL    HW228854   0.866   2.029   6.697 -0.6853  0.3119 -0.2429
 5798SOL     OW28855   3.016   3.183   7.952 -0.5805  0.3995  0.2380
 5798SOL    HW128856   3.027   3.091   7.975 -1.6115  0.4323  0.8813
 5798SOL    HW228857   2.994   3.178   7.859 -1.0010  0.9098  0.3091
 5799SOL     OW28858   2.943   3.269   8.483 -0.3546  0.2359 -0.0506
 5799SOL    HW128859   3.001   3.228   8.546 -0.3964  1.7188  0.9516
 5799SOL    HW228860   2.895   3.332   8.537 -0.9892  0.1420 -0.4967
 5800SOL     OW28861   2.396   0.914   3.251 -0.4635 -0.1154 -0.0038
 5800SOL    HW128862   2.483   0.940   3.220 -0.3148 -0.7749 -0.1327
 5800SOL    HW228863   2.373   0.856   3.178  2.7412 -1.3196 -0.0668
 5801SOL     OW28864   1.826   1.526   7.120 -0.4732  0.1789  0.5062
 5801SOL    HW128865   1.785   1.587   7.181 -1.5104 -1.9880  2.0028
 5801SOL    HW228866   1.917   1.531   7.152 -0.0750  2.8817 -1.0910
 5802SOL     OW28867   3.409   2.371   8.177  0.1473  0.1469 -0.0532
 5802SOL    HW128868   3.413   2.403   8.267 -2.1010 -1.2705  0.5490
 5802SOL    HW228869   3.406   2.452   8.126 -1.6571 -0.2752 -0.6112
 5803SOL     OW28870   1.859   0.532  12.412 -0.2066 -0.0677  0.5178
 5803SOL    HW128871   1.949   0.524  12.381 -0.6677  1.6925 -1.2879
 5803SOL    HW228872   1.870   0.516  12.506 -0.6102  0.6622  0.6929
 5804SOL     OW28873   1.539   3.704   7.929  0.2394  0.0700  0.4772
 5804SOL    HW128874   1.519   3.764   7.857 -1.4688  0.8523  1.6230
 5804SOL    HW228875   1.499   3.721   8.014  1.0716 -0.6930  1.0230
 5805SOL     OW28876   3.062   3.001   2.420  0.4582  0.0956  0.4009
 5805SOL    HW128877   3.044   3.046   2.503 -1.8697 -1.0011  0.4801
 5805SOL    HW228878   3.156   3.019   2.415  0.6119 -0.7095  0.3845
 5806SOL     OW28879   3.087   1.128   8.777  0.0900  0.1309  0.0028
 5806SOL    HW128880   3.109   1.135   8.870  0.4296  0.4797 -0.1000
 5806SOL    HW228881   2.994   1.150   8.778  0.7140  2.8524 -0.6927
 5807SOL     OW28882   0.036   1.500   2.080  0.6508  0.3644 -0.0767
 5807SOL    HW128883   0.131   1.496   2.068  0.6754  0.4658  0.0784
 5807SOL    HW228884   4.722   1.465   1.999 -0.3082 -0.9588  0.9330
 5808SOL     OW28885   1.027   0.665   1.971  0.7402 -0.3030  0.1365
 5808SOL    HW128886   1.103   0.720   1.953  0.7520 -0.3224  0.1269
 5808SOL    HW228887   0.960   0.703   1.914  0.5959  0.5795  0.8996
 5809SOL     OW28888   0.828   0.089  15.032 -0.2521 -0.0362  0.4093
 5809SOL    HW128889   0.908   0.040  15.049 -0.9829 -1.7442 -1.1040
 5809SOL    HW228890   0.866   0.162  14.984  0.4476 -1.8844 -1.8142
 5810SOL     OW28891   0.272   1.693   5.506  0.2531 -0.6927 -0.5738
 5810SOL    HW128892   0.350   1.637   5.512 -0.0965 -0.9901  1.5099
 5810SOL    HW228893   0.265   1.701   5.411  3.9168 -1.7681 -0.9435
 5811SOL     OW28894   1.568   4.400  15.318  0.1318 -0.0444  0.7630
 5811SOL    HW128895   1.585   4.363  15.232 -2.6013  0.0177  0.1984
 5811SOL    HW228896   1.553   4.320  15.369 -0.3133  0.0361  0.7573
 5812SOL     OW28897   4.316   3.582  16.723  0.1475 -0.1141 -0.2864
 5812SOL    HW128898   4.404   3.613  16.702  0.0964 -0.7055 -1.3777
 5812SOL    HW228899   4.311   3.487  16.712 -0.1279 -0.3489  1.8214
 5813SOL     OW28900   1.961   0.069  11.034 -0.7409 -0.0585 -0.2268
 5813SOL    HW128901   2.049   0.061  10.998 -0.5105 -0.6200  0.4513
 5813SOL    HW228902   1.918   0.137  10.983 -3.5880  0.9784  3.4798
 5814SOL     OW28903   4.467   4.027   8.103 -0.4905 -0.0716 -0.2635
 5814SOL    HW128904   4.561   4.008   8.101 -0.2247  1.2073 -0.0046
 5814SOL    HW228905   4.451   4.115   8.069 -2.6250  0.3714  1.9051
 5815SOL     OW28906   3.447   3.781  10.347  0.4050 -0.2762 -0.2455
 5815SOL    HW128907   3.357   3.750  10.361  0.6860 -1.5783 -1.3647
 5815SOL    HW228908   3.475   3.780  10.438  0.1390  0.3971 -0.1497
 5816SOL     OW28909   0.117   4.150  10.948 -0.2711 -0.2667  0.1110
 5816SOL    HW128910   0.116   4.207  11.025  1.0147  0.1523 -0.1796
 5816SOL    HW228911   0.172   4.078  10.978  0.3891  0.1345 -0.1559
 5817SOL     OW28912   3.707   0.998   0.767  0.0449 -0.3281 -0.7273
 5817SOL    HW128913   3.702   0.995   0.863  2.0640  1.5956 -0.5678
 5817SOL    HW228914   3.683   1.090   0.766  1.0639 -0.0605  0.7364
 5818SOL     OW28915   0.225   0.466   2.819  0.3211  0.1868  0.2723
 5818SOL    HW128916   0.225   0.483   2.913 -0.5343  2.5468 -0.1498
 5818SOL    HW228917   0.315   0.475   2.787 -0.2104  1.4410 -0.8533
 5819SOL     OW28918   2.298   2.226   4.427 -0.0458  0.0562 -0.8721
 5819SOL    HW128919   2.341   2.292   4.372  0.4880  1.2970  0.9986
 5819SOL    HW228920   2.208   2.244   4.399 -0.7669 -1.8799  0.2355
 5820SOL     OW28921   1.928   2.090   7.860 -0.2883 -0.7458  0.6930
 5820SOL    HW128922   2.017   2.124   7.864 -0.2179 -1.1064  2.1639
 5820SOL    HW228923   1.921   2.034   7.782 -2.3452 -0.9867  1.0563
 5821SOL     OW28924   2.936   0.511   8.374  0.4443  0.1206  0.1532
 5821SOL    HW128925   2.857   0.562   8.359 -0.9287 -2.0161  0.1692
 5821SOL    HW228926   2.902   0.438   8.423 -0.5481  0.5189  0.0482
 5822SOL     OW28927   2.408   4.199  13.514  0.1287  0.5159  0.5748
 5822SOL    HW128928   2.442   4.289  13.510  2.1950 -0.2232  1.3049
 5822SOL    HW228929   2.398   4.200  13.609  0.9960  1.9456  0.6574
 5823SOL     OW28930   1.281   3.475   7.448 -0.1877  0.3818 -0.7364
 5823SOL    HW128931   1.301   3.402   7.390 -0.3391 -0.2245 -0.0238
 5823SOL    HW228932   1.215   3.525   7.400 -2.7369 -0.5482  1.7892
 5824SOL     OW28933   1.973   4.722  16.062  0.2408  0.4680  0.0179
 5824SOL    HW128934   2.025   4.642  16.075 -3.4144 -1.4514  3.0283
 5824SOL    HW228935   2.016   0.062  16.120 -0.5007 -0.7570  1.9064
 5825SOL     OW28936   0.945   1.683   3.171 -0.0970  0.5834 -0.1856
 5825SOL    HW128937   0.889   1.685   3.248 -1.2030  0.3444 -0.9930
 5825SOL    HW228938   0.973   1.775   3.162  0.9154  0.3501  0.6272
 5826SOL     OW28939   3.419   1.905   8.173 -0.1119  0.4052  0.5504
 5826SOL    HW128940   3.392   1.836   8.113 -1.3125  1.0958  0.3063
 5826SOL    HW228941   3.331   1.906   8.212  0.5899 -1.7750  2.2459
 5827SOL     OW28942   2.941   3.451   3.779  0.1393 -0.2205  0.5642
 5827SOL    HW128943   2.992   3.397   3.839 -0.0564 -1.0725 -0.0186
 5827SOL    HW228944   2.966   3.424   3.690  3.2195  1.2829  1.0066
 5828SOL     OW28945   3.665   1.910  14.182  0.2148  0.2062  0.0011
 5828SOL    HW128946   3.717   1.965  14.241  0.7640 -1.7997  1.4057
 5828SOL    HW228947   3.575   1.934  14.205  0.5762  0.6256  0.9895
 5829SOL     OW28948   0.576   0.579   2.520 -0.0098  0.3071  0.4302
 5829SOL    HW128949   0.660   0.606   2.556  0.4900 -2.2139  1.1314
 5829SOL    HW228950   0.539   0.535   2.597 -1.4595  1.9828  0.7009
 5830SOL     OW28951   2.524   1.532   1.269 -0.0003  0.2813 -0.0507
 5830SOL    HW128952   2.468   1.518   1.345 -0.4413  0.5805 -0.3227
 5830SOL    HW228953   2.603   1.484   1.294 -0.1952 -1.9609 -3.6275
 5831SOL     OW28954   3.654   0.484   6.559  0.0555  0.4431  0.2070
 5831SOL    HW128955   3.697   0.398   6.556 -2.1469 -0.6530 -0.1604
 5831SOL    HW228956   3.722   0.550   6.573 -0.8095  1.8288 -2.1463
 5832SOL     OW28957   1.018   1.170  17.395 -0.0669 -0.4503 -0.1544
 5832SOL    HW128958   1.065   1.157  17.312  2.7943  0.4294  1.3095
 5832SOL    HW228959   0.990   1.081  17.416  1.2418 -0.6697  0.6430
 5833SOL     OW28960   1.855   1.933  15.481  0.5164 -0.1553 -0.0048
 5833SOL    HW128961   1.897   1.942  15.396  0.2490 -0.3869 -0.1615
 5833SOL    HW228962   1.778   1.878  15.465  0.7326 -0.3313 -0.4312
 5834SOL     OW28963   3.096   3.473   6.814 -0.1778  0.2222  0.0199
 5834SOL    HW128964   3.089   3.396   6.872  4.2059 -0.7256 -0.6928
 5834SOL    HW228965   3.183   3.452   6.780 -0.1010 -1.0735  1.0110
 5835SOL     OW28966   0.099   3.535  17.506 -0.1217 -0.1521 -0.7977
 5835SOL    HW128967   0.094   3.486  17.424 -1.2288  0.8499 -1.3243
 5835SOL    HW228968   0.092   3.467  17.572  0.4361 -1.0497 -1.6653
 5836SOL     OW28969   3.042   4.475  16.660 -0.2252 -1.0142  0.1224
 5836SOL    HW128970   3.025   4.553  16.608 -2.4860 -1.2822  0.4578
 5836SOL    HW228971   3.136   4.475  16.680 -0.3415  1.7235  0.6611
 5837SOL     OW28972   4.555   4.313  15.905 -0.5828  0.7846 -0.6846
 5837SOL    HW128973   4.539   4.407  15.915 -2.1641  0.5536 -1.0098
 5837SOL    HW228974   4.519   4.287  15.989 -0.7989  2.7435 -0.1595
 5838SOL     OW28975   3.886   1.775  15.012  1.0781 -0.1490 -0.1792
 5838SOL    HW128976   3.947   1.775  14.938 -0.0376 -1.2897 -1.0979
 5838SOL    HW228977   3.857   1.684  15.004 -0.1740  0.1032  1.6781
 5839SOL     OW28978   0.993   2.700  16.318 -0.1449  0.2643 -0.2983
 5839SOL    HW128979   0.990   2.765  16.247  1.8978 -1.0508 -1.5932
 5839SOL    HW228980   0.982   2.620  16.266  1.8457 -2.4139  3.4367
 5840SOL     OW28981   4.478   1.760   2.327 -0.0583 -0.2669 -0.3706
 5840SOL    HW128982   4.559   1.811   2.322  0.1874 -0.5496  0.5936
 5840SOL    HW228983   4.419   1.824   2.368 -0.8367 -1.7769  0.8541
 5841SOL     OW28984   3.484   0.249   2.304 -0.1451 -0.0385  0.0362
 5841SOL    HW128985   3.402   0.229   2.259 -1.2510  1.6376  1.3312
 5841SOL    HW228986   3.526   0.169   2.273  0.4624  1.0072 -1.8484
 5842SOL     OW28987   1.253   2.527   0.895 -0.6237 -0.4113 -0.5593
 5842SOL    HW128988   1.174   2.573   0.868 -0.6200 -0.2862 -0.3557
 5842SOL    HW228989   1.234   2.494   0.983  0.5298 -0.1208 -0.1952
 5843SOL     OW28990   3.673   0.188   4.429  0.0584 -0.3828  0.3425
 5843SOL    HW128991   3.616   0.226   4.497  1.0653  0.4901  0.6908
 5843SOL    HW228992   3.634   0.102   4.414 -1.0550  0.2674 -0.5536
 5844SOL     OW28993   2.406   2.945   2.704 -0.1472 -0.1407  0.5535
 5844SOL    HW128994   2.468   2.913   2.770 -0.6774 -1.6828  0.3131
 5844SOL    HW228995   2.439   2.902   2.625  1.9754  2.9512 -0.2596
 5845SOL     OW28996   2.109   4.172  13.139  0.3643 -0.0357 -0.1711
 5845SOL    HW128997   2.111   4.184  13.234 -0.4207 -0.5998 -0.0781
 5845SOL    HW228998   2.050   4.246  13.125 -1.9571 -1.6427  0.9275
 5846SOL     OW28999   4.405   0.379   5.621  0.4559  0.2045 -0.1018
 5846SOL    HW129000   4.396   0.335   5.537 -0.5478 -1.7625  1.0552
 5846SOL    HW229001   4.363   0.464   5.607 -1.6922 -0.6225  1.3032
 5847SOL     OW29002   1.319   1.987   8.420  0.1649 -0.1398  0.2315
 5847SOL    HW129003   1.321   2.019   8.510 -0.0147 -2.5532  1.1055
 5847SOL    HW229004   1.234   2.019   8.393  0.2804  1.4680  1.8119
 5848SOL     OW29005   2.136   2.777   6.349  0.3783 -0.1356  0.1023
 5848SOL    HW129006   2.095   2.718   6.286  0.8674  0.6785 -0.9776
 5848SOL    HW229007   2.161   2.854   6.298  1.2099 -0.4830 -0.0087
 5849SOL     OW29008   3.021   0.173   2.747 -0.3056 -0.0337 -0.1997
 5849SOL    HW129009   3.071   0.094   2.764  2.0583  1.5810  0.4087
 5849SOL    HW229010   3.090   0.218   2.698 -0.5170 -1.2797 -1.6132
 5850SOL     OW29011   2.679   2.067   1.423 -0.0365  0.4371  0.2177
 5850SOL    HW129012   2.706   2.056   1.515 -3.7960 -2.7882  0.9207
 5850SOL    HW229013   2.731   2.141   1.391  1.9653 -0.3312  1.6405
 5851SOL     OW29014   4.004   3.576   5.905  0.0324 -0.2666  0.0800
 5851SOL    HW129015   4.073   3.550   5.966  0.0518  0.3162  0.3054
 5851SOL    HW229016   4.011   3.500   5.848 -0.8827  1.0953 -1.8387
 5852SOL     OW29017   3.655   0.512   0.286  0.7853  0.1450  0.5056
 5852SOL    HW129018   3.740   0.468   0.288 -0.3744 -2.0174  1.5920
 5852SOL    HW229019   3.589   0.447   0.309  0.9547  0.6032  2.2978
 5853SOL     OW29020   3.054   0.181  10.137 -0.0917  0.3915  0.1115
 5853SOL    HW129021   2.981   0.127  10.105 -1.7500  2.9025 -0.3398
 5853SOL    HW229022   3.124   0.117  10.146 -1.0294 -0.7921 -0.9267
 5854SOL     OW29023   4.223   4.035   1.803 -0.6825  0.4318 -0.2660
 5854SOL    HW129024   4.162   4.072   1.739 -1.8382 -1.4261 -0.2498
 5854SOL    HW229025   4.160   3.997   1.865 -1.1114  1.7974  0.1308
 5855SOL     OW29026   0.410   0.119  16.632 -0.6613 -0.2143  0.0335
 5855SOL    HW129027   0.426   0.166  16.714 -0.5258  1.0813 -0.7398
 5855SOL    HW229028   0.397   0.204  16.588  2.0456  0.2587  0.1640
 5856SOL     OW29029   4.703   2.106   7.121  0.6516 -0.0707  0.1887
 5856SOL    HW129030   4.696   2.189   7.168 -0.2159 -2.2906  3.9908
 5856SOL    HW229031   4.612   2.106   7.090  1.3859  1.7264 -1.9467
 5857SOL     OW29032   4.100   3.285   9.654 -0.7784 -0.0361 -0.2372
 5857SOL    HW129033   4.111   3.211   9.714 -1.3458 -1.3133 -1.7197
 5857SOL    HW229034   4.010   3.270   9.627 -0.8088 -2.3628  1.1812
 5858SOL     OW29035   1.365   4.222   4.128 -0.3166  0.2939  0.3806
 5858SOL    HW129036   1.292   4.162   4.116  0.1041 -0.1062 -0.1575
 5858SOL    HW229037   1.435   4.158   4.129 -0.8405 -0.2817 -0.5528
 5859SOL     OW29038   3.976   4.124  14.657  0.4379  0.0618  0.2917
 5859SOL    HW129039   3.918   4.105  14.584  0.0909 -1.8623  1.0756
 5859SOL    HW229040   3.987   4.214  14.626 -0.3820  0.4371  1.1091
 5860SOL     OW29041   1.385   3.917  10.972 -0.3521 -0.0687 -0.1350
 5860SOL    HW129042   1.430   3.897  11.054 -0.4344  0.4753  0.0453
 5860SOL    HW229043   1.453   3.885  10.913 -0.4639 -0.1131 -0.2388
 5861SOL     OW29044   0.889   4.672  16.167 -0.4889 -0.1658 -0.6595
 5861SOL    HW129045   0.831   4.597  16.184 -0.3847 -0.1796 -0.3514
 5861SOL    HW229046   0.944   4.626  16.104 -0.0571 -1.1743  0.4459
 5862SOL     OW29047   1.508   1.572   2.110  0.0260  0.7183  0.4401
 5862SOL    HW129048   1.484   1.604   2.197 -1.6385  0.3735  0.0941
 5862SOL    HW229049   1.485   1.654   2.065 -1.2418  0.6426  0.9644
 5863SOL     OW29050   2.764   0.237   0.257  0.0199 -0.6636 -0.0414
 5863SOL    HW129051   2.681   0.286   0.265  0.9855  0.9896 -0.0787
 5863SOL    HW229052   2.819   0.280   0.322 -2.1489  0.5081  1.0407
 5864SOL     OW29053   2.338   3.465   5.918  0.4387 -0.3291  0.0628
 5864SOL    HW129054   2.411   3.526   5.931 -0.2840  1.0124 -2.0704
 5864SOL    HW229055   2.309   3.478   5.827  0.6669 -1.1821 -0.1299
 5865SOL     OW29056   1.029   0.087   9.841 -0.2507 -0.8207 -0.2882
 5865SOL    HW129057   1.100   0.058   9.784  0.3295  5.0670 -2.5712
 5865SOL    HW229058   0.970   0.136   9.783 -0.6661  0.3223  1.0766
 5866SOL     OW29059   2.443   1.959   4.927 -0.1434  0.5126  0.3217
 5866SOL    HW129060   2.486   2.025   4.872 -0.7364 -0.3186 -1.1510
 5866SOL    HW229061   2.441   1.991   5.017  1.2993  5.2192 -1.2777
 5867SOL     OW29062   2.413   4.632   4.089  0.0448 -0.8296  0.4487
 5867SOL    HW129063   2.326   4.604   4.116  0.5873 -3.2130 -0.2471
 5867SOL    HW229064   2.395   4.688   4.014  0.4681 -0.1588  0.8455
 5868SOL     OW29065   2.135   2.315   7.500  0.1594 -0.3244 -0.1541
 5868SOL    HW129066   2.132   2.381   7.570 -0.7438  0.6611 -1.1123
 5868SOL    HW229067   2.146   2.232   7.546 -2.9833 -0.1977  0.8155
 5869SOL     OW29068   4.662   1.741  17.475  0.4690  0.0356 -0.0810
 5869SOL    HW129069   0.025   1.755  17.435  0.7713  1.6547  1.1419
 5869SOL    HW229070   4.621   1.667  17.430 -1.6384  0.7479  0.6954
 5870SOL     OW29071   1.315   1.336  17.249 -0.3222 -0.0965  0.3030
 5870SOL    HW129072   1.378   1.285  17.299 -0.3028  0.0905  0.4697
 5870SOL    HW229073   1.239   1.280  17.234 -0.3676  0.3108 -0.9727
 5871SOL     OW29074   0.150   3.597   3.475  0.2053 -0.0866 -0.4440
 5871SOL    HW129075   0.066   3.632   3.504 -1.1018 -3.7960  0.3197
 5871SOL    HW229076   0.148   3.604   3.380  0.6850 -0.8583 -0.5138
 5872SOL     OW29077   0.962   0.102   1.405 -0.2464 -0.4193 -0.2715
 5872SOL    HW129078   1.043   0.145   1.431  1.2504 -2.6499 -1.2276
 5872SOL    HW229079   0.900   0.150   1.459  0.4496 -0.6484  0.7370
 5873SOL     OW29080   3.048   3.508   3.026  0.3530  0.4007 -0.2126
 5873SOL    HW129081   3.091   3.588   3.057  1.7962 -0.8643  1.0296
 5873SOL    HW229082   3.127   3.456   3.013  0.2733  0.3416 -0.4658
 5874SOL     OW29083   1.176   1.040   6.777  0.1641  0.0790  0.0920
 5874SOL    HW129084   1.098   0.999   6.739 -0.2549  0.5124  0.4739
 5874SOL    HW229085   1.199   0.968   6.836 -1.5332  0.1008  0.7898
 5875SOL     OW29086   1.110   1.982   8.784  0.3419  0.4374 -0.5110
 5875SOL    HW129087   1.134   2.027   8.865 -1.7943  1.0900 -0.2449
 5875SOL    HW229088   1.179   2.021   8.729 -1.7422  4.9176  0.0325
 5876SOL     OW29089   3.911   1.734   3.811  0.0336  0.0810 -0.2829
 5876SOL    HW129090   3.891   1.701   3.724 -0.1058 -0.4162 -0.0601
 5876SOL    HW229091   3.874   1.663   3.864  1.4124  0.7447  1.5673
 5877SOL     OW29092   3.433   0.683  14.410  0.1154 -0.2940  0.2122
 5877SOL    HW129093   3.453   0.702  14.318  2.7448 -1.6972  0.4978
 5877SOL    HW229094   3.515   0.700  14.455  0.8356  1.6781 -1.8713
 5878SOL     OW29095   1.591   2.388   1.470  0.2128  0.2453  0.6725
 5878SOL    HW129096   1.676   2.347   1.481  0.2301  0.2625  0.6061
 5878SOL    HW229097   1.545   2.317   1.514  1.0111 -0.9501 -0.4212
 5879SOL     OW29098   4.304   1.294   6.612  0.4003  0.5039  0.1256
 5879SOL    HW129099   4.245   1.361   6.646 -0.6770  0.1782 -1.1434
 5879SOL    HW229100   4.332   1.253   6.695  1.7741  0.1646 -0.5034
 5880SOL     OW29101   0.609   0.266  12.677 -0.1559 -0.0889  0.4632
 5880SOL    HW129102   0.573   0.224  12.598 -3.0981  0.8772  1.2852
 5880SOL    HW229103   0.532   0.317  12.702  1.2294  2.7954 -1.1339
 5881SOL     OW29104   0.487   4.252   5.477  0.2341  0.0226  0.0646
 5881SOL    HW129105   0.459   4.160   5.475  0.8068 -0.1452 -0.4983
 5881SOL    HW229106   0.422   4.289   5.536 -1.6902 -1.8764 -0.8687
 5882SOL     OW29107   2.520   0.519   4.199 -0.1523 -0.4071 -0.3667
 5882SOL    HW129108   2.547   0.428   4.196  1.0113 -0.0308 -1.5594
 5882SOL    HW229109   2.606   0.562   4.203  0.5193 -1.6677 -1.1726
 5883SOL     OW29110   4.102   4.085   3.638 -0.0909 -0.6656 -0.1563
 5883SOL    HW129111   4.144   4.072   3.553  0.0159 -0.4480 -0.1362
 5883SOL    HW229112   4.019   4.048   3.607 -0.7182  1.3492 -0.8966
 5884SOL     OW29113   4.174   0.300   7.021  0.2423 -0.3375 -0.8628
 5884SOL    HW129114   4.193   0.207   7.035  1.5679 -0.1108 -1.1015
 5884SOL    HW229115   4.095   0.291   6.969  1.3137  1.4330 -2.8134
 5885SOL     OW29116   2.940   2.490  13.886  0.4316  0.8754 -0.2237
 5885SOL    HW129117   2.862   2.532  13.850 -0.0675 -2.2013 -2.7525
 5885SOL    HW229118   2.910   2.399  13.885 -2.9046  1.9681  0.1109
 5886SOL     OW29119   2.566   3.858  10.768 -0.2884 -0.5731 -0.5732
 5886SOL    HW129120   2.561   3.762  10.762 -0.4269 -0.6547  0.7929
 5886SOL    HW229121   2.528   3.871  10.855  1.1495 -3.9809  0.5854
 5887SOL     OW29122   0.617   1.956  15.070 -0.0475  0.3367  0.5465
 5887SOL    HW129123   0.699   1.970  15.023 -0.4702  2.2321  0.3508
 5887SOL    HW229124   0.568   1.897  15.013  0.9708  0.7258 -0.7306
 5888SOL     OW29125   0.034   0.006   8.285 -0.0838  0.3346  0.3203
 5888SOL    HW129126   0.092   4.656   8.263  0.5437  0.3808  1.8460
 5888SOL    HW229127   0.086   0.063   8.341  0.3112 -0.0009  0.2938
 5889SOL     OW29128   2.788   0.305   8.485  0.8530  0.3577  0.3404
 5889SOL    HW129129   2.708   0.357   8.490  0.4450 -0.1915 -0.5470
 5889SOL    HW229130   2.766   0.232   8.544  2.3719  0.8436  1.5117
 5890SOL     OW29131   1.951   1.352  15.470  0.5931  0.0197  0.6201
 5890SOL    HW129132   1.888   1.281  15.462  0.4348  0.5248 -2.6407
 5890SOL    HW229133   2.023   1.332  15.410  1.1941 -0.0190  1.3615
 5891SOL     OW29134   1.020   1.412   2.074  0.2815  0.5200  0.3729
 5891SOL    HW129135   1.063   1.327   2.070  0.6097  0.6902  0.2412
 5891SOL    HW229136   1.050   1.447   1.989 -1.0334 -0.2710 -0.4107
 5892SOL     OW29137   3.128   4.158   5.017 -0.3035  0.5977 -0.3545
 5892SOL    HW129138   3.077   4.238   5.033  0.0140  0.4838  1.1756
 5892SOL    HW229139   3.210   4.196   4.985  1.1729 -1.5374  0.9207
 5893SOL     OW29140   3.792   1.707   6.529  0.2752  0.0907  0.5116
 5893SOL    HW129141   3.786   1.613   6.546  2.8169  0.0876  1.3834
 5893SOL    HW229142   3.813   1.706   6.436 -0.7771  1.5013  0.2553
 5894SOL     OW29143   2.645   4.662   4.251 -0.4385 -0.1311  0.3489
 5894SOL    HW129144   2.629   0.026   4.288 -3.5290 -1.2306  1.5707
 5894SOL    HW229145   2.579   4.657   4.181 -0.1499  1.5229 -0.0442
 5895SOL     OW29146   1.922   1.355  17.429  0.5081 -0.7280  0.2412
 5895SOL    HW129147   1.892   1.297  17.359 -1.7613  1.3281 -0.5159
 5895SOL    HW229148   1.945   1.288  17.493 -1.0258 -2.4547 -1.0066
 5896SOL     OW29149   0.000   0.053  17.612 -0.0396 -0.1494 -0.6755
 5896SOL    HW129150   0.022   0.103  17.534  2.3332 -0.5723 -0.2827
 5896SOL    HW229151   0.088   0.025  17.636  0.0644  0.8960  0.1522
 5897SOL     OW29152   0.610   1.748   8.209 -0.2084 -0.2923 -0.6616
 5897SOL    HW129153   0.695   1.732   8.249 -0.7215  1.3347  1.0810
 5897SOL    HW229154   0.584   1.822   8.264 -1.0377  0.3804 -1.9464
 5898SOL     OW29155   1.165   1.703   8.218 -0.8089 -0.6903  0.2943
 5898SOL    HW129156   1.179   1.776   8.158  1.2149 -1.8001 -0.6160
 5898SOL    HW229157   1.251   1.660   8.215 -0.0440  0.8955 -0.7239
 5899SOL     OW29158   1.836   0.183   1.984 -0.0473  0.7265  0.2845
 5899SOL    HW129159   1.755   0.132   1.971 -1.6325  3.2088  0.4220
 5899SOL    HW229160   1.847   0.215   1.895  0.0422 -3.6934 -1.2963
 5900SOL     OW29161   2.891   3.366  15.631 -0.6565  0.2416  0.0311
 5900SOL    HW129162   2.938   3.341  15.551 -1.1780  0.4795 -0.3488
 5900SOL    HW229163   2.837   3.438  15.597 -0.0758  1.1563  1.0546
 5901SOL     OW29164   4.479   2.984   4.193 -0.4086  0.9448  0.4286
 5901SOL    HW129165   4.448   2.916   4.254 -0.5394  0.1046 -0.5693
 5901SOL    HW229166   4.464   3.058   4.252  1.6525  1.8673 -0.2318
 5902SOL     OW29167   2.303   1.188   2.346  0.9761 -0.2221 -0.2880
 5902SOL    HW129168   2.383   1.194   2.294  0.7403  0.9979 -0.5392
 5902SOL    HW229169   2.304   1.275   2.386  0.0491  0.4751 -1.7283
 5903SOL     OW29170   1.615   2.350   3.408  0.8498 -0.3370  0.2451
 5903SOL    HW129171   1.691   2.370   3.353 -0.2235  0.9167 -0.7724
 5903SOL    HW229172   1.579   2.265   3.381  1.2524 -0.0797 -1.1029
 5904SOL     OW29173   4.208   1.913   4.514  0.0113 -0.4930  0.0804
 5904SOL    HW129174   4.155   1.987   4.484  0.6629 -0.1887 -0.3167
 5904SOL    HW229175   4.192   1.907   4.609  1.3939  1.3524  0.4294
 5905SOL     OW29176   2.981   4.648   9.442  0.6189 -0.4735 -0.1174
 5905SOL    HW129177   3.068   4.638   9.404  1.3383  3.1720  0.5216
 5905SOL    HW229178   3.003   4.653   9.535 -2.2850 -1.9489  0.6634
 5906SOL     OW29179   3.867   0.530   8.839  0.8454  0.5891 -0.0943
 5906SOL    HW129180   3.899   0.520   8.928  1.3999  0.2567 -0.3352
 5906SOL    HW229181   3.799   0.462   8.836  2.4978 -1.0346 -0.4826
 5907SOL     OW29182   3.426   0.434  17.219  0.3796  0.7235  0.2306
 5907SOL    HW129183   3.482   0.381  17.275  1.1319 -0.4945 -1.6569
 5907SOL    HW229184   3.443   0.522  17.252 -1.5754  1.2013 -0.0133
 5908SOL     OW29185   0.816   4.610   4.684 -0.1125 -0.0586  0.2268
 5908SOL    HW129186   0.798   4.702   4.667  0.5563  0.1232  0.5112
 5908SOL    HW229187   0.745   4.598   4.747 -0.8719  0.5510 -0.5285
 5909SOL     OW29188   0.800   2.405   6.834 -0.7388  0.1137  0.0972
 5909SOL    HW129189   0.731   2.363   6.886 -2.0472  0.4189 -1.3650
 5909SOL    HW229190   0.823   2.484   6.882  2.2636 -1.3734  1.0530
 5910SOL     OW29191   2.250   3.901  10.365 -0.7247  0.5115  0.1345
 5910SOL    HW129192   2.231   3.913  10.272 -1.2971  1.3691  0.3583
 5910SOL    HW229193   2.301   3.981  10.377 -0.1640  0.5095 -2.2240
 5911SOL     OW29194   4.219   0.295   7.983  0.3907  0.4308 -0.6829
 5911SOL    HW129195   4.129   0.273   7.961  0.4341 -1.2962  0.8892
 5911SOL    HW229196   4.222   0.387   7.954  0.1096 -0.1700 -2.5958
 5912SOL     OW29197   2.400   2.631   4.505 -0.2075 -0.1919  0.2189
 5912SOL    HW129198   2.437   2.567   4.444 -0.2311  0.3177 -0.3332
 5912SOL    HW229199   2.317   2.594   4.535 -0.5334  0.6750  0.3926
 5913SOL     OW29200   1.317   0.351   6.621  0.3608  0.2431 -0.0439
 5913SOL    HW129201   1.311   0.315   6.532  2.7065  1.4231 -0.6717
 5913SOL    HW229202   1.381   0.421   6.610  1.3493 -0.3601  1.8466
 5914SOL     OW29203   4.149   0.914   1.804  0.0988  0.0837 -0.5287
 5914SOL    HW129204   4.212   0.976   1.769  0.0128 -0.6393 -1.9688
 5914SOL    HW229205   4.087   0.971   1.850  0.5425 -0.2602  0.4950
 5915SOL     OW29206   2.179   1.520   8.766  0.4838 -0.2844  0.1565
 5915SOL    HW129207   2.260   1.489   8.808 -0.3490  1.2632  2.9097
 5915SOL    HW229208   2.181   1.613   8.789 -0.8303 -0.4947  1.1067
 5916SOL     OW29209   0.828   4.345  14.562  0.3366 -0.6359  0.8453
 5916SOL    HW129210   0.817   4.412  14.629 -0.5160  0.9426 -0.8554
 5916SOL    HW229211   0.791   4.380  14.481 -2.6190 -2.2899  1.4685
 5917SOL     OW29212   1.446   4.678  13.315  0.4021 -0.4646  0.4907
 5917SOL    HW129213   1.378   0.022  13.322  2.0898  1.0131  2.6316
 5917SOL    HW229214   1.499   4.688  13.394 -0.9475 -0.1173  1.3495
 5918SOL     OW29215   2.987   2.994   7.337 -0.0146  0.1910 -0.6546
 5918SOL    HW129216   3.048   3.038   7.396 -0.4455 -0.1504  0.0498
 5918SOL    HW229217   2.998   3.056   7.265  0.1738  1.9815  0.9332
 5919SOL     OW29218   1.571   3.297  17.138  0.0790  0.1438  0.5308
 5919SOL    HW129219   1.512   3.334  17.073 -1.4688 -0.7536  1.4097
 5919SOL    HW229220   1.526   3.215  17.159  1.8149 -0.6855  1.0437
 5920SOL     OW29221   2.029   2.972  17.569  0.2760  0.3803  0.3833
 5920SOL    HW129222   2.033   2.876  17.565 -0.5636  0.1494  4.7295
 5920SOL    HW229223   2.033   2.981  17.664  1.2461  1.8021  0.2134
 5921SOL     OW29224   1.685   0.447  15.360 -0.0054 -0.0975 -1.0082
 5921SOL    HW129225   1.648   0.526  15.400  2.7763  1.2775 -1.1492
 5921SOL    HW229226   1.622   0.426  15.292 -1.9494  2.4873 -0.0041
 5922SOL     OW29227   2.539   1.243  12.759  0.2364 -0.9668  0.0230
 5922SOL    HW129228   2.485   1.173  12.722 -1.1622  0.6904 -1.0945
 5922SOL    HW229229   2.580   1.196  12.832  2.0656  0.3049 -0.1791
 5923SOL     OW29230   0.855   3.827   4.343  0.1237 -0.5184  0.6290
 5923SOL    HW129231   0.926   3.764   4.351  1.1219  0.3954 -1.1821
 5923SOL    HW229232   0.904   3.908   4.338 -0.3174 -0.1865  1.6611
 5924SOL     OW29233   2.571   4.684   3.743  0.1687 -0.0502 -0.2859
 5924SOL    HW129234   2.562   4.594   3.775  0.2583 -0.0873 -0.3660
 5924SOL    HW229235   2.660   4.707   3.769 -0.4388  2.0008 -0.0155
 5925SOL     OW29236   3.659   4.450  14.230 -0.4860  0.2036 -0.1127
 5925SOL    HW129237   3.659   4.362  14.268  0.6294  0.0823 -0.3946
 5925SOL    HW229238   3.712   4.436  14.151 -1.8886 -2.2512 -0.6399
 5926SOL     OW29239   4.674   3.460  12.775  0.3910 -0.4177 -0.2734
 5926SOL    HW129240   4.694   3.539  12.825  0.3763  1.2489 -2.9256
 5926SOL    HW229241   0.026   3.457  12.714  0.6222 -0.5084  0.0156
 5927SOL     OW29242   0.262   3.247   7.151 -0.4950 -0.0207  0.0853
 5927SOL    HW129243   0.333   3.310   7.151 -0.3898 -0.1434 -0.4644
 5927SOL    HW229244   0.185   3.299   7.173 -0.1985 -0.2860  1.7443
 5928SOL     OW29245   0.085   1.332  10.982  0.1465 -0.2777 -0.3964
 5928SOL    HW129246   0.096   1.416  11.027  2.8260 -0.5439 -0.5817
 5928SOL    HW229247   0.054   1.276  11.053 -0.6498 -0.2435 -0.7130
 5929SOL     OW29248   2.432   3.302   5.611 -0.0237 -0.3349  0.1132
 5929SOL    HW129249   2.476   3.249   5.678  0.3924  1.3989  1.2026
 5929SOL    HW229250   2.348   3.256   5.605  1.7893 -3.3827 -2.3361
 5930SOL     OW29251   3.518   0.239  12.853  0.7537 -0.1620 -0.6986
 5930SOL    HW129252   3.437   0.189  12.854  1.6434 -1.5324  1.4499
 5930SOL    HW229253   3.546   0.202  12.769  3.2377  0.7659 -0.2931
 5931SOL     OW29254   1.016   4.165  10.776 -0.3572 -0.0361  0.3367
 5931SOL    HW129255   1.029   4.231  10.707  0.2446 -0.4549  0.0496
 5931SOL    HW229256   1.095   4.186  10.826 -0.2830 -0.2892  0.3260
 5932SOL     OW29257   2.573   1.299   6.912 -0.2477 -0.3654  0.1379
 5932SOL    HW129258   2.502   1.259   6.862  1.4505 -1.3579 -1.4984
 5932SOL    HW229259   2.532   1.309   6.998  1.3146 -0.3403  0.8921
 5933SOL     OW29260   0.585   3.841   3.039 -0.4377  0.3924 -0.4115
 5933SOL    HW129261   0.634   3.922   3.055 -2.1973  1.3222  0.3402
 5933SOL    HW229262   0.632   3.788   3.104  0.0167  0.8129 -0.3917
 5934SOL     OW29263   3.236   4.179   3.409  0.4554  0.2645 -0.0347
 5934SOL    HW129264   3.259   4.253   3.465 -1.0512 -0.4029  1.4773
 5934SOL    HW229265   3.316   4.175   3.357  1.7845  0.7277  1.9741
 5935SOL     OW29266   1.665   0.733   6.585 -0.1902 -0.0146 -0.3073
 5935SOL    HW129267   1.684   0.780   6.666 -2.7771  1.1000 -0.3643
 5935SOL    HW229268   1.576   0.705   6.606  0.3588 -1.9436 -0.4806
 5936SOL     OW29269   1.782   0.008  10.286 -0.4437 -0.2098 -0.0667
 5936SOL    HW129270   1.812   4.712  10.197  0.1603  0.8850 -0.0909
 5936SOL    HW229271   1.701   4.680  10.286  0.9742 -2.4831 -0.0854
 5937SOL     OW29272   0.202   2.980  11.484 -0.2159  0.5487  0.1730
 5937SOL    HW129273   0.112   3.003  11.507 -0.5496  1.1500 -1.7345
 5937SOL    HW229274   0.235   2.971  11.573 -0.8769  0.4567  0.4093
 5938SOL     OW29275   2.277   1.868   1.484  0.0341  0.0045  0.2954
 5938SOL    HW129276   2.200   1.822   1.449  1.4638 -0.5211 -2.0772
 5938SOL    HW229277   2.284   1.816   1.565  0.7081 -0.0534  0.1947
 5939SOL     OW29278   3.850   2.291   9.065  0.3560 -0.4426 -0.2421
 5939SOL    HW129279   3.881   2.246   8.986 -0.2093 -0.7660 -0.2785
 5939SOL    HW229280   3.774   2.234   9.081  0.0400 -0.2343 -0.9802
 5940SOL     OW29281   2.075   3.201  10.028 -0.0749 -0.2248 -0.2785
 5940SOL    HW129282   2.115   3.243   9.952  3.0922  0.1508  1.5650
 5940SOL    HW229283   2.113   3.257  10.096  0.9157 -0.0797 -0.9491
 5941SOL     OW29284   1.383   1.510  14.405  0.5588  0.0735  0.0576
 5941SOL    HW129285   1.477   1.520  14.389  0.1849  0.8319 -1.6196
 5941SOL    HW229286   1.359   1.473  14.320  2.8185 -0.7687 -0.2248
 5942SOL     OW29287   0.826   1.361   5.739 -0.6190 -0.3153 -0.1159
 5942SOL    HW129288   0.774   1.281   5.728 -1.5746  0.5391 -1.8381
 5942SOL    HW229289   0.812   1.386   5.831 -0.7131  0.5892 -0.3744
 5943SOL     OW29290   4.388   3.903   6.230 -0.1941  0.4327 -0.0948
 5943SOL    HW129291   4.454   3.900   6.299 -0.7340 -2.6944  0.2878
 5943SOL    HW229292   4.428   3.956   6.161  1.9806  0.3093  1.0811
 5944SOL     OW29293   4.366   1.134  10.134  0.1803  0.1131 -0.6395
 5944SOL    HW129294   4.349   1.169  10.047  2.3989  2.4667 -0.1148
 5944SOL    HW229295   4.428   1.189  10.180  0.3535 -2.0390  1.7200
 5945SOL     OW29296   0.037   2.485  16.295 -0.2911  0.4624 -0.2488
 5945SOL    HW129297   0.020   2.509  16.204 -0.9381 -0.5382 -0.3837
 5945SOL    HW229298   0.106   2.420  16.281  1.0161  1.5013  1.2961
 5946SOL     OW29299   4.406   2.452  11.060 -0.3655 -0.4564 -0.0983
 5946SOL    HW129300   4.362   2.371  11.085 -0.7275 -0.4641 -0.7744
 5946SOL    HW229301   4.497   2.425  11.049  0.1326  0.6445  1.3299
 5947SOL     OW29302   3.414   0.690   5.297  0.6153  0.1932  0.0745
 5947SOL    HW129303   3.451   0.630   5.362  0.8848  1.9586  1.5582
 5947SOL    HW229304   3.340   0.718   5.350  0.4499 -0.0235 -0.0426
 5948SOL     OW29305   1.989   1.097   8.648  0.0387 -0.0957 -0.4694
 5948SOL    HW129306   1.954   1.053   8.571  0.3689  1.4296 -1.4824
 5948SOL    HW229307   1.935   1.175   8.653  1.1545  0.7835 -2.0036
 5949SOL     OW29308   4.517   2.993   6.464  0.0406  0.6084 -0.0869
 5949SOL    HW129309   4.517   3.075   6.512 -2.3126  0.4669  0.1579
 5949SOL    HW229310   4.469   3.022   6.386  0.2363 -1.3873 -0.9598
 5950SOL     OW29311   1.625   0.406   4.399 -0.1462 -0.2072  0.7701
 5950SOL    HW129312   1.565   0.351   4.349  1.0584 -0.1182 -0.7806
 5950SOL    HW229313   1.582   0.491   4.388 -0.6781 -0.4806  0.7414
 5951SOL     OW29314   0.229   2.293   4.713 -0.0310 -0.2315  0.2099
 5951SOL    HW129315   0.135   2.291   4.734  0.0666 -0.9794  0.5432
 5951SOL    HW229316   0.219   2.299   4.618 -1.3566  1.3041  0.4461
 5952SOL     OW29317   0.579   2.520   9.304  0.3203 -0.1390  0.7189
 5952SOL    HW129318   0.629   2.558   9.377  1.0981  0.1566  0.0283
 5952SOL    HW229319   0.501   2.479   9.341 -0.1204 -0.2721 -0.3621
 5953SOL     OW29320   3.973   2.370   7.592 -0.3533  0.0097 -0.2560
 5953SOL    HW129321   3.924   2.295   7.625 -1.4092  1.2256  0.9144
 5953SOL    HW229322   4.002   2.411   7.674  0.7098  0.3446 -0.7903
 5954SOL     OW29323   4.091   2.159  10.167 -0.0395  0.2233  0.1140
 5954SOL    HW129324   4.133   2.111  10.096 -1.3667 -2.4832  1.1375
 5954SOL    HW229325   4.163   2.178  10.227 -1.2192  3.0061  0.6390
 5955SOL     OW29326   2.975   3.663   5.489 -0.9416  0.5225  0.2466
 5955SOL    HW129327   3.026   3.653   5.570  0.9126  1.1155 -0.8575
 5955SOL    HW229328   2.901   3.718   5.516 -0.9952  0.8399 -0.5410
 5956SOL     OW29329   3.468   0.939   2.941 -0.1533  0.4725  0.2070
 5956SOL    HW129330   3.390   0.965   2.892 -0.5990  0.6655  1.0009
 5956SOL    HW229331   3.485   0.852   2.904 -1.9010  0.7837 -1.3128
 5957SOL     OW29332   1.212   1.068   7.874  0.3152 -0.1367 -0.1376
 5957SOL    HW129333   1.126   1.080   7.913  0.0994 -1.6638 -0.1474
 5957SOL    HW229334   1.218   1.145   7.818 -0.6171  0.2097  0.2540
 5958SOL     OW29335   3.943   0.782   9.561 -0.6876 -0.0237 -0.8955
 5958SOL    HW129336   3.934   0.876   9.545  1.7742  0.9375  3.2667
 5958SOL    HW229337   4.027   0.789   9.606 -1.4964 -0.3446  0.6810
 5959SOL     OW29338   0.271   2.512   8.286 -0.5149 -0.1989  0.2183
 5959SOL    HW129339   0.299   2.431   8.328  3.6543  1.9964  1.6632
 5959SOL    HW229340   0.324   2.572   8.339  0.1992 -1.4725  0.9422
 5960SOL     OW29341   0.175   2.787   7.243  0.5378 -0.2007 -0.0098
 5960SOL    HW129342   0.111   2.825   7.184  2.1551 -1.9693 -2.9364
 5960SOL    HW229343   0.164   2.845   7.318  1.5016 -0.0156 -0.0113
 5961SOL     OW29344   1.538   1.600  15.848 -0.9343 -0.4241 -0.3516
 5961SOL    HW129345   1.537   1.660  15.922  0.5262  2.3192 -2.5603
 5961SOL    HW229346   1.453   1.561  15.829 -1.4029  0.7894 -0.7599
 5962SOL     OW29347   3.859   0.423  14.924 -0.0401  0.3230 -0.2717
 5962SOL    HW129348   3.786   0.381  14.969  1.2288 -1.5445  0.0593
 5962SOL    HW229349   3.925   0.353  14.926  1.1823  1.5302  1.6489
 5963SOL     OW29350   0.601   4.366   4.472  0.5237 -0.2521 -0.2036
 5963SOL    HW129351   0.692   4.395   4.469  0.6822 -0.7362  0.0652
 5963SOL    HW229352   0.554   4.441   4.436 -0.0814 -0.1462  0.7942
 5964SOL     OW29353   0.545   3.104   7.165 -0.1016 -0.5577 -0.0227
 5964SOL    HW129354   0.467   3.159   7.156 -0.8268 -1.3849  1.1177
 5964SOL    HW229355   0.540   3.044   7.091 -0.9447  1.5094 -1.6261
 5965SOL     OW29356   2.890   0.160   9.385  0.5403 -0.0633 -0.0525
 5965SOL    HW129357   2.807   0.128   9.419 -0.1540 -0.3181 -2.0197
 5965SOL    HW229358   2.933   0.075   9.373  0.9772  0.0952  0.3633
 5966SOL     OW29359   2.369   2.455   6.411  0.2457 -0.5393  0.0655
 5966SOL    HW129360   2.417   2.397   6.470 -0.4716  0.5945  1.7703
 5966SOL    HW229361   2.380   2.537   6.460 -1.2627 -0.7017  0.6954
 5967SOL     OW29362   0.435   0.902   3.637 -0.3332  0.0644  0.1171
 5967SOL    HW129363   0.350   0.939   3.664 -1.4567 -2.0954 -0.4746
 5967SOL    HW229364   0.451   0.941   3.551  0.5464  1.3933  0.8686
 5968SOL     OW29365   4.619   2.866   2.839 -0.1614 -0.7684  0.1576
 5968SOL    HW129366   4.643   2.959   2.839  0.3426 -0.9055 -0.3707
 5968SOL    HW229367   4.705   2.834   2.813  0.0131 -2.0465  2.2829
 5969SOL     OW29368   0.671   2.522  15.440  0.1279 -0.7213  0.2219
 5969SOL    HW129369   0.766   2.525  15.450  0.0020  1.7567  0.7046
 5969SOL    HW229370   0.672   2.518  15.345  0.1520  0.2746  0.1827
 5970SOL     OW29371   0.915   2.466  16.187 -0.1572 -0.3249 -0.3457
 5970SOL    HW129372   0.847   2.410  16.224  1.5777 -2.7436 -0.8247
 5970SOL    HW229373   0.996   2.416  16.190  0.4829  0.7500  0.5190
 5971SOL     OW29374   0.084   4.664   4.278  0.1901 -0.0450  0.2676
 5971SOL    HW129375   0.076   4.648   4.184  2.9543  1.0463 -0.1715
 5971SOL    HW229376   0.020   4.605   4.316  0.5117 -1.1380 -0.8540
 5972SOL     OW29377   3.004   4.422   7.564 -0.8649 -0.3386  0.2102
 5972SOL    HW129378   3.086   4.439   7.518 -0.3909 -0.1209  1.1407
 5972SOL    HW229379   3.034   4.433   7.654 -0.3676  1.9588 -0.2358
 5973SOL     OW29380   2.245   0.207   2.812 -0.1332  0.3060 -0.0062
 5973SOL    HW129381   2.262   0.137   2.749  0.6783 -1.5958  2.3305
 5973SOL    HW229382   2.288   0.188   2.896 -1.3491  1.2637  0.8344
 5974SOL     OW29383   0.405   0.984   0.852  0.0707 -0.1673 -0.0242
 5974SOL    HW129384   0.396   1.067   0.804  1.5049  0.6433  1.1246
 5974SOL    HW229385   0.493   0.950   0.837 -0.9561 -2.8531 -0.0016
 5975SOL     OW29386   1.088   0.657  10.297 -0.0417 -0.5091  0.2148
 5975SOL    HW129387   1.174   0.673  10.258  0.2142  0.7271  1.2802
 5975SOL    HW229388   1.042   0.622  10.221 -2.5447  0.9070  1.0710
 5976SOL     OW29389   1.357   1.840   3.541 -0.6310  0.1621  0.4480
 5976SOL    HW129390   1.359   1.787   3.621  1.1168 -0.1066  0.2243
 5976SOL    HW229391   1.296   1.794   3.483 -0.5891 -0.7629  1.1230
 5977SOL     OW29392   0.648   0.243  15.609 -0.4583 -0.1155 -0.3359
 5977SOL    HW129393   0.578   0.306  15.626 -0.5432 -0.0807 -0.8194
 5977SOL    HW229394   0.683   0.282  15.529  3.9862 -1.6490  0.8411
 5978SOL     OW29395   0.253   1.012   7.823  0.1672  0.4313 -0.6013
 5978SOL    HW129396   0.215   1.076   7.884  0.4669  0.3775 -0.3601
 5978SOL    HW229397   0.214   0.927   7.843 -0.5046  0.8002 -0.3520
 5979SOL     OW29398   1.907   0.030  14.110 -0.1146  0.2413 -0.2475
 5979SOL    HW129399   1.860   0.084  14.046  1.3173  2.3371  0.4723
 5979SOL    HW229400   1.933   0.102  14.167  0.0440 -0.7593  0.9368
 5980SOL     OW29401   2.870   4.033   2.223 -0.2576  0.0072  0.1526
 5980SOL    HW129402   2.895   4.052   2.132  0.0272 -1.1086 -0.0125
 5980SOL    HW229403   2.920   3.953   2.239  0.2030  0.2269 -0.1916
 5981SOL     OW29404   1.310   1.930   7.281  0.2769  0.1229 -0.1729
 5981SOL    HW129405   1.294   1.937   7.375 -1.2846  1.2096 -0.5265
 5981SOL    HW229406   1.232   1.971   7.243  1.2102  0.5968 -1.5879
 5982SOL     OW29407   4.431   0.558   8.335  0.2121 -0.3819 -0.3009
 5982SOL    HW129408   4.489   0.580   8.408  1.1935 -2.8703 -0.3604
 5982SOL    HW229409   4.418   0.464   8.344 -1.2026 -0.2980 -1.6209
 5983SOL     OW29410   4.414   3.592  15.896  0.0181  0.2901  0.5634
 5983SOL    HW129411   4.464   3.671  15.875  2.0591 -0.9357  0.7268
 5983SOL    HW229412   4.478   3.530  15.932  0.5716  0.6263  0.1714
 5984SOL     OW29413   3.154   4.394   2.835  0.2068  0.2314  0.4982
 5984SOL    HW129414   3.071   4.409   2.881 -0.1527 -0.3099  0.0309
 5984SOL    HW229415   3.135   4.455   2.763 -2.4101  1.6104  2.3693
 5985SOL     OW29416   4.677   2.007   9.372 -0.2354 -0.2246 -0.1489
 5985SOL    HW129417   4.696   1.925   9.327 -1.2366 -0.9479  0.7521
 5985SOL    HW229418   4.587   2.008   9.341 -0.6946  1.0680  1.2180
 5986SOL     OW29419   2.232   4.015   5.415 -0.0431  0.0073  0.1745
 5986SOL    HW129420   2.271   4.097   5.384  0.4286 -0.0390  0.6383
 5986SOL    HW229421   2.302   3.955   5.390  1.0916  0.9013  1.2034
 5987SOL     OW29422   3.675   0.278   4.156  0.4665  0.3999  0.8219
 5987SOL    HW129423   3.700   0.269   4.248 -0.1882 -0.7471  0.8872
 5987SOL    HW229424   3.715   0.359   4.125 -1.1014 -0.5423 -3.6654
 5988SOL     OW29425   0.164   0.483   7.360 -0.1128  0.1914 -0.4419
 5988SOL    HW129426   0.138   0.454   7.272  2.8358 -0.5814 -1.0573
 5988SOL    HW229427   0.083   0.532   7.379  1.0404  1.2767  1.6454
 5989SOL     OW29428   2.405   3.614  11.294  0.0993 -0.4722  0.3153
 5989SOL    HW129429   2.432   3.630  11.384  1.5067 -2.6250  0.2646
 5989SOL    HW229430   2.471   3.651  11.235 -0.5163  0.0837 -0.0413
 5990SOL     OW29431   0.367   1.079   8.907 -0.0099  0.4640  0.6758
 5990SOL    HW129432   0.416   1.043   8.981  0.7577  0.5150  0.1855
 5990SOL    HW229433   0.392   1.172   8.902  0.4658  0.2944 -0.1169
 5991SOL     OW29434   0.954   1.371  11.259  0.2444  0.1974 -0.4078
 5991SOL    HW129435   0.952   1.415  11.344  0.3746 -1.8333  0.6593
 5991SOL    HW229436   1.042   1.388  11.225  2.1793 -2.5817  3.1892
 5992SOL     OW29437   3.947   1.837   8.772  0.0494 -0.5221  0.2161
 5992SOL    HW129438   3.856   1.863   8.779 -0.1755 -1.0482 -0.7458
 5992SOL    HW229439   3.948   1.838   8.676  0.2742 -2.1154  0.2050
 5993SOL     OW29440   4.119   0.796   8.894  0.7509 -0.1076  0.1405
 5993SOL    HW129441   4.029   0.769   8.873  0.3365  1.7835 -0.4941
 5993SOL    HW229442   4.167   0.714   8.906  1.2875  0.2977  0.7242
 5994SOL     OW29443   2.923   2.754   6.905  0.5485  0.2741  0.1011
 5994SOL    HW129444   2.828   2.752   6.906  0.5093  1.9571 -1.6086
 5994SOL    HW229445   2.937   2.827   6.845 -1.3881  0.8321  0.3406
 5995SOL     OW29446   3.212   3.926   0.357  0.2043 -0.3021  0.1561
 5995SOL    HW129447   3.258   3.870   0.294  3.9875  0.7180  1.9909
 5995SOL    HW229448   3.122   3.895   0.364  0.0657 -0.3151 -1.6340
 5996SOL     OW29449   3.524   3.096   6.869 -0.2737 -0.2436 -0.9159
 5996SOL    HW129450   3.566   3.163   6.923 -0.1769 -2.7774  2.1283
 5996SOL    HW229451   3.567   3.020   6.908 -0.8061  0.2879  0.7042
 5997SOL     OW29452   1.181   4.369   3.097 -0.1321 -0.1163 -0.1527
 5997SOL    HW129453   1.235   4.290   3.085 -0.2058  0.1649 -2.3704
 5997SOL    HW229454   1.111   4.355   3.033  0.7106  0.8596 -1.2744
 5998SOL     OW29455   3.768   1.104   7.356 -0.1713 -0.3950  0.4825
 5998SOL    HW129456   3.730   1.082   7.440 -0.1819  2.9675  1.3501
 5998SOL    HW229457   3.800   1.194   7.368  0.6900 -0.4987 -0.9532
 5999SOL     OW29458   4.403   4.119   4.326  0.1739 -0.6726  0.3290
 5999SOL    HW129459   4.400   4.026   4.302  0.6744  0.4215 -3.8262
 5999SOL    HW229460   4.327   4.133   4.384  1.5338  0.2610  1.8949
 6000SOL     OW29461   2.794   4.292   6.963  0.4659 -0.0034  0.4582
 6000SOL    HW129462   2.866   4.233   6.983 -0.6186 -0.7438  2.2072
 6000SOL    HW229463   2.800   4.355   7.035 -0.1910 -1.3858  1.7290
 6001SOL     OW29464   3.781   4.151   2.338  0.4684 -0.3485  0.0977
 6001SOL    HW129465   3.796   4.241   2.369 -2.1052  0.0307  0.2097
 6001SOL    HW229466   3.687   4.142   2.352  0.1001 -1.5988 -3.2083
 6002SOL     OW29467   1.558   1.916   6.757 -0.0801  0.0532  0.3467
 6002SOL    HW129468   1.513   1.889   6.837  0.4048 -1.2681  0.1643
 6002SOL    HW229469   1.624   1.974   6.795  0.5727  1.0347 -2.2688
 6003SOL     OW29470   2.737   2.428   5.931  0.1370 -0.4964 -0.0862
 6003SOL    HW129471   2.754   2.334   5.931  0.3073 -0.4664 -0.2746
 6003SOL    HW229472   2.755   2.440   6.024 -2.4957  0.6989  0.2548
 6004SOL     OW29473   1.018   0.549   3.395 -0.5418  0.4096 -0.4978
 6004SOL    HW129474   1.005   0.522   3.486  0.7944 -0.8855 -0.6942
 6004SOL    HW229475   0.926   0.563   3.371  0.8396  3.2775 -4.1138
 6005SOL     OW29476   0.114   0.335   8.099  0.6458  0.0485  0.2981
 6005SOL    HW129477   0.203   0.320   8.069 -0.8165 -2.4013 -2.8904
 6005SOL    HW229478   0.079   0.392   8.030 -0.5899 -1.4486 -0.3001
 6006SOL     OW29479   3.002   0.473   7.655  0.1598  0.1656 -0.0033
 6006SOL    HW129480   3.001   0.423   7.737 -1.5571  0.5580  0.2115
 6006SOL    HW229481   2.936   0.434   7.597 -1.8861 -2.7513  4.2884
 6007SOL     OW29482   2.310   2.140   7.241 -0.1659 -0.2171  0.1121
 6007SOL    HW129483   2.360   2.181   7.311 -1.8837  0.0061  1.2031
 6007SOL    HW229484   2.350   2.183   7.166  1.4091 -2.2949 -0.2354
 6008SOL     OW29485   3.311   2.286   4.955 -0.0388  0.1030  0.5133
 6008SOL    HW129486   3.327   2.376   4.982 -0.1493 -0.0186  0.9970
 6008SOL    HW229487   3.370   2.287   4.880 -0.3829  1.6976  0.2560
 6009SOL     OW29488   0.351   0.855   5.450 -0.1930  0.5691 -0.0502
 6009SOL    HW129489   0.314   0.887   5.368 -0.7072  0.9944  0.3495
 6009SOL    HW229490   0.336   0.927   5.511 -1.2207 -1.1293  1.6861
 6010SOL     OW29491   0.973   3.214   2.408 -0.3947 -0.6816 -0.0177
 6010SOL    HW129492   0.881   3.242   2.404  0.0343  0.3421 -2.7039
 6010SOL    HW229493   0.965   3.123   2.376 -1.5411 -0.5472 -0.1233
 6011SOL     OW29494   3.328   0.310   2.985 -0.4950 -0.1109  0.1234
 6011SOL    HW129495   3.280   0.228   3.000  1.6736 -1.1613  1.2497
 6011SOL    HW229496   3.333   0.344   3.075 -1.9170 -0.6576  0.4237
 6012SOL     OW29497   1.341   3.579   8.722 -0.5781 -0.2715 -0.0836
 6012SOL    HW129498   1.361   3.564   8.815 -2.2241  0.5517  0.4115
 6012SOL    HW229499   1.391   3.658   8.701  0.2612 -0.2690  1.8791
 6013SOL     OW29500   4.447   1.106  17.031 -0.0470  0.0349 -0.3340
 6013SOL    HW129501   4.406   1.057  16.959 -0.1950  0.4883 -0.5569
 6013SOL    HW229502   4.486   1.181  16.986 -0.2605 -1.0778 -2.3697
 6014SOL     OW29503   3.909   3.407   6.497  0.5902 -0.5985 -0.9191
 6014SOL    HW129504   3.926   3.365   6.581  1.9477  1.3896 -0.1943
 6014SOL    HW229505   3.947   3.494   6.513 -2.7421  0.8066 -0.7114
 6015SOL     OW29506   3.157   0.046  15.615  0.2423  0.0509  0.8077
 6015SOL    HW129507   3.127   0.097  15.690 -1.7946  0.5270 -0.3323
 6015SOL    HW229508   3.222   4.717  15.663  1.3672 -1.0730 -1.9229
 6016SOL     OW29509   3.917   3.438   6.979  0.1468  0.3253  0.6380
 6016SOL    HW129510   3.930   3.512   7.038  1.7288  0.7998 -0.3058
 6016SOL    HW229511   3.918   3.484   6.896  1.4220 -1.4377 -0.3225
 6017SOL     OW29512   1.786   0.785   4.044 -0.4632  0.1148  0.4971
 6017SOL    HW129513   1.803   0.737   3.964 -0.2322 -0.6512  1.0099
 6017SOL    HW229514   1.697   0.821   4.035 -0.8579 -0.6205  1.5168
 6018SOL     OW29515   0.252   0.282   0.916 -0.4070 -0.2482 -0.0102
 6018SOL    HW129516   0.272   0.231   0.994  1.0580  0.4585  0.0634
 6018SOL    HW229517   0.235   0.207   0.858 -0.0753  0.2823 -0.8007
 6019SOL     OW29518   3.943   1.580   7.719  0.1777  0.2544 -0.0099
 6019SOL    HW129519   3.903   1.555   7.803 -0.3620 -0.4364 -0.4703
 6019SOL    HW229520   3.861   1.596   7.672 -1.1075 -0.0432  2.1171
 6020SOL     OW29521   4.576   0.320  16.161 -0.0850 -0.1128 -0.0380
 6020SOL    HW129522   4.574   0.320  16.257 -2.0983 -1.5935 -0.0802
 6020SOL    HW229523   4.609   0.409  16.149  0.4248 -0.3136 -0.1261
 6021SOL     OW29524   3.107   2.895  11.182 -0.2860  0.4369 -0.2987
 6021SOL    HW129525   3.084   2.817  11.234 -1.7773 -0.8600 -2.9450
 6021SOL    HW229526   3.092   2.962  11.249  2.3078  0.4121  0.3178
 6022SOL     OW29527   2.361   2.638   8.501 -0.1174  0.1042  1.3536
 6022SOL    HW129528   2.359   2.617   8.407  1.1619  0.8463  1.1618
 6022SOL    HW229529   2.266   2.640   8.510 -0.2708 -2.5014  0.2614
 6023SOL     OW29530   0.898   1.165   4.575  0.2173 -0.3332 -0.4691
 6023SOL    HW129531   0.820   1.218   4.556  0.7601  0.5191 -0.3029
 6023SOL    HW229532   0.866   1.107   4.644  0.4956 -2.0738 -1.7902
 6024SOL     OW29533   2.187   3.536   4.531 -0.0004 -0.7445 -0.1649
 6024SOL    HW129534   2.227   3.547   4.444 -0.0917  0.3468 -0.0605
 6024SOL    HW229535   2.095   3.527   4.506 -0.8032 -0.5225  2.7315
 6025SOL     OW29536   1.958   2.819   1.629 -0.4357  0.3341 -0.0603
 6025SOL    HW129537   1.932   2.867   1.551 -0.8742  0.5580  0.2215
 6025SOL    HW229538   2.035   2.867   1.660 -1.2767 -0.2626  2.9452
 6026SOL     OW29539   1.975   1.349   2.817  0.4987  0.3002  0.1350
 6026SOL    HW129540   2.069   1.358   2.833  0.5123  1.2780 -0.5371
 6026SOL    HW229541   1.976   1.330   2.724 -1.9539 -1.0053  0.3682
 6027SOL     OW29542   1.296   2.757   1.551  0.0912  0.1829  0.4131
 6027SOL    HW129543   1.318   2.835   1.499 -0.4933 -0.8141 -1.3268
 6027SOL    HW229544   1.201   2.760   1.552  0.1384  1.5144  0.8401
 6028SOL     OW29545   3.854   3.449  10.544  0.0991  0.2283 -0.2066
 6028SOL    HW129546   3.892   3.472  10.629 -1.2185 -0.1562  0.4921
 6028SOL    HW229547   3.767   3.465  10.579 -0.4359  0.2320 -1.5372
 6029SOL     OW29548   4.365   3.725   8.543 -0.1168  0.3169  0.1316
 6029SOL    HW129549   4.404   3.671   8.611 -0.2354  3.8904  3.0234
 6029SOL    HW229550   4.351   3.661   8.474 -2.4873 -0.1122  0.9793
 6030SOL     OW29551   2.298   0.068   3.886 -0.6171  0.1920  0.3634
 6030SOL    HW129552   2.232   0.137   3.880  1.1953  1.7947 -1.4662
 6030SOL    HW229553   2.325   0.070   3.794 -2.2309 -1.0114 -0.1275
 6031SOL     OW29554   3.366   0.173   6.085 -0.2651 -0.0776  0.2877
 6031SOL    HW129555   3.324   0.195   6.169 -1.2030 -1.6878  0.2335
 6031SOL    HW229556   3.429   0.242   6.064 -1.4126  1.2796  1.3034
 6032SOL     OW29557   4.213   4.374   9.978 -0.2692 -0.6325  0.1706
 6032SOL    HW129558   4.188   4.384  10.070 -1.6873  0.6711 -0.3503
 6032SOL    HW229559   4.182   4.459   9.946 -0.1822 -1.9647 -3.5106
 6033SOL     OW29560   1.630   2.916   6.684 -0.0986  0.2680 -0.1572
 6033SOL    HW129561   1.696   2.847   6.688  0.1623  0.5524  0.3793
 6033SOL    HW229562   1.550   2.865   6.668  0.8071 -1.5309  1.0573
 6034SOL     OW29563   3.359   4.534  11.594 -0.1090  0.2426 -0.3756
 6034SOL    HW129564   3.444   4.492  11.580 -1.5927 -2.6563 -0.4388
 6034SOL    HW229565   3.301   4.459  11.604  0.5204 -0.2198 -0.1839
 6035SOL     OW29566   3.828   1.756  15.845  0.3136  0.7534  0.2690
 6035SOL    HW129567   3.735   1.763  15.824 -0.2156 -1.2295  1.8862
 6035SOL    HW229568   3.822   1.711  15.930 -1.2423  0.9216  0.2520
 6036SOL     OW29569   0.024   4.678   7.912  0.3968  0.2076  0.3947
 6036SOL    HW129570   4.664   4.657   7.955  1.0713 -0.3898  1.3791
 6036SOL    HW229571   0.086   4.618   7.953 -0.3907 -1.2445 -0.5490
 6037SOL     OW29572   4.558   1.561   5.232  0.1664 -0.5065  0.1278
 6037SOL    HW129573   4.518   1.643   5.260 -1.7907 -2.2579  2.4105
 6037SOL    HW229574   4.510   1.555   5.150 -2.0744  0.7611  1.3581
 6038SOL     OW29575   0.589   0.355  14.690  0.2476  0.5597 -0.2864
 6038SOL    HW129576   0.592   0.364  14.785 -2.4062  0.1054 -0.1491
 6038SOL    HW229577   0.683   0.353  14.670 -0.3078  0.7990 -2.8277
 6039SOL     OW29578   1.258   4.622   7.650  0.2856 -0.3752  0.3544
 6039SOL    HW129579   1.277   4.653   7.739 -0.7197 -2.5906  1.3586
 6039SOL    HW229580   1.206   4.544   7.670 -0.9826  0.4802  0.2980
 6040SOL     OW29581   0.107   4.141  15.295  0.0925 -0.3172  0.3222
 6040SOL    HW129582   0.173   4.192  15.341  0.2879 -0.4976  0.2420
 6040SOL    HW229583   0.130   4.054  15.327  0.4541 -0.6639 -0.8599
 6041SOL     OW29584   4.404   1.034  17.654  0.1001 -0.0973  0.3442
 6041SOL    HW129585   4.467   0.991   0.019  0.5196  3.3014  2.4438
 6041SOL    HW229586   4.362   1.089   0.028 -2.6445 -2.5768  0.6485
 6042SOL     OW29587   1.869   0.903   5.983  0.0816 -0.4081 -0.4360
 6042SOL    HW129588   1.792   0.941   6.024 -0.4315 -0.6788 -1.1604
 6042SOL    HW229589   1.887   0.968   5.915 -0.8383  1.1071  0.7998
 6043SOL     OW29590   4.696   2.778   6.858 -0.0944 -0.3922  0.5047
 6043SOL    HW129591   4.706   2.688   6.887  0.9449 -0.0379  1.2388
 6043SOL    HW229592   4.703   2.830   6.938  0.2110  0.8376 -0.3141
 6044SOL     OW29593   0.299   0.160  13.885 -0.3296  0.1754 -0.2468
 6044SOL    HW129594   0.293   0.074  13.844 -1.8352 -0.3987  1.1744
 6044SOL    HW229595   0.340   0.213  13.817  0.0681 -0.7360 -0.7167
 6045SOL     OW29596   0.015   0.402   8.338 -0.5383  0.0540 -0.5565
 6045SOL    HW129597   0.049   0.333   8.394  1.2703  1.4765  0.0904
 6045SOL    HW229598   0.053   0.379   8.253  1.6739 -0.8967  0.6757
 6046SOL     OW29599   0.599   2.693   6.789  0.6227  0.6128  0.1113
 6046SOL    HW129600   0.682   2.698   6.836  0.6615  0.1963  0.0901
 6046SOL    HW229601   0.559   2.621   6.838 -1.9614  0.7144 -1.8930
 6047SOL     OW29602   4.029   3.237   2.191 -0.0840 -0.1753 -0.0703
 6047SOL    HW129603   4.010   3.252   2.098 -0.3409  1.7110  0.2773
 6047SOL    HW229604   4.070   3.151   2.195  2.2254  0.8595 -1.5957
 6048SOL     OW29605   1.872   1.854   6.313 -0.0588 -0.2013  0.0208
 6048SOL    HW129606   1.798   1.903   6.347 -0.0194  0.8650 -1.4498
 6048SOL    HW229607   1.889   1.795   6.387 -0.7489 -3.1325 -2.1393
 6049SOL     OW29608   1.258   4.522  13.798  0.2789 -0.2510  0.5748
 6049SOL    HW129609   1.205   4.521  13.719  0.3628 -0.7395  0.5249
 6049SOL    HW229610   1.210   4.563  13.869 -1.4863 -1.4069  0.0288
 6050SOL     OW29611   1.616   3.187   2.210  0.1369  0.1505 -0.2575
 6050SOL    HW129612   1.671   3.124   2.164 -1.2784  0.2590 -2.1264
 6050SOL    HW229613   1.543   3.134   2.243  2.5619 -2.1061  1.4577
 6051SOL     OW29614   2.757   3.180   7.373 -0.0683 -0.5094  0.3148
 6051SOL    HW129615   2.800   3.115   7.318 -0.8837  1.3245 -2.5151
 6051SOL    HW229616   2.756   3.256   7.315  1.9888 -0.5523  0.2416
 6052SOL     OW29617   0.091   3.073  11.227  0.0377  0.0230  0.5508
 6052SOL    HW129618   0.134   3.092  11.144  1.2784 -0.2345  1.1370
 6052SOL    HW229619   0.160   3.040  11.285 -1.0529 -2.8949  0.2111
 6053SOL     OW29620   1.985   4.705  15.796 -0.1455  0.0705 -0.5744
 6053SOL    HW129621   1.958   0.001  15.886  0.6908 -0.7022 -0.1741
 6053SOL    HW229622   2.076   4.682  15.813 -0.3939 -2.5390 -2.7392
 6054SOL     OW29623   0.551   1.122  16.689 -0.0965  0.3066 -0.1241
 6054SOL    HW129624   0.616   1.059  16.657 -0.0941  0.7046 -0.9102
 6054SOL    HW229625   0.483   1.054  16.679  0.9920 -0.7749 -0.1707
 6055SOL     OW29626   1.076   0.410  16.381  0.3354 -0.6149  0.0811
 6055SOL    HW129627   1.064   0.333  16.325  0.6368  0.5843 -1.6111
 6055SOL    HW229628   0.995   0.395  16.431  0.3138  3.3514  1.2650
 6056SOL     OW29629   2.352   2.553   1.835  1.2294 -0.5493  0.3152
 6056SOL    HW129630   2.440   2.556   1.872  1.2671  0.1411  0.1854
 6056SOL    HW229631   2.305   2.610   1.896  0.9214  0.3919 -0.7900
 6057SOL     OW29632   0.671   1.286   6.590 -0.1810 -0.2469 -0.0078
 6057SOL    HW129633   0.717   1.226   6.531  1.9351  1.2305  0.1415
 6057SOL    HW229634   0.746   1.336   6.622 -0.4889  0.4769 -0.4010
 6058SOL     OW29635   0.878   3.967   7.008  0.2454 -0.2779  0.1272
 6058SOL    HW129636   0.790   3.937   6.986 -0.6573  2.1009  0.4454
 6058SOL    HW229637   0.899   3.899   7.071  0.2841 -0.6434 -0.2776
 6059SOL     OW29638   4.240   0.084   9.090  0.1492 -0.5580  0.6883
 6059SOL    HW129639   4.189   0.164   9.103  1.7355  0.5700 -0.1573
 6059SOL    HW229640   4.327   0.111   9.061 -0.3495  0.5674  0.2673
 6060SOL     OW29641   2.244   2.493   7.699  0.2146  0.1532 -0.1790
 6060SOL    HW129642   2.232   2.543   7.780 -0.0177 -1.2813  0.6833
 6060SOL    HW229643   2.316   2.545   7.664 -1.3711  0.4686 -2.9392
 6061SOL     OW29644   3.333   3.098   0.237  0.4377  0.1837 -0.3394
 6061SOL    HW129645   3.363   3.051   0.315 -3.0203 -0.5188  0.5597
 6061SOL    HW229646   3.372   3.185   0.248 -1.4497  0.7794  1.5096
 6062SOL     OW29647   0.000   1.932   5.781 -0.2412 -0.8918  0.3393
 6062SOL    HW129648   0.010   1.928   5.876  2.1460  0.3287  0.1298
 6062SOL    HW229649   4.635   1.968   5.770 -0.4333 -0.9776  1.6596
 6063SOL     OW29650   2.535   3.000   4.776  0.6644  0.1091  0.4427
 6063SOL    HW129651   2.532   3.091   4.747 -1.2697  0.1052  0.5724
 6063SOL    HW229652   2.457   2.972   4.727  0.8345 -2.3806  1.5978
 6064SOL     OW29653   0.863   2.394   7.615  0.0159 -0.0321 -0.0222
 6064SOL    HW129654   0.879   2.386   7.521 -2.2971 -2.1561 -0.2347
 6064SOL    HW229655   0.846   2.301   7.630  0.5362 -0.0089  0.6607
 6065SOL     OW29656   2.815   1.601   0.967  0.0570 -0.0439  0.0965
 6065SOL    HW129657   2.741   1.547   0.992  0.2716 -0.5806 -0.4069
 6065SOL    HW229658   2.826   1.671   1.031  1.0210  0.7269 -0.9139
 6066SOL     OW29659   3.598   2.781   8.661 -0.5621  0.1029  0.0134
 6066SOL    HW129660   3.601   2.809   8.752 -1.0625  1.0002 -0.2479
 6066SOL    HW229661   3.574   2.865   8.621 -1.6925  0.0722  0.6212
 6067SOL     OW29662   1.539   4.709  13.047 -0.3135 -0.2586 -0.5330
 6067SOL    HW129663   1.489   4.699  13.129 -1.1053 -0.8331 -1.0932
 6067SOL    HW229664   1.633   4.707  13.067 -0.1085 -3.8042 -2.0122
 6068SOL     OW29665   0.198   1.282   3.997  0.6296 -0.3635  0.0481
 6068SOL    HW129666   0.180   1.196   3.959 -1.2774  0.5440 -1.0806
 6068SOL    HW229667   0.115   1.303   4.039  1.0908  0.6404  0.4391
 6069SOL     OW29668   1.367   3.775   3.273  0.0377  0.2900  0.1720
 6069SOL    HW129669   1.322   3.761   3.189 -1.1442 -0.0474  0.8672
 6069SOL    HW229670   1.352   3.867   3.294  0.4949  0.2485  0.6899
 6070SOL     OW29671   3.132   2.203  10.822 -0.8627  0.1378 -0.4125
 6070SOL    HW129672   3.092   2.280  10.863 -1.7026  0.6024 -2.0766
 6070SOL    HW229673   3.090   2.133  10.871  1.0721 -0.5848  0.2050
 6071SOL     OW29674   3.908   0.833  15.341 -0.1386 -0.3257 -0.4223
 6071SOL    HW129675   3.938   0.888  15.269  2.2944  0.6739  1.3585
 6071SOL    HW229676   3.847   0.897  15.376 -0.3719  1.1348 -3.5073
 6072SOL     OW29677   0.347   4.418   8.354  0.0872 -0.0637  0.0766
 6072SOL    HW129678   0.435   4.396   8.385  0.9511  3.0528 -0.1012
 6072SOL    HW229679   0.366   4.486   8.289 -0.0867 -0.3010 -0.2224
 6073SOL     OW29680   0.247   3.336   8.299 -0.6016  0.0949 -0.5196
 6073SOL    HW129681   0.336   3.346   8.266  0.8105 -0.6485  3.0893
 6073SOL    HW229682   0.255   3.351   8.393 -1.1888 -2.1544 -0.1049
 6074SOL     OW29683   0.104   1.835  13.318  0.0938 -0.0062  0.2013
 6074SOL    HW129684   0.152   1.910  13.354  0.2640  0.0520 -0.1491
 6074SOL    HW229685   0.026   1.883  13.290  0.3087  0.9569  1.2399
 6075SOL     OW29686   1.920   0.318  15.424  0.2406 -0.2760  0.0756
 6075SOL    HW129687   1.911   0.294  15.516  0.4565 -0.5952  0.0123
 6075SOL    HW229688   1.869   0.399  15.412 -1.6874 -1.6785 -1.1407
 6076SOL     OW29689   0.371   2.930   8.068  0.3429  0.0471  0.0673
 6076SOL    HW129690   0.326   2.929   7.983 -1.5089 -0.1021  1.0670
 6076SOL    HW229691   0.307   2.974   8.123 -2.2206 -0.6411 -2.3991
 6077SOL     OW29692   1.741   0.207   5.758 -0.0979 -0.4017  0.0104
 6077SOL    HW129693   1.801   0.263   5.806 -0.6833  0.7767 -0.6292
 6077SOL    HW229694   1.734   0.132   5.817  1.8949 -1.2734 -0.8256
 6078SOL     OW29695   0.646   2.828   8.359 -0.4659 -0.3415  0.1587
 6078SOL    HW129696   0.702   2.766   8.312  0.2657  0.3524  0.1129
 6078SOL    HW229697   0.560   2.793   8.336 -1.1591  0.5859  1.3507
 6079SOL     OW29698   0.845   0.492   6.653 -0.0690 -0.2201  0.3734
 6079SOL    HW129699   0.860   0.401   6.629 -0.4516 -0.2711  0.3344
 6079SOL    HW229700   0.773   0.492   6.716 -1.4210 -0.0324 -1.1723
 6080SOL     OW29701   4.549   3.531   7.258  0.1763  0.0626 -0.0349
 6080SOL    HW129702   4.532   3.596   7.189  1.2599 -0.6537 -0.9669
 6080SOL    HW229703   4.461   3.494   7.265  0.2486 -0.6645 -2.9752
 6081SOL     OW29704   0.984   2.426  15.050  0.0616  0.1555  0.6496
 6081SOL    HW129705   0.899   2.435  15.094  0.3445  0.6498  1.0743
 6081SOL    HW229706   0.974   2.342  15.004  0.6220 -0.0535  0.9129
 6082SOL     OW29707   0.891   3.791  10.140 -0.2154 -0.1635  0.4250
 6082SOL    HW129708   0.813   3.836  10.108  0.3243 -0.7911 -1.7908
 6082SOL    HW229709   0.922   3.852  10.207 -0.7338 -0.3447  0.8243
 6083SOL     OW29710   4.262   0.508   6.748 -0.0280 -0.2580  0.1189
 6083SOL    HW129711   4.177   0.528   6.710  0.7878 -3.1997 -3.2286
 6083SOL    HW229712   4.288   0.452   6.675 -0.0857  0.2458 -0.2807
 6084SOL     OW29713   2.416   1.519   4.741  0.3801  0.1877 -0.2424
 6084SOL    HW129714   2.337   1.567   4.716  0.5041  0.2654 -0.4843
 6084SOL    HW229715   2.449   1.578   4.808 -1.8464  1.7279 -0.5214
 6085SOL     OW29716   2.856   1.927   3.446 -0.0925  0.3969  0.2233
 6085SOL    HW129717   2.779   1.893   3.400  1.3358 -0.4586 -1.5203
 6085SOL    HW229718   2.828   2.018   3.456 -0.1449  0.3272  0.7276
 6086SOL     OW29719   2.301   3.161   2.502 -0.2132 -0.1639 -0.3333
 6086SOL    HW129720   2.285   3.250   2.472 -1.4333  0.4932  2.3132
 6086SOL    HW229721   2.228   3.121   2.454 -1.1432 -0.6743  1.4947
 6087SOL     OW29722   0.514   3.949   4.642 -0.2642  0.1033  0.7454
 6087SOL    HW129723   0.459   3.882   4.684  0.2184 -1.4526 -1.1129
 6087SOL    HW229724   0.517   3.904   4.558 -3.9287 -1.7908  1.6059
 6088SOL     OW29725   4.170   0.788  10.026  0.2443  0.2246  0.8230
 6088SOL    HW129726   4.098   0.813  10.082 -0.0510  1.6812 -0.2016
 6088SOL    HW229727   4.151   0.834   9.944 -2.3329  1.1355  1.9466
 6089SOL     OW29728   1.310   0.185   5.911  0.8640 -0.2028  0.4739
 6089SOL    HW129729   1.340   0.200   6.001  1.0610  2.8325 -0.1043
 6089SOL    HW229730   1.319   0.090   5.922  1.5009 -0.2856 -0.7563
 6090SOL     OW29731   2.457   1.294   2.148 -0.4733 -0.2895  0.6155
 6090SOL    HW129732   2.386   1.350   2.117  2.1274  2.7519  0.1433
 6090SOL    HW229733   2.532   1.351   2.134  0.2285 -0.6348  2.9586
 6091SOL     OW29734   3.741   3.373   0.300  0.4670 -0.4179 -0.2532
 6091SOL    HW129735   3.704   3.445   0.350  1.6569 -0.4129  0.6139
 6091SOL    HW229736   3.784   3.417   0.227  1.5367  0.0614  0.6790
 6092SOL     OW29737   1.928   3.983   8.311  0.0549 -0.1894 -0.2104
 6092SOL    HW129738   1.885   3.913   8.360  1.0800 -1.1650 -0.7010
 6092SOL    HW229739   1.858   4.048   8.307 -1.9410 -2.1825  2.1768
 6093SOL     OW29740   1.721   3.385  13.012  0.2612  0.0445  0.3614
 6093SOL    HW129741   1.790   3.407  13.075  1.4624 -2.8128  0.0643
 6093SOL    HW229742   1.668   3.325  13.064 -1.2021 -1.0175 -2.3749
 6094SOL     OW29743   3.356   3.249   4.534  0.4071 -0.6789  0.1914
 6094SOL    HW129744   3.393   3.230   4.621  1.2860  1.4456  0.2774
 6094SOL    HW229745   3.440   3.250   4.488 -0.0397 -1.5115 -0.6311
 6095SOL     OW29746   1.848   1.663   9.867  0.4385  0.6596 -0.2296
 6095SOL    HW129747   1.802   1.742   9.837 -0.3942 -0.2875 -1.4904
 6095SOL    HW229748   1.780   1.644   9.931  1.0012  0.5372  0.3268
 6096SOL     OW29749   3.814   1.705  11.948  0.0819 -0.5693 -0.3355
 6096SOL    HW129750   3.848   1.641  12.011  0.0294  0.2629  0.5302
 6096SOL    HW229751   3.739   1.654  11.917 -0.7128  0.7699 -0.6121
 6097SOL     OW29752   4.405   1.698   4.651 -0.2831  0.2600  0.7382
 6097SOL    HW129753   4.375   1.744   4.573 -1.3048  2.2030  2.2788
 6097SOL    HW229754   4.348   1.621   4.652 -1.9548  1.4859  0.2857
 6098SOL     OW29755   0.868   3.078   3.145 -0.2556 -0.4338 -0.1872
 6098SOL    HW129756   0.882   3.071   3.240 -1.4126 -1.2551 -0.0824
 6098SOL    HW229757   0.960   3.079   3.120  0.6724 -0.0027  3.1358
 6099SOL     OW29758   4.246   3.876   0.804 -0.4093 -0.0704 -0.2133
 6099SOL    HW129759   4.250   3.892   0.710  1.4660  1.3148  0.1234
 6099SOL    HW229760   4.218   3.784   0.799 -0.7084  0.1332 -2.2159
 6100SOL     OW29761   1.072   0.282  15.806 -0.1826 -0.4556  0.5006
 6100SOL    HW129762   1.146   0.222  15.815  0.7824  0.4122 -1.6968
 6100SOL    HW229763   1.003   0.231  15.766 -0.5603 -2.0322  3.1673
 6101SOL     OW29764   2.200   0.101   5.335  0.4597 -0.2920  0.4719
 6101SOL    HW129765   2.129   0.164   5.321 -1.1043 -2.2791 -0.5539
 6101SOL    HW229766   2.281   0.149   5.351 -0.0040  0.8784 -0.6625
 6102SOL     OW29767   3.634   0.441   8.267  0.3545  0.0553 -0.2092
 6102SOL    HW129768   3.615   0.412   8.356  1.5240  0.1381  0.0763
 6102SOL    HW229769   3.688   0.518   8.286 -1.3769  1.2795 -0.2513
 6103SOL     OW29770   0.283   2.578   4.866  0.5339  1.0068  0.6188
 6103SOL    HW129771   0.320   2.571   4.954  1.7963 -2.3446 -0.1728
 6103SOL    HW229772   0.307   2.496   4.823 -1.7036  0.7040 -0.0681
 6104SOL     OW29773   2.754   3.594   6.563 -0.0035  0.6041 -0.3492
 6104SOL    HW129774   2.740   3.641   6.481  4.3213 -0.0844 -1.4853
 6104SOL    HW229775   2.678   3.536   6.563 -0.8801  1.7620  2.4667
 6105SOL     OW29776   1.743   2.689   4.923  0.2787 -0.3144  0.2958
 6105SOL    HW129777   1.647   2.689   4.930  0.1976  2.1505 -1.0318
 6105SOL    HW229778   1.756   2.604   4.880  1.5273  1.2071 -2.3081
 6106SOL     OW29779   3.594   2.583   4.060  0.0645  0.0477 -0.1382
 6106SOL    HW129780   3.506   2.572   4.023 -0.9375  0.3270  2.1302
 6106SOL    HW229781   3.602   2.492   4.087 -1.3443  0.0890  0.4516
 6107SOL     OW29782   4.205   4.350   6.992 -0.2254  0.2872  0.1829
 6107SOL    HW129783   4.268   4.294   7.036 -0.5707  0.8662  1.3985
 6107SOL    HW229784   4.201   4.293   6.915 -4.7870 -0.8922  1.2896
 6108SOL     OW29785   2.658   4.608   8.176 -0.1031 -0.0388  0.0026
 6108SOL    HW129786   2.682   4.562   8.257 -2.6944 -0.8104  0.3154
 6108SOL    HW229787   2.742   4.602   8.130  0.1927 -0.0721  0.5479
 6109SOL     OW29788   0.236   0.731  12.126 -0.3942  0.1137 -0.3503
 6109SOL    HW129789   0.216   0.748  12.034 -2.4365 -1.3438 -0.1697
 6109SOL    HW229790   0.320   0.687  12.131 -1.7865 -2.3264  1.6615
 6110SOL     OW29791   1.656   1.883   0.042 -0.3249 -0.4966  0.1950
 6110SOL    HW129792   1.629   1.800   0.003 -1.7761  0.5734 -1.0923
 6110SOL    HW229793   1.578   1.907   0.092 -1.3886 -0.7008 -1.3637
 6111SOL     OW29794   0.204   3.741   1.017 -0.2793 -0.2418  0.1441
 6111SOL    HW129795   0.277   3.784   0.972 -1.3664  1.3909 -0.0383
 6111SOL    HW229796   0.130   3.757   0.959 -0.5168 -0.3186  0.4261
 6112SOL     OW29797   1.336   1.756   5.282 -0.2719 -1.1394 -0.0937
 6112SOL    HW129798   1.252   1.729   5.320 -1.2075  1.7667 -0.1423
 6112SOL    HW229799   1.349   1.847   5.307  0.7591 -1.6404  1.2105
 6113SOL     OW29800   2.547   1.129   0.356  0.5726  0.4136  0.0695
 6113SOL    HW129801   2.570   1.107   0.446  1.7138  2.1266  0.1960
 6113SOL    HW229802   2.503   1.052   0.320 -0.0385  1.0044 -0.4575
 6114SOL     OW29803   2.296   3.966   1.721 -0.3492  0.5488 -0.1261
 6114SOL    HW129804   2.257   4.018   1.651 -0.5340  3.2385  1.9739
 6114SOL    HW229805   2.334   3.888   1.681 -0.2636  0.4081  0.2224
 6115SOL     OW29806   1.755   3.549   0.475 -0.5328 -0.4072 -0.4335
 6115SOL    HW129807   1.839   3.557   0.429 -0.5474 -1.9675 -0.7088
 6115SOL    HW229808   1.763   3.605   0.553 -0.2613  1.5556 -1.8702
 6116SOL     OW29809   3.794   3.327   5.321 -0.1499  0.6326 -0.3465
 6116SOL    HW129810   3.807   3.414   5.359 -0.7338  0.3407  0.5282
 6116SOL    HW229811   3.704   3.320   5.291 -0.2031  0.7322 -0.2108
 6117SOL     OW29812   2.770   4.083   3.786 -0.8490 -0.6007  0.3394
 6117SOL    HW129813   2.812   4.013   3.736  2.6526 -1.4079  4.4095
 6117SOL    HW229814   2.730   4.036   3.859 -0.6215 -1.9736 -0.4138
 6118SOL     OW29815   1.173   0.395  17.370 -0.2264 -0.5174  0.3237
 6118SOL    HW129816   1.240   0.413  17.304  0.1443 -0.6066  0.6752
 6118SOL    HW229817   1.156   0.301  17.357  0.3209 -0.4851 -0.6399
 6119SOL     OW29818   4.117   4.676   7.556 -0.3443 -0.1152  0.3003
 6119SOL    HW129819   4.154   4.613   7.495  1.9047  1.2866  0.1900
 6119SOL    HW229820   4.128   4.637   7.643 -0.4960 -0.7509  0.0297
 6120SOL     OW29821   1.614   0.546   5.690 -0.4623  0.0919  0.1003
 6120SOL    HW129822   1.679   0.537   5.621 -1.0990 -0.3342 -0.4484
 6120SOL    HW229823   1.543   0.489   5.657  1.3021 -2.6676  1.0980
 6121SOL     OW29824   3.585   3.425   8.494 -0.1447 -0.0572 -0.2206
 6121SOL    HW129825   3.676   3.400   8.477  0.0648 -0.8560  2.0851
 6121SOL    HW229826   3.566   3.403   8.585 -1.2703 -1.5903 -0.8241
 6122SOL     OW29827   3.669   0.294   6.153  0.3982 -0.5211  0.0742
 6122SOL    HW129828   3.724   0.291   6.075 -2.2929  1.1420 -1.9119
 6122SOL    HW229829   3.690   0.385   6.172 -0.8438  0.4005 -2.9288
 6123SOL     OW29830   0.721   3.750   5.764  0.1047 -0.2417  0.1037
 6123SOL    HW129831   0.714   3.803   5.685  1.5305  0.0626  0.1858
 6123SOL    HW229832   0.800   3.781   5.808 -1.0620  1.4237  1.0550
 6124SOL     OW29833   1.852   1.772   3.440  0.2642 -0.0110 -0.4699
 6124SOL    HW129834   1.758   1.788   3.434 -0.1968 -2.4739 -0.0081
 6124SOL    HW229835   1.861   1.705   3.373 -1.7211 -1.3984  0.6390
 6125SOL     OW29836   3.410   4.390   0.496  0.7487  0.1939 -0.1636
 6125SOL    HW129837   3.406   4.385   0.401  1.1574 -0.6864 -0.1299
 6125SOL    HW229838   3.397   4.482   0.521  1.4749  0.2518  0.0209
 6126SOL     OW29839   0.111   1.643   2.797 -0.2022 -0.1844 -0.4400
 6126SOL    HW129840   0.055   1.685   2.733 -0.3888  0.2911  0.0406
 6126SOL    HW229841   0.170   1.715   2.819 -0.4309 -0.3140  0.5882
 6127SOL     OW29842   3.772   0.709   3.264 -0.0304 -0.0111  0.0333
 6127SOL    HW129843   3.797   0.742   3.178  0.6702 -0.6880 -0.0291
 6127SOL    HW229844   3.691   0.757   3.278 -0.7439 -0.7234 -1.7404
 6128SOL     OW29845   0.098   3.216   8.564 -0.3463  0.2245  0.6268
 6128SOL    HW129846   0.076   3.207   8.657 -1.7646  2.0571  0.4611
 6128SOL    HW229847   0.098   3.311   8.557 -0.9544  0.2663  1.2190
 6129SOL     OW29848   3.286   2.070  15.470 -0.5701  0.6595  0.1118
 6129SOL    HW129849   3.333   2.049  15.389  0.0544  1.1617  0.3485
 6129SOL    HW229850   3.347   2.130  15.511 -1.2619  1.8170 -0.5519
 6130SOL     OW29851   0.406   2.001  15.805  0.5431  0.3524  0.6676
 6130SOL    HW129852   0.405   1.939  15.877 -0.2119 -1.2152 -0.6830
 6130SOL    HW229853   0.452   2.077  15.839 -0.4204  0.0822  2.5897
 6131SOL     OW29854   4.473   0.710  17.528 -0.5177  0.2587 -0.7680
 6131SOL    HW129855   4.518   0.635  17.567  0.6791  0.9687 -0.7902
 6131SOL    HW229856   4.549   0.759  17.497 -0.3905  0.0764 -0.7483
 6132SOL     OW29857   1.420   0.575   0.846  0.2408  0.0049  0.2394
 6132SOL    HW129858   1.342   0.585   0.901  0.0076  2.0723 -0.4979
 6132SOL    HW229859   1.411   0.480   0.840  0.7754  0.0015 -0.5216
 6133SOL     OW29860   2.711   3.824   6.766 -0.6383 -0.5553 -0.4379
 6133SOL    HW129861   2.656   3.780   6.701  0.7283 -1.6697 -0.8362
 6133SOL    HW229862   2.701   3.756   6.833 -1.0820  0.4275  0.4901
 6134SOL     OW29863   0.119   2.691   8.107  0.6795  0.1817 -0.4265
 6134SOL    HW129864   0.050   2.727   8.163 -1.0790 -2.8146 -0.6866
 6134SOL    HW229865   0.180   2.648   8.168  0.7128  1.3676  0.3896
 6135SOL     OW29866   1.806   3.001   4.064 -0.4726 -0.0555  0.1361
 6135SOL    HW129867   1.785   3.001   3.971 -0.7609  1.1416  0.2039
 6135SOL    HW229868   1.877   2.936   4.066  0.4542  1.0337  2.9319
 6136SOL     OW29869   2.500   0.825  15.704 -0.6504 -0.3881  0.4997
 6136SOL    HW129870   2.505   0.761  15.775  4.0053 -1.0750 -0.4151
 6136SOL    HW229871   2.584   0.800  15.664 -0.4809  0.2471  0.4541
 6137SOL     OW29872   3.841   0.806   7.183  0.0870 -0.5157  0.8925
 6137SOL    HW129873   3.894   0.739   7.139  0.2857  0.3226 -0.1407
 6137SOL    HW229874   3.770   0.816   7.120  0.2224 -1.9634  0.5034
 6138SOL     OW29875   4.694   2.029   3.263 -0.1003  0.0622 -0.1995
 6138SOL    HW129876   4.680   2.083   3.185 -0.1225 -2.0475 -1.6553
 6138SOL    HW229877   4.719   2.090   3.332  0.1524 -0.2224 -0.0387
 6139SOL     OW29878   4.472   2.965  11.505  0.3747 -0.0955  0.3852
 6139SOL    HW129879   4.413   2.943  11.578  0.7317 -0.4582  0.5579
 6139SOL    HW229880   4.433   2.930  11.425 -1.8263  3.1591  0.0068
 6140SOL     OW29881   2.353   1.869   0.331  0.2735 -0.3561  0.0630
 6140SOL    HW129882   2.314   1.918   0.259 -4.0137 -2.9793  0.5820
 6140SOL    HW229883   2.445   1.881   0.309  0.5726 -3.3074 -0.4016
 6141SOL     OW29884   1.542   3.819   7.078  0.5118  0.7134 -0.0223
 6141SOL    HW129885   1.610   3.838   7.142 -1.4600 -1.7246  2.7858
 6141SOL    HW229886   1.468   3.795   7.133 -0.3251  2.2385 -0.4727
 6142SOL     OW29887   1.467   4.206   7.107  0.2641  0.1412  0.0845
 6142SOL    HW129888   1.398   4.270   7.093  1.3350  1.5593  1.3563
 6142SOL    HW229889   1.472   4.164   7.021  2.4553 -1.2258  0.8787
 6143SOL     OW29890   2.240   2.756   1.412  0.3813 -0.9776 -0.8152
 6143SOL    HW129891   2.188   2.795   1.342 -1.9161 -2.3158  0.1441
 6143SOL    HW229892   2.211   2.665   1.412  0.5536 -1.0326  0.2870
 6144SOL     OW29893   3.287   2.171  14.011 -0.3320  0.0197 -0.6479
 6144SOL    HW129894   3.360   2.223  14.045 -0.0357 -0.8796  0.0886
 6144SOL    HW229895   3.241   2.165  14.095 -0.4307  1.0234 -0.6294
 6145SOL     OW29896   1.002   1.096   1.458  0.5217  0.3592 -0.3207
 6145SOL    HW129897   0.987   1.116   1.366 -0.1657 -1.0589 -0.5063
 6145SOL    HW229898   1.090   1.061   1.453 -0.3867 -1.6835 -1.8162
 6146SOL     OW29899   3.357   2.395   3.492 -0.5334  0.3694  0.4232
 6146SOL    HW129900   3.273   2.417   3.533 -0.8380 -1.2265  0.6663
 6146SOL    HW229901   3.378   2.304   3.515 -0.5533  0.8342  2.3491
 6147SOL     OW29902   1.238   0.873   8.399  0.1815 -0.5018 -0.2430
 6147SOL    HW129903   1.274   0.795   8.441  2.5484  0.2358 -0.9015
 6147SOL    HW229904   1.317   0.927   8.409  0.0003 -0.3515  0.3627
 6148SOL     OW29905   4.269   2.229   4.285 -0.3993  0.6054  1.0841
 6148SOL    HW129906   4.195   2.188   4.331 -0.6004 -0.7427 -0.4575
 6148SOL    HW229907   4.266   2.200   4.194 -0.7040 -1.0168  1.6061
 6149SOL     OW29908   1.038   1.464  17.478 -0.1370 -0.2526  0.0138
 6149SOL    HW129909   0.949   1.431  17.465 -0.0693  0.4111 -2.1102
 6149SOL    HW229910   1.079   1.391  17.431 -0.9592 -2.0571  2.0950
 6150SOL     OW29911   3.727   3.109  12.228 -0.0764 -0.1654 -0.0943
 6150SOL    HW129912   3.710   3.075  12.140 -2.4971  2.2814 -0.5762
 6150SOL    HW229913   3.651   3.070  12.271  1.2436 -2.8882 -0.2756
 6151SOL     OW29914   2.354   4.326   9.405 -0.2062 -0.4226 -0.6703
 6151SOL    HW129915   2.329   4.336   9.497  0.0331  2.2673 -0.8874
 6151SOL    HW229916   2.286   4.378   9.362  0.0907  0.9996  0.5799
 6152SOL     OW29917   3.698   2.563   6.939  0.0514  0.3889 -0.5010
 6152SOL    HW129918   3.790   2.543   6.954 -0.5422 -0.9211  1.4449
 6152SOL    HW229919   3.699   2.581   6.845  1.6603  3.0176  0.0420
 6153SOL     OW29920   0.749   3.456   9.099 -0.1215 -0.1073  0.0252
 6153SOL    HW129921   0.806   3.407   9.158  0.1172  1.3835  1.0540
 6153SOL    HW229922   0.702   3.502   9.169  2.4383  3.0666 -0.3145
 6154SOL     OW29923   4.160   0.192   2.638 -0.4795 -0.5043 -0.1442
 6154SOL    HW129924   4.095   0.238   2.584  1.2307  1.1779 -0.7770
 6154SOL    HW229925   4.215   0.267   2.659 -1.2976  0.4838 -1.4835
 6155SOL     OW29926   0.020   1.543   3.293  0.1320  0.0026  0.0479
 6155SOL    HW129927   0.007   1.553   3.198 -0.0051 -0.0981  0.0547
 6155SOL    HW229928   4.679   1.612   3.313  2.1449  2.0235 -0.5840
 6156SOL     OW29929   0.670   2.866  10.766 -0.0769  0.5279 -0.4806
 6156SOL    HW129930   0.714   2.782  10.757 -0.1628  0.5265 -0.8935
 6156SOL    HW229931   0.579   2.837  10.775 -0.4750  2.1452  0.8093
 6157SOL     OW29932   0.619   0.580   4.652 -0.3818  0.0435  0.1272
 6157SOL    HW129933   0.699   0.609   4.695 -0.2163 -0.1306 -0.0666
 6157SOL    HW229934   0.605   0.644   4.582 -0.4863  0.2991  0.3836
 6158SOL     OW29935   2.471   1.660   7.940 -0.4543  0.1222  0.2581
 6158SOL    HW129936   2.387   1.619   7.916 -1.0724  1.8301 -0.4889
 6158SOL    HW229937   2.506   1.600   8.006 -0.8935  0.9017  1.1922
 6159SOL     OW29938   3.361   4.493   7.896 -0.4411  0.3062  0.7689
 6159SOL    HW129939   3.402   4.490   7.983  0.7982  1.9364  0.2416
 6159SOL    HW229940   3.411   4.430   7.844 -2.3788 -1.4443  0.9916
 6160SOL     OW29941   3.483   0.080  12.631 -0.0745 -0.3417  0.1810
 6160SOL    HW129942   3.439   0.164  12.617  3.7604  1.5913 -0.0842
 6160SOL    HW229943   3.408   0.021  12.622 -0.0336  0.0418 -2.4661
 6161SOL     OW29944   1.137   0.870  10.078  0.4014  0.5445  0.2838
 6161SOL    HW129945   1.172   0.958  10.070  0.6001  0.4604  0.2263
 6161SOL    HW229946   1.211   0.827  10.120 -0.7723 -1.8995 -0.1348
 6162SOL     OW29947   4.355   3.004   5.904 -0.4138  0.5175 -0.4286
 6162SOL    HW129948   4.394   3.052   5.831 -0.3430 -2.0326 -2.0488
 6162SOL    HW229949   4.406   2.923   5.900  0.7495  1.2592 -0.3553
 6163SOL     OW29950   2.157   4.434   8.215 -0.2905  0.1257 -0.0834
 6163SOL    HW129951   2.144   4.486   8.136 -2.0170  0.7488  0.6166
 6163SOL    HW229952   2.228   4.371   8.199 -1.8048 -1.1194 -1.9466
 6164SOL     OW29953   2.112   4.428   5.566  0.2480 -0.0992 -0.1434
 6164SOL    HW129954   2.131   4.444   5.473  4.1948 -3.3403  0.0593
 6164SOL    HW229955   2.139   4.337   5.576 -0.6808 -0.3394  0.1359
 6165SOL     OW29956   3.318   1.672   7.595  0.0309 -0.0250  0.2378
 6165SOL    HW129957   3.288   1.610   7.529  0.0503  0.3382 -0.1086
 6165SOL    HW229958   3.378   1.733   7.552  1.1998 -0.7036  0.8809
 6166SOL     OW29959   0.543   2.106   1.257 -0.3405  0.3643  0.2974
 6166SOL    HW129960   0.595   2.026   1.252 -0.4980  0.3996 -1.8919
 6166SOL    HW229961   0.574   2.137   1.342  1.2618  0.7875 -0.4398
 6167SOL     OW29962   3.501   2.588   5.412  0.5249 -0.6927 -0.6690
 6167SOL    HW129963   3.426   2.553   5.461  0.2151  2.4240  1.0843
 6167SOL    HW229964   3.548   2.514   5.373 -0.4751 -1.6572 -0.0689
 6168SOL     OW29965   2.099   2.850   6.603 -0.4399  0.1144  0.1931
 6168SOL    HW129966   2.062   2.773   6.646 -0.7756 -0.0215 -0.3315
 6168SOL    HW229967   2.084   2.821   6.513 -0.3429  0.5479  0.0373
 6169SOL     OW29968   2.800   4.502   7.144 -0.5479  0.3583 -0.3435
 6169SOL    HW129969   2.708   4.510   7.169 -0.2187 -1.5490  1.4458
 6169SOL    HW229970   2.854   4.521   7.220 -1.4844  2.1883 -0.1159
 6170SOL     OW29971   1.773   3.303  11.508 -0.4394 -0.2549  0.9797
 6170SOL    HW129972   1.730   3.319  11.424 -0.1725 -1.0545  0.6966
 6170SOL    HW229973   1.710   3.348  11.566 -0.0801  0.1271  1.0735
 6171SOL     OW29974   2.095   0.288  16.542 -0.1574  0.0403 -0.4455
 6171SOL    HW129975   2.101   0.373  16.585 -0.0509  0.1230 -0.6246
 6171SOL    HW229976   2.098   0.228  16.617  1.3190 -0.0568 -0.5749
 6172SOL     OW29977   0.663   2.677   8.728  0.3172 -0.1391 -0.5153
 6172SOL    HW129978   0.656   2.765   8.691 -0.7105  0.4395  1.0603
 6172SOL    HW229979   0.741   2.689   8.783  1.7361 -1.0090 -2.3454
 6173SOL     OW29980   3.644   1.138   4.550 -0.6970 -0.5076  0.0844
 6173SOL    HW129981   3.737   1.153   4.534 -0.4626 -2.1310 -0.0168
 6173SOL    HW229982   3.631   1.178   4.636  2.5210  1.1734 -0.2001
 6174SOL     OW29983   1.184   0.675  13.384 -0.0549 -0.7060  0.1826
 6174SOL    HW129984   1.180   0.586  13.347  1.4805 -1.1220  1.0127
 6174SOL    HW229985   1.278   0.685  13.399 -0.5486  1.5658  1.6794
 6175SOL     OW29986   3.527   3.857   9.236 -0.3306  0.2001  0.2441
 6175SOL    HW129987   3.515   3.850   9.141  4.1519 -2.5288 -0.1577
 6175SOL    HW229988   3.461   3.793   9.260 -1.3730  1.3717  0.4873
 6176SOL     OW29989   2.668   0.364   6.778  0.8959 -0.4099 -0.0909
 6176SOL    HW129990   2.681   0.270   6.791 -1.2581 -0.4710  1.5326
 6176SOL    HW229991   2.577   0.384   6.800  1.3414  0.5049  0.9285
 6177SOL     OW29992   1.417   1.663   0.784 -0.0882  0.2052 -0.3128
 6177SOL    HW129993   1.407   1.741   0.729 -0.5011  0.3846  0.0190
 6177SOL    HW229994   1.512   1.663   0.792  0.0469 -2.6670 -1.8232
 6178SOL     OW29995   0.845   3.566   0.380 -0.6600 -0.4590  0.1922
 6178SOL    HW129996   0.827   3.657   0.406 -4.0737 -0.7124 -1.2968
 6178SOL    HW229997   0.857   3.580   0.286 -1.2667 -1.2873 -0.0052
 6179SOL     OW29998   1.980   2.056  10.991 -0.1536  0.3865 -0.1377
 6179SOL    HW129999   1.967   1.994  10.919 -1.1695  0.5165 -0.0645
 6179SOL    HW230000   2.074   2.074  10.988 -0.0102 -0.3348  0.0797
 6180SOL     OW30001   4.131   4.459  17.465  0.7559 -0.5838  0.1595
 6180SOL    HW130002   4.061   4.404  17.430 -1.3608  1.5388  1.0756
 6180SOL    HW230003   4.086   4.542  17.451  0.8207 -0.5445  0.1855
 6181SOL     OW30004   3.192   3.334   0.849  0.1897 -0.3137 -0.4280
 6181SOL    HW130005   3.217   3.426   0.838  1.5068 -0.7397 -0.9831
 6181SOL    HW230006   3.266   3.283   0.816  1.2186  1.8341 -1.5005
 6182SOL     OW30007   2.008   0.063   1.707 -0.4317 -0.3755 -0.7953
 6182SOL    HW130008   1.978   0.034   1.621  2.7344 -1.1451 -1.6383
 6182SOL    HW230009   1.945   0.132   1.725 -0.1046 -0.5988  1.2087
 6183SOL     OW30010   1.339   4.572  16.387  0.1090  0.1602 -0.1019
 6183SOL    HW130011   1.406   4.641  16.380 -1.0804  1.4897  1.7133
 6183SOL    HW230012   1.280   4.601  16.456 -2.0449 -3.5765 -0.3903
 6184SOL     OW30013   3.701   1.767  11.610  0.2588 -0.0293 -0.4318
 6184SOL    HW130014   3.770   1.804  11.665 -1.0796 -1.9540  2.5767
 6184SOL    HW230015   3.676   1.836  11.548  3.9525  2.7929  1.2712
 6185SOL     OW30016   1.148   1.897   5.013  0.6553  0.1890 -0.4727
 6185SOL    HW130017   1.058   1.898   4.983 -0.1636 -0.3097  1.9364
 6185SOL    HW230018   1.124   1.875   5.103  2.1032  0.5517  0.0154
 6186SOL     OW30019   3.241   3.412   3.626 -0.7702 -0.0463 -0.2548
 6186SOL    HW130020   3.272   3.332   3.668 -0.7378 -0.5201 -1.2038
 6186SOL    HW230021   3.314   3.441   3.571  0.0102 -1.6127 -0.0628
 6187SOL     OW30022   3.096   0.076   0.040 -0.2984  0.2471 -0.5576
 6187SOL    HW130023   3.174   0.022   0.024 -0.7206 -0.5127 -0.0316
 6187SOL    HW230024   3.027   0.038  17.679  0.5213  0.0687 -1.4978
 6188SOL     OW30025   0.152   0.573  16.301 -0.0883 -0.3449 -0.3904
 6188SOL    HW130026   0.140   0.645  16.239 -0.0087 -0.9426 -1.1068
 6188SOL    HW230027   0.064   0.558  16.337  0.9067 -3.9294  0.6196
 6189SOL     OW30028   3.579   2.168  12.341 -0.1254  0.5697 -0.3512
 6189SOL    HW130029   3.485   2.157  12.327  0.3635 -1.7798 -1.9317
 6189SOL    HW230030   3.589   2.113  12.418 -0.4764 -2.1059 -2.2041
 6190SOL     OW30031   4.069   2.499   7.391 -0.1147  0.2362  0.1226
 6190SOL    HW130032   4.038   2.451   7.467  0.3216  0.2941  0.3398
 6190SOL    HW230033   4.025   2.455   7.318 -0.8265  0.5668  0.3531
 6191SOL     OW30034   0.928   2.148   4.492 -0.0073  0.1898 -0.6405
 6191SOL    HW130035   0.867   2.076   4.506  1.0168 -0.7074 -0.8223
 6191SOL    HW230036   1.013   2.108   4.508 -2.1612 -3.4737  1.5700
 6192SOL     OW30037   0.839   3.773  11.057 -0.1610  0.9053 -0.5924
 6192SOL    HW130038   0.821   3.840  11.123  0.5037 -0.9488  1.4786
 6192SOL    HW230039   0.924   3.738  11.084  0.2944  2.9386  0.5585
 6193SOL     OW30040   1.535   4.017   7.856  0.4675 -0.3577  0.2148
 6193SOL    HW130041   1.504   4.098   7.815 -0.9272 -1.6376 -1.2497
 6193SOL    HW230042   1.544   4.042   7.948  0.2864 -1.2978  0.4811
 6194SOL     OW30043   0.780   2.028   7.973  0.1194  0.3593 -0.2459
 6194SOL    HW130044   0.810   1.941   7.999  0.1517  0.2074 -0.8135
 6194SOL    HW230045   0.686   2.025   7.993  0.0635 -3.2768 -1.1667
 6195SOL     OW30046   2.556   1.342   4.334  0.3818 -0.3401 -0.0098
 6195SOL    HW130047   2.513   1.422   4.306  0.7768 -0.2926 -0.4630
 6195SOL    HW230048   2.570   1.296   4.251  2.6003 -0.3424  0.3632
 6196SOL     OW30049   3.802   1.859   8.205  0.6011 -0.6139 -0.3984
 6196SOL    HW130050   3.778   1.778   8.159 -2.1611 -1.5377  2.6906
 6196SOL    HW230051   3.747   1.926   8.164  0.1612 -0.6094  0.2123
 6197SOL     OW30052   3.438   4.578   1.473 -0.0235 -0.3882  0.2211
 6197SOL    HW130053   3.382   4.602   1.399 -0.3442  0.0701  0.6106
 6197SOL    HW230054   3.494   4.509   1.439 -0.3590 -0.6633  0.2347
 6198SOL     OW30055   1.747   4.524   4.416  0.1488 -0.2815 -0.1737
 6198SOL    HW130056   1.681   4.499   4.480 -0.2746  1.5768  0.1255
 6198SOL    HW230057   1.738   4.450   4.357  3.2217 -2.9156  2.6579
 6199SOL     OW30058   0.791   3.406   9.391  0.1939  0.0267  0.8844
 6199SOL    HW130059   0.833   3.473   9.445  0.1718  1.0087 -0.3294
 6199SOL    HW230060   0.843   3.328   9.410  0.5505  0.0201 -0.1040
 6200SOL     OW30061   2.892   3.136   7.136  0.4275  0.2876  0.3298
 6200SOL    HW130062   2.957   3.191   7.092 -0.0989  0.5178 -0.1570
 6200SOL    HW230063   2.859   3.081   7.064  1.1426  0.8671 -0.4367
 6201SOL     OW30064   3.647   1.672   2.328  0.7040  0.1629  0.2535
 6201SOL    HW130065   3.589   1.614   2.277 -0.5034  0.6549  1.0568
 6201SOL    HW230066   3.637   1.757   2.287 -0.4629 -0.2009 -0.2250
 6202SOL     OW30067   0.407   3.772   7.411  0.4478  0.9456 -0.1652
 6202SOL    HW130068   0.418   3.744   7.502  0.8174  1.7492  0.0371
 6202SOL    HW230069   0.346   3.704   7.382  2.5691 -0.2732 -1.7541
 6203SOL     OW30070   3.558   4.024   1.632  0.4584 -0.1544 -0.6579
 6203SOL    HW130071   3.531   4.049   1.721  0.0872 -0.9823 -0.5440
 6203SOL    HW230072   3.561   3.930   1.644  2.6382 -0.1792 -1.3566
 6204SOL     OW30073   1.255   1.610  17.577 -0.3142 -0.7549  0.2894
 6204SOL    HW130074   1.323   1.605  17.510 -1.0620 -0.4218 -0.4964
 6204SOL    HW230075   1.186   1.561  17.532 -0.5082  0.2712 -0.5260
 6205SOL     OW30076   3.543   2.977   7.442 -0.0191  0.0062  0.4131
 6205SOL    HW130077   3.623   2.990   7.392  0.0813  0.5752  0.7199
 6205SOL    HW230078   3.468   3.012   7.395  0.5956  0.6872 -0.0556
 6206SOL     OW30079   1.696   2.640   3.143  0.0922 -0.4995  0.0877
 6206SOL    HW130080   1.784   2.670   3.120 -1.0762  1.1132 -2.1996
 6206SOL    HW230081   1.647   2.650   3.062 -0.7734 -0.6039  0.5995
 6207SOL     OW30082   3.980   3.404  13.954  0.1319 -0.2290  0.1890
 6207SOL    HW130083   3.948   3.315  13.963 -1.4217  0.4398  1.2125
 6207SOL    HW230084   4.043   3.402  13.881  1.0486 -0.3030  0.9823
 6208SOL     OW30085   4.708   0.197   2.516  0.2885 -0.1271  0.1428
 6208SOL    HW130086   0.008   0.112   2.480 -1.2668 -1.2112  1.7601
 6208SOL    HW230087   0.074   0.230   2.527 -0.5405  1.8990  0.8055
 6209SOL     OW30088   0.486   2.453   2.902  0.0354 -0.2273 -0.7346
 6209SOL    HW130089   0.508   2.532   2.852 -0.6659  1.5313  1.7163
 6209SOL    HW230090   0.441   2.491   2.977 -0.7205  0.4249 -1.5249
 6210SOL     OW30091   0.898   4.699  13.220  0.6318  0.5815 -0.1972
 6210SOL    HW130092   0.858   4.644  13.153  2.8556 -0.2948 -0.8176
 6210SOL    HW230093   0.928   0.054  13.173  2.2258  0.8101  1.1762
 6211SOL     OW30094   2.544   2.476   1.543 -0.6024 -0.0840 -0.9523
 6211SOL    HW130095   2.464   2.454   1.592 -0.3256  0.4102 -0.2906
 6211SOL    HW230096   2.503   2.497   1.459  0.7665 -1.0401 -1.8454
 6212SOL     OW30097   4.716   2.751  12.797 -0.3247  0.0178  0.2762
 6212SOL    HW130098   4.659   2.776  12.724  0.4794  0.3640 -0.2289
 6212SOL    HW230099   0.066   2.810  12.779 -1.0055  0.9375  0.5935
 6213SOL     OW30100   1.432   3.685  13.155 -0.2649 -0.5244  0.3798
 6213SOL    HW130101   1.459   3.609  13.103 -1.5918 -1.2346  0.7494
 6213SOL    HW230102   1.365   3.728  13.102  0.1061 -0.7522 -0.2715
 6214SOL     OW30103   4.454   2.697   5.898  0.6790 -0.6992 -0.1864
 6214SOL    HW130104   4.446   2.630   5.966  2.5506  0.4211  1.1437
 6214SOL    HW230105   4.503   2.763   5.948 -1.0664 -0.4381  1.1962
 6215SOL     OW30106   1.136   1.816   4.663 -0.2542  0.2995  0.5062
 6215SOL    HW130107   1.155   1.897   4.617 -0.9855  0.1765 -0.0100
 6215SOL    HW230108   1.201   1.756   4.628 -0.0400  1.4148 -1.0058
 6216SOL     OW30109   4.357   2.329   2.837  0.0756 -0.4272  0.9145
 6216SOL    HW130110   4.367   2.293   2.925  2.8135 -1.6088  0.1331
 6216SOL    HW230111   4.386   2.420   2.844  2.7010 -1.4637  3.2482
 6217SOL     OW30112   2.661   3.961   8.123 -0.3386 -0.6325 -0.3990
 6217SOL    HW130113   2.681   4.006   8.205  0.6202 -2.0472  0.1455
 6217SOL    HW230114   2.576   3.999   8.102  0.0061 -0.5586 -1.6566
 6218SOL     OW30115   1.505   3.161  10.275  0.0130 -0.2104 -0.5454
 6218SOL    HW130116   1.592   3.141  10.241  0.4471  0.2361  0.2814
 6218SOL    HW230117   1.524   3.156  10.369  0.1080  1.5313 -0.4684
 6219SOL     OW30118   2.911   2.466   8.719  0.1488  0.5590  0.3037
 6219SOL    HW130119   2.886   2.398   8.782 -1.6776  1.6141  0.7338
 6219SOL    HW230120   2.865   2.543   8.752  0.0086  0.5960  0.0275
 6220SOL     OW30121   3.330   4.258   9.391  0.1994 -0.0399 -0.5405
 6220SOL    HW130122   3.407   4.251   9.447 -0.6806 -3.9318  0.1657
 6220SOL    HW230123   3.257   4.249   9.452 -0.8904  0.2898 -1.7793
 6221SOL     OW30124   3.384   3.123   7.258 -0.2572  0.0278 -0.4808
 6221SOL    HW130125   3.317   3.191   7.259 -1.1007 -0.8084  0.0737
 6221SOL    HW230126   3.455   3.182   7.281 -0.0133 -0.5976  0.3610
 6222SOL     OW30127   2.210   3.835   8.061 -0.0331  0.0266  0.0238
 6222SOL    HW130128   2.278   3.778   8.097 -0.9967 -0.3153  1.3272
 6222SOL    HW230129   2.130   3.787   8.083 -0.9284  0.3390 -2.5814
 6223SOL     OW30130   2.889   0.988   9.049 -0.1052 -0.2068  0.1919
 6223SOL    HW130131   2.979   1.018   9.056 -0.7259  2.0929 -1.6250
 6223SOL    HW230132   2.834   1.066   9.037  0.1453  0.1060  1.1536
 6224SOL     OW30133   3.079   0.219   5.852  0.0875 -0.0987  0.8903
 6224SOL    HW130134   3.014   0.272   5.899  0.2813 -0.3156  1.4073
 6224SOL    HW230135   3.128   0.282   5.798  0.8049 -1.7920 -0.4179
 6225SOL     OW30136   3.968   2.826   9.310 -0.0768  0.3454 -0.1126
 6225SOL    HW130137   3.995   2.886   9.380  3.9591 -0.2930 -1.1181
 6225SOL    HW230138   3.916   2.889   9.260  2.5325  1.4811 -1.4002
 6226SOL     OW30139   3.510   0.754   3.307 -0.1697  0.6152 -0.2875
 6226SOL    HW130140   3.425   0.747   3.352  0.2422  1.1572  0.5867
 6226SOL    HW230141   3.482   0.769   3.217  1.6077  1.0013 -0.7670
 6227SOL     OW30142   1.900   0.053   7.256 -0.2744  0.2716  0.3534
 6227SOL    HW130143   1.906   4.680   7.261 -3.4497  0.0280 -0.3095
 6227SOL    HW230144   1.914   0.073   7.163 -2.0026 -1.0085 -0.1885
 6228SOL     OW30145   2.995   1.963   4.746  0.2080  0.3764  0.0144
 6228SOL    HW130146   3.028   2.014   4.819 -0.2486  1.6522 -0.6682
 6228SOL    HW230147   2.919   1.927   4.790  0.0858 -0.4386 -0.8700
 6229SOL     OW30148   0.998   4.078   3.174 -0.3078  0.0302 -0.0586
 6229SOL    HW130149   0.981   4.164   3.213  2.7384  0.8071 -0.5131
 6229SOL    HW230150   1.092   4.069   3.190 -0.1414 -0.6316 -1.3736
 6230SOL     OW30151   3.095   3.156   9.374 -0.3211 -0.1258 -0.0444
 6230SOL    HW130152   3.051   3.099   9.311 -2.1127 -0.7938  1.8333
 6230SOL    HW230153   3.022   3.197   9.420  1.9082  1.1198  2.4506
 6231SOL     OW30154   2.754   3.959   7.500  0.2495 -0.3526  0.5002
 6231SOL    HW130155   2.757   3.943   7.405  2.7808  0.5873  0.4159
 6231SOL    HW230156   2.750   4.054   7.484  0.6050 -0.8737 -2.7969
 6232SOL     OW30157   4.368   1.078   8.072 -0.0282 -0.2902  0.6224
 6232SOL    HW130158   4.282   1.107   8.101  0.5015 -0.2189  2.0951
 6232SOL    HW230159   4.352   0.986   8.050 -1.2387 -0.6307  2.9681
 6233SOL     OW30160   4.500   1.272   8.391  0.1149 -0.5632  0.0805
 6233SOL    HW130161   4.444   1.349   8.378 -0.5420 -0.6991  2.2025
 6233SOL    HW230162   4.566   1.281   8.322  0.5537 -0.5089  0.5093
 6234SOL     OW30163   3.849   3.670  10.997 -0.4041 -0.6093  0.1295
 6234SOL    HW130164   3.933   3.681  11.042 -0.6695  0.6789  0.3001
 6234SOL    HW230165   3.852   3.731  10.924 -0.8887  2.0872  2.3816
 6235SOL     OW30166   2.024   3.811   4.517 -0.0078 -0.6208 -0.7167
 6235SOL    HW130167   2.090   3.870   4.482 -0.6505  0.4597 -0.1323
 6235SOL    HW230168   2.079   3.733   4.509 -0.4335 -1.1171  1.1568
 6236SOL     OW30169   0.253   1.179   8.140  0.7634 -0.3895  0.0178
 6236SOL    HW130170   0.260   1.106   8.202 -1.1517  1.5814  2.5692
 6236SOL    HW230171   0.248   1.244   8.210 -0.0223 -0.4448  0.0126
 6237SOL     OW30172   1.955   1.111   3.414 -0.2005 -0.2927 -0.7255
 6237SOL    HW130173   1.984   1.019   3.417 -0.1660 -0.2541  0.1925
 6237SOL    HW230174   1.989   1.144   3.497  0.3293 -2.0292 -0.2432
 6238SOL     OW30175   2.600   1.717  15.971  0.0049  0.4650  0.6521
 6238SOL    HW130176   2.569   1.651  16.033  2.0177 -0.8708  0.2432
 6238SOL    HW230177   2.534   1.787  15.973  0.2254  0.7122 -1.0314
 6239SOL     OW30178   0.576   1.543   6.895  0.3705 -0.4271 -0.3000
 6239SOL    HW130179   0.518   1.581   6.961  0.3763  1.2374 -1.2429
 6239SOL    HW230180   0.520   1.474   6.859 -0.1457 -0.1774  0.0294
 6240SOL     OW30181   1.149   4.393  13.574  0.0752 -0.5656 -0.1048
 6240SOL    HW130182   1.068   4.342  13.564  0.4107 -1.4431  1.5071
 6240SOL    HW230183   1.155   4.431  13.486 -1.0918 -1.0847 -0.4069
 6241SOL     OW30184   4.487   4.711   8.008 -0.5894 -0.2562 -0.4575
 6241SOL    HW130185   4.418   4.683   8.068 -0.6118  2.4265  0.7746
 6241SOL    HW230186   4.534   0.053   8.060  1.1722 -2.8547  1.1835
 6242SOL     OW30187   2.157   3.943   2.313 -0.0547 -0.4493 -0.6697
 6242SOL    HW130188   2.249   3.965   2.328  0.1445 -0.6356 -1.6359
 6242SOL    HW230189   2.164   3.849   2.327 -0.4238 -0.4177 -0.2624
 6243SOL     OW30190   2.332   1.386  15.522 -0.1551 -0.0332  0.7195
 6243SOL    HW130191   2.359   1.435  15.444  0.0154  0.7022  1.2394
 6243SOL    HW230192   2.268   1.442  15.565  1.3617  2.2433 -0.0178
 6244SOL     OW30193   1.044   1.788   7.476 -0.2829 -0.1285  0.5866
 6244SOL    HW130194   0.984   1.784   7.551  1.8812  0.6247  2.3352
 6244SOL    HW230195   1.083   1.875   7.485 -1.6230  0.3850  1.5053
 6245SOL     OW30196   1.450   1.399   9.130  0.0755  0.1947 -0.1260
 6245SOL    HW130197   1.541   1.424   9.117  0.5655 -2.1173 -1.1469
 6245SOL    HW230198   1.463   1.309   9.160  0.7831  0.9971  1.9462
 6246SOL     OW30199   3.614   3.225   9.551  0.4794 -0.3579  0.4495
 6246SOL    HW130200   3.529   3.220   9.506 -0.2598  1.9856  1.5825
 6246SOL    HW230201   3.624   3.320   9.558 -0.3507 -0.1747 -0.7806
 6247SOL     OW30202   2.276   4.298  11.936  0.4751 -0.0835  0.4299
 6247SOL    HW130203   2.202   4.254  11.894  1.2731 -1.5772  0.5913
 6247SOL    HW230204   2.274   4.254  12.021  1.4735 -1.6592 -0.3699
 6248SOL     OW30205   3.180   0.627  11.754 -0.2340  0.0628  0.0778
 6248SOL    HW130206   3.236   0.635  11.832  0.1474  3.5684 -0.5782
 6248SOL    HW230207   3.238   0.673  11.693 -0.7584  1.4266  0.6237
 6249SOL     OW30208   3.712   2.664   6.698  0.0747  0.3253  0.4258
 6249SOL    HW130209   3.677   2.727   6.635  0.2937  0.9400  0.9157
 6249SOL    HW230210   3.804   2.685   6.684 -0.4770  2.0304 -0.6209
 6250SOL     OW30211   4.032   3.708   1.477  0.1151 -0.4813  0.3039
 6250SOL    HW130212   4.108   3.765   1.474 -0.4107  0.1302 -1.4716
 6250SOL    HW230213   4.022   3.705   1.572  0.2514  1.3709  0.3598
 6251SOL     OW30214   2.233   4.343   6.627 -0.3893  0.2787 -0.1748
 6251SOL    HW130215   2.317   4.299   6.615 -0.4307 -0.5150  2.4571
 6251SOL    HW230216   2.172   4.309   6.561 -2.0574  1.1165  0.9290
 6252SOL     OW30217   1.417   0.636   6.578 -0.7485  0.6221 -0.2777
 6252SOL    HW130218   1.384   0.686   6.653  1.9403  0.1042  1.2665
 6252SOL    HW230219   1.345   0.628   6.516 -2.3365  1.2405  1.4783
 6253SOL     OW30220   3.236   2.398  13.819  0.5424 -0.3108 -0.1266
 6253SOL    HW130221   3.152   2.444  13.821  0.6104 -0.3305  3.4322
 6253SOL    HW230222   3.228   2.332  13.887  3.2493 -0.2129  0.3158
 6254SOL     OW30223   3.316   0.320  12.572  0.3529 -0.1149  0.4946
 6254SOL    HW130224   3.337   0.400  12.523  0.7864  0.4713  1.6274
 6254SOL    HW230225   3.248   0.343  12.636 -0.2548  0.9413 -0.5198
 6255SOL     OW30226   3.233   0.848   7.884 -0.1791 -0.1398  0.8777
 6255SOL    HW130227   3.141   0.860   7.862 -0.2503  0.1693  1.3276
 6255SOL    HW230228   3.242   0.760   7.849  0.3836  0.3258 -0.1366
 6256SOL     OW30229   0.590   1.373  12.549 -0.0196  0.0409 -0.1513
 6256SOL    HW130230   0.634   1.303  12.599  1.6755  0.5130 -0.9705
 6256SOL    HW230231   0.502   1.338  12.560  0.2553 -0.4043  0.6671
 6257SOL     OW30232   2.101   1.729   8.924  0.3192  0.0770  0.1251
 6257SOL    HW130233   2.145   1.813   8.937 -2.9105  2.0554 -1.6666
 6257SOL    HW230234   2.066   1.710   9.010  0.4018 -1.5853 -0.2093
 6258SOL     OW30235   2.346   4.686   6.317 -0.4492 -0.7363  0.1156
 6258SOL    HW130236   2.398   4.639   6.383  1.2831 -0.2813 -0.9413
 6258SOL    HW230237   2.279   4.722   6.376  2.0793  0.7554  2.0737
 6259SOL     OW30238   1.782   3.769  14.921  0.1421 -0.0093 -0.2093
 6259SOL    HW130239   1.837   3.712  14.867 -0.6527 -0.0617 -0.9649
 6259SOL    HW230240   1.709   3.709  14.932  0.0107  0.4837  1.6627
 6260SOL     OW30241   2.356   1.595  12.213  0.4180  0.0466 -0.2292
 6260SOL    HW130242   2.441   1.586  12.258  0.1772 -0.9018  0.0455
 6260SOL    HW230243   2.309   1.531  12.266  2.1504 -0.3572  0.8251
 6261SOL     OW30244   1.264   0.410  11.407  0.0169 -0.8066 -0.7577
 6261SOL    HW130245   1.215   0.463  11.470 -0.2892 -1.6257 -0.3034
 6261SOL    HW230246   1.266   0.483  11.346 -1.7593 -0.5422 -0.4780
 6262SOL     OW30247   1.346   1.711   4.129 -0.2575 -0.2880 -0.0649
 6262SOL    HW130248   1.293   1.775   4.177  1.0566  0.6437  0.1475
 6262SOL    HW230249   1.367   1.642   4.192 -1.0887 -0.2698  0.2300
 6263SOL     OW30250   3.641   3.907  15.811 -0.7535  0.1755 -0.3232
 6263SOL    HW130251   3.631   3.984  15.867 -2.1727 -0.2694  0.0409
 6263SOL    HW230252   3.647   3.958  15.730  0.2754 -0.3554 -0.5741
 6264SOL     OW30253   1.894   0.830  10.280  0.2192  0.0887 -0.6287
 6264SOL    HW130254   1.974   0.873  10.250  0.0650 -0.5128 -1.9171
 6264SOL    HW230255   1.848   0.825  10.196  0.0693  0.7582 -0.5829
 6265SOL     OW30256   1.491   4.626   8.006  0.4346  0.1997 -0.2281
 6265SOL    HW130257   1.512   4.671   7.924 -0.4964 -1.4107 -1.3470
 6265SOL    HW230258   1.396   4.629   7.994  0.2831 -0.0656  0.8669
 6266SOL     OW30259   0.340   4.297   6.947  0.3640 -0.4029  0.0247
 6266SOL    HW130260   0.378   4.236   6.883  1.3989 -2.9391  3.0836
 6266SOL    HW230261   0.300   4.244   7.016 -0.1446 -0.6458 -0.4546
 6267SOL     OW30262   3.876   0.936   9.066 -0.3584  0.0667 -0.2827
 6267SOL    HW130263   3.931   1.001   9.023 -0.6920 -0.6311 -1.7444
 6267SOL    HW230264   3.813   0.906   9.001  1.9423 -0.6773 -2.1654
 6268SOL     OW30265   2.542   2.920  11.734  0.4637 -0.8744 -0.0464
 6268SOL    HW130266   2.466   2.886  11.687  0.8116 -0.6357 -0.7738
 6268SOL    HW230267   2.618   2.890  11.685  0.0361  0.0369 -1.2519
 6269SOL     OW30268   4.622   3.885   2.571 -0.0470  0.1030  0.1425
 6269SOL    HW130269   4.696   3.922   2.619  1.0154 -1.7201 -0.1035
 6269SOL    HW230270   4.560   3.959   2.573 -0.1331  0.0658 -0.9516
 6270SOL     OW30271   0.493   1.172   1.690 -0.2221  0.1247 -0.1769
 6270SOL    HW130272   0.464   1.148   1.602  1.3411 -2.2085 -0.0734
 6270SOL    HW230273   0.576   1.210   1.662  0.0459 -1.0598 -0.9898
 6271SOL     OW30274   4.681   0.625   5.552 -0.0751 -0.1421  0.7883
 6271SOL    HW130275   4.683   0.535   5.585 -0.7452 -0.2512  0.5171
 6271SOL    HW230276   0.033   0.656   5.604  0.6241 -1.1047  0.3652
 6272SOL     OW30277   3.197   2.821   3.184  0.1328 -0.1569 -0.2393
 6272SOL    HW130278   3.288   2.850   3.176 -0.3862  1.1386 -1.5826
 6272SOL    HW230279   3.196   2.726   3.193 -1.6395 -0.4653 -3.8224
 6273SOL     OW30280   4.409   0.636  15.486  0.4492  0.4169  0.2293
 6273SOL    HW130281   4.464   0.667  15.558 -0.3212 -0.1642  1.0616
 6273SOL    HW230282   4.404   0.720  15.441 -2.0456 -0.3569 -0.9165
 6274SOL     OW30283   1.157   1.277   3.036  0.0227  0.0235 -0.1277
 6274SOL    HW130284   1.193   1.208   3.091 -1.2544  0.7194  1.5733
 6274SOL    HW230285   1.212   1.351   3.064 -0.7646 -0.1230  1.8286
 6275SOL     OW30286   3.180   3.074   8.742 -0.4101  0.5936 -0.1181
 6275SOL    HW130287   3.203   3.008   8.677  0.3304 -0.3021  1.0643
 6275SOL    HW230288   3.228   3.151   8.712  1.9208 -0.5987  0.5766
 6276SOL     OW30289   1.329   2.786   1.826  0.0963 -0.0041  0.1355
 6276SOL    HW130290   1.316   2.802   1.733  2.8382 -0.5649 -0.3216
 6276SOL    HW230291   1.240   2.781   1.861  0.0333  0.4307  0.0327
 6277SOL     OW30292   0.418   2.801   6.298  0.3882  0.4147  0.1865
 6277SOL    HW130293   0.473   2.880   6.304 -0.0439  0.7230  0.0742
 6277SOL    HW230294   0.379   2.808   6.211 -0.2073 -0.4813  0.3878
 6278SOL     OW30295   2.013   4.296  14.868 -0.1590 -1.0343 -0.1075
 6278SOL    HW130296   1.956   4.248  14.929  0.3844 -1.2631  0.2236
 6278SOL    HW230297   2.098   4.265  14.900  0.3016 -0.9414 -1.2374
 6279SOL     OW30298   1.471   4.589   1.507 -0.0073 -0.2098 -0.0999
 6279SOL    HW130299   1.468   4.499   1.541 -1.2257 -1.1375 -2.6778
 6279SOL    HW230300   1.387   4.618   1.543 -0.6154  0.5104 -2.1261
 6280SOL     OW30301   3.334   4.705  14.125  0.3960 -0.2842  0.2491
 6280SOL    HW130302   3.383   4.626  14.100 -1.4659 -0.6692 -2.2015
 6280SOL    HW230303   3.248   4.671  14.149  0.1412 -0.1753 -0.4951
 6281SOL     OW30304   3.430   3.924   2.910  0.1086  0.3301 -0.2695
 6281SOL    HW130305   3.490   3.928   2.836 -0.6848 -2.2863 -1.0437
 6281SOL    HW230306   3.434   3.829   2.916 -0.5242  0.2960 -0.3278
 6282SOL     OW30307   2.427   2.711  14.560 -0.3636 -0.0288  0.0742
 6282SOL    HW130308   2.347   2.671  14.527 -1.1337  1.6135  0.0090
 6282SOL    HW230309   2.466   2.752  14.483 -2.4576  0.9188 -0.4551
 6283SOL     OW30310   1.240   3.208   3.824 -0.3472  0.7904  0.2141
 6283SOL    HW130311   1.239   3.303   3.811 -0.2568  1.0325  2.0431
 6283SOL    HW230312   1.295   3.189   3.748 -0.1307 -0.5873  0.7163
 6284SOL     OW30313   4.149   3.382   1.244  0.0076 -0.0238 -0.4398
 6284SOL    HW130314   4.232   3.404   1.285  0.5277 -0.5507 -1.2102
 6284SOL    HW230315   4.104   3.354   1.323 -2.6405 -0.6583 -2.1678
 6285SOL     OW30316   2.655   4.108   6.138  0.0597 -0.1850 -0.3489
 6285SOL    HW130317   2.718   4.170   6.174 -0.2467 -1.1340  1.8349
 6285SOL    HW230318   2.659   4.034   6.197 -1.0113  0.1093  0.1010
 6286SOL     OW30319   1.711   2.047  10.110  0.4406  0.0057 -0.1566
 6286SOL    HW130320   1.760   1.965  10.115  2.0330  0.9817  0.3346
 6286SOL    HW230321   1.683   2.055  10.201  0.4910 -0.6173 -0.0901
 6287SOL     OW30322   4.639   3.457   5.154  0.0415 -0.5049 -0.2494
 6287SOL    HW130323   4.721   3.419   5.186 -0.2638 -0.2484  0.8526
 6287SOL    HW230324   4.588   3.377   5.144 -0.9019 -0.0581  1.0611
 6288SOL     OW30325   2.382   3.140   5.011 -0.1653  0.0269  0.6174
 6288SOL    HW130326   2.438   3.193   4.954  0.7047 -0.3679  1.1139
 6288SOL    HW230327   2.412   3.166   5.098  3.5073 -2.0980 -0.0042
 6289SOL     OW30328   1.457   1.993   0.162 -0.0105 -0.1553 -0.6703
 6289SOL    HW130329   1.502   2.077   0.175 -0.5326 -0.0644  0.6205
 6289SOL    HW230330   1.375   2.022   0.123 -0.2657 -0.7989 -0.6177
 6290SOL     OW30331   0.009   4.222  15.587 -0.7374  0.1254  0.7321
 6290SOL    HW130332   4.679   4.240  15.510 -0.3463  1.1534  0.7050
 6290SOL    HW230333   4.688   4.150  15.633  1.3386 -1.9849 -0.5737
 6291SOL     OW30334   1.734   1.403   4.672  0.2786  0.5010 -0.6474
 6291SOL    HW130335   1.774   1.490   4.670 -1.1069  1.1253 -1.2144
 6291SOL    HW230336   1.642   1.424   4.685 -0.1141 -1.1093 -0.7954
 6292SOL     OW30337   4.671   3.464  15.174 -0.0427 -0.2190 -0.3762
 6292SOL    HW130338   4.673   3.520  15.097 -0.3410 -0.3366 -0.4712
 6292SOL    HW230339   4.646   3.532  15.237 -2.4205 -0.3550 -1.1670
 6293SOL     OW30340   3.935   0.070  11.685 -0.2093  0.1287 -1.0105
 6293SOL    HW130341   3.946   0.061  11.779  0.9480 -0.2858 -1.1862
 6293SOL    HW230342   3.960   4.704  11.660  0.5889  0.2965 -0.7992
 6294SOL     OW30343   3.298   1.051   7.116 -0.0044  0.0940 -0.1492
 6294SOL    HW130344   3.379   1.001   7.117  0.5197  0.8495 -2.6108
 6294SOL    HW230345   3.335   1.124   7.066  1.5052 -0.2890  0.4179
 6295SOL     OW30346   0.215   1.314   2.374  0.4062  0.1837 -0.1587
 6295SOL    HW130347   0.267   1.238   2.401 -1.7222 -1.7139 -1.2891
 6295SOL    HW230348   0.241   1.321   2.282  0.9165  0.9995  0.0545
 6296SOL     OW30349   2.186   2.276   6.556  0.0888 -0.3380  0.5326
 6296SOL    HW130350   2.236   2.312   6.483  1.5048 -1.5530  0.9163
 6296SOL    HW230351   2.108   2.229   6.526 -0.5252 -0.6061  2.5754
 6297SOL     OW30352   1.625   1.135   1.264  0.4202  0.5437  0.3619
 6297SOL    HW130353   1.673   1.061   1.227 -0.8258  0.5900 -1.3572
 6297SOL    HW230354   1.675   1.207   1.227  1.7774 -0.9281 -0.6582
 6298SOL     OW30355   0.866   0.885   8.759  0.3326 -0.0777 -0.4180
 6298SOL    HW130356   0.809   0.960   8.772  1.2550  1.0815 -2.9789
 6298SOL    HW230357   0.828   0.842   8.683 -0.4019  0.5403 -0.3962
 6299SOL     OW30358   1.695   2.735   8.861 -0.0820  0.3671  0.2301
 6299SOL    HW130359   1.728   2.663   8.807 -0.2762  0.1002  0.4658
 6299SOL    HW230360   1.690   2.690   8.946  0.4890 -1.4221 -0.6805
 6300SOL     OW30361   1.683   3.315  11.260  0.0656 -0.2627 -0.3111
 6300SOL    HW130362   1.625   3.318  11.184  1.2186  0.2229 -1.1705
 6300SOL    HW230363   1.750   3.381  11.240 -0.2560  0.7100  1.7597
 6301SOL     OW30364   4.005   4.417   7.395 -0.0200  0.0016 -0.1666
 6301SOL    HW130365   3.943   4.468   7.343 -0.2554  0.7466  0.8711
 6301SOL    HW230366   4.093   4.443   7.366 -0.5270 -0.2832 -1.9874
 6302SOL     OW30367   3.307   2.202   7.100  0.0956  0.9801  0.0273
 6302SOL    HW130368   3.246   2.259   7.147 -0.0410  0.7073  0.1772
 6302SOL    HW230369   3.316   2.243   7.013  1.7582  0.0667 -0.2425
 6303SOL     OW30370   3.154   3.271  16.750 -0.8606 -0.4316 -0.0899
 6303SOL    HW130371   3.105   3.343  16.711 -1.2981  0.1337  1.5329
 6303SOL    HW230372   3.217   3.255  16.679  1.2390 -1.3827  1.9859
 6304SOL     OW30373   3.882   4.674   6.581  0.0319  0.0680  0.2575
 6304SOL    HW130374   3.890   4.583   6.611 -1.0051 -0.8895 -2.3427
 6304SOL    HW230375   3.794   4.678   6.543 -0.7463  1.1137  2.1921
 6305SOL     OW30376   2.662   0.934   4.472 -0.3024 -0.4512  0.7205
 6305SOL    HW130377   2.628   0.964   4.388  0.3424 -1.6816  0.0184
 6305SOL    HW230378   2.741   0.885   4.448  0.1717 -0.7168  2.7760
 6306SOL     OW30379   0.715   3.013  15.793 -0.1982 -0.1080 -0.1560
 6306SOL    HW130380   0.803   2.985  15.769 -0.1349 -0.6971  0.7580
 6306SOL    HW230381   0.679   2.924  15.798 -3.8480  1.3549 -0.0231
 6307SOL     OW30382   2.365   1.951   2.482  0.4353  0.1568  0.2910
 6307SOL    HW130383   2.450   1.949   2.525  0.8271  0.8434 -0.4641
 6307SOL    HW230384   2.345   1.857   2.487 -3.9084  0.8677 -2.7168
 6308SOL     OW30385   4.623   0.882   5.504  0.1916  0.1502  0.3411
 6308SOL    HW130386   4.586   0.875   5.416 -1.5089  0.5588  1.0230
 6308SOL    HW230387   4.631   0.790   5.530 -0.6758 -0.3627 -1.1705
 6309SOL     OW30388   1.848   1.792   5.066  0.2748 -0.2397 -0.3823
 6309SOL    HW130389   1.895   1.740   5.000  0.3685  1.1673 -1.4343
 6309SOL    HW230390   1.920   1.838   5.110  1.7250 -1.3471 -1.5964
 6310SOL     OW30391   2.359   0.174   5.023  0.0713 -0.3822 -0.7194
 6310SOL    HW130392   2.387   0.251   5.072 -2.7561  0.1973 -0.0613
 6310SOL    HW230393   2.413   0.115   5.076 -0.7679  0.8786  1.4858
 6311SOL     OW30394   1.114   4.607   8.843  0.0940  0.8190 -0.2175
 6311SOL    HW130395   1.083   4.526   8.802 -1.1686  1.9574 -1.5044
 6311SOL    HW230396   1.044   4.665   8.814  0.7683  1.0628 -1.3875
 6312SOL     OW30397   4.416   0.805   8.888  0.3350 -0.3445 -0.0119
 6312SOL    HW130398   4.478   0.796   8.815  0.8912  2.0071  0.1919
 6312SOL    HW230399   4.341   0.844   8.842 -0.1991 -1.5834 -0.2209
 6313SOL     OW30400   1.779   0.526  14.048 -0.1026  0.2263 -0.7887
 6313SOL    HW130401   1.781   0.563  13.960  1.8004  1.2099 -0.3300
 6313SOL    HW230402   1.824   0.590  14.103  0.4136 -1.0007  0.2068
 6314SOL     OW30403   0.317   0.856   6.798 -0.0403  0.2727 -0.2449
 6314SOL    HW130404   0.408   0.871   6.824 -0.0706  1.2305 -0.7049
 6314SOL    HW230405   0.277   0.931   6.842 -1.1324 -0.8512  0.6740
 6315SOL     OW30406   4.062   2.957  16.973 -0.7460 -0.0205  0.0855
 6315SOL    HW130407   3.990   2.898  16.951 -0.0165 -0.9254  0.1197
 6315SOL    HW230408   4.121   2.894  17.013 -0.2836  0.2254 -0.2010
 6316SOL     OW30409   2.302   2.802   9.199  0.0432 -0.1879  0.5192
 6316SOL    HW130410   2.277   2.882   9.244  0.6586  0.7202 -0.7464
 6316SOL    HW230411   2.386   2.777   9.238 -0.9588 -1.2147  2.0178
 6317SOL     OW30412   0.970   4.180   7.659  0.1071  0.1121  0.3935
 6317SOL    HW130413   0.996   4.088   7.666 -3.4773 -0.9689 -0.8588
 6317SOL    HW230414   0.906   4.179   7.589  0.5591 -1.2543  0.0054
 6318SOL     OW30415   1.245   0.296   2.742 -0.4296 -0.0205  0.0427
 6318SOL    HW130416   1.302   0.255   2.676  0.1612  2.1010 -0.7438
 6318SOL    HW230417   1.274   0.387   2.738  0.9771 -0.3735  2.3315
 6319SOL     OW30418   2.234   3.513   0.758 -0.1673  0.3110  0.7611
 6319SOL    HW130419   2.245   3.445   0.824  1.6242 -2.6642 -2.6446
 6319SOL    HW230420   2.299   3.579   0.780 -1.2816  0.4928  3.5246
 6320SOL     OW30421   1.689   3.425  15.448  0.0755  0.4526 -0.2512
 6320SOL    HW130422   1.608   3.437  15.497  0.6149 -0.5793  0.8887
 6320SOL    HW230423   1.662   3.476  15.372  0.1713  0.2857 -0.3985
 6321SOL     OW30424   2.906   4.246   7.387  0.0792 -0.3173 -0.4286
 6321SOL    HW130425   2.822   4.245   7.433 -0.7352  1.3260 -1.8801
 6321SOL    HW230426   2.943   4.320   7.435 -0.5108  0.5541 -1.3371
 6322SOL     OW30427   4.178   2.400  16.814  0.4534 -0.0048  0.1031
 6322SOL    HW130428   4.199   2.492  16.800 -2.2682  0.5791 -0.1793
 6322SOL    HW230429   4.082   2.399  16.806  0.4961 -0.2431 -0.4072
 6323SOL     OW30430   0.427   4.076   0.665 -0.2935  0.6168 -1.0257
 6323SOL    HW130431   0.352   4.134   0.681 -0.3345  0.5489 -0.9709
 6323SOL    HW230432   0.489   4.148   0.655 -0.1594  0.4748 -1.2038
 6324SOL     OW30433   3.986   3.957   7.896 -0.0212  0.0785  0.0209
 6324SOL    HW130434   3.963   4.050   7.899  2.0400  0.6049 -0.5083
 6324SOL    HW230435   3.900   3.923   7.872 -0.7619  2.8709 -1.3164
 6325SOL     OW30436   1.915   0.213   9.275 -0.1362 -0.2554 -0.3688
 6325SOL    HW130437   1.952   0.137   9.231  0.3405 -0.0159 -0.3811
 6325SOL    HW230438   1.850   0.157   9.319  0.0494  1.2311  1.8040
 6326SOL     OW30439   1.927   1.831  13.203  0.2657  0.1418  0.2590
 6326SOL    HW130440   1.843   1.867  13.176  1.5903  3.4931  0.6140
 6326SOL    HW230441   1.953   1.767  13.137  1.0388 -0.1648  0.8507
 6327SOL     OW30442   1.651   2.198  16.377  0.6862 -0.3222  0.4607
 6327SOL    HW130443   1.569   2.210  16.425  0.7708 -0.8092  0.7211
 6327SOL    HW230444   1.654   2.279  16.325 -0.3972 -1.9077 -2.0603
 6328SOL     OW30445   3.165   2.088  15.865  0.2545 -0.3762 -0.6852
 6328SOL    HW130446   3.145   2.054  15.778  0.3887 -1.2951 -0.3591
 6328SOL    HW230447   3.085   2.125  15.901  1.8722  2.3363  0.0937
 6329SOL     OW30448   2.964   0.649  17.045 -0.0981 -0.1355 -0.1515
 6329SOL    HW130449   3.003   0.578  16.994 -1.0552 -0.4663 -0.4199
 6329SOL    HW230450   3.033   0.709  17.016  0.2572 -1.0051 -1.1025
 6330SOL     OW30451   4.395   1.601   4.238 -0.8441  0.0375 -0.2522
 6330SOL    HW130452   4.313   1.553   4.248 -0.9468  0.6592  1.8353
 6330SOL    HW230453   4.454   1.561   4.301  1.1242  1.4832 -1.1893
 6331SOL     OW30454   1.188   2.661   3.150  0.1196 -0.5641 -0.5110
 6331SOL    HW130455   1.134   2.685   3.226 -0.7679 -2.0708 -0.6593
 6331SOL    HW230456   1.272   2.690   3.186 -0.2591 -0.5575  0.3709
 6332SOL     OW30457   0.455   4.014   2.852 -0.2800  0.8040  0.3101
 6332SOL    HW130458   0.410   3.956   2.790  2.5520 -2.7988  1.6150
 6332SOL    HW230459   0.483   3.945   2.912  1.3683  1.0479 -0.1737
 6333SOL     OW30460   0.845   1.673   2.702  0.3264  0.0271  0.0604
 6333SOL    HW130461   0.890   1.628   2.774 -0.9265  1.0975  1.5195
 6333SOL    HW230462   0.890   1.757   2.707 -3.2053  1.7826  1.7150
 6334SOL     OW30463   1.816   3.902   4.376  0.1704  0.3616  0.0014
 6334SOL    HW130464   1.888   3.859   4.422 -0.9285  1.0878  2.4148
 6334SOL    HW230465   1.751   3.891   4.445  0.6441  1.2401  0.5855
 6335SOL     OW30466   4.445   3.907   3.606 -0.1059  0.5679  0.0797
 6335SOL    HW130467   4.400   3.991   3.607 -2.1192 -0.5217  1.8441
 6335SOL    HW230468   4.536   3.936   3.596  0.0370  0.1903  0.2805
 6336SOL     OW30469   2.160   4.418  12.906 -0.6228 -0.5817  0.8107
 6336SOL    HW130470   2.078   4.406  12.954 -0.6776 -0.7952  0.6644
 6336SOL    HW230471   2.181   4.325  12.895  1.0714  0.0321 -1.2265
 6337SOL     OW30472   0.661   1.336   2.573  0.1466  0.0206  0.3912
 6337SOL    HW130473   0.680   1.245   2.548  0.9470  0.4016 -0.3815
 6337SOL    HW230474   0.707   1.368   2.495  3.3462 -1.2826  1.7405
 6338SOL     OW30475   2.991   3.080  11.344 -0.0463 -0.6257  0.0936
 6338SOL    HW130476   2.958   3.001  11.386  0.1924 -0.2516  1.0050
 6338SOL    HW230477   2.927   3.145  11.371  0.1965 -0.3461  0.0025
 6339SOL     OW30478   0.915   3.897   3.517  0.8877  0.4718  0.1567
 6339SOL    HW130479   0.988   3.920   3.573 -0.1325 -0.6093  1.9242
 6339SOL    HW230480   0.857   3.971   3.532 -0.4071 -0.6733  0.8500
 6340SOL     OW30481   1.308   3.269  10.123 -0.6372 -0.4842  0.2238
 6340SOL    HW130482   1.322   3.361  10.146  1.5805 -0.7625 -0.0545
 6340SOL    HW230483   1.376   3.223  10.172  0.4465 -0.7577 -1.5257
 6341SOL     OW30484   3.238   0.638  12.373  0.0041  0.3425 -0.4408
 6341SOL    HW130485   3.328   0.614  12.350  0.1029 -0.0112  0.3402
 6341SOL    HW230486   3.185   0.568  12.336  1.4734 -1.1884  0.3454
 6342SOL     OW30487   4.698   0.921   2.303 -0.5662 -0.4517 -0.0074
 6342SOL    HW130488   0.061   0.941   2.267 -0.2308  1.3858  1.7589
 6342SOL    HW230489   4.715   0.919   2.398  1.5573  0.0864 -0.3850
 6343SOL     OW30490   0.036   0.289   5.947 -0.4507 -0.1351 -0.4034
 6343SOL    HW130491   0.089   0.249   5.878  0.5879 -0.2072  0.4315
 6343SOL    HW230492   0.071   0.239   6.021  1.4585 -0.5107 -1.5656
 6344SOL     OW30493   2.473   0.132   8.747  0.1264  0.1584  0.0308
 6344SOL    HW130494   2.531   0.067   8.709 -0.3471 -0.5236  0.4643
 6344SOL    HW230495   2.384   0.102   8.727  0.8997 -0.2510 -2.7697
 6345SOL     OW30496   3.043   3.364   5.688 -0.1104  0.2636 -0.6629
 6345SOL    HW130497   3.131   3.343   5.721  0.8975 -0.0066 -3.5779
 6345SOL    HW230498   3.032   3.456   5.712 -0.0160 -0.4338  2.1037
 6346SOL     OW30499   4.149   3.440  15.204  0.0599 -0.7401  0.6938
 6346SOL    HW130500   4.217   3.468  15.265 -1.3565  0.9835  1.4859
 6346SOL    HW230501   4.075   3.417  15.261 -0.0432 -1.5862  0.2200
 6347SOL     OW30502   4.626   0.417   2.884 -0.2406 -0.3243  0.0704
 6347SOL    HW130503   4.659   0.495   2.929  1.5420 -1.7178  1.2061
 6347SOL    HW230504   4.673   0.427   2.802  0.9235  0.9197  0.8912
 6348SOL     OW30505   0.256   4.020   5.903 -0.0669 -0.1698 -0.6719
 6348SOL    HW130506   0.341   3.976   5.903  0.6087  1.1383 -2.0006
 6348SOL    HW230507   0.204   3.966   5.843  2.5342 -2.5197 -0.8113
 6349SOL     OW30508   3.675   2.404   5.363  0.1172  0.5012 -0.1339
 6349SOL    HW130509   3.636   2.376   5.446  1.5512 -2.2251 -0.3779
 6349SOL    HW230510   3.685   2.325   5.311  0.9737  0.0181  0.7701
 6350SOL     OW30511   2.235   1.209   7.632 -0.2375 -0.0710  0.0927
 6350SOL    HW130512   2.316   1.159   7.617  0.2118  0.5010  0.6315
 6350SOL    HW230513   2.212   1.171   7.716  1.0783 -1.3641 -0.1345
 6351SOL     OW30514   3.650   0.843   6.994 -0.7896 -0.2553 -0.4235
 6351SOL    HW130515   3.582   0.789   7.032 -1.0776 -0.1558 -0.8042
 6351SOL    HW230516   3.621   0.924   7.036  2.7102  0.3110  0.9015
 6352SOL     OW30517   4.555   0.471   4.937 -0.0151  0.3297 -0.6568
 6352SOL    HW130518   4.519   0.558   4.955 -1.4662 -0.2249 -0.8951
 6352SOL    HW230519   4.650   0.486   4.943  0.2667 -1.5620 -0.2945
 6353SOL     OW30520   3.619   2.032  11.267  0.2218  0.0006 -0.1441
 6353SOL    HW130521   3.533   2.038  11.225  0.9657  0.9502 -1.5167
 6353SOL    HW230522   3.614   2.091  11.342 -1.4284 -2.0814  1.3762
 6354SOL     OW30523   1.270   2.936   5.924  0.2161 -0.0175 -0.1954
 6354SOL    HW130524   1.279   2.842   5.940  2.5350 -0.0900 -1.8262
 6354SOL    HW230525   1.342   2.976   5.973 -0.3451  1.4331 -0.5678
 6355SOL     OW30526   3.705   0.827   7.423 -0.4549 -0.0995  0.5745
 6355SOL    HW130527   3.720   0.845   7.330 -3.6457 -0.4521  0.0019
 6355SOL    HW230528   3.617   0.864   7.433  0.3445  3.1134 -4.3092
 6356SOL     OW30529   4.030   3.592   3.310  0.2303  0.6347  0.8621
 6356SOL    HW130530   3.986   3.574   3.227 -0.3789  0.3382  1.2500
 6356SOL    HW230531   4.116   3.597   3.268  0.5611  1.3840  1.6367
 6357SOL     OW30532   0.774   2.969   9.316  0.3691 -0.2731 -0.5667
 6357SOL    HW130533   0.814   3.051   9.345  0.9356 -0.7670  0.0501
 6357SOL    HW230534   0.701   3.002   9.263  0.8017  2.4369  0.5367
 6358SOL     OW30535   2.273   2.763   4.038 -0.3333  0.3100 -0.3820
 6358SOL    HW130536   2.350   2.776   4.094 -0.4288  1.5619 -0.5341
 6358SOL    HW230537   2.309   2.757   3.949  0.7854 -1.0061  0.1706
 6359SOL     OW30538   0.313   1.469   9.395 -0.4296 -0.1585  0.3960
 6359SOL    HW130539   0.274   1.504   9.315  0.2816  1.8638  0.9294
 6359SOL    HW230540   0.264   1.389   9.415 -1.8076  0.3423 -1.0498
 6360SOL     OW30541   0.799   0.243   3.372 -0.8164  0.4859  0.1784
 6360SOL    HW130542   0.726   0.299   3.397 -0.5231  1.3315 -0.8517
 6360SOL    HW230543   0.794   0.171   3.435 -0.7189  0.5687  0.2813
 6361SOL     OW30544   4.484   2.645   7.409 -0.4354 -0.6688 -0.5547
 6361SOL    HW130545   4.440   2.576   7.458  0.8516  0.7024  2.5251
 6361SOL    HW230546   4.479   2.606   7.321  2.8184  0.1658 -1.1167
 6362SOL     OW30547   1.095   3.376   3.476 -0.4612 -0.5159  0.0687
 6362SOL    HW130548   1.115   3.285   3.454 -0.2998  0.3998 -3.6086
 6362SOL    HW230549   1.136   3.422   3.403 -2.8919  1.6120  0.0721
 6363SOL     OW30550   2.884   3.634   9.327 -0.3241 -0.3282  0.2180
 6363SOL    HW130551   2.896   3.728   9.310 -0.8309 -0.3446 -0.2156
 6363SOL    HW230552   2.804   3.618   9.278 -0.9836  1.7495  0.5913
 6364SOL     OW30553   4.267   3.924  13.144  0.6327  0.0253 -0.1901
 6364SOL    HW130554   4.357   3.931  13.176  1.5232 -0.5422 -2.6542
 6364SOL    HW230555   4.228   4.002  13.184  2.4068 -1.2095  3.9655
 6365SOL     OW30556   2.187   1.432  10.921  0.2963 -0.0797  0.3569
 6365SOL    HW130557   2.156   1.383  10.997  1.5943  0.0523  0.9798
 6365SOL    HW230558   2.144   1.389  10.847  2.7325 -1.2630 -0.3725
 6366SOL     OW30559   4.202   4.652   8.555  0.5634  0.6978 -0.1261
 6366SOL    HW130560   4.277   4.646   8.614  0.3360 -1.5239 -0.0724
 6366SOL    HW230561   4.141   4.677   8.624 -1.6874 -1.0041 -1.5224
 6367SOL     OW30562   2.899   1.069   7.949  0.6786  1.0495  0.1593
 6367SOL    HW130563   2.852   1.127   7.888  0.5289  0.0630 -0.6709
 6367SOL    HW230564   2.849   1.061   8.030 -1.0755  2.8557 -0.7469
 6368SOL     OW30565   3.082   1.942  10.609  0.1014 -0.7551 -0.4217
 6368SOL    HW130566   3.079   1.938  10.705 -2.4071  0.2263 -0.4510
 6368SOL    HW230567   3.022   2.011  10.581  1.6127 -0.2251 -2.3517
 6369SOL     OW30568   0.981   1.204  13.768  0.5475 -0.1850 -0.0105
 6369SOL    HW130569   0.992   1.113  13.797 -3.4468  0.0114  2.1472
 6369SOL    HW230570   0.885   1.212  13.770  0.6243  0.5699  0.6079
 6370SOL     OW30571   3.146   3.062  16.162  0.4041  0.8380  0.0740
 6370SOL    HW130572   3.056   3.057  16.130 -0.0398  2.1948  1.1191
 6370SOL    HW230573   3.130   3.060  16.256 -2.2972 -0.3555 -0.4089
 6371SOL     OW30574   2.172   1.470   6.660  0.1848  0.1313  0.1900
 6371SOL    HW130575   2.097   1.495   6.714  0.8736  2.5508  0.0011
 6371SOL    HW230576   2.227   1.548   6.664  1.2819 -0.5307 -2.0865
 6372SOL     OW30577   0.715   0.165   4.669 -0.0915  0.3778  0.1479
 6372SOL    HW130578   0.638   0.221   4.664 -2.3217 -2.6805  0.2278
 6372SOL    HW230579   0.753   0.183   4.583  2.3756 -0.3086  1.0926
 6373SOL     OW30580   0.905   1.904   1.999  0.3749 -0.0457  0.2507
 6373SOL    HW130581   0.841   1.904   1.927 -1.9428 -1.2389  2.2923
 6373SOL    HW230582   0.969   1.841   1.964 -2.0263 -2.3138 -0.1134
 6374SOL     OW30583   2.023   2.945  11.393 -0.2970  0.2848  0.0353
 6374SOL    HW130584   2.017   3.003  11.317  0.8336  1.5466  0.9178
 6374SOL    HW230585   1.939   2.961  11.435  0.0217  1.5568  0.1678
 6375SOL     OW30586   4.234   2.601  12.140 -0.5613 -0.6744  0.3858
 6375SOL    HW130587   4.165   2.603  12.206 -1.1750 -3.1089 -0.2106
 6375SOL    HW230588   4.186   2.568  12.065 -0.4991  1.0690 -0.4231
 6376SOL     OW30589   2.707   0.496  16.699  0.0309  0.2064  0.1717
 6376SOL    HW130590   2.721   0.528  16.788 -1.9007  0.0421  0.5234
 6376SOL    HW230591   2.793   0.455  16.687 -0.6970 -1.2640 -0.1184
 6377SOL     OW30592   3.983   2.606   0.712  0.2477 -0.2901 -0.3584
 6377SOL    HW130593   3.991   2.518   0.747 -1.6035 -0.5767 -0.6648
 6377SOL    HW230594   3.991   2.653   0.794 -1.6213 -0.6011 -0.0078
 6378SOL     OW30595   3.369   1.740   5.939 -0.9418  0.1258 -0.0441
 6378SOL    HW130596   3.296   1.773   5.885 -0.4590 -1.6417 -1.7675
 6378SOL    HW230597   3.364   1.646   5.924 -1.8803 -0.3191  3.1088
 6379SOL     OW30598   2.401   2.000   1.187 -0.0040  0.7892 -0.6895
 6379SOL    HW130599   2.317   2.035   1.160 -0.1073  1.1060  0.0269
 6379SOL    HW230600   2.404   1.918   1.138 -0.2972 -0.6916  1.7622
 6380SOL     OW30601   4.456   4.070   2.789 -0.1537  0.1472 -0.5391
 6380SOL    HW130602   4.478   4.117   2.708  1.1329  0.1215 -0.1988
 6380SOL    HW230603   4.360   4.063   2.783 -0.0517 -0.4420 -1.4665
 6381SOL     OW30604   1.637   4.501   7.518 -0.2114  0.4551  0.9173
 6381SOL    HW130605   1.643   4.462   7.605  2.0114  0.1072  0.6142
 6381SOL    HW230606   1.549   4.537   7.513  0.1807  1.2018 -0.4421
 6382SOL     OW30607   0.679   3.426  16.920  0.0933 -0.1296 -0.3408
 6382SOL    HW130608   0.645   3.340  16.944  1.0943 -0.3636  0.2459
 6382SOL    HW230609   0.717   3.400  16.835  0.5665  1.2808 -0.5553
 6383SOL     OW30610   1.734   0.235   9.877  0.3235 -0.6064  0.5065
 6383SOL    HW130611   1.676   0.306   9.850 -0.6477 -1.1172  1.2833
 6383SOL    HW230612   1.761   0.181   9.802 -1.2579 -1.4857  0.5796
 6384SOL     OW30613   1.020   4.339   4.107  0.4090  0.2655  0.0748
 6384SOL    HW130614   1.065   4.362   4.189 -0.0649  0.8916  0.1605
 6384SOL    HW230615   0.953   4.291   4.155  1.5907 -0.8941  0.5766
 6385SOL     OW30616   3.742   1.252   5.198 -0.5282  0.6472  0.8261
 6385SOL    HW130617   3.784   1.338   5.206 -1.5248  1.2428 -0.2339
 6385SOL    HW230618   3.651   1.282   5.205 -0.2463  1.6864  0.0473
 6386SOL     OW30619   0.941   3.888  16.180 -0.2458 -0.2591  0.6897
 6386SOL    HW130620   0.947   3.982  16.160 -0.0156  0.1268  2.6342
 6386SOL    HW230621   0.893   3.894  16.262  0.3603 -1.0442  1.0985
 6387SOL     OW30622   3.478   0.078   5.413  0.1976  0.4138 -0.3718
 6387SOL    HW130623   3.408   0.110   5.355 -0.2869 -2.2930 -1.2925
 6387SOL    HW230624   3.430   0.045   5.489  1.5578  2.1088  1.2169
 6388SOL     OW30625   2.229   2.460   3.611 -0.3613  0.2413  0.4753
 6388SOL    HW130626   2.217   2.466   3.516 -0.1968 -1.2175  0.3619
 6388SOL    HW230627   2.140   2.455   3.646 -0.8071  2.8518 -0.2820
 6389SOL     OW30628   1.837   0.449  13.428 -0.2363 -0.3995  0.1069
 6389SOL    HW130629   1.912   0.471  13.373 -0.0320  0.9368  0.9175
 6389SOL    HW230630   1.770   0.424  13.364 -1.1736  0.7923  0.6251
 6390SOL     OW30631   2.128   0.039   5.070  0.5185 -0.5907  0.1542
 6390SOL    HW130632   2.192   0.088   5.019 -0.9279  0.8413 -0.2947
 6390SOL    HW230633   2.143   0.060   5.162 -0.0090  0.0122  0.1065
 6391SOL     OW30634   3.185   4.069   0.126  0.2545  0.6402 -0.3505
 6391SOL    HW130635   3.115   4.096   0.186  0.4309 -0.2034  0.2439
 6391SOL    HW230636   3.242   4.038   0.196 -1.6637  2.9239  2.2453
 6392SOL     OW30637   1.982   4.053  11.650  0.2466 -0.7833 -0.2835
 6392SOL    HW130638   2.017   4.008  11.573  1.0727  0.7316 -0.7999
 6392SOL    HW230639   1.891   4.051  11.621  0.6180 -1.1693 -1.4293
 6393SOL     OW30640   0.763   2.253   6.175 -0.4076  0.4694  0.6537
 6393SOL    HW130641   0.752   2.161   6.148 -0.6936  0.7355 -0.1315
 6393SOL    HW230642   0.853   2.259   6.142 -0.0942 -0.2940  1.3687
 6394SOL     OW30643   2.715   0.135  17.680 -0.6628 -0.4181 -0.2186
 6394SOL    HW130644   2.620   0.145  17.677 -0.7210 -0.7651  0.3063
 6394SOL    HW230645   2.733   0.174   0.073  1.9395 -0.1674 -0.8745
 6395SOL     OW30646   1.090   4.515   2.712  0.0332  0.1209 -0.1545
 6395SOL    HW130647   1.135   4.569   2.776  1.3236 -1.2756  0.1121
 6395SOL    HW230648   0.999   4.546   2.713 -0.3727 -1.0895  1.6429
 6396SOL     OW30649   2.316   1.454   3.219 -0.1836 -0.5061 -0.6017
 6396SOL    HW130650   2.399   1.411   3.240  0.1910  0.2462 -0.5609
 6396SOL    HW230651   2.264   1.374   3.210 -0.5618 -0.4122  0.7706
 6397SOL     OW30652   2.045   3.926   0.371 -0.1291 -0.2104 -0.5044
 6397SOL    HW130653   2.075   4.002   0.421 -0.6992  0.4850 -1.2257
 6397SOL    HW230654   1.975   3.969   0.323  0.4239  0.6384 -0.5469
 6398SOL     OW30655   1.975   3.668   8.087 -0.0957 -0.3327 -0.4983
 6398SOL    HW130656   1.919   3.679   8.164  0.6990  1.0066 -0.1165
 6398SOL    HW230657   1.997   3.575   8.079  2.0322  0.0575  0.9672
 6399SOL     OW30658   3.055   0.096   7.610  0.3020  0.2343 -0.3193
 6399SOL    HW130659   3.052   0.052   7.525  2.6994 -1.8826  0.7108
 6399SOL    HW230660   2.983   0.056   7.659  0.3144 -1.4893 -1.7021
 6400SOL     OW30661   2.678   3.524   6.166 -0.0805 -0.1280 -0.3587
 6400SOL    HW130662   2.694   3.447   6.111 -0.3599  1.4859 -2.6986
 6400SOL    HW230663   2.642   3.473   6.239 -0.7676  2.5417  1.1470
 6401SOL     OW30664   1.891   2.643   2.482 -0.9244 -0.2712  0.2334
 6401SOL    HW130665   1.930   2.570   2.433 -1.6744 -0.6061  0.1319
 6401SOL    HW230666   1.947   2.639   2.560  0.5397 -0.1296 -0.8113
 6402SOL     OW30667   3.655   2.440  17.292  0.0665  0.2650  0.0421
 6402SOL    HW130668   3.612   2.419  17.374 -0.6293  3.7083  0.5415
 6402SOL    HW230669   3.640   2.354  17.252 -2.0443  1.1823 -1.1296
 6403SOL     OW30670   2.004   1.218   6.791  0.2886 -0.1128  0.1183
 6403SOL    HW130671   2.020   1.231   6.698  0.3059  0.9944  0.2755
 6403SOL    HW230672   2.068   1.280   6.824 -0.6239  1.3242 -0.8315
 6404SOL     OW30673   2.197   4.038   8.339 -0.1070  0.2858  0.6445
 6404SOL    HW130674   2.216   4.032   8.245 -1.4730 -1.3411  0.4690
 6404SOL    HW230675   2.103   4.019   8.334 -0.0263 -0.8001  2.9624
 6405SOL     OW30676   2.002   0.680   6.679  0.6871  0.2748  0.5723
 6405SOL    HW130677   1.991   0.773   6.698 -0.0248  0.4217 -0.5452
 6405SOL    HW230678   2.076   0.689   6.619 -0.6639 -2.8521 -1.5904
 6406SOL     OW30679   2.873   0.657   4.697  0.3993 -0.4077  0.0865
 6406SOL    HW130680   2.948   0.598   4.702  0.5379 -0.1042  1.4864
 6406SOL    HW230681   2.837   0.627   4.614  1.0462  0.4657 -0.5202
 6407SOL     OW30682   2.100   2.238  15.238 -0.2321  0.6385  0.1898
 6407SOL    HW130683   2.073   2.292  15.164 -2.0834  0.1962  0.5560
 6407SOL    HW230684   2.056   2.284  15.310  0.9680  2.9267 -0.5226
 6408SOL     OW30685   4.031   1.366   7.538  0.1981 -0.5360  0.2817
 6408SOL    HW130686   4.008   1.295   7.598  1.4374  0.4251  1.9043
 6408SOL    HW230687   4.013   1.440   7.596  2.9213 -0.4115  0.9651
 6409SOL     OW30688   4.105   1.380  16.131 -0.7942  0.0332  0.0554
 6409SOL    HW130689   4.155   1.448  16.086 -1.0482 -0.0955 -0.4201
 6409SOL    HW230690   4.049   1.440  16.181 -0.3484 -0.0046  0.6044
 6410SOL     OW30691   4.659   0.131  16.797  0.6731 -0.4423 -0.5048
 6410SOL    HW130692   4.597   0.203  16.806  0.2674 -0.7559 -0.7874
 6410SOL    HW230693   4.700   0.161  16.716 -0.7335 -0.6718 -1.3104
 6411SOL     OW30694   3.434   2.614   9.981  0.7665 -0.3322 -0.5926
 6411SOL    HW130695   3.462   2.627  10.072 -1.4106  0.4970 -0.0296
 6411SOL    HW230696   3.377   2.691   9.974  0.5629 -0.3132  1.2101
 6412SOL     OW30697   4.677   0.388   1.243 -0.1000  0.0121 -0.2944
 6412SOL    HW130698   4.644   0.302   1.269  1.6232 -1.0111 -1.4186
 6412SOL    HW230699   4.679   0.372   1.148  1.5575  1.9931 -0.5974
 6413SOL     OW30700   0.690   1.047   5.107  0.0307 -0.1454  0.4970
 6413SOL    HW130701   0.690   1.125   5.162  0.8911 -0.0516  0.3674
 6413SOL    HW230702   0.686   0.977   5.172 -2.3804  2.4004  3.0225
 6414SOL     OW30703   4.214   2.853   5.408  0.2786  0.0143 -0.0564
 6414SOL    HW130704   4.218   2.820   5.497  2.1815  1.5881  0.4622
 6414SOL    HW230705   4.220   2.947   5.429 -2.0445  0.1221  0.1432
 6415SOL     OW30706   0.217   2.126   2.252 -0.0264 -0.6236  0.3081
 6415SOL    HW130707   0.182   2.101   2.338 -2.1022 -3.1964 -1.2753
 6415SOL    HW230708   0.296   2.072   2.247  1.1982  1.0957  1.1760
 6416SOL     OW30709   2.642   1.503   3.851 -0.3426 -0.6110  0.2643
 6416SOL    HW130710   2.590   1.462   3.783 -0.1506 -1.1608  0.4486
 6416SOL    HW230711   2.571   1.542   3.902 -0.5393 -1.9517  1.0021
 6417SOL     OW30712   4.390   2.528   9.497  0.5131 -0.5361  0.1884
 6417SOL    HW130713   4.308   2.488   9.470  0.2415 -0.7079  1.2864
 6417SOL    HW230714   4.399   2.594   9.429  3.3444 -0.5172  0.5747
 6418SOL     OW30715   3.361   4.300  10.609  0.8575 -0.3125  0.2038
 6418SOL    HW130716   3.435   4.257  10.567  0.1211 -0.3608 -1.0756
 6418SOL    HW230717   3.288   4.257  10.564 -0.9826 -0.0705  2.9245
 6419SOL     OW30718   3.586   0.881   4.078  0.1013 -0.5732 -0.1285
 6419SOL    HW130719   3.632   0.917   4.002  1.8247  0.9744  1.6477
 6419SOL    HW230720   3.535   0.818   4.027 -0.6497  0.5690 -0.7905
 6420SOL     OW30721   0.201   1.761   8.861 -0.9616 -0.2643 -0.3074
 6420SOL    HW130722   0.231   1.686   8.810 -0.3751  0.5457 -1.1504
 6420SOL    HW230723   0.194   1.726   8.950 -1.0270 -1.8873 -0.9384
 6421SOL     OW30724   3.044   2.135   0.480  0.9365 -0.2436 -0.4446
 6421SOL    HW130725   3.114   2.191   0.447  0.2505  1.4500  0.9950
 6421SOL    HW230726   3.059   2.064   0.417  2.3364  1.1225 -1.6312
 6422SOL     OW30727   0.076   2.388   4.010 -0.4560 -0.4216 -0.0520
 6422SOL    HW130728   0.017   2.432   3.950 -1.9930  0.5243  2.1724
 6422SOL    HW230729   0.151   2.446   3.998 -1.5611  0.8220 -0.8057
 6423SOL     OW30730   1.407   1.802   0.342  0.2118  0.1206  1.0259
 6423SOL    HW130731   1.346   1.746   0.294 -0.3329  0.1972  1.6298
 6423SOL    HW230732   1.433   1.865   0.275 -0.8461 -1.5165 -0.8932
 6424SOL     OW30733   3.480   0.368   6.350 -0.2182  0.1941  0.2095
 6424SOL    HW130734   3.554   0.342   6.296  1.2132  0.3406  2.0884
 6424SOL    HW230735   3.531   0.423   6.410 -1.6992  0.9719  0.7702
 6425SOL     OW30736   2.543   0.365   0.368 -0.3835 -0.3502  0.0265
 6425SOL    HW130737   2.476   0.357   0.436  1.3842  1.4639  1.9757
 6425SOL    HW230738   2.544   0.460   0.360 -0.8727 -0.1325  2.6796
 6426SOL     OW30739   0.291   0.686   8.848  0.3972 -0.4177  0.5031
 6426SOL    HW130740   0.244   0.768   8.862  0.3237 -0.6181  1.4078
 6426SOL    HW230741   0.373   0.699   8.896  1.7671 -0.7917 -1.6812
 6427SOL     OW30742   0.231   0.392   4.484  0.0894 -0.4402 -0.1091
 6427SOL    HW130743   0.179   0.408   4.405  0.8793  1.5145 -0.2372
 6427SOL    HW230744   0.166   0.377   4.553 -0.0560  2.1741  0.3279
 6428SOL     OW30745   1.821   2.319   6.718 -0.4067 -0.5035  0.6824
 6428SOL    HW130746   1.826   2.394   6.777 -0.9213  0.0041  0.0718
 6428SOL    HW230747   1.834   2.365   6.636 -2.0771 -1.3707 -0.0687
 6429SOL     OW30748   0.073   3.193   4.519  0.9138  0.3866 -0.1003
 6429SOL    HW130749   0.028   3.278   4.517  0.2566  0.0901  1.8598
 6429SOL    HW230750   0.150   3.224   4.567  1.1031 -1.9248  1.0704
 6430SOL     OW30751   4.148   3.706   6.931  0.4308  0.0948  0.0037
 6430SOL    HW130752   4.184   3.630   6.976  1.4447  0.9694  0.6793
 6430SOL    HW230753   4.082   3.733   6.995  0.5155 -0.8994  0.5032
 6431SOL     OW30754   2.761   0.020   6.545  0.4642 -0.4583 -0.4018
 6431SOL    HW130755   2.796   0.027   6.456  0.4924 -1.4678 -0.4693
 6431SOL    HW230756   2.681   0.070   6.534  1.7073  1.0568 -2.4914
 6432SOL     OW30757   2.690   2.744   7.186  0.4739 -0.9024 -0.5488
 6432SOL    HW130758   2.632   2.812   7.220 -0.2088 -2.5305  1.5171
 6432SOL    HW230759   2.656   2.737   7.096  0.6131 -0.0945 -0.6607
 6433SOL     OW30760   1.750   4.231   5.194  0.1117 -0.1437  0.1987
 6433SOL    HW130761   1.711   4.205   5.277  0.0060 -0.2519  0.1159
 6433SOL    HW230762   1.696   4.308   5.175  0.0282  0.1099  1.4849
 6434SOL     OW30763   1.420   2.543   9.740 -0.6917  0.1846 -0.0834
 6434SOL    HW130764   1.502   2.494   9.740 -0.9604 -0.2765  1.3177
 6434SOL    HW230765   1.398   2.540   9.647  1.1879  0.6205 -0.5338
 6435SOL     OW30766   2.078   4.525  11.745 -0.3756 -0.4255  0.2051
 6435SOL    HW130767   2.153   4.563  11.699  0.5656 -0.7112  1.4983
 6435SOL    HW230768   2.064   4.450  11.687 -0.5036  0.8230 -1.4106
 6436SOL     OW30769   1.523   2.684  15.324  0.0365  0.3927 -0.0864
 6436SOL    HW130770   1.596   2.626  15.304  0.9115  1.3963  0.2179
 6436SOL    HW230771   1.550   2.737  15.399 -2.3542  0.2121  0.9061
 6437SOL     OW30772   4.680   4.534   9.199 -0.4559 -0.3905  0.0425
 6437SOL    HW130773   4.711   4.623   9.219 -1.0789  0.0789 -1.0733
 6437SOL    HW230774   4.600   4.539   9.251 -0.3945 -1.0588  0.1971
 6438SOL     OW30775   3.721   2.623   3.246 -0.1794  0.0349  0.3478
 6438SOL    HW130776   3.668   2.545   3.230  2.0216 -1.4529  0.2708
 6438SOL    HW230777   3.688   2.650   3.332 -2.0389 -2.0526  0.3161
 6439SOL     OW30778   1.764   2.430   8.104  0.0318  0.3138  0.6037
 6439SOL    HW130779   1.691   2.413   8.165  0.8562 -3.4571  0.5027
 6439SOL    HW230780   1.735   2.379   8.029 -2.4485  3.5090 -0.5915
 6440SOL     OW30781   2.922   3.944   0.070  0.3321  0.4419 -0.0978
 6440SOL    HW130782   2.843   3.897   0.042  1.4912 -1.2184 -0.5241
 6440SOL    HW230783   2.952   3.893   0.145  1.4090 -1.9975 -2.1791
 6441SOL     OW30784   3.637   4.043   5.702 -0.5357 -0.4104 -0.7647
 6441SOL    HW130785   3.542   4.048   5.691 -0.7733  2.5321  2.4761
 6441SOL    HW230786   3.647   4.130   5.742 -0.4044 -0.6853 -0.1983
 6442SOL     OW30787   3.895   3.306  14.262 -0.7674  0.1979 -0.0305
 6442SOL    HW130788   3.940   3.224  14.241 -0.7547  0.2640 -0.2567
 6442SOL    HW230789   3.957   3.361  14.309 -1.0019 -1.5733  2.3509
 6443SOL     OW30790   1.265   2.524   2.829  0.3360  0.1271  0.5924
 6443SOL    HW130791   1.320   2.534   2.750  0.0449 -0.5768  0.2994
 6443SOL    HW230792   1.194   2.588   2.832  0.5406  0.3139  1.4286
 6444SOL     OW30793   3.171   1.838  17.530  0.1734 -0.5267  0.3427
 6444SOL    HW130794   3.111   1.898  17.572  1.3760  1.0636 -0.1898
 6444SOL    HW230795   3.151   1.874  17.444 -0.8223  0.0489  0.8244
 6445SOL     OW30796   4.086   4.650   6.904  0.4680 -0.2845  0.0961
 6445SOL    HW130797   4.161   4.694   6.864 -0.0095 -0.4504 -0.9789
 6445SOL    HW230798   4.118   4.628   6.991 -0.5285  0.1841  0.5796
 6446SOL     OW30799   1.491   1.903   4.368 -0.3327 -0.1913  0.5406
 6446SOL    HW130800   1.561   1.965   4.390  0.6330 -1.1852  0.2502
 6446SOL    HW230801   1.541   1.846   4.309  0.6989  0.9801  0.2623
 6447SOL     OW30802   3.530   3.698   7.242 -0.2719 -0.2123 -0.7646
 6447SOL    HW130803   3.457   3.757   7.261  1.0208  1.8666 -2.1546
 6447SOL    HW230804   3.566   3.752   7.171 -0.0629  0.0919 -0.4322
 6448SOL     OW30805   2.186   3.774   9.386 -0.6272  0.0598  0.3376
 6448SOL    HW130806   2.146   3.723   9.316  0.4834 -0.1980 -0.1101
 6448SOL    HW230807   2.149   3.861   9.366  0.5135  0.3048 -0.6652
 6449SOL     OW30808   4.177   1.124  16.559  0.1945 -0.0895 -0.0881
 6449SOL    HW130809   4.100   1.078  16.525 -0.2341 -0.6367  1.6324
 6449SOL    HW230810   4.171   1.215  16.530 -2.1253 -0.3993 -0.6260
 6450SOL     OW30811   3.110   2.114  15.062 -0.3786  0.0973 -0.9128
 6450SOL    HW130812   3.088   2.146  15.149  0.2993 -0.9778 -0.3481
 6450SOL    HW230813   3.183   2.054  15.078 -1.9547 -1.7454 -0.7052
 6451SOL     OW30814   3.162   2.434  14.403  0.7023 -0.3079  0.4541
 6451SOL    HW130815   3.081   2.394  14.373  0.2109  1.7791 -1.0110
 6451SOL    HW230816   3.132   2.516  14.442  1.6194 -0.0487  0.6298
 6452SOL     OW30817   0.266   0.630   8.187  0.1134  0.3099  0.0294
 6452SOL    HW130818   0.350   0.595   8.157 -0.0441 -1.2852  1.3947
 6452SOL    HW230819   0.225   0.672   8.112  1.0494  1.3884  0.1163
 6453SOL     OW30820   0.831   2.007  13.566  0.2510 -0.3854 -0.4922
 6453SOL    HW130821   0.830   2.102  13.581  0.3324 -0.6041  0.8836
 6453SOL    HW230822   0.923   2.000  13.540  0.6707  0.2228  0.8114
 6454SOL     OW30823   0.914   4.120   4.853  0.2742 -0.0895 -0.0091
 6454SOL    HW130824   0.928   4.115   4.948  0.8324  0.6701 -0.0500
 6454SOL    HW230825   0.862   4.039   4.847  0.5517 -0.1820 -1.1836
 6455SOL     OW30826   4.441   2.774   4.415  0.2732  0.7486 -0.0662
 6455SOL    HW130827   4.389   2.707   4.460  0.6607 -0.3085 -1.1774
 6455SOL    HW230828   4.452   2.840   4.483 -1.8661  1.8562 -0.7865
 6456SOL     OW30829   4.443   1.241   4.563 -0.0567 -0.1237 -0.2508
 6456SOL    HW130830   4.425   1.280   4.648  0.1180 -0.0860 -0.2307
 6456SOL    HW230831   4.476   1.155   4.591  1.2227 -0.2698 -2.2179
 6457SOL     OW30832   0.761   4.068   1.914 -0.1526  0.2412 -0.4050
 6457SOL    HW130833   0.718   4.032   1.992 -2.1099  0.7888 -1.2631
 6457SOL    HW230834   0.849   4.034   1.935  0.3001  0.4765 -1.9113
 6458SOL     OW30835   2.972   2.776  16.179 -0.4319  0.1747  0.4833
 6458SOL    HW130836   2.961   2.853  16.234 -0.8464 -1.2338  2.3603
 6458SOL    HW230837   3.067   2.764  16.175 -0.5683 -0.1099 -2.2476
 6459SOL     OW30838   4.077   1.598   7.334  0.4270 -0.6622 -0.2008
 6459SOL    HW130839   4.130   1.649   7.273  0.6882 -0.4853  0.1788
 6459SOL    HW230840   4.121   1.612   7.418  0.2872 -1.5085  0.0113
 6460SOL     OW30841   4.168   1.026   3.781  0.6304 -0.3482  0.3825
 6460SOL    HW130842   4.207   1.079   3.851 -2.1467  0.2084  1.4893
 6460SOL    HW230843   4.080   1.013   3.815  0.3228 -1.5310 -0.8687
 6461SOL     OW30844   1.228   2.462   1.158  0.2478  0.6446 -0.2236
 6461SOL    HW130845   1.262   2.375   1.181 -2.1645 -1.3608 -4.3574
 6461SOL    HW230846   1.271   2.505   1.232  1.2587  1.3718 -1.2333
 6462SOL     OW30847   1.051   2.021   3.812  0.2714 -0.0831 -0.5471
 6462SOL    HW130848   1.024   1.935   3.778 -1.0194  0.1292 -0.0557
 6462SOL    HW230849   1.071   1.997   3.902  2.2393  0.3363 -0.8852
 6463SOL     OW30850   4.023   1.608   6.885 -0.5158 -0.6288 -0.2154
 6463SOL    HW130851   3.928   1.599   6.890 -0.5906  1.2456  1.5151
 6463SOL    HW230852   4.034   1.698   6.914 -1.2574  0.4521 -3.2164
 6464SOL     OW30853   3.147   1.878   6.748 -0.2593 -0.1628  0.3022
 6464SOL    HW130854   3.058   1.871   6.713  0.5110  0.8099 -1.8207
 6464SOL    HW230855   3.138   1.822   6.826  1.5148  0.8010  1.1869
 6465SOL     OW30856   1.574   1.556   7.959 -0.3736 -0.2774  0.1829
 6465SOL    HW130857   1.654   1.572   7.909  0.5998  1.0703  2.1215
 6465SOL    HW230858   1.588   1.467   7.989 -0.0756 -0.3264 -0.1034
 6466SOL     OW30859   0.439   1.426   5.233 -0.5594 -0.1302 -0.2270
 6466SOL    HW130860   0.361   1.371   5.225  0.7114 -1.8197 -1.2002
 6466SOL    HW230861   0.481   1.417   5.147 -1.3908  0.6145 -0.7137
 6467SOL     OW30862   2.450   3.210   7.202 -0.4649  0.0955 -0.5162
 6467SOL    HW130863   2.506   3.287   7.214  0.4836 -0.8499  1.1961
 6467SOL    HW230864   2.371   3.262   7.188  1.5615  3.2619 -0.1576
 6468SOL     OW30865   4.722   2.253   4.855  0.1581  1.2548 -0.0839
 6468SOL    HW130866   4.713   2.158   4.851 -3.8490  1.5711  2.2555
 6468SOL    HW230867   4.706   2.274   4.947  0.1076  1.6140 -0.1765
 6469SOL     OW30868   3.921   0.849   0.736 -0.5736 -0.0798  0.3601
 6469SOL    HW130869   3.841   0.899   0.750 -0.9234  0.0333 -2.0059
 6469SOL    HW230870   3.921   0.852   0.640  1.5764  0.0268  0.3646
 6470SOL     OW30871   4.607   2.032   0.412  0.2988 -0.5169  0.3307
 6470SOL    HW130872   4.684   1.977   0.400  0.2896  0.0133 -2.1225
 6470SOL    HW230873   4.628   2.081   0.332  1.0852 -0.5273  0.5397
 6471SOL     OW30874   2.680   0.451   2.826 -0.3534  0.2725  0.5757
 6471SOL    HW130875   2.637   0.516   2.882  1.1126  0.2903  1.6763
 6471SOL    HW230876   2.669   0.480   2.735  2.9198  0.7309  0.3414
 6472SOL     OW30877   1.270   2.832  11.747 -0.1396 -0.1548 -0.3375
 6472SOL    HW130878   1.354   2.853  11.705  0.5769  0.0970  1.2155
 6472SOL    HW230879   1.276   2.747  11.791  3.6319  0.7733  0.9723
 6473SOL     OW30880   0.817   3.539   7.492 -0.3763 -0.2744  0.3313
 6473SOL    HW130881   0.873   3.489   7.432 -1.5483  0.4741 -1.3983
 6473SOL    HW230882   0.729   3.522   7.456 -1.3802  2.4210  1.5298
 6474SOL     OW30883   1.578   1.686   9.714 -0.4823 -0.1966  0.0709
 6474SOL    HW130884   1.516   1.673   9.786 -0.1423 -0.9368  0.2260
 6474SOL    HW230885   1.601   1.775   9.742 -3.4150  1.0257 -1.4138
 6475SOL     OW30886   3.258   2.857   2.746  0.1800  0.5803  0.0231
 6475SOL    HW130887   3.302   2.781   2.709  1.0039  0.2154  1.7451
 6475SOL    HW230888   3.328   2.888   2.804 -0.0216  3.1293 -1.1035
 6476SOL     OW30889   2.221   0.096   8.053 -0.6715 -0.9220  0.0858
 6476SOL    HW130890   2.247   0.023   8.110 -1.4620  0.2471  1.9313
 6476SOL    HW230891   2.302   0.145   8.045 -0.9924  0.0247  2.4140
 6477SOL     OW30892   2.674   2.819  10.514  0.2887  0.0448  0.5154
 6477SOL    HW130893   2.585   2.854  10.523  0.5343  1.0882 -1.1148
 6477SOL    HW230894   2.661   2.763  10.438  0.2473 -0.3966  0.8485
 6478SOL     OW30895   2.220   2.783  13.965 -0.1803 -0.5752  0.4365
 6478SOL    HW130896   2.164   2.802  13.890  0.1021  1.4659  0.7340
 6478SOL    HW230897   2.192   2.841  14.036 -0.0093 -0.8252  0.7110
 6479SOL     OW30898   3.679   2.297   7.100 -0.1192 -0.2842 -0.0825
 6479SOL    HW130899   3.610   2.303   7.033 -0.3365  0.4467  0.2085
 6479SOL    HW230900   3.666   2.207   7.129  1.1455 -0.2341  0.6330
 6480SOL     OW30901   1.996   4.548   1.239  0.0802  0.2262 -0.2486
 6480SOL    HW130902   1.951   4.464   1.223  1.3295 -0.4769 -0.0500
 6480SOL    HW230903   1.918   4.600   1.257  0.3601  0.2709  0.8372
 6481SOL     OW30904   1.839   1.064   6.281  0.1146 -0.2203 -0.1988
 6481SOL    HW130905   1.801   1.132   6.338  0.3393  1.9078 -2.5750
 6481SOL    HW230906   1.884   1.112   6.212 -0.0171 -0.1615 -0.2451
 6482SOL     OW30907   0.079   1.107   6.592 -0.4664  0.4626 -0.0740
 6482SOL    HW130908   0.174   1.102   6.606 -1.2118 -4.4054  3.1505
 6482SOL    HW230909   0.051   1.154   6.671  0.9524 -0.0514  0.7317
 6483SOL     OW30910   0.340   4.294   2.426 -0.0299  0.1449  0.6137
 6483SOL    HW130911   0.298   4.368   2.468 -2.0569 -0.4614 -0.3346
 6483SOL    HW230912   0.432   4.316   2.443  0.6311  0.1949 -2.9454
 6484SOL     OW30913   3.138   0.233   1.080  0.1840 -0.0130 -0.0290
 6484SOL    HW130914   3.100   0.146   1.096 -0.8133  0.2202 -1.1401
 6484SOL    HW230915   3.117   0.280   1.161  2.8405 -0.3207  0.8393
 6485SOL     OW30916   3.826   3.595  11.746 -0.2874  0.0314 -0.5988
 6485SOL    HW130917   3.749   3.618  11.797  1.9047 -0.0027  2.7070
 6485SOL    HW230918   3.780   3.573  11.665 -0.0546 -0.1833 -0.6758
 6486SOL     OW30919   3.012   3.365  15.373 -0.1077 -0.4513 -0.6682
 6486SOL    HW130920   3.016   3.444  15.318 -0.2360  0.5730  0.7838
 6486SOL    HW230921   3.101   3.335  15.356  0.6214  0.5277  1.4310
 6487SOL     OW30922   1.868   1.528   8.072 -0.1255 -1.0285  0.9111
 6487SOL    HW130923   1.798   1.463   8.063 -0.9639 -0.1398  1.0097
 6487SOL    HW230924   1.852   1.577   8.152  0.5677  1.2790 -0.3705
 6488SOL     OW30925   3.029   0.212   3.746 -0.8343 -0.1085  0.3655
 6488SOL    HW130926   3.027   0.254   3.832 -0.4250  1.0360 -0.1905
 6488SOL    HW230927   3.122   0.188   3.739 -1.3362 -1.4340 -1.7547
 6489SOL     OW30928   3.250   1.794  16.949  0.3299  0.2164 -0.9018
 6489SOL    HW130929   3.288   1.871  16.992  1.0833 -0.5199 -0.2629
 6489SOL    HW230930   3.179   1.773  17.010 -0.1896  2.6791 -0.6643
 6490SOL     OW30931   2.610   3.722   9.899  0.6782  0.4160 -0.5765
 6490SOL    HW130932   2.682   3.769   9.857  0.2961  3.5373  2.2829
 6490SOL    HW230933   2.626   3.632   9.870 -0.9254 -1.1617  3.5061
 6491SOL     OW30934   1.514   1.132   6.303 -0.2289 -0.1842 -0.6301
 6491SOL    HW130935   1.500   1.050   6.351 -0.5574  0.5996  0.6035
 6491SOL    HW230936   1.544   1.185   6.377 -0.2501 -0.5328 -0.3685
 6492SOL     OW30937   3.711   1.164  14.959 -0.3704 -0.2203  0.5397
 6492SOL    HW130938   3.675   1.252  14.974  0.8973  0.3344  0.3905
 6492SOL    HW230939   3.745   1.167  14.869 -2.6069  2.6324 -0.2200
 6493SOL     OW30940   0.273   3.352   1.683 -0.2648 -0.1148 -0.0302
 6493SOL    HW130941   0.232   3.407   1.751 -1.4757 -1.0389 -0.0211
 6493SOL    HW230942   0.283   3.420   1.617  0.9717 -0.1401  0.1447
 6494SOL     OW30943   0.438   4.321  15.179  0.8742 -0.4434  0.2958
 6494SOL    HW130944   0.441   4.225  15.175 -1.7650 -0.5183  0.2940
 6494SOL    HW230945   0.418   4.343  15.270  1.8157 -0.6693  0.5576
 6495SOL     OW30946   2.187   3.357  10.231 -0.4042  0.3330  0.2700
 6495SOL    HW130947   2.260   3.414  10.254 -1.0985  1.3006  0.0664
 6495SOL    HW230948   2.112   3.402  10.270 -1.7233 -2.4530  0.9506
 6496SOL     OW30949   1.020   3.345   4.333  0.8473  0.5440  0.1811
 6496SOL    HW130950   0.965   3.336   4.411 -0.1101  0.6219 -0.4906
 6496SOL    HW230951   1.073   3.265   4.327 -1.0149 -0.7858  1.3920
 6497SOL     OW30952   0.016   0.375   7.155 -0.1998 -0.0768 -0.2455
 6497SOL    HW130953   4.652   0.352   7.123 -1.3545 -0.9354  3.5122
 6497SOL    HW230954   0.034   0.294   7.202 -0.9492  1.3998  2.5747
 6498SOL     OW30955   2.846   1.447   8.210 -0.0600  0.2628  0.3887
 6498SOL    HW130956   2.893   1.481   8.287 -0.5493 -0.3734  0.9703
 6498SOL    HW230957   2.915   1.398   8.165 -0.5034 -0.5769  0.6262
 6499SOL     OW30958   3.136   2.876   6.014  0.2928 -0.2581  0.1161
 6499SOL    HW130959   3.228   2.899   6.026 -0.1248  3.1104 -3.2404
 6499SOL    HW230960   3.120   2.911   5.926  3.0008  0.1312 -0.2065
 6500SOL     OW30961   4.042   4.719   2.247  0.0197 -0.2635 -0.3224
 6500SOL    HW130962   4.042   4.666   2.327  0.3858  1.6919  0.9651
 6500SOL    HW230963   4.135   0.020   2.248 -0.1769  0.4301  1.8910
 6501SOL     OW30964   1.475   4.553   9.155 -0.4142  0.1879  0.1990
 6501SOL    HW130965   1.384   4.575   9.138  0.1406  0.1419 -2.8397
 6501SOL    HW230966   1.466   4.461   9.180 -0.8799 -0.1243 -1.1293
 6502SOL     OW30967   2.180   2.126   5.875  0.1584 -0.0162  0.7480
 6502SOL    HW130968   2.188   2.177   5.794  1.6713  0.2366  1.0694
 6502SOL    HW230969   2.118   2.186   5.917  1.3672  1.2969  0.6352
 6503SOL     OW30970   3.112   3.331   3.998  0.1191 -0.4147  0.1805
 6503SOL    HW130971   3.185   3.284   3.956  0.2008 -0.0888 -0.0526
 6503SOL    HW230972   3.060   3.263   4.039 -1.4117  0.7124  0.0886
 6504SOL     OW30973   0.134   0.120  17.363  0.0210  0.1832  0.2366
 6504SOL    HW130974   0.102   0.036  17.330  0.8427 -0.5506  1.3306
 6504SOL    HW230975   0.132   0.173  17.283 -2.0505  0.2650  0.3487
 6505SOL     OW30976   1.376   2.578   9.487 -0.0196 -0.1661  0.3686
 6505SOL    HW130977   1.307   2.525   9.447  1.1094 -1.3412 -0.0411
 6505SOL    HW230978   1.432   2.601   9.413  0.8636  0.7290  1.3082
 6506SOL     OW30979   3.476   4.529   0.806 -0.1616 -0.1501  0.6473
 6506SOL    HW130980   3.546   4.557   0.746 -1.8605  1.0519 -0.7712
 6506SOL    HW230981   3.526   4.536   0.888  0.3917  2.4918  0.0993
 6507SOL     OW30982   4.038   1.754  13.544  0.7840 -0.2756 -0.2402
 6507SOL    HW130983   4.014   1.770  13.635  0.9064  1.2311 -0.4861
 6507SOL    HW230984   4.131   1.735  13.559  0.9600  0.5055 -0.3394
 6508SOL     OW30985   1.496   4.678   8.919  0.2489  0.2701 -0.5947
 6508SOL    HW130986   1.428   0.013   8.954  0.0393 -0.7388  0.6446
 6508SOL    HW230987   1.496   4.607   8.983 -0.8759  1.0663  0.2891
 6509SOL     OW30988   2.303   0.601  11.411 -0.4042  0.3353 -0.5589
 6509SOL    HW130989   2.306   0.562  11.324 -2.5299 -3.8862  1.2315
 6509SOL    HW230990   2.379   0.556  11.447  0.1220  1.2530 -0.5427
 6510SOL     OW30991   1.440   3.752  13.401  0.1786  0.1835 -0.3759
 6510SOL    HW130992   1.429   3.700  13.322 -2.1512  1.1511 -0.6676
 6510SOL    HW230993   1.459   3.839  13.365  0.6877 -1.1845 -3.4169
 6511SOL     OW30994   2.221   1.839   0.900  0.5573  0.5092 -0.5664
 6511SOL    HW130995   2.237   1.764   0.957 -0.6789  1.1576  0.6541
 6511SOL    HW230996   2.147   1.808   0.847  0.8392 -1.4804  0.1956
 6512SOL     OW30997   1.732   2.163   3.690 -0.0901 -0.6672  0.0186
 6512SOL    HW130998   1.688   2.080   3.678 -0.3459 -0.6080  0.5690
 6512SOL    HW230999   1.808   2.149   3.632  1.2237  0.7419  1.3915
 6513SOL     OW31000   4.045   0.599   5.078 -0.5690  0.6709  0.1141
 6513SOL    HW131001   4.075   0.553   4.999  0.5956  2.1079 -0.2795
 6513SOL    HW231002   4.018   0.686   5.050  0.9942  1.4041  0.8982
 6514SOL     OW31003   0.763   1.561   2.429 -0.2129 -0.2259 -0.4976
 6514SOL    HW131004   0.681   1.611   2.437 -1.3408 -1.7652 -2.4980
 6514SOL    HW231005   0.791   1.580   2.519 -0.3317  0.3842 -0.5886
 6515SOL     OW31006   4.680   2.160   3.035  0.0168 -0.1224  0.4419
 6515SOL    HW131007   4.642   2.128   2.954 -1.1479  1.3875  0.3864
 6515SOL    HW231008   0.048   2.163   3.007 -0.1446  0.8327  0.0143
 6516SOL     OW31009   3.104   2.114   3.376  0.4856 -0.2576  0.0975
 6516SOL    HW131010   3.077   2.195   3.419  2.0042  0.0182  0.5521
 6516SOL    HW231011   3.130   2.068   3.457 -0.3660  2.2330  1.7885
 6517SOL     OW31012   4.042   3.981   8.445 -0.4138 -0.1580  0.7081
 6517SOL    HW131013   4.130   4.011   8.422  0.0848 -0.8125  1.7419
 6517SOL    HW231014   4.076   3.927   8.516  1.1471  0.3778  0.3680
 6518SOL     OW31015   1.930   0.222   3.124  0.2378 -0.9709 -0.3336
 6518SOL    HW131016   1.948   0.194   3.214 -0.0610 -2.1241 -0.6361
 6518SOL    HW231017   1.840   0.254   3.131  0.1999 -0.9692 -0.8147
 6519SOL     OW31018   2.354   1.787   2.980  0.4220 -0.2079 -0.0808
 6519SOL    HW131019   2.318   1.875   2.985  1.0891  0.1321 -1.3760
 6519SOL    HW231020   2.368   1.781   2.886 -1.2144  0.4420 -0.3499
 6520SOL     OW31021   4.551   1.950  10.626 -0.0021 -0.1831 -0.3510
 6520SOL    HW131022   4.567   1.856  10.636 -0.9987 -0.0764  2.3969
 6520SOL    HW231023   4.457   1.948  10.606  0.0117 -0.4703 -0.3862
 6521SOL     OW31024   1.530   0.234   1.401 -0.5425 -0.2446 -0.5113
 6521SOL    HW131025   1.475   0.272   1.470  0.6670 -0.9871  0.8712
 6521SOL    HW231026   1.537   0.310   1.343  3.4243  0.2836  0.6582
 6522SOL     OW31027   2.029   2.242   3.021 -0.9599 -0.3354  0.1466
 6522SOL    HW131028   1.941   2.278   3.025 -0.4322  0.8429  0.9618
 6522SOL    HW231029   2.060   2.267   2.934 -0.4654 -0.4750  0.2786
 6523SOL     OW31030   2.695   4.635   5.401 -0.0295 -0.0315 -1.0147
 6523SOL    HW131031   2.659   4.552   5.370 -2.7365  0.5356  0.5316
 6523SOL    HW231032   2.767   4.619   5.462 -0.3770  0.2442 -0.5187
 6524SOL     OW31033   0.894   3.005  15.305  0.6017  0.1140  0.7358
 6524SOL    HW131034   0.862   3.020  15.216 -0.8662  0.9744  1.3948
 6524SOL    HW231035   0.813   3.026  15.352  0.4841 -2.0551  1.4970
 6525SOL     OW31036   3.689   4.321   5.348 -0.2536 -0.1989 -0.3130
 6525SOL    HW131037   3.659   4.353   5.433 -0.5875  0.3597 -0.6355
 6525SOL    HW231038   3.629   4.372   5.293  2.5218  2.3209 -1.0116
 6526SOL     OW31039   1.023   1.623   9.793 -0.2160 -0.0580  0.2544
 6526SOL    HW131040   0.958   1.623   9.864 -0.6576 -2.8991 -0.1416
 6526SOL    HW231041   1.103   1.654   9.837  0.2239 -3.1989  1.6543
 6527SOL     OW31042   1.301   1.621   6.451 -0.2266 -0.0611 -0.5922
 6527SOL    HW131043   1.341   1.704   6.476 -0.3286 -0.1379 -0.1637
 6527SOL    HW231044   1.320   1.561   6.524  1.5192 -0.1965 -1.1611
 6528SOL     OW31045   3.083   4.660  10.456  0.1970 -0.0802  0.5202
 6528SOL    HW131046   2.996   4.627  10.432  1.2660 -0.3136 -2.9433
 6528SOL    HW231047   3.065   0.031  10.457  1.2031  0.1288 -0.5896
 6529SOL     OW31048   1.986   2.637   9.484 -0.0771 -0.2112 -0.2209
 6529SOL    HW131049   2.027   2.715   9.523  0.4928  0.3584 -1.9428
 6529SOL    HW231050   1.981   2.667   9.394 -1.4786 -1.0108 -0.4121
 6530SOL     OW31051   0.058   1.385  17.272 -0.2533 -0.3751  0.4858
 6530SOL    HW131052   0.137   1.395  17.219 -0.3595 -1.3262  0.1442
 6530SOL    HW231053   0.047   1.290  17.275  2.3736 -0.7156 -0.2509
 6531SOL     OW31054   0.720   3.960  11.532  0.1443 -0.6121  0.3447
 6531SOL    HW131055   0.657   3.989  11.466 -0.5372 -1.4105  0.6581
 6531SOL    HW231056   0.665   3.900  11.582  0.2426 -0.4767  0.6173
 6532SOL     OW31057   2.873   1.740   9.062 -0.2411 -0.1413  0.2121
 6532SOL    HW131058   2.875   1.701   9.150  1.8690  1.7046  1.0120
 6532SOL    HW231059   2.830   1.673   9.010 -3.0571  1.5154  0.3962
 6533SOL     OW31060   3.872   2.627  11.161 -0.6212  0.2178  0.4023
 6533SOL    HW131061   3.859   2.566  11.088  0.0602  2.7380 -1.8118
 6533SOL    HW231062   3.949   2.590  11.205  0.1534 -2.7858 -3.4760
 6534SOL     OW31063   0.424   4.187   2.147  0.1983 -0.3713 -0.3821
 6534SOL    HW131064   0.353   4.250   2.146  1.0283  0.4908 -2.9907
 6534SOL    HW231065   0.468   4.187   2.062  2.1846  1.8352  0.6589
 6535SOL     OW31066   2.305   4.128   7.912 -0.0828  0.0295 -0.0203
 6535SOL    HW131067   2.238   4.195   7.902  0.5866  0.9519  1.5460
 6535SOL    HW231068   2.269   4.057   7.859 -2.5304  1.6627 -0.5430
 6536SOL     OW31069   0.776   4.562   7.463  0.2751  0.2463 -0.1265
 6536SOL    HW131070   0.808   4.643   7.422 -1.3469  1.1923  0.4826
 6536SOL    HW231071   0.826   4.571   7.544 -1.3263 -2.0466  1.1052
 6537SOL     OW31072   1.544   3.355   9.178 -0.1006  0.1724  0.0554
 6537SOL    HW131073   1.586   3.410   9.244 -0.7704  0.3945  0.2991
 6537SOL    HW231074   1.518   3.419   9.112 -1.0816  0.1630  0.4282
 6538SOL     OW31075   3.661   4.421   4.282  0.9296 -0.0477  0.3857
 6538SOL    HW131076   3.643   4.367   4.204  0.3849 -0.0757  0.5247
 6538SOL    HW231077   3.709   4.495   4.246  0.3262  0.5004  0.7069
 6539SOL     OW31078   1.243   3.075  11.991  0.1277 -0.2332  0.3236
 6539SOL    HW131079   1.336   3.059  11.978  0.1567 -1.1830  1.6768
 6539SOL    HW231080   1.216   2.989  11.958  0.0739 -0.1773  0.2219
 6540SOL     OW31081   3.597   1.070   6.251  0.5705  0.8158 -0.4037
 6540SOL    HW131082   3.579   1.145   6.308 -1.9168 -0.8180  1.0080
 6540SOL    HW231083   3.539   1.098   6.180 -0.0931 -0.9543 -0.5725
 6541SOL     OW31084   2.977   1.622   5.369 -0.2450  0.8634  0.2891
 6541SOL    HW131085   2.988   1.542   5.419 -1.3092  0.1093 -0.6855
 6541SOL    HW231086   3.054   1.672   5.396 -0.3985  2.7921 -2.7331
 6542SOL     OW31087   1.025   0.286   7.887  0.2221  0.2682 -0.1958
 6542SOL    HW131088   0.981   0.237   7.818 -0.0598 -0.4094  0.4598
 6542SOL    HW231089   1.120   0.276   7.880  0.1137  0.1570 -1.3998
 6543SOL     OW31090   3.031   0.176   6.934  0.0272  0.0254  0.2404
 6543SOL    HW131091   2.976   0.103   6.908  0.8862 -0.3150 -0.6260
 6543SOL    HW231092   2.968   0.219   6.992  0.4564  1.6680 -0.4873
 6544SOL     OW31093   1.529   3.378  12.675 -0.1055 -0.4602  0.0715
 6544SOL    HW131094   1.479   3.297  12.660  1.2808 -1.4759  1.0210
 6544SOL    HW231095   1.516   3.420  12.590  0.2233 -0.4194  0.0419
 6545SOL     OW31096   4.690   4.015   3.562  0.1696 -0.1399 -0.1757
 6545SOL    HW131097   4.682   4.012   3.467 -0.3990  0.3311 -0.1439
 6545SOL    HW231098   0.059   4.009   3.589  0.3933  1.0055 -0.6810
 6546SOL     OW31099   0.711   1.162  13.813 -0.0623  0.3797  0.6062
 6546SOL    HW131100   0.645   1.195  13.751 -0.3173  0.2325  0.8013
 6546SOL    HW231101   0.677   1.169  13.902  0.8359  0.3302  0.9467
 6547SOL     OW31102   2.823   4.649   5.690 -0.5344 -0.1729  0.7537
 6547SOL    HW131103   2.730   4.633   5.707 -0.7274  1.3863  1.1670
 6547SOL    HW231104   2.859   4.569   5.727  0.7970 -0.5578 -1.3237
 6548SOL     OW31105   4.138   4.476   9.659 -0.1953 -0.5933  0.8893
 6548SOL    HW131106   4.053   4.488   9.701 -0.3221  1.2295  0.1059
 6548SOL    HW231107   4.147   4.382   9.677  0.5341 -0.2713  2.2532
 6549SOL     OW31108   4.460   1.235  10.496 -0.1248 -0.6776 -0.5563
 6549SOL    HW131109   4.511   1.269  10.569 -0.3696  0.1354 -0.7659
 6549SOL    HW231110   4.512   1.273  10.425 -0.4459  2.3156  0.8054
 6550SOL     OW31111   3.530   0.403  15.940  0.4243  0.0620 -0.2835
 6550SOL    HW131112   3.532   0.354  15.858 -1.3099 -3.1714  1.6006
 6550SOL    HW231113   3.599   0.357  15.988  0.4997  1.6858  1.1568
 6551SOL     OW31114   3.546   3.304   7.779  0.2375 -0.0361 -0.2120
 6551SOL    HW131115   3.564   3.210   7.774  4.3819  0.6975  1.3362
 6551SOL    HW231116   3.459   3.308   7.739 -0.2480 -2.7664  0.5613
 6552SOL     OW31117   2.735   4.087   5.601 -0.3988 -0.0057  0.1676
 6552SOL    HW131118   2.755   3.994   5.609  0.6980  0.2498  0.3838
 6552SOL    HW231119   2.640   4.085   5.592 -0.5143  0.0295  1.3083
 6553SOL     OW31120   3.823   2.077   4.481 -0.4487 -0.6957 -0.3708
 6553SOL    HW131121   3.737   2.036   4.494 -1.5870  1.5779 -0.7427
 6553SOL    HW231122   3.826   2.082   4.577 -0.4943  1.4712 -0.4933
 6554SOL     OW31123   3.942   0.163   6.949  0.0425  0.6080 -0.4770
 6554SOL    HW131124   3.993   0.095   6.903 -0.3689 -0.5341  0.7633
 6554SOL    HW231125   3.934   0.134   7.040  1.1936  2.9460  0.3450
 6555SOL     OW31126   2.731   2.160   6.363  0.5850  0.0013  0.0302
 6555SOL    HW131127   2.663   2.114   6.413  0.2079  0.3416 -0.1748
 6555SOL    HW231128   2.800   2.101   6.393 -1.1075 -1.9002  0.1695
 6556SOL     OW31129   0.636   0.891   0.747  0.2422 -0.2606 -0.2452
 6556SOL    HW131130   0.661   0.934   0.665 -0.1799 -0.3235 -0.4056
 6556SOL    HW231131   0.716   0.847   0.776 -0.6412 -1.8780 -0.2451
 6557SOL     OW31132   4.030   0.099   8.349  0.3102 -0.0824  0.7471
 6557SOL    HW131133   4.068   0.183   8.377 -0.1150 -0.2256  1.7380
 6557SOL    HW231134   3.948   0.121   8.305 -0.0485 -1.0548  0.9312
 6558SOL     OW31135   3.199   4.364  17.234 -0.5780  0.0256  0.1507
 6558SOL    HW131136   3.216   4.377  17.140 -0.2290 -0.7565  0.1118
 6558SOL    HW231137   3.287   4.346  17.267 -0.3869 -0.3164 -0.5513
 6559SOL     OW31138   2.531   3.595   3.781  0.7896 -0.4439  0.1798
 6559SOL    HW131139   2.523   3.523   3.843 -0.7270  2.6073  3.5394
 6559SOL    HW231140   2.627   3.600   3.789  0.9846  0.1451 -2.4393
 6560SOL     OW31141   3.503   1.870   4.991 -0.3486 -0.4328  0.1595
 6560SOL    HW131142   3.538   1.822   5.066  0.0713  1.4146  1.1533
 6560SOL    HW231143   3.412   1.845   5.003  0.3503 -2.5788  0.9958
 6561SOL     OW31144   1.009   1.751   8.674 -1.0149 -0.1765  0.7469
 6561SOL    HW131145   1.089   1.743   8.622 -1.5075 -0.9409  0.1087
 6561SOL    HW231146   1.020   1.838   8.713  0.0374  0.0654 -0.0995
 6562SOL     OW31147   1.243   0.751   6.241  0.2564 -0.2001 -0.2807
 6562SOL    HW131148   1.198   0.742   6.326 -0.0757  2.0363 -0.2321
 6562SOL    HW231149   1.229   0.661   6.210  0.4004 -0.3874  0.1941
 6563SOL     OW31150   3.708   0.756   0.370  0.0329  0.0087  0.4062
 6563SOL    HW131151   3.669   0.672   0.350  0.7308 -0.3148  0.4034
 6563SOL    HW231152   3.655   0.772   0.448  0.7961 -1.7575  1.2882
 6564SOL     OW31153   4.023   1.666   8.985 -0.4145 -0.4414  0.2937
 6564SOL    HW131154   3.986   1.720   8.915 -0.2011 -0.6226  0.0401
 6564SOL    HW231155   3.943   1.627   9.019 -0.1011 -2.4116 -1.2592
 6565SOL     OW31156   2.235   1.697  16.989  0.2001 -0.3562 -0.2578
 6565SOL    HW131157   2.298   1.746  16.937  2.6779 -2.2226  0.9824
 6565SOL    HW231158   2.255   1.713  17.081  2.0494  1.3358 -0.9638
 6566SOL     OW31159   1.369   0.370  17.139 -0.2859  0.2080  0.1666
 6566SOL    HW131160   1.379   0.426  17.062 -0.8814  1.9894  1.3996
 6566SOL    HW231161   1.461   0.369  17.167  0.3010 -0.9980 -1.7815
 6567SOL     OW31162   4.530   0.953   3.237 -0.6214 -0.3215 -0.1993
 6567SOL    HW131163   4.545   0.930   3.145 -0.4114 -1.7988  0.2047
 6567SOL    HW231164   4.494   1.041   3.225 -0.8707 -0.3857  0.0862
 6568SOL     OW31165   1.725   1.434   2.087  0.0891  0.2428  0.1628
 6568SOL    HW131166   1.642   1.481   2.086 -1.2734 -2.0983  2.2671
 6568SOL    HW231167   1.714   1.372   2.015  1.8718 -1.3926  1.2780
 6569SOL     OW31168   1.491   3.996   6.600 -0.7608  0.1280 -0.4006
 6569SOL    HW131169   1.573   3.992   6.552 -1.0551 -0.7317 -0.8324
 6569SOL    HW231170   1.520   4.031   6.684  0.4001 -0.0946 -0.7107
 6570SOL     OW31171   1.685   1.883   1.433  0.2958 -0.5075 -0.1130
 6570SOL    HW131172   1.690   1.801   1.483  1.1931  0.0221  0.6501
 6570SOL    HW231173   1.623   1.864   1.362 -1.0987  0.1006  0.9386
 6571SOL     OW31174   4.198   3.879   3.272  0.3399  0.7016  0.1349
 6571SOL    HW131175   4.240   3.804   3.231  0.8021  0.6116  0.7696
 6571SOL    HW231176   4.259   3.952   3.265  2.5800 -0.9582  2.2205
 6572SOL     OW31177   2.370   0.936   6.238  0.5391 -0.0417 -0.1478
 6572SOL    HW131178   2.334   0.908   6.154  1.2232 -1.2604 -0.0305
 6572SOL    HW231179   2.339   0.865   6.293  0.0046  1.1048  1.0189
 6573SOL     OW31180   1.785   2.246   4.049 -0.3273  0.5431 -0.0092
 6573SOL    HW131181   1.783   2.262   4.143  2.8802 -0.2455  0.2092
 6573SOL    HW231182   1.871   2.275   4.017  0.5905 -2.1195  0.0369
 6574SOL     OW31183   1.942   1.811   5.644  0.1327 -0.1262 -0.3169
 6574SOL    HW131184   1.885   1.877   5.605  0.6907  1.9285  2.3836
 6574SOL    HW231185   1.880   1.747   5.679 -1.6633  1.1736 -1.1754
 6575SOL     OW31186   3.645   3.372  10.930  0.2880 -0.3016  0.2683
 6575SOL    HW131187   3.696   3.437  10.881  2.1797 -2.0844 -0.1403
 6575SOL    HW231188   3.686   3.289  10.904  1.0541  0.7929 -1.9947
 6576SOL     OW31189   0.672   4.437   0.390 -0.2460 -0.1002 -0.1693
 6576SOL    HW131190   0.637   4.525   0.407  1.6206  0.4514  0.8653
 6576SOL    HW231191   0.706   4.418   0.478 -0.3935  0.6131  0.0378
 6577SOL     OW31192   3.405   3.121   0.799 -0.1864  0.3720 -0.1816
 6577SOL    HW131193   3.487   3.155   0.763 -1.4046 -0.4529 -3.6908
 6577SOL    HW231194   3.433   3.040   0.843  1.3578  0.7621 -0.4319
 6578SOL     OW31195   1.782   2.969   3.795  0.0874 -0.2657  0.2854
 6578SOL    HW131196   1.699   3.015   3.787  0.6606  0.6879 -0.2406
 6578SOL    HW231197   1.809   2.952   3.705 -1.1178 -0.2118 -0.0822
 6579SOL     OW31198   1.360   1.161   2.203 -0.8424 -0.0907 -0.0061
 6579SOL    HW131199   1.298   1.200   2.265  0.6185  2.4723 -0.1324
 6579SOL    HW231200   1.352   1.071   2.234 -0.3794  0.1641  0.8589
 6580SOL     OW31201   3.293   4.351   0.799  0.4097  0.2644 -0.3085
 6580SOL    HW131202   3.348   4.429   0.791  2.4280 -1.2463 -1.0807
 6580SOL    HW231203   3.290   4.349   0.895 -0.9037 -0.6692 -0.3706
 6581SOL     OW31204   2.725   2.669  13.878 -0.1630 -0.0125 -0.0375
 6581SOL    HW131205   2.705   2.734  13.945 -2.6620 -0.9884  0.1995
 6581SOL    HW231206   2.715   2.715  13.795  2.9679  0.0004 -0.3841
 6582SOL     OW31207   0.270   2.073   5.527 -0.2666  0.3213  0.0696
 6582SOL    HW131208   0.279   2.012   5.601  3.4875  0.7498 -0.0657
 6582SOL    HW231209   0.360   2.073   5.497 -0.3407  0.4347 -0.1497
 6583SOL     OW31210   4.216   3.135   5.459  0.3801  0.3790 -0.7055
 6583SOL    HW131211   4.120   3.138   5.457  0.3701  0.5155  0.0634
 6583SOL    HW231212   4.234   3.188   5.382  0.8210 -0.8315 -1.4402
 6584SOL     OW31213   2.563   3.647   2.394 -0.1648  0.6123 -0.3346
 6584SOL    HW131214   2.623   3.672   2.465  0.5791 -0.5168 -0.5689
 6584SOL    HW231215   2.574   3.552   2.402 -0.4858  0.4004 -2.6113
 6585SOL     OW31216   0.463   0.233   3.916  0.2438 -0.2654  0.6726
 6585SOL    HW131217   0.386   0.176   3.924  0.0966 -0.1336  0.1930
 6585SOL    HW231218   0.464   0.232   3.820  2.0557  0.2732  0.6847
 6586SOL     OW31219   1.964   3.885   9.820 -0.1022 -0.1997 -0.2568
 6586SOL    HW131220   2.003   3.886   9.908 -1.7141  1.1134  0.4262
 6586SOL    HW231221   1.959   3.980   9.808  0.2081 -0.4438 -2.2969
 6587SOL     OW31222   3.917   1.579  17.397 -0.4238  0.6694  0.3303
 6587SOL    HW131223   4.008   1.555  17.380 -0.8860 -2.1638  1.8110
 6587SOL    HW231224   3.926   1.665  17.436  0.2762  0.8035 -0.1356
 6588SOL     OW31225   1.911   4.086  10.715  0.3927 -0.4540 -0.6515
 6588SOL    HW131226   1.992   4.053  10.678  0.2495 -0.9314 -0.5367
 6588SOL    HW231227   1.909   4.177  10.685 -0.4118  0.0139  0.8133
 6589SOL     OW31228   3.537   1.112   5.601 -0.2783  0.5474 -0.6413
 6589SOL    HW131229   3.581   1.179   5.652 -0.4565  0.2139 -0.0430
 6589SOL    HW231230   3.537   1.043   5.667 -0.3479  0.6014 -0.5845
 6590SOL     OW31231   3.030   2.963  11.687  0.5176 -0.8591  0.2208
 6590SOL    HW131232   2.972   2.945  11.613  0.4764 -0.5448  0.1773
 6590SOL    HW231233   2.967   2.980  11.758  0.0125 -2.4109  0.1482
 6591SOL     OW31234   3.337   3.634  10.057 -0.3862 -0.2682  0.0260
 6591SOL    HW131235   3.276   3.562  10.039 -1.0918  0.0918  0.9463
 6591SOL    HW231236   3.415   3.578  10.063  0.6424  1.1294 -0.3419
 6592SOL     OW31237   3.021   4.652   0.322  0.4608  0.4615  0.6752
 6592SOL    HW131238   3.035   4.561   0.297  1.1300  1.0094 -0.9635
 6592SOL    HW231239   3.013   4.687   0.233 -1.8306  1.9146  1.4568
 6593SOL     OW31240   2.658   0.773   0.148  0.5490 -0.1338 -0.0144
 6593SOL    HW131241   2.575   0.780   0.196  1.0974 -1.5399  1.1366
 6593SOL    HW231242   2.722   0.771   0.219 -0.4264  1.1944  0.8964
 6594SOL     OW31243   0.298   2.083   7.289 -0.2517  0.2001  0.1823
 6594SOL    HW131244   0.204   2.073   7.304  0.2242 -0.6442  2.5903
 6594SOL    HW231245   0.311   2.006   7.234  2.4022  0.0000  1.1112
 6595SOL     OW31246   3.745   1.485   2.741  0.6909 -0.1525  0.0472
 6595SOL    HW131247   3.817   1.422   2.737  0.3560 -0.4943 -0.4634
 6595SOL    HW231248   3.729   1.502   2.834  0.6846  0.2851 -0.0348
 6596SOL     OW31249   1.796   3.633  11.776  0.5628  0.2779 -0.6106
 6596SOL    HW131250   1.764   3.723  11.778 -0.9594 -0.2826  0.2460
 6596SOL    HW231251   1.761   3.610  11.690  0.7222 -0.1673 -0.5563
 6597SOL     OW31252   2.864   3.594   6.820 -0.0248  0.3386  0.2680
 6597SOL    HW131253   2.944   3.541   6.820  0.3877  0.9646  1.1747
 6597SOL    HW231254   2.843   3.589   6.727  0.5635  1.9254  0.0580
 6598SOL     OW31255   3.072   2.879   7.744  0.3501  0.4228 -0.1610
 6598SOL    HW131256   3.145   2.898   7.803 -0.9437 -0.3007  1.6562
 6598SOL    HW231257   3.111   2.827   7.673  0.0707 -1.7285  1.2460
 6599SOL     OW31258   3.442   2.675   4.332  0.2522 -0.0772 -0.0965
 6599SOL    HW131259   3.373   2.699   4.270  0.8571 -0.9237 -1.0898
 6599SOL    HW231260   3.503   2.748   4.315 -0.6879  0.5523 -0.7584
 6600SOL     OW31261   1.428   4.375   1.103 -0.2283 -0.1024 -0.0186
 6600SOL    HW131262   1.379   4.318   1.044  0.9728  0.3923 -1.4702
 6600SOL    HW231263   1.390   4.339   1.183 -0.8897  1.3180  0.3186
 6601SOL     OW31264   1.589   0.763   0.978  0.3578  0.1724 -0.5966
 6601SOL    HW131265   1.522   0.700   0.951 -0.0338  0.4720 -0.3333
 6601SOL    HW231266   1.650   0.763   0.904 -0.2593  1.9579 -1.1232
 6602SOL     OW31267   4.082   2.710   6.250 -0.7046  0.0407 -0.2579
 6602SOL    HW131268   3.992   2.713   6.279 -0.6835  0.9679 -0.3107
 6602SOL    HW231269   4.075   2.725   6.155 -0.0480 -0.0018 -0.3153
 6603SOL     OW31270   4.288   0.117   5.659 -0.0442  0.3363 -0.1254
 6603SOL    HW131271   4.232   0.105   5.582 -0.5902  2.3051 -0.0459
 6603SOL    HW231272   4.316   0.208   5.646 -2.7575  1.3159  0.9816
 6604SOL     OW31273   1.365   0.530   8.225  0.0133  0.0296  0.1982
 6604SOL    HW131274   1.335   0.591   8.292 -0.5089  1.7615 -1.6117
 6604SOL    HW231275   1.283   0.488   8.201 -0.6423  0.7989  1.0862
 6605SOL     OW31276   1.449   2.269  13.902  0.1256  0.6784  0.8381
 6605SOL    HW131277   1.517   2.291  13.838 -0.4326 -0.1825 -0.0619
 6605SOL    HW231278   1.477   2.198  13.960 -1.0770  0.0273  0.6370
 6606SOL     OW31279   0.910   0.487  17.674 -0.4604 -0.0983 -0.2328
 6606SOL    HW131280   0.945   0.575  17.657 -0.8281  0.0354 -0.2835
 6606SOL    HW231281   0.901   0.498   0.076  1.2685  1.7096 -0.2515
 6607SOL     OW31282   1.138   1.801   5.500 -0.0065 -0.7068 -0.0144
 6607SOL    HW131283   1.211   1.842   5.546 -2.1356  0.6833  2.1685
 6607SOL    HW231284   1.144   1.720   5.550  1.9817 -0.1369  0.6353
 6608SOL     OW31285   3.738   3.579   1.941 -0.9508 -0.5645 -0.4187
 6608SOL    HW131286   3.792   3.618   2.010 -0.6903 -0.5947 -0.6083
 6608SOL    HW231287   3.655   3.577   1.989  0.9083 -0.4004  2.7875
 6609SOL     OW31288   2.366   2.399   5.115 -0.3957  0.1438  0.5906
 6609SOL    HW131289   2.435   2.333   5.111  0.1507  0.7766 -0.3412
 6609SOL    HW231290   2.380   2.448   5.034 -1.0904 -0.9253 -0.1809
 6610SOL     OW31291   4.307   3.431  13.094  0.1696 -0.0016  0.1044
 6610SOL    HW131292   4.222   3.396  13.067  1.1173 -1.1605 -1.3056
 6610SOL    HW231293   4.273   3.495  13.157  1.0346  1.0041 -0.4490
 6611SOL     OW31294   4.675   4.390   0.474  0.2527 -0.0486  0.4871
 6611SOL    HW131295   4.656   4.432   0.558 -1.4525 -1.4876  0.8431
 6611SOL    HW231296   4.705   4.466   0.424  0.5226 -0.7655 -0.4461
 6612SOL     OW31297   3.527   3.285   5.278 -0.4958  0.3383  0.7179
 6612SOL    HW131298   3.436   3.280   5.249 -0.5869  2.9294  0.5621
 6612SOL    HW231299   3.539   3.194   5.306 -3.3670 -0.4545 -0.6564
 6613SOL     OW31300   4.220   1.965   4.849 -0.0074 -0.3988 -0.2402
 6613SOL    HW131301   4.153   1.955   4.917  0.2576  1.4916  0.3062
 6613SOL    HW231302   4.285   2.018   4.895  0.7142 -1.4696 -0.0359
 6614SOL     OW31303   0.284   0.413   5.052  0.2376  0.0853 -0.1050
 6614SOL    HW131304   0.283   0.425   5.147 -0.5265 -0.6157 -0.0219
 6614SOL    HW231305   0.375   0.414   5.022  0.1907  1.2101 -0.2072
 6615SOL     OW31306   3.153   2.345   5.863  0.3582 -0.2985  0.1636
 6615SOL    HW131307   3.220   2.396   5.909  0.0706  0.2791 -0.0590
 6615SOL    HW231308   3.181   2.253   5.868  1.2309 -0.1096 -1.2792
 6616SOL     OW31309   1.363   4.215   1.344  0.1813  0.3681 -0.3152
 6616SOL    HW131310   1.384   4.249   1.431 -0.5335  0.3664 -0.1449
 6616SOL    HW231311   1.284   4.269   1.334 -1.5895 -2.2121 -0.0413
 6617SOL     OW31312   3.292   3.394  11.051  0.4669  0.4546  0.1188
 6617SOL    HW131313   3.352   3.456  11.009 -0.0900  0.4910 -0.6082
 6617SOL    HW231314   3.321   3.311  11.014 -1.6459 -0.2307  0.0208
 6618SOL     OW31315   3.359   1.126   9.839  0.2567  0.0604 -0.1314
 6618SOL    HW131316   3.405   1.066   9.780 -1.9554  0.8447 -2.6696
 6618SOL    HW231317   3.348   1.201   9.780  0.0585  1.1400  1.2824
 6619SOL     OW31318   3.456   1.989   4.040  0.2775 -0.8088 -0.2729
 6619SOL    HW131319   3.542   2.006   4.078 -0.2740 -1.8353  1.4260
 6619SOL    HW231320   3.450   2.049   3.965  2.3633 -0.7957 -0.4235
 6620SOL     OW31321   3.733   3.011   9.177 -0.2503 -0.4244 -0.2021
 6620SOL    HW131322   3.705   2.974   9.093 -1.6391 -0.4489  0.2696
 6620SOL    HW231323   3.652   2.997   9.226  0.2752  1.1544  1.1235
 6621SOL     OW31324   4.156   0.836  16.020  0.0298  0.3237 -0.4893
 6621SOL    HW131325   4.243   0.830  16.058 -0.5036 -2.2608  0.3048
 6621SOL    HW231326   4.122   0.916  16.060  2.1225  0.9435  0.0477
 6622SOL     OW31327   3.559   0.828   0.599 -0.0598  0.0280  0.5299
 6622SOL    HW131328   3.600   0.794   0.679  1.1143  1.8225  0.6867
 6622SOL    HW231329   3.558   0.921   0.622 -2.0863 -0.1412  1.1204
 6623SOL     OW31330   1.669   0.850   0.460 -0.7113 -0.4469  0.4009
 6623SOL    HW131331   1.604   0.794   0.502  1.7893 -1.0557  3.4946
 6623SOL    HW231332   1.717   0.885   0.535 -0.5170  1.5405 -0.6455
 6624SOL     OW31333   0.942   0.029  14.707  0.1181  0.2960  0.1810
 6624SOL    HW131334   0.964   4.704  14.627 -1.8240  0.1075 -0.2335
 6624SOL    HW231335   0.878   4.689  14.740  0.6119 -0.1865  0.2354
 6625SOL     OW31336   4.058   2.576  12.337  0.2586 -0.0544  0.3253
 6625SOL    HW131337   4.010   2.648  12.377 -3.1859 -1.4008 -1.3880
 6625SOL    HW231338   3.985   2.528  12.298 -1.4924  2.0048  1.0718
 6626SOL     OW31339   2.619   0.460   3.225 -0.0745  0.4828 -0.3925
 6626SOL    HW131340   2.583   0.438   3.311 -0.0610 -0.0596 -0.5292
 6626SOL    HW231341   2.539   0.490   3.183 -2.6426 -1.5422  3.0223
 6627SOL     OW31342   3.228   0.748  17.116 -0.3689  0.0407  0.2732
 6627SOL    HW131343   3.210   0.728  17.207 -0.7909 -1.3038 -0.1102
 6627SOL    HW231344   3.236   0.661  17.077  1.0269  0.8405 -1.2895
 6628SOL     OW31345   3.005   2.405   3.498  1.0088 -0.1657 -0.8450
 6628SOL    HW131346   2.934   2.465   3.476  0.5263 -0.7697 -0.9234
 6628SOL    HW231347   3.012   2.416   3.593 -1.1455  0.2367 -0.7382
 6629SOL     OW31348   2.942   2.226   6.654 -0.1690 -0.2173  0.4680
 6629SOL    HW131349   2.870   2.186   6.606  0.5551  1.4194 -2.0005
 6629SOL    HW231350   2.896   2.266   6.728  0.1448 -0.7341  0.9520
 6630SOL     OW31351   1.817   2.638   5.908 -0.1982  0.0562 -0.2234
 6630SOL    HW131352   1.740   2.649   5.964 -0.5210  0.2314 -0.6995
 6630SOL    HW231353   1.783   2.597   5.829 -2.1532  0.9413  0.1526
 6631SOL     OW31354   0.389   2.809   2.816 -0.6706 -0.1273  0.5279
 6631SOL    HW131355   0.409   2.856   2.736  0.7887 -0.1457  0.8966
 6631SOL    HW231356   0.293   2.819   2.813 -0.4499  2.4951  2.4677
 6632SOL     OW31357   2.092   2.837   0.343 -0.0423  0.0830  0.1683
 6632SOL    HW131358   2.003   2.801   0.347  0.1663 -0.5789 -1.2759
 6632SOL    HW231359   2.128   2.824   0.431 -0.2940  0.6628  0.3579
 6633SOL     OW31360   0.488   3.662   6.154 -0.0761  0.2215  0.0660
 6633SOL    HW131361   0.426   3.730   6.180 -2.3356 -0.9487 -2.2238
 6633SOL    HW231362   0.463   3.650   6.063  1.7318 -1.2099 -0.2323
 6634SOL     OW31363   3.173   1.995   3.613 -0.4800 -0.2176 -0.2757
 6634SOL    HW131364   3.146   1.903   3.609 -0.6695 -0.1893  0.3548
 6634SOL    HW231365   3.176   1.997   3.709 -0.5860  1.6536 -0.3236
 6635SOL     OW31366   2.102   1.951   6.582 -0.3113 -0.7874 -0.2555
 6635SOL    HW131367   2.075   1.983   6.496 -0.6924 -2.7661 -0.8655
 6635SOL    HW231368   2.041   1.878   6.595 -0.5304 -0.7103 -0.8523
 6636SOL     OW31369   3.928   1.484   0.314 -0.4095  0.2284 -0.0633
 6636SOL    HW131370   3.844   1.442   0.293  0.1340 -0.7096 -0.3780
 6636SOL    HW231371   3.916   1.554   0.250 -0.6214  0.5039  0.2793
 6637SOL     OW31372   2.899   3.955   5.848  0.2668 -0.0894  0.0250
 6637SOL    HW131373   2.970   3.936   5.910 -1.2610  2.6577  2.5762
 6637SOL    HW231374   2.956   3.962   5.771  0.2415  1.2938  0.1379
 6638SOL     OW31375   1.971   2.680   6.143  1.0898  0.2766  0.2665
 6638SOL    HW131376   1.891   2.695   6.193  0.6340  0.0666 -0.3918
 6638SOL    HW231377   1.938   2.673   6.054 -0.8027  1.8228  0.8447
 6639SOL     OW31378   3.849   3.866  17.112  0.4675  0.0869  0.0136
 6639SOL    HW131379   3.755   3.850  17.122  0.7626 -1.5430  0.2520
 6639SOL    HW231380   3.887   3.788  17.152  0.3215 -0.2266 -0.4565
 6640SOL     OW31381   3.924   3.410   8.294  0.1074  0.3317  0.5326
 6640SOL    HW131382   3.837   3.381   8.323 -0.3878  0.8409 -0.4391
 6640SOL    HW231383   3.957   3.472   8.359  1.1084 -1.7757  2.0280
 6641SOL     OW31384   1.571   4.620   2.663  0.9637  0.2492 -0.5991
 6641SOL    HW131385   1.617   4.626   2.746  2.9930 -0.0705 -1.6924
 6641SOL    HW231386   1.544   4.529   2.652  0.0411  0.4854 -0.2620
 6642SOL     OW31387   1.395   2.738   1.066  0.0043  0.0618  0.0943
 6642SOL    HW131388   1.381   2.678   0.993 -0.8353 -0.6462  0.8410
 6642SOL    HW231389   1.378   2.817   1.016 -2.8930 -1.9239 -2.0592
 6643SOL     OW31390   1.531   1.658   1.278 -0.6359  0.5044 -0.2620
 6643SOL    HW131391   1.476   1.657   1.200 -1.8142 -1.5512  0.5776
 6643SOL    HW231392   1.603   1.714   1.251  0.8717 -3.0786 -3.5663
 6644SOL     OW31393   0.714   3.887  16.882 -0.4594  0.5862  0.2486
 6644SOL    HW131394   0.779   3.823  16.855 -2.0355 -0.4655 -1.0420
 6644SOL    HW231395   0.732   3.878  16.976  0.4984  1.3225  0.1354
 6645SOL     OW31396   3.585   1.371   5.757  0.3257  0.1730 -0.2748
 6645SOL    HW131397   3.660   1.312   5.761 -0.4962 -1.0430 -2.6560
 6645SOL    HW231398   3.614   1.419   5.834  1.0113  0.2074 -0.5501
 6646SOL     OW31399   3.979   2.372  12.546 -0.0638  0.1907 -0.3551
 6646SOL    HW131400   3.892   2.362  12.506  0.1451  1.0140 -1.0096
 6646SOL    HW231401   4.006   2.441  12.486 -1.6566  0.4160 -0.8131
 6647SOL     OW31402   3.637   2.437   2.454  0.2130 -0.4665 -0.1661
 6647SOL    HW131403   3.580   2.395   2.389  0.2800 -0.8341  0.0081
 6647SOL    HW231404   3.718   2.386   2.446  0.6316  0.3698 -1.1412
 6648SOL     OW31405   0.150   3.833  15.239  0.3973  0.2508 -0.1656
 6648SOL    HW131406   0.081   3.844  15.304 -0.4812  0.6366 -1.1631
 6648SOL    HW231407   0.200   3.758  15.271  0.5929  1.1984  1.7843
 6649SOL     OW31408   0.726   2.705   5.422  0.2243 -0.2358  0.1386
 6649SOL    HW131409   0.686   2.651   5.354  2.8823 -1.4037 -0.4878
 6649SOL    HW231410   0.669   2.684   5.496  1.1164  1.8081  1.4082
 6650SOL     OW31411   4.642   3.888  10.439 -0.2862 -0.5144 -0.0139
 6650SOL    HW131412   4.677   3.920  10.522 -0.2965  2.7023 -1.2608
 6650SOL    HW231413   4.680   3.800  10.440 -0.1649 -0.4480  1.1314
 6651SOL     OW31414   1.514   2.687   0.073  0.1123  0.0588  0.2488
 6651SOL    HW131415   1.595   2.737   0.066  0.3750 -0.2402  1.2521
 6651SOL    HW231416   1.456   2.763   0.067  0.5114  0.2670 -0.9709
 6652SOL     OW31417   1.839   2.330   4.294  0.1334 -0.1638 -0.4664
 6652SOL    HW131418   1.934   2.341   4.297 -0.0534  0.7089  2.7094
 6652SOL    HW231419   1.813   2.416   4.326 -0.6435 -1.4225  2.2741
 6653SOL     OW31420   0.897   3.071   4.078  0.2958  0.5484  0.1465
 6653SOL    HW131421   0.982   3.045   4.041 -0.5701 -2.4232  0.2561
 6653SOL    HW231422   0.909   3.166   4.082  0.7209  0.4554  1.1248
 6654SOL     OW31423   0.257   3.536  15.623  0.1802  0.0941 -0.5326
 6654SOL    HW131424   0.247   3.449  15.584  0.4441  0.4098 -1.3027
 6654SOL    HW231425   0.334   3.526  15.680 -0.8272 -0.6575  0.7076
 6655SOL     OW31426   4.579   3.961   5.984  0.0206  0.4286 -0.0716
 6655SOL    HW131427   4.589   3.920   5.898 -1.3129  0.1291 -0.0838
 6655SOL    HW231428   4.618   4.046   5.964 -2.3396  2.0994  2.3158
 6656SOL     OW31429   2.499   4.691  12.000  0.4196 -0.1992  0.0594
 6656SOL    HW131430   2.499   0.006  12.089 -0.9674  2.2330 -0.9772
 6656SOL    HW231431   2.406   4.670  11.999  0.8532 -2.0472 -2.1163
 6657SOL     OW31432   4.564   2.828  16.130  0.5426 -0.4918 -0.3417
 6657SOL    HW131433   4.562   2.734  16.151  3.5126 -1.0855 -2.8340
 6657SOL    HW231434   4.514   2.820  16.049 -1.2412  0.5893  0.6528
 6658SOL     OW31435   0.861   2.879   4.744  0.2006  0.2813  0.2066
 6658SOL    HW131436   0.873   2.936   4.820  1.1949 -0.5565  0.6751
 6658SOL    HW231437   0.855   2.945   4.675  0.6910  0.2268  0.1162
 6659SOL     OW31438   4.031   2.182   1.128 -0.0526  0.0262  0.5307
 6659SOL    HW131439   4.089   2.113   1.096  1.6825  1.7549 -0.1329
 6659SOL    HW231440   4.094   2.245   1.164  0.2906  0.9843 -1.7110
 6660SOL     OW31441   0.624   0.908   3.193 -0.0248  0.5182 -0.0204
 6660SOL    HW131442   0.677   0.829   3.185  0.4324  0.7384  0.8243
 6660SOL    HW231443   0.659   0.965   3.124  4.6747 -0.4757  1.5321
 6661SOL     OW31444   4.589   3.983  15.239 -0.4232  0.3048 -0.2986
 6661SOL    HW131445   4.661   4.008  15.181 -0.3744  0.3898 -0.2028
 6661SOL    HW231446   4.524   3.949  15.178 -1.1750 -0.5850  1.0021
 6662SOL     OW31447   3.308   0.495   6.136 -0.2246 -0.5490  0.0161
 6662SOL    HW131448   3.356   0.466   6.058  0.1550 -0.7642  0.3278
 6662SOL    HW231449   3.366   0.458   6.202  1.1444 -0.1151 -0.9358
 6663SOL     OW31450   4.153   1.454   6.307  0.1916 -0.3437 -0.5686
 6663SOL    HW131451   4.239   1.487   6.280  0.4704 -0.3948  0.2552
 6663SOL    HW231452   4.162   1.362   6.284  1.9213  0.1896 -1.9682
 6664SOL     OW31453   4.471   1.395  16.408  0.1997  0.0071 -0.1885
 6664SOL    HW131454   4.534   1.466  16.422 -0.6976  1.1990 -2.2144
 6664SOL    HW231455   4.456   1.366  16.498  0.8808  0.1246 -0.0384
 6665SOL     OW31456   3.103   4.083   3.201  0.2712  0.0252 -0.1047
 6665SOL    HW131457   3.116   4.164   3.251 -3.5951  1.1907 -0.9124
 6665SOL    HW231458   3.189   4.044   3.215 -0.3246 -0.8082  1.2956
 6666SOL     OW31459   0.653   4.206   6.162 -0.3305 -0.3456  0.0941
 6666SOL    HW131460   0.681   4.251   6.242 -1.5584  1.2356 -0.3500
 6666SOL    HW231461   0.709   4.129   6.165  1.4700  1.0451  2.5182
 6667SOL     OW31462   4.255   0.230  17.379  0.3002  0.0675 -0.1557
 6667SOL    HW131463   4.328   0.197  17.327  0.3924 -1.0886  0.7380
 6667SOL    HW231464   4.259   0.169  17.452 -0.0110  1.6044  1.1548
 6668SOL     OW31465   1.877   0.579   5.589  0.3098 -0.0908 -0.7647
 6668SOL    HW131466   1.876   0.648   5.522  0.5788 -0.3643 -1.0479
 6668SOL    HW231467   1.889   0.501   5.536  1.1214 -0.9049  0.6291
 6669SOL     OW31468   4.060   0.207   6.363  0.1556 -0.4777 -0.0250
 6669SOL    HW131469   4.029   0.150   6.292  0.5591  0.1404 -0.6998
 6669SOL    HW231470   4.044   0.295   6.328 -1.1018 -0.1528  1.3905
 6670SOL     OW31471   3.325   0.116   3.435  0.2872 -0.4401  0.5825
 6670SOL    HW131472   3.389   0.056   3.475 -0.2742 -0.3672  1.5660
 6670SOL    HW231473   3.291   0.158   3.514  0.9753  0.5869  0.3325
 6671SOL     OW31474   3.672   3.674   6.223 -0.5110  0.7543 -0.0537
 6671SOL    HW131475   3.624   3.591   6.230 -2.3459  1.8588  0.5467
 6671SOL    HW231476   3.760   3.639   6.211  0.2372  2.2498  1.1836
 6672SOL     OW31477   2.205   3.530   7.903 -0.2173 -0.2472 -0.0466
 6672SOL    HW131478   2.296   3.547   7.878 -0.8244  0.7464 -1.5333
 6672SOL    HW231479   2.213   3.524   7.999 -4.7492 -0.8437  0.2855
 6673SOL     OW31480   0.957   1.045   7.320  0.3799  0.2128  0.3785
 6673SOL    HW131481   0.961   0.975   7.255 -0.4743 -0.2840  0.8747
 6673SOL    HW231482   0.879   1.022   7.370  0.3708 -2.1123 -0.7471
 6674SOL     OW31483   0.846   2.646   6.986 -0.3519 -0.3157  0.5026
 6674SOL    HW131484   0.815   2.686   7.067  1.5654 -0.7385  1.4450
 6674SOL    HW231485   0.939   2.666   6.976 -0.4171 -0.6370 -0.7349
 6675SOL     OW31486   4.298   2.031   9.584 -0.2647  0.0435  0.5664
 6675SOL    HW131487   4.241   1.960   9.613 -1.5020 -0.8181 -4.0531
 6675SOL    HW231488   4.358   2.035   9.659 -2.3306  1.3260  2.1430
 6676SOL     OW31489   3.546   1.643   8.690 -0.4587 -0.9152 -0.2658
 6676SOL    HW131490   3.550   1.627   8.595  2.5677 -1.6265 -0.0117
 6676SOL    HW231491   3.496   1.569   8.722 -1.3602 -0.3122 -0.2608
 6677SOL     OW31492   3.986   1.142  15.465 -0.4661 -0.3122  0.0772
 6677SOL    HW131493   4.003   1.236  15.463  0.2293 -0.4336  0.2415
 6677SOL    HW231494   3.965   1.117  15.375 -0.8402  0.2704  0.0032
 6678SOL     OW31495   1.492   2.196   9.008  0.4521 -0.1575  0.1975
 6678SOL    HW131496   1.488   2.118   8.952 -0.5025 -1.2258  1.7319
 6678SOL    HW231497   1.523   2.154   9.089 -3.4587 -0.9474  1.3108
 6679SOL     OW31498   0.416   1.013   7.159 -0.3645 -0.1858  0.1778
 6679SOL    HW131499   0.336   1.036   7.205  0.0116  0.6959  0.3968
 6679SOL    HW231500   0.410   1.051   7.071  2.7838 -3.5706 -1.5044
 6680SOL     OW31501   2.152   3.257   8.725 -0.3473 -0.6490 -0.0103
 6680SOL    HW131502   2.133   3.165   8.707 -0.3342 -0.8466  0.9812
 6680SOL    HW231503   2.187   3.287   8.641  1.3306 -1.8175  0.2662
 6681SOL     OW31504   2.713   1.889   1.217  0.2084  0.0207  0.2268
 6681SOL    HW131505   2.704   1.939   1.298  2.5494  0.4208  0.2204
 6681SOL    HW231506   2.780   1.934   1.166 -0.7513  1.6516  0.3918
 6682SOL     OW31507   2.082   3.091  13.603  0.2356  0.1787  0.1013
 6682SOL    HW131508   2.169   3.084  13.563  0.0509  1.5170 -0.5520
 6682SOL    HW231509   2.034   3.131  13.531  0.1381 -2.2236 -1.1392
 6683SOL     OW31510   0.409   4.574   8.132 -0.1719  0.1228 -0.3114
 6683SOL    HW131511   0.446   4.635   8.069 -0.5510  0.6092 -0.0657
 6683SOL    HW231512   0.334   4.533   8.090  0.8507 -0.8192 -1.1870
 6684SOL     OW31513   1.593   0.193   9.308 -0.1400 -0.2114 -0.1048
 6684SOL    HW131514   1.596   0.281   9.345 -1.4183 -0.7782  1.3436
 6684SOL    HW231515   1.663   0.153   9.360 -0.7160 -1.1795 -0.0746
 6685SOL     OW31516   1.079   0.488  11.886  0.2566 -0.1543 -0.3876
 6685SOL    HW131517   1.154   0.432  11.904  0.3444  0.3174  0.7222
 6685SOL    HW231518   1.011   0.426  11.913 -2.4665  3.8786  2.0432
 6686SOL     OW31519   0.197   4.138   6.716  0.5246  0.0061  0.0933
 6686SOL    HW131520   0.253   4.150   6.639  1.0012  1.1908  0.6348
 6686SOL    HW231521   0.141   4.215   6.708 -2.2718 -2.1817 -1.5778
 6687SOL     OW31522   3.163   3.457   8.001 -0.1992  0.6161 -0.4397
 6687SOL    HW131523   3.153   3.552   8.002 -2.0246  0.4269 -0.0737
 6687SOL    HW231524   3.152   3.439   7.908  0.5605  0.4172 -0.4890
 6688SOL     OW31525   2.105   4.309   7.867 -0.4320 -0.3854 -0.0439
 6688SOL    HW131526   2.077   4.397   7.894  1.1552  0.2355 -0.4180
 6688SOL    HW231527   2.033   4.298   7.805 -0.8003 -1.1046  0.5099
 6689SOL     OW31528   4.634   1.973   5.346 -0.0184 -0.6327 -0.1892
 6689SOL    HW131529   4.708   1.970   5.286 -0.1536 -1.1542 -0.3314
 6689SOL    HW231530   4.654   1.899   5.405 -1.1512 -1.3606 -0.7040
 6690SOL     OW31531   1.260   4.030   3.122  0.0762  0.6099  0.3605
 6690SOL    HW131532   1.258   3.950   3.069  0.8597  0.5049  0.4990
 6690SOL    HW231533   1.326   4.083   3.079 -0.7446  3.9384  3.1744
 6691SOL     OW31534   4.140   3.796   6.242  0.0165 -0.3872 -0.3604
 6691SOL    HW131535   4.228   3.834   6.235  0.4875 -1.2128  0.9764
 6691SOL    HW231536   4.092   3.879   6.246  1.9482  0.6568  1.5540
 6692SOL     OW31537   1.151   1.704   2.392 -0.1309  0.4867  0.6071
 6692SOL    HW131538   1.110   1.773   2.445 -0.8087 -1.3684  2.5234
 6692SOL    HW231539   1.152   1.747   2.307 -0.8151  1.2318  0.9799
 6693SOL     OW31540   3.045   3.061   5.015  0.1627 -0.1414 -0.0145
 6693SOL    HW131541   3.069   3.103   4.932  0.1597  1.4252  0.7814
 6693SOL    HW231542   2.953   3.081   5.028 -0.3202 -1.5586 -1.3011
 6694SOL     OW31543   2.421   3.826  14.997  0.7926 -0.5659 -0.1843
 6694SOL    HW131544   2.334   3.815  15.034 -0.5194  0.1107 -3.0928
 6694SOL    HW231545   2.463   3.878  15.065  0.6563  0.9105 -1.2044
 6695SOL     OW31546   2.886   1.280  16.980  0.2841 -0.1666 -0.5862
 6695SOL    HW131547   2.929   1.355  16.939 -1.0397  1.2348  0.5951
 6695SOL    HW231548   2.867   1.230  16.901 -4.5135 -1.0909  1.0986
 6696SOL     OW31549   3.646   3.238   7.281 -1.0881 -0.9234 -0.2674
 6696SOL    HW131550   3.621   3.323   7.317 -0.2640 -1.6280  1.9873
 6696SOL    HW231551   3.725   3.222   7.333 -0.3035  0.5390 -0.9905
 6697SOL     OW31552   3.460   4.193  11.804 -0.5647  0.2998 -0.2300
 6697SOL    HW131553   3.430   4.155  11.721  2.0054 -1.9589 -0.1376
 6697SOL    HW231554   3.405   4.270  11.815  0.6725  1.3228 -1.2654
 6698SOL     OW31555   0.272   1.902   3.298  0.4573 -0.0704 -0.5429
 6698SOL    HW131556   0.319   1.933   3.220  0.2887  0.0246 -0.6073
 6698SOL    HW231557   0.315   1.820   3.322  2.3835  0.6827 -1.3848
 6699SOL     OW31558   2.316   1.675   1.727 -0.2397 -0.6000  0.2157
 6699SOL    HW131559   2.357   1.592   1.751  2.2951  0.1579 -1.4672
 6699SOL    HW231560   2.369   1.735   1.778 -0.6941  0.6257 -0.7337
 6700SOL     OW31561   1.857   2.546   8.631 -0.7604 -0.2790 -0.1844
 6700SOL    HW131562   1.853   2.481   8.560  0.1679  0.4926 -0.9419
 6700SOL    HW231563   1.862   2.629   8.584 -0.1894  0.3310  0.9695
 6701SOL     OW31564   3.016   0.960   5.017 -0.9074  0.1568 -0.3725
 6701SOL    HW131565   2.979   0.943   4.931  1.4394 -1.4360 -1.0463
 6701SOL    HW231566   3.062   0.879   5.036  1.1281  0.6188 -3.4531
 6702SOL     OW31567   0.833   3.951   6.546  0.4217 -0.0884 -0.4549
 6702SOL    HW131568   0.853   3.893   6.620 -1.6177 -0.3360 -0.0974
 6702SOL    HW231569   0.902   4.017   6.556  0.2838 -0.2577  1.5826
 6703SOL     OW31570   3.055   2.797   8.587  0.0585 -0.6161  0.0565
 6703SOL    HW131571   3.096   2.749   8.658 -1.0910  3.1100  3.2702
 6703SOL    HW231572   2.968   2.818   8.623 -0.4735 -1.5003 -0.7170
 6704SOL     OW31573   0.835   1.616   2.100 -0.1612  0.0494  0.2130
 6704SOL    HW131574   0.862   1.672   2.173 -1.2232  0.6045  0.1860
 6704SOL    HW231575   0.900   1.545   2.099 -1.6133 -1.2682 -1.0691
 6705SOL     OW31576   3.401   0.710   6.591 -0.5336 -0.1488 -0.0694
 6705SOL    HW131577   3.359   0.702   6.506 -2.1686 -0.6816  0.7802
 6705SOL    HW231578   3.424   0.625   6.628  2.1199  0.4393 -0.3640
 6706SOL     OW31579   0.426   1.380   4.487  0.6575  0.1320  0.4255
 6706SOL    HW131580   0.395   1.336   4.566 -0.6806  0.8323  0.2874
 6706SOL    HW231581   0.378   1.331   4.420  1.6887 -1.5903  0.9561
 6707SOL     OW31582   2.776   3.808  16.340 -0.0264 -0.4608 -0.4063
 6707SOL    HW131583   2.705   3.788  16.279  0.3858 -2.9916 -0.0519
 6707SOL    HW231584   2.821   3.726  16.360  1.0519  0.2882  0.2855
 6708SOL     OW31585   2.845   1.837   5.975  0.0834  0.0706 -0.5107
 6708SOL    HW131586   2.857   1.755   5.926  0.4905  1.0090 -1.9490
 6708SOL    HW231587   2.809   1.897   5.910 -0.1791  0.8468  0.3601
 6709SOL     OW31588   1.394   3.458   7.861 -0.1892  0.2345 -0.3914
 6709SOL    HW131589   1.447   3.439   7.784  0.9465 -1.9523  0.9383
 6709SOL    HW231590   1.449   3.519   7.911 -0.5285 -0.7468  1.1857
 6710SOL     OW31591   1.764   3.516  12.776 -0.3346 -0.7203  0.0701
 6710SOL    HW131592   1.766   3.445  12.841 -1.0539 -0.7279  0.0879
 6710SOL    HW231593   1.689   3.489  12.723 -0.7722  0.5492  0.0499
 6711SOL     OW31594   0.698   1.915   3.636 -0.1515 -0.4847  0.2597
 6711SOL    HW131595   0.648   1.910   3.718 -0.3553  2.1933  0.2747
 6711SOL    HW231596   0.714   2.009   3.635  1.2176 -0.7167  1.0269
 6712SOL     OW31597   3.986   3.073   9.099 -0.3059 -0.2396  0.3601
 6712SOL    HW131598   4.007   3.142   9.162  1.5292  0.9030 -1.5070
 6712SOL    HW231599   3.891   3.062   9.109 -0.3913 -0.5841 -0.8138
 6713SOL     OW31600   0.022   4.056  16.222 -0.2952 -0.2789  0.3111
 6713SOL    HW131601   4.657   4.052  16.261 -0.6102  0.5642 -0.3192
 6713SOL    HW231602   0.042   4.148  16.236 -0.9281 -0.0828 -0.0780
 6714SOL     OW31603   4.194   0.365   3.655  0.1417 -0.9638  0.4184
 6714SOL    HW131604   4.150   0.351   3.571 -0.7403 -1.2552  0.9332
 6714SOL    HW231605   4.237   0.450   3.650 -0.3758 -0.5960  2.1490
 6715SOL     OW31606   0.526   0.430  11.365 -0.4191 -0.5428 -0.4562
 6715SOL    HW131607   0.514   0.438  11.459 -0.9100  0.6982 -0.6227
 6715SOL    HW231608   0.521   0.334  11.357  0.6640 -0.6713  0.5597
 6716SOL     OW31609   3.485   3.668   7.597 -0.5438  0.1347  0.5548
 6716SOL    HW131610   3.508   3.759   7.612 -2.8690  0.7498  0.3510
 6716SOL    HW231611   3.391   3.673   7.577 -0.3867  3.7917  0.7628
 6717SOL     OW31612   0.654   3.568   7.151 -0.5086 -0.3185 -0.6449
 6717SOL    HW131613   0.675   3.662   7.147  1.5125 -0.6883  1.5880
 6717SOL    HW231614   0.645   3.545   7.243 -0.4676 -4.6489 -1.7326
 6718SOL     OW31615   3.537   2.033   1.394 -0.0709  0.1869 -0.2455
 6718SOL    HW131616   3.618   2.084   1.388 -0.9173  1.6776  0.8663
 6718SOL    HW231617   3.530   1.983   1.313 -1.1902  0.9742 -0.6329
 6719SOL     OW31618   2.021   1.935   2.322  0.0555 -0.0131 -0.2988
 6719SOL    HW131619   2.094   1.879   2.293 -0.4126 -0.3024 -0.9323
 6719SOL    HW231620   1.948   1.876   2.303 -2.6919  3.0279  0.9231
 6720SOL     OW31621   4.562   1.550   8.579  0.2308  0.2624 -0.3625
 6720SOL    HW131622   4.475   1.585   8.562  0.5238  1.7774  1.3214
 6720SOL    HW231623   4.611   1.591   8.508  0.8214 -0.3746 -0.3280
 6721SOL     OW31624   3.711   0.494   4.418 -0.0595 -0.5410 -0.0374
 6721SOL    HW131625   3.671   0.429   4.476 -0.0542  0.3234  0.9271
 6721SOL    HW231626   3.644   0.561   4.430 -0.6242 -1.0581 -0.2798
 6722SOL     OW31627   4.714   3.887  15.494  0.5667  0.0633 -0.0114
 6722SOL    HW131628   4.628   3.920  15.468  0.3900 -1.1754 -0.9956
 6722SOL    HW231629   4.710   3.910  15.587 -0.6165  0.5356 -0.1732
 6723SOL     OW31630   2.008   3.870   6.222  0.4670 -0.2151  0.2637
 6723SOL    HW131631   1.974   3.852   6.134 -1.0535  2.3004  0.3284
 6723SOL    HW231632   1.972   3.959   6.228  0.1976 -0.3910  1.1878
 6724SOL     OW31633   3.813   0.273   4.871 -0.1878  0.5149 -0.0852
 6724SOL    HW131634   3.859   0.256   4.789 -0.0902 -3.6324  0.8292
 6724SOL    HW231635   3.867   0.347   4.900 -0.6859  0.1288  1.8320
 6725SOL     OW31636   3.868   4.304   4.415  0.0056  0.2890  0.1390
 6725SOL    HW131637   3.788   4.342   4.380 -1.6258 -1.0361  2.4456
 6725SOL    HW231638   3.860   4.214   4.383  0.0697 -0.4947  2.3301
 6726SOL     OW31639   3.084   2.544   3.229  0.0214 -0.5411  0.4914
 6726SOL    HW131640   3.037   2.464   3.207 -2.5704  1.4681 -1.2917
 6726SOL    HW231641   3.088   2.536   3.324  0.8178 -0.2172  0.4892
 6727SOL     OW31642   1.449   0.264   9.080 -0.2195  0.0370  0.1184
 6727SOL    HW131643   1.383   0.194   9.078 -0.4741  0.2067  1.9890
 6727SOL    HW231644   1.501   0.234   9.155  0.4021 -3.2953 -1.6448
 6728SOL     OW31645   3.104   0.768   5.201  0.0602 -0.4935 -0.8758
 6728SOL    HW131646   3.121   0.747   5.293  0.1394  0.5842 -0.6518
 6728SOL    HW231647   3.066   0.684   5.174 -0.3381 -0.6381  0.1185
 6729SOL     OW31648   4.656   1.308   4.147  0.5182  0.3924 -1.0179
 6729SOL    HW131649   4.652   1.221   4.185 -0.5471  0.8033 -0.2159
 6729SOL    HW231650   4.615   1.366   4.211 -0.4851 -0.5434 -0.8247
 6730SOL     OW31651   0.437   0.457   2.157  0.2391 -0.0151 -0.1547
 6730SOL    HW131652   0.520   0.483   2.196 -0.7042  0.7707  1.3490
 6730SOL    HW231653   0.472   0.402   2.087  2.5703  1.6468 -0.2876
 6731SOL     OW31654   1.081   0.281   6.723  0.2204 -0.6112  0.2373
 6731SOL    HW131655   1.020   0.271   6.650  0.0319  0.0378  0.3069
 6731SOL    HW231656   1.158   0.315   6.678 -0.0997 -1.4522 -0.9555
 6732SOL     OW31657   0.433   0.477   7.697  0.7264 -0.1497 -0.0844
 6732SOL    HW131658   0.455   0.556   7.649 -1.8096  0.2691 -0.5826
 6732SOL    HW231659   0.410   0.413   7.629  1.1148 -0.6276  0.2272
 6733SOL     OW31660   4.242   3.708   3.519 -0.5963  0.5071  0.1706
 6733SOL    HW131661   4.297   3.777   3.558  1.1966  0.0179 -1.4925
 6733SOL    HW231662   4.202   3.761   3.450 -0.6167  2.2428  1.5017
 6734SOL     OW31663   2.545   3.179  14.092 -0.3929 -0.6259  0.2254
 6734SOL    HW131664   2.563   3.250  14.032 -1.9398  0.2174  0.7577
 6734SOL    HW231665   2.451   3.166  14.076 -0.4482  0.8433 -0.5731
 6735SOL     OW31666   0.957   0.328   6.976 -0.3306 -0.0623  0.4486
 6735SOL    HW131667   1.002   0.305   6.895  0.9803 -1.6300  1.6129
 6735SOL    HW231668   0.907   0.248   6.991 -1.1466  0.5784  1.1385
 6736SOL     OW31669   3.903   1.152   6.826 -0.0546  0.1286  0.2860
 6736SOL    HW131670   3.869   1.206   6.897  0.0073 -1.3981  1.4508
 6736SOL    HW231671   3.997   1.157   6.843 -0.1745  0.5157  0.8367
 6737SOL     OW31672   1.469   4.438   4.913  0.4427  0.0427 -0.4870
 6737SOL    HW131673   1.538   4.417   4.850  1.4266 -3.2815  1.7145
 6737SOL    HW231674   1.430   4.511   4.865  0.0496 -0.3137 -0.6980
 6738SOL     OW31675   1.992   4.512   5.787 -0.0779 -0.2579  0.5319
 6738SOL    HW131676   2.067   4.476   5.834  3.3075  3.6762 -1.8270
 6738SOL    HW231677   2.015   4.498   5.695  0.6581  1.0449  0.5122
 6739SOL     OW31678   1.845   2.054   5.540 -0.5213 -0.1747  0.0642
 6739SOL    HW131679   1.799   2.016   5.465  0.0010 -1.6278  0.4938
 6739SOL    HW231680   1.775   2.047   5.605 -1.0649  0.6560 -0.4176
 6740SOL     OW31681   1.837   3.591   3.438  0.6232  0.9114 -0.1964
 6740SOL    HW131682   1.786   3.519   3.402 -0.2170  0.9754  0.8585
 6740SOL    HW231683   1.782   3.666   3.416  0.8217  0.6018 -1.7518
 6741SOL     OW31684   4.651   1.053   1.336 -0.1117  0.4132  0.2091
 6741SOL    HW131685   4.600   1.031   1.414  0.3620  1.2384  0.7506
 6741SOL    HW231686   4.594   1.110   1.286 -0.5235  0.0287  0.2413
 6742SOL     OW31687   1.577   3.883   3.740  0.8817  0.3624  0.3349
 6742SOL    HW131688   1.666   3.874   3.775  0.7358 -0.6199  0.4445
 6742SOL    HW231689   1.571   3.805   3.685 -0.4692  0.8075 -0.1534
 6743SOL     OW31690   1.116   0.207   3.313  0.2637  0.4316 -0.9745
 6743SOL    HW131691   1.058   0.132   3.326  0.6695  0.1520 -0.7552
 6743SOL    HW231692   1.056   0.270   3.351 -0.1475 -0.8127  0.4346
 6744SOL     OW31693   0.634   1.306   9.261  0.1204  0.1385 -0.8775
 6744SOL    HW131694   0.719   1.281   9.226  1.7483  3.0394  1.0057
 6744SOL    HW231695   0.645   1.258   9.343  0.4175 -0.8558 -1.5040
 6745SOL     OW31696   3.859   3.247   5.638  0.0109  0.0003  0.3307
 6745SOL    HW131697   3.917   3.319   5.660 -1.4246  1.0751  0.5721
 6745SOL    HW231698   3.863   3.243   5.543  0.8172  0.0236  0.3680
 6746SOL     OW31699   3.309   1.694   8.968 -0.2225  0.2034  0.2571
 6746SOL    HW131700   3.360   1.617   8.942 -0.5236  0.0179  0.2152
 6746SOL    HW231701   3.379   1.758   8.961  0.7205 -0.7295  1.3145
 6747SOL     OW31702   4.293   3.496  15.412  0.7328 -0.1804 -0.3514
 6747SOL    HW131703   4.230   3.465  15.478 -0.3685  3.6069  0.3564
 6747SOL    HW231704   4.328   3.570  15.460  0.7575  1.0891 -2.3376
 6748SOL     OW31705   1.206   4.366   7.114 -0.4309  0.3665 -0.7025
 6748SOL    HW131706   1.169   4.357   7.026  0.6835 -2.6899 -0.8337
 6748SOL    HW231707   1.171   4.450   7.144  1.5554  1.7177 -2.2376
 6749SOL     OW31708   4.612   0.185   8.139 -0.0770  0.4322  0.1008
 6749SOL    HW131709   4.678   0.252   8.122  2.0263 -1.4568  0.9078
 6749SOL    HW231710   4.668   0.123   8.187 -1.4682 -1.1629 -0.3280
 6750SOL     OW31711   4.544   2.762  13.240  0.1531  0.3706  0.4303
 6750SOL    HW131712   4.530   2.768  13.145 -0.8773 -1.8826  0.4403
 6750SOL    HW231713   4.553   2.856  13.252 -1.3452  0.7925 -1.5877
 6751SOL     OW31714   3.203   0.227   4.598  0.4211 -0.3836 -0.2561
 6751SOL    HW131715   3.263   0.177   4.654  4.7525  3.2400 -1.6109
 6751SOL    HW231716   3.196   0.160   4.530  1.0742  0.3520 -1.0591
 6752SOL     OW31717   0.349   2.579   5.839 -0.6456  0.3334 -0.9760
 6752SOL    HW131718   0.431   2.563   5.884 -1.6997  2.0662  1.5319
 6752SOL    HW231719   0.361   2.530   5.757  0.3873 -0.2416 -0.4746
 6753SOL     OW31720   2.764   4.608   8.976 -0.1460  0.3128 -0.1730
 6753SOL    HW131721   2.818   4.687   8.966  0.6803 -0.5330 -2.3241
 6753SOL    HW231722   2.785   4.578   9.065  1.7194  3.7140  0.5470
 6754SOL     OW31723   3.630   1.260   8.769  0.5288 -0.3547 -0.9231
 6754SOL    HW131724   3.718   1.227   8.750  0.8209  1.4035 -2.5852
 6754SOL    HW231725   3.581   1.239   8.689  0.6530 -1.9233 -0.5818
 6755SOL     OW31726   1.379   3.412   4.525 -0.3329  0.0842  0.1962
 6755SOL    HW131727   1.338   3.327   4.538 -0.6114  0.3977  1.4165
 6755SOL    HW231728   1.424   3.399   4.442 -0.5402  2.3971 -0.2945
 6756SOL     OW31729   1.023   1.403   6.040  0.6859  0.0040 -0.0355
 6756SOL    HW131730   0.931   1.415   6.018  0.0538  0.8266  2.9799
 6756SOL    HW231731   1.007   1.346   6.115 -1.3054  0.5005 -0.0742
 6757SOL     OW31732   1.398   1.653   7.666  0.2306  0.3194 -0.2523
 6757SOL    HW131733   1.476   1.604   7.641 -0.3825 -0.0105 -1.5356
 6757SOL    HW231734   1.342   1.645   7.589 -0.2253 -3.4413  0.4800
 6758SOL     OW31735   4.505   0.609   7.957 -0.3702 -0.1274  0.7061
 6758SOL    HW131736   4.430   0.582   7.903  0.9496 -0.3415 -1.0336
 6758SOL    HW231737   4.577   0.551   7.934 -1.8604 -2.0536  0.8579
 6759SOL     OW31738   3.613   1.087   8.978  0.1484  0.3748 -0.1722
 6759SOL    HW131739   3.588   1.019   8.915 -0.2326  0.5776 -0.2403
 6759SOL    HW231740   3.618   1.161   8.918 -1.6601  0.7006  0.0852
 6760SOL     OW31741   3.773   3.768   7.464 -0.3229 -0.1676 -0.2926
 6760SOL    HW131742   3.721   3.713   7.406  0.3148 -0.9541 -0.1120
 6760SOL    HW231743   3.705   3.784   7.530 -0.7395  0.0977 -0.7847
 6761SOL     OW31744   0.090   0.507   8.906  0.3056  0.1761 -0.1726
 6761SOL    HW131745   0.158   0.574   8.904  0.7646 -0.3452 -1.6794
 6761SOL    HW231746   0.094   0.479   8.998 -1.4734  0.5863  0.0349
 6762SOL     OW31747   2.980   0.800   5.646 -0.0458 -0.2806 -0.6140
 6762SOL    HW131748   2.906   0.842   5.601 -0.6695  0.1207  0.7789
 6762SOL    HW231749   2.941   0.749   5.717  2.0920  0.7518  1.3133
 6763SOL     OW31750   0.875   0.833   7.135 -0.1041  0.0344  0.7868
 6763SOL    HW131751   0.797   0.789   7.169 -0.8334  0.7054 -0.0006
 6763SOL    HW231752   0.855   0.837   7.041 -2.6235  1.7982  1.3737
 6764SOL     OW31753   4.423   0.974  14.718 -0.2890  0.1471  0.2027
 6764SOL    HW131754   4.436   1.068  14.730 -1.0854  0.1933  0.7545
 6764SOL    HW231755   4.423   0.942  14.808 -2.1421 -2.9862 -0.9053
 6765SOL     OW31756   0.756   1.266   1.377 -0.1873 -0.6663  0.5636
 6765SOL    HW131757   0.702   1.200   1.335 -0.2134 -1.0448  1.1886
 6765SOL    HW231758   0.821   1.294   1.313 -0.8797 -0.8639 -0.2167
 6766SOL     OW31759   2.727   3.752  11.972 -0.5027 -0.3529 -0.0438
 6766SOL    HW131760   2.651   3.810  11.977 -0.6667 -0.5935  0.2542
 6766SOL    HW231761   2.718   3.699  12.052 -0.7178 -0.7564 -0.3343
 6767SOL     OW31762   4.005   2.868  12.160 -0.1947  0.3323  0.1502
 6767SOL    HW131763   3.916   2.837  12.143 -0.6535  1.3511  0.7036
 6767SOL    HW231764   3.993   2.882  12.254 -1.6590 -0.0072  0.0113
 6768SOL     OW31765   2.160   4.030  10.633 -0.0446  0.2864  0.2492
 6768SOL    HW131766   2.253   4.040  10.616 -0.1312  0.8856  0.1601
 6768SOL    HW231767   2.156   3.935  10.648 -1.9693  0.5192  1.2737
 6769SOL     OW31768   3.958   1.826   3.356  0.0642  0.0721 -0.1001
 6769SOL    HW131769   3.884   1.852   3.301  0.4616 -1.2181 -1.2478
 6769SOL    HW231770   4.004   1.909   3.370  1.1063 -0.6003  0.4526
 6770SOL     OW31771   1.381   1.258   2.549  0.3021  0.6516 -0.0500
 6770SOL    HW131772   1.332   1.216   2.620  0.6625 -1.0321 -0.7965
 6770SOL    HW231773   1.320   1.318   2.506 -1.3605  0.1932  1.6486
 6771SOL     OW31774   2.100   3.100   7.184  0.4253  0.4544  0.2530
 6771SOL    HW131775   2.066   3.042   7.252  1.6026 -1.3562 -0.7180
 6771SOL    HW231776   2.083   3.187   7.221 -2.5335 -0.9754  2.2184
 6772SOL     OW31777   2.734   1.351   5.547 -0.0929  0.1558 -0.1691
 6772SOL    HW131778   2.757   1.295   5.621 -1.6100  0.6404  0.6568
 6772SOL    HW231779   2.779   1.298   5.481 -1.0368 -3.1192  1.8503
 6773SOL     OW31780   4.592   4.621   3.347  0.4010  0.4338  0.1697
 6773SOL    HW131781   4.675   4.613   3.300 -0.2828 -0.5775 -0.8663
 6773SOL    HW231782   4.621   4.587   3.432  0.7883 -0.0440 -0.1575
 6774SOL     OW31783   0.789   3.502   5.679  0.5315  0.0496  0.0258
 6774SOL    HW131784   0.744   3.586   5.690 -2.5090 -1.5102 -0.2713
 6774SOL    HW231785   0.753   3.450   5.751  2.3569 -1.1723  0.0285
 6775SOL     OW31786   3.514   3.188   0.431 -0.3291 -0.6212  0.2731
 6775SOL    HW131787   3.521   3.265   0.374 -0.2084 -1.5101 -0.9147
 6775SOL    HW231788   3.593   3.189   0.485  0.3384  1.8060 -0.7377
 6776SOL     OW31789   3.022   0.500  13.110 -0.3304  0.3864  0.0221
 6776SOL    HW131790   2.946   0.441  13.108 -0.6705  0.7662  1.5805
 6776SOL    HW231791   3.101   0.449  13.095  1.0654  1.9712  1.9203
 6777SOL     OW31792   0.321   4.041  14.955  0.1542  0.5471  0.0554
 6777SOL    HW131793   0.333   3.991  14.874  0.9631 -0.4947  0.8202
 6777SOL    HW231794   0.234   4.017  14.988 -0.0666 -0.3115 -1.1668
 6778SOL     OW31795   3.221   3.764   7.551  1.0659 -0.2340 -0.2785
 6778SOL    HW131796   3.231   3.827   7.479 -4.0223  1.2731  0.3049
 6778SOL    HW231797   3.126   3.755   7.552  1.2798 -2.5573 -0.9911
 6779SOL     OW31798   1.051   4.253   8.935  0.0288  0.4295 -0.1365
 6779SOL    HW131799   1.126   4.258   8.994 -1.3192 -0.9083  1.6702
 6779SOL    HW231800   1.053   4.158   8.920 -1.5901  0.8055 -2.7976
 6780SOL     OW31801   4.394   0.585   4.541  0.3078  0.1827  0.2156
 6780SOL    HW131802   4.300   0.599   4.548 -0.0637 -2.0969 -0.2474
 6780SOL    HW231803   4.408   0.584   4.446 -2.2094 -0.4791 -0.1525
 6781SOL     OW31804   1.794   2.975   9.360  0.5537 -0.7619 -0.2973
 6781SOL    HW131805   1.834   3.049   9.407 -0.5053  0.0778 -0.7099
 6781SOL    HW231806   1.807   2.908   9.427  0.6949 -0.0024  0.4339
 6782SOL     OW31807   2.090   1.514   7.199  0.0130 -0.1050  0.0051
 6782SOL    HW131808   2.145   1.591   7.205 -0.0460 -0.1286  0.8546
 6782SOL    HW231809   2.131   1.477   7.121  0.2940 -3.0419  1.5417
 6783SOL     OW31810   0.792   0.648   4.202 -0.1714  0.2097 -0.1686
 6783SOL    HW131811   0.781   0.556   4.225  1.1825 -0.2826 -1.5444
 6783SOL    HW231812   0.887   0.651   4.215 -0.4402 -0.1158  1.8643
 6784SOL     OW31813   0.121   2.701   3.961  0.8490 -0.1453  0.2103
 6784SOL    HW131814   0.091   2.785   3.928 -3.3559 -0.4042  3.4501
 6784SOL    HW231815   0.050   2.645   3.928  0.4828  1.0804 -1.0642
 6785SOL     OW31816   1.449   1.043   8.432  0.2346 -1.2447  0.2247
 6785SOL    HW131817   1.516   1.060   8.365 -0.9228  0.4515 -0.4949
 6785SOL    HW231818   1.492   1.078   8.510  0.3101  0.9938 -0.8067
 6786SOL     OW31819   0.512   3.940   6.552 -0.3276 -0.3160  0.3169
 6786SOL    HW131820   0.604   3.926   6.531 -0.4007  0.4097 -0.4985
 6786SOL    HW231821   0.492   3.889   6.630 -0.1118 -0.3319  0.3609
 6787SOL     OW31822   2.082   1.042   2.259  0.5378 -0.2056 -0.3570
 6787SOL    HW131823   2.159   1.093   2.283  1.3518 -0.2914 -2.7591
 6787SOL    HW231824   2.030   1.110   2.217 -0.1383  0.1301  1.0134
 6788SOL     OW31825   4.013   4.568  12.533  0.0361 -0.6817  0.4946
 6788SOL    HW131826   3.995   4.529  12.448 -3.1514 -1.2284  1.3933
 6788SOL    HW231827   4.004   4.486  12.583 -1.2188  0.2191  1.7678
 6789SOL     OW31828   3.283   3.581   0.811  0.2586  0.3079 -0.3850
 6789SOL    HW131829   3.342   3.620   0.747  1.5353 -0.1571  0.5026
 6789SOL    HW231830   3.246   3.656   0.858  1.1799 -0.6064  1.8242
 6790SOL     OW31831   4.242   3.071  14.880 -0.6378  0.0851 -0.4945
 6790SOL    HW131832   4.270   3.055  14.790 -0.2768  1.5179 -0.6347
 6790SOL    HW231833   4.304   3.143  14.898  0.4496 -1.4782  2.1517
 6791SOL     OW31834   3.271   3.483   2.776  0.4584 -0.2541  0.4979
 6791SOL    HW131835   3.249   3.432   2.854 -0.4499 -2.5817 -1.3200
 6791SOL    HW231836   3.182   3.480   2.742 -0.6253 -1.2798  3.4299
 6792SOL     OW31837   4.049   4.705   2.747 -0.4029 -0.1667  0.6134
 6792SOL    HW131838   4.130   4.656   2.752 -0.5533 -0.4878 -0.2376
 6792SOL    HW231839   4.081   0.056   2.696 -1.8516  1.4645  2.0428
 6793SOL     OW31840   4.486   0.058  17.273  0.2035 -0.0492 -0.1446
 6793SOL    HW131841   4.421   4.716  17.245  1.9628 -1.3843 -1.0746
 6793SOL    HW231842   4.545   0.060  17.199  2.9207 -0.9986  1.9875
 6794SOL     OW31843   2.509   2.913   1.560  0.0849  0.2299  0.5876
 6794SOL    HW131844   2.514   2.914   1.656  3.6910 -0.0173  0.4118
 6794SOL    HW231845   2.469   2.827   1.548  1.3734 -0.3855  0.7228
 6795SOL     OW31846   3.124   1.065  12.360 -0.3260 -0.1300 -0.4165
 6795SOL    HW131847   3.119   1.072  12.455  0.1112  0.3498 -0.4292
 6795SOL    HW231848   3.164   1.151  12.350  1.4543 -1.2690 -3.2304
 6796SOL     OW31849   3.876   0.289  10.635 -0.0019 -0.4622 -0.7995
 6796SOL    HW131850   3.908   0.201  10.654 -0.7998 -0.8251 -1.1340
 6796SOL    HW231851   3.809   0.292  10.704  1.2529 -0.5361  0.4194
 6797SOL     OW31852   2.797   0.529   5.573  0.8774 -0.3087  0.0682
 6797SOL    HW131853   2.743   0.461   5.612 -0.5178  0.6517 -0.2166
 6797SOL    HW231854   2.838   0.555   5.655  1.0820 -0.6589  0.0791
 6798SOL     OW31855   0.182   2.739   8.765  0.1994 -0.6201  0.4148
 6798SOL    HW131856   0.226   2.822   8.745 -0.2236 -1.1395 -2.7421
 6798SOL    HW231857   0.221   2.724   8.851 -0.3334 -0.8863  0.6106
 6799SOL     OW31858   1.634   4.164   5.448  0.6784  0.1605 -0.2370
 6799SOL    HW131859   1.670   4.086   5.490 -1.7727 -0.0721  1.4237
 6799SOL    HW231860   1.540   4.151   5.439  0.7628  0.7778 -2.0785
 6800SOL     OW31861   0.371   0.388   4.156 -0.5065 -0.3493 -0.4818
 6800SOL    HW131862   0.363   0.333   4.079 -0.5637 -1.0594  0.0363
 6800SOL    HW231863   0.368   0.329   4.231 -1.2209  1.0123  0.5720
 6801SOL     OW31864   4.675   4.390   0.135 -0.3922  0.1864 -0.2941
 6801SOL    HW131865   4.625   4.471   0.141  1.6510  1.5515 -1.5670
 6801SOL    HW231866   4.650   4.359   0.048 -0.7910  1.9853 -0.8358
 6802SOL     OW31867   2.795   2.204  16.628 -0.1828 -0.0629  0.5999
 6802SOL    HW131868   2.812   2.131  16.568  2.0790  1.7004 -0.8947
 6802SOL    HW231869   2.732   2.254  16.577 -1.5438 -2.1070  0.2482
 6803SOL     OW31870   4.579   2.761   0.113  0.0748 -0.2963  0.7482
 6803SOL    HW131871   4.513   2.758   0.044  0.5890 -2.4847  0.3727
 6803SOL    HW231872   4.597   2.668   0.121  1.3628 -0.1753 -0.6496
 6804SOL     OW31873   1.349   1.243  12.743  0.6012  0.3015 -0.3903
 6804SOL    HW131874   1.304   1.325  12.765 -1.7407 -0.2969 -3.0599
 6804SOL    HW231875   1.403   1.232  12.821 -1.4198 -2.4475  0.6370
 6805SOL     OW31876   0.439   1.414   3.900 -0.4646  0.3864  0.2513
 6805SOL    HW131877   0.412   1.472   3.972 -1.4147  0.5472 -0.2420
 6805SOL    HW231878   0.393   1.332   3.918  2.1743 -1.0997  0.3201
 6806SOL     OW31879   3.696   2.349   7.414 -0.2174  0.3695 -0.5097
 6806SOL    HW131880   3.707   2.258   7.389  1.9202 -0.3272  2.9834
 6806SOL    HW231881   3.676   2.391   7.329 -1.4850  0.2411 -0.2764
 6807SOL     OW31882   3.845   3.068   8.561 -0.6705 -0.4004 -0.2527
 6807SOL    HW131883   3.806   3.151   8.591 -3.0157 -2.1821  1.6127
 6807SOL    HW231884   3.873   3.028   8.643  1.3978  0.3008 -0.6067
 6808SOL     OW31885   2.994   0.954  16.286 -0.3356  0.3440 -0.0774
 6808SOL    HW131886   3.062   0.908  16.336  0.4101 -1.7769 -3.0032
 6808SOL    HW231887   2.970   0.893  16.216 -0.3352  1.0724 -0.7122
 6809SOL     OW31888   2.212   2.050   7.634 -0.0182 -0.4578  0.5848
 6809SOL    HW131889   2.268   2.011   7.701 -0.2040 -2.3572 -0.3652
 6809SOL    HW231890   2.158   1.979   7.601 -1.1677  0.7765 -0.2352
 6810SOL     OW31891   2.612   1.115   7.852 -0.2444  0.3537  0.2022
 6810SOL    HW131892   2.622   1.128   7.947  0.0027  1.1858  0.0604
 6810SOL    HW231893   2.591   1.022   7.845  1.7383 -0.0482 -0.4564
 6811SOL     OW31894   3.207   1.428   4.144 -0.1515  0.1555  0.0503
 6811SOL    HW131895   3.151   1.504   4.128 -0.2145  0.3650  1.2165
 6811SOL    HW231896   3.144   1.357   4.152 -0.5501  0.4327 -0.6538
 6812SOL     OW31897   1.821   4.304  10.943  0.4661  0.6517 -0.1174
 6812SOL    HW131898   1.904   4.277  10.905  0.2386 -0.9502  0.5020
 6812SOL    HW231899   1.855   4.369  11.004  0.2931 -0.4683  1.1822
 6813SOL     OW31900   3.562   2.051   6.814 -0.1968  0.6851  0.4898
 6813SOL    HW131901   3.594   2.141   6.818 -0.0849  0.6656  0.0412
 6813SOL    HW231902   3.471   2.059   6.784  0.4969 -0.8324 -2.0427
 6814SOL     OW31903   1.485   3.949   7.495 -0.2948  0.2261  0.1897
 6814SOL    HW131904   1.455   4.039   7.480  0.9533  0.8058  1.1846
 6814SOL    HW231905   1.564   3.944   7.441 -0.6948 -0.8092 -0.2907
 6815SOL     OW31906   0.214   2.120   9.659  0.1857  0.0229 -0.0620
 6815SOL    HW131907   0.210   2.170   9.577 -0.1438 -2.9273 -1.8116
 6815SOL    HW231908   0.131   2.073   9.651  0.9043 -1.3889  0.7523
 6816SOL     OW31909   0.966   2.835   9.149 -0.3210 -0.1016 -0.0039
 6816SOL    HW131910   0.902   2.861   9.216 -0.0948 -1.4551  0.7282
 6816SOL    HW231911   0.919   2.770   9.097  0.4786  0.1376 -1.0348
 6817SOL     OW31912   1.394   3.739   6.545 -0.1979 -0.4701  0.6615
 6817SOL    HW131913   1.443   3.821   6.551 -1.2690  0.0302  2.4310
 6817SOL    HW231914   1.305   3.753   6.577 -0.7126 -1.4670 -0.3166
 6818SOL     OW31915   2.078   2.254   9.246 -0.3187  0.8352  0.3686
 6818SOL    HW131916   2.107   2.176   9.293 -2.8713 -1.4855 -1.9283
 6818SOL    HW231917   2.065   2.224   9.156 -1.0927  3.5095 -0.4029
 6819SOL     OW31918   3.573   3.387   2.718  0.1286 -0.0368  0.6932
 6819SOL    HW131919   3.478   3.399   2.711 -0.0955 -1.7002  0.8746
 6819SOL    HW231920   3.583   3.378   2.812  0.4817 -0.8257  0.5799
 6820SOL     OW31921   4.087   3.768  11.119 -0.1407  0.5617 -0.5719
 6820SOL    HW131922   4.110   3.813  11.201 -0.5955  0.1896 -0.2355
 6820SOL    HW231923   4.136   3.687  11.137  1.0697  1.0912 -1.5390
 6821SOL     OW31924   3.192   3.505   7.402  0.1620  0.0312  0.5276
 6821SOL    HW131925   3.192   3.584   7.348  1.6651  1.3018  2.3806
 6821SOL    HW231926   3.104   3.513   7.437 -0.5752  2.4132 -1.8742
 6822SOL     OW31927   0.884   1.001   3.945 -0.3807  0.1342  0.5014
 6822SOL    HW131928   0.853   0.911   3.947 -3.9746  1.4064  1.5764
 6822SOL    HW231929   0.968   0.997   3.899 -0.2488 -0.3132  0.7850
 6823SOL     OW31930   2.183   2.276  11.604  0.1527  0.0842  0.1616
 6823SOL    HW131931   2.119   2.226  11.655  0.6716 -0.3448  0.3883
 6823SOL    HW231932   2.146   2.273  11.515  0.2798  0.4446  0.0950
 6824SOL     OW31933   1.405   2.320   4.876  0.0819 -0.0142 -0.0211
 6824SOL    HW131934   1.375   2.332   4.966  0.7367 -2.0124  0.4716
 6824SOL    HW231935   1.362   2.398   4.841 -2.7666 -0.6489  2.1307
 6825SOL     OW31936   3.770   2.375  13.243  0.6999  0.8624 -0.5330
 6825SOL    HW131937   3.750   2.466  13.219  0.4039  0.5935 -1.3153
 6825SOL    HW231938   3.681   2.346  13.263  0.9080 -1.7122 -3.3565
 6826SOL     OW31939   4.032   4.342   5.185 -0.2444 -0.6912 -0.4391
 6826SOL    HW131940   3.974   4.327   5.111  0.4840 -2.3988 -0.6806
 6826SOL    HW231941   3.985   4.314   5.263  0.1336 -2.5422 -0.8678
 6827SOL     OW31942   4.105   0.319   7.667  0.6232  0.0500  0.5032
 6827SOL    HW131943   4.077   0.234   7.700  0.2966 -0.3958 -0.9061
 6827SOL    HW231944   4.031   0.353   7.617 -0.1468 -0.7289  1.1226
 6828SOL     OW31945   1.160   1.154  10.349 -0.0714  0.0592  0.0587
 6828SOL    HW131946   1.234   1.210  10.324 -1.5069  1.8346 -0.2372
 6828SOL    HW231947   1.118   1.145  10.264 -2.0591  0.6945  0.9760
 6829SOL     OW31948   2.594   3.010   0.391 -0.7008  0.0615  0.0984
 6829SOL    HW131949   2.627   3.057   0.468 -2.0735  2.6834 -0.9292
 6829SOL    HW231950   2.500   3.023   0.402 -0.9537 -2.9033  1.4670
 6830SOL     OW31951   4.577   0.096   2.157 -0.3300  0.4268  0.2783
 6830SOL    HW131952   4.548   0.176   2.114  0.8603 -0.3472 -1.9771
 6830SOL    HW231953   4.549   0.024   2.100 -0.5575 -0.3748  1.4147
 6831SOL     OW31954   0.446   0.495  11.931 -0.2855 -0.1661  0.7612
 6831SOL    HW131955   0.455   0.401  11.944 -0.4779 -0.2108  0.5691
 6831SOL    HW231956   0.426   0.520  12.022  0.8113  0.2424  0.8874
 6832SOL     OW31957   4.498   2.322   8.859 -0.0201 -0.2851  0.2482
 6832SOL    HW131958   4.456   2.349   8.778  0.9491  1.2102  0.2435
 6832SOL    HW231959   4.483   2.228   8.856 -0.2232 -0.2380 -0.1668
 6833SOL     OW31960   3.522   1.932   5.694  0.1697  0.0393 -0.3856
 6833SOL    HW131961   3.456   1.995   5.667  1.1550  2.2055  2.2366
 6833SOL    HW231962   3.496   1.933   5.786  2.0788  3.3704  0.1179
 6834SOL     OW31963   1.617   0.590   6.292  0.1392 -0.5542  0.3525
 6834SOL    HW131964   1.620   0.664   6.231 -1.9518  0.0341  0.9603
 6834SOL    HW231965   1.708   0.589   6.323 -0.3632  0.5101  1.8630
 6835SOL     OW31966   1.841   3.718   3.018 -0.2112  0.3499 -0.0393
 6835SOL    HW131967   1.765   3.687   3.068  0.4623 -1.9288 -0.3914
 6835SOL    HW231968   1.906   3.751   3.079  1.3104 -2.8668  0.0687
 6836SOL     OW31969   2.165   1.498  17.401 -0.2788  0.1438  0.5864
 6836SOL    HW131970   2.174   1.578  17.452  0.5558  0.3858  0.0517
 6836SOL    HW231971   2.073   1.473  17.416  0.0053 -1.8234 -0.9619
 6837SOL     OW31972   3.479   4.532   1.756  0.1921 -0.3132 -0.1137
 6837SOL    HW131973   3.465   4.503   1.666 -1.8683  0.8566 -0.1763
 6837SOL    HW231974   3.479   4.448   1.800  0.7386  0.6287  1.6923
 6838SOL     OW31975   1.733   4.272  12.203  0.7540  0.2594 -0.0711
 6838SOL    HW131976   1.750   4.273  12.109  0.1131  0.3007 -0.1864
 6838SOL    HW231977   1.826   4.282  12.223  0.5285  0.0440  1.0916
 6839SOL     OW31978   4.024   4.674   8.105  0.1591 -0.6332  0.0657
 6839SOL    HW131979   4.104   4.626   8.084 -0.0403 -0.6645 -0.6002
 6839SOL    HW231980   4.036   4.691   8.199 -1.3896  1.1026 -0.0564
 6840SOL     OW31981   4.503   3.015   5.257  0.5945 -0.0227 -0.2981
 6840SOL    HW131982   4.489   3.085   5.193 -0.9760  2.1441  2.4364
 6840SOL    HW231983   4.493   2.949   5.188  0.0474  0.3601 -0.5822
 6841SOL     OW31984   0.450   4.613   2.950 -0.3068 -0.2333  0.0898
 6841SOL    HW131985   0.446   4.569   2.865 -1.4991  1.6630 -0.8472
 6841SOL    HW231986   0.545   4.614   2.961 -0.3286  0.6223  0.1694
 6842SOL     OW31987   0.860   1.457   6.985  0.0814 -0.5108 -0.1992
 6842SOL    HW131988   0.765   1.462   6.995  0.1310 -0.8082  0.5062
 6842SOL    HW231989   0.887   1.526   7.046 -1.2912  2.1603 -2.6842
 6843SOL     OW31990   1.911   0.778  13.155  0.3676  0.1101 -0.1379
 6843SOL    HW131991   1.823   0.748  13.132  0.4169 -0.4479  0.4041
 6843SOL    HW231992   1.937   0.815  13.071  0.1472  1.8112  0.5447
 6844SOL     OW31993   0.765   1.376  10.086 -0.1242 -0.6313  0.0111
 6844SOL    HW131994   0.833   1.361  10.151 -0.7839 -1.6047  0.4860
 6844SOL    HW231995   0.792   1.457  10.043 -0.4659 -0.2180  0.5814
 6845SOL     OW31996   4.223   0.796   4.092  0.3421  0.0059  0.7544
 6845SOL    HW131997   4.205   0.769   4.002  2.6590  0.8702  0.0366
 6845SOL    HW231998   4.273   0.720   4.124  2.7921  1.9052  1.4523
 6846SOL     OW31999   0.211   2.218   5.856  0.0902 -0.2896 -0.1475
 6846SOL    HW132000   0.305   2.201   5.853  0.3173  0.0390  3.8277
 6846SOL    HW232001   0.197   2.227   5.951  0.2496 -1.4341 -0.0214
 6847SOL     OW32002   3.779   2.349   4.365 -0.0807 -0.5340 -0.0124
 6847SOL    HW132003   3.738   2.409   4.426  0.2771  0.8115 -1.1022
 6847SOL    HW232004   3.760   2.261   4.398 -1.6180 -1.2008 -2.6087
 6848SOL     OW32005   4.712   1.775  12.427 -0.1986 -0.3773  0.2417
 6848SOL    HW132006   0.002   1.818  12.511 -1.9398 -1.5728  1.1132
 6848SOL    HW232007   4.703   1.844  12.361 -0.3592 -0.7645 -0.1498
 6849SOL     OW32008   2.215   4.119   8.596  0.2870  0.2204  0.8336
 6849SOL    HW132009   2.216   4.076   8.510  0.8503 -1.3550  1.6280
 6849SOL    HW232010   2.199   4.043   8.652  3.4367 -1.7964 -1.0285
 6850SOL     OW32011   1.702   4.270  11.374  0.3633 -0.4265  0.5448
 6850SOL    HW132012   1.728   4.336  11.310 -1.7359  0.1345  0.2945
 6850SOL    HW232013   1.617   4.301  11.402  0.0859 -0.4007 -0.3315
 6851SOL     OW32014   0.398   4.347  11.758 -0.2235  0.0957 -0.0602
 6851SOL    HW132015   0.315   4.310  11.729  0.2161 -1.0016  0.0688
 6851SOL    HW232016   0.373   4.438  11.774  2.6349  0.9014 -0.0688
 6852SOL     OW32017   0.799   0.809   6.555 -0.6870 -0.2053  0.1308
 6852SOL    HW132018   0.798   0.713   6.554  2.3408 -0.2431 -0.0933
 6852SOL    HW232019   0.711   0.822   6.521  0.1597  1.0321 -1.5655
 6853SOL     OW32020   2.308   0.567   0.164  0.1347 -0.6597  0.4847
 6853SOL    HW132021   2.383   0.544   0.108 -0.2129 -0.7576  0.0554
 6853SOL    HW232022   2.352   0.614   0.235  0.2286 -1.3054  0.8553
 6854SOL     OW32023   0.145   0.637   8.596 -0.4708  0.3890 -0.4647
 6854SOL    HW132024   0.154   0.566   8.533 -0.0836  0.1971 -0.1952
 6854SOL    HW232025   0.210   0.615   8.664  0.7629 -1.8321 -2.3950
 6855SOL     OW32026   4.650   1.950   1.605  0.3242  0.3246  0.0321
 6855SOL    HW132027   4.696   2.021   1.651 -1.7496  1.7790 -0.1582
 6855SOL    HW232028   4.702   1.937   1.525 -0.8195  0.9208 -0.8069
 6856SOL     OW32029   4.521   2.591   2.547  0.0438 -0.1853  0.1567
 6856SOL    HW132030   4.525   2.644   2.467 -2.2128  2.1254  1.5629
 6856SOL    HW232031   4.430   2.584   2.575 -0.8287  0.2605 -2.5776
 6857SOL     OW32032   1.235   1.396   4.245 -0.0844  0.0946  0.2272
 6857SOL    HW132033   1.201   1.380   4.157  1.7264 -0.1209 -0.4204
 6857SOL    HW232034   1.173   1.346   4.299  2.5404 -0.0912  3.0766
 6858SOL     OW32035   3.135   4.559   1.967 -0.1879  0.4300 -0.0490
 6858SOL    HW132036   3.041   4.576   1.959 -0.3358 -0.9894 -1.2517
 6858SOL    HW232037   3.173   4.603   1.891  0.6995 -0.1681  0.0576
 6859SOL     OW32038   2.900   4.127   9.006 -0.4769  0.7846 -0.3330
 6859SOL    HW132039   2.869   4.151   8.919 -0.4973  0.9516 -0.2793
 6859SOL    HW232040   2.984   4.083   8.991 -1.5481 -1.0113 -1.0010
 6860SOL     OW32041   4.483   3.787  11.122 -0.1883  0.0390  0.0884
 6860SOL    HW132042   4.432   3.717  11.163 -1.7890  0.6045 -0.9334
 6860SOL    HW232043   4.441   3.792  11.036  2.3067  5.2363 -0.8343
 6861SOL     OW32044   1.822   0.602  10.627 -0.1013 -0.6685 -0.2391
 6861SOL    HW132045   1.825   0.547  10.549 -0.6065 -1.8203  0.5442
 6861SOL    HW232046   1.916   0.609  10.647 -0.1429 -1.0365  0.0838
 6862SOL     OW32047   4.572   4.718   5.009  0.0769 -0.0258  0.0856
 6862SOL    HW132048   4.661   0.023   4.984  0.6559 -0.8839  1.1898
 6862SOL    HW232049   4.517   0.013   4.933 -0.3798 -0.0832  0.4079
 6863SOL     OW32050   0.325   4.687   7.624  0.5233  0.0847  0.1180
 6863SOL    HW132051   0.283   4.683   7.538  0.5819 -0.2094  0.1053
 6863SOL    HW232052   0.378   4.608   7.619 -2.4176 -1.9149  0.5235
 6864SOL     OW32053   2.697   2.203   9.922 -0.5071 -0.2208 -0.0444
 6864SOL    HW132054   2.742   2.132   9.876 -1.3170 -0.3748 -0.6032
 6864SOL    HW232055   2.766   2.247   9.971 -1.8316  1.2575  0.5022
 6865SOL     OW32056   2.042   4.041  16.207  0.1871  0.6321 -0.1056
 6865SOL    HW132057   2.112   3.981  16.180 -0.6899  0.1955 -1.4354
 6865SOL    HW232058   2.013   3.988  16.281 -1.6246 -0.5168 -1.6137
 6866SOL     OW32059   3.872   0.772  13.728  0.5764  0.1046 -0.3617
 6866SOL    HW132060   3.961   0.763  13.692  0.3146  2.9188 -1.7287
 6866SOL    HW232061   3.859   0.866  13.712  1.3814  0.2683 -0.0862
 6867SOL     OW32062   0.761   1.326   2.878 -0.4418  0.2082 -0.1682
 6867SOL    HW132063   0.818   1.396   2.910 -0.3982 -0.1066  0.4435
 6867SOL    HW232064   0.726   1.353   2.793 -5.1632  1.2403  2.0909
 6868SOL     OW32065   3.964   4.592   0.713 -0.2294 -0.0774  0.3807
 6868SOL    HW132066   3.988   4.504   0.681  0.9806 -0.0671  1.2724
 6868SOL    HW232067   3.969   4.570   0.806  0.1875 -1.0189  0.1474
 6869SOL     OW32068   3.045   3.015   6.246  0.0040  0.1128 -0.7259
 6869SOL    HW132069   3.056   2.952   6.175 -0.9718 -0.2777 -0.5311
 6869SOL    HW232070   3.010   2.958   6.314  2.1939  0.6201  0.8273
 6870SOL     OW32071   2.660   4.005   0.709  0.5711 -0.6402  0.6064
 6870SOL    HW132072   2.654   3.945   0.783  1.5708 -1.5475 -0.0473
 6870SOL    HW232073   2.751   4.035   0.713  0.7215 -0.8960 -0.9101
 6871SOL     OW32074   2.996   4.613   6.938  0.0688  0.0170  0.2803
 6871SOL    HW132075   2.902   4.621   6.955 -0.0697  0.4694 -0.6865
 6871SOL    HW232076   3.021   4.546   7.002 -0.6816 -0.6882 -0.1700
 6872SOL     OW32077   1.602   1.091   8.204 -0.2525 -0.5738  0.2575
 6872SOL    HW132078   1.525   1.048   8.168 -1.0945  0.8792  0.3501
 6872SOL    HW232079   1.672   1.026   8.198  0.5294  0.2658  0.3194
 6873SOL     OW32080   2.810   2.431   0.595  0.1857 -0.5869  0.0316
 6873SOL    HW132081   2.767   2.493   0.655  0.2069  1.4782 -2.1051
 6873SOL    HW232082   2.879   2.491   0.568 -2.1527  1.2668 -1.8723
 6874SOL     OW32083   3.246   0.947   7.594 -0.6969  0.1529 -0.0459
 6874SOL    HW132084   3.218   0.961   7.684 -0.2143 -2.1072  0.4630
 6874SOL    HW232085   3.196   0.870   7.566 -1.5111  0.6714 -0.0181
 6875SOL     OW32086   0.518   4.671   5.341  0.4969  0.4614 -0.2459
 6875SOL    HW132087   0.544   4.599   5.398  0.0759  2.4848  2.5090
 6875SOL    HW232088   0.456   4.722   5.393 -0.9141 -1.7450  0.2108
 6876SOL     OW32089   0.677   4.451   7.854  0.3982  0.0356  0.2431
 6876SOL    HW132090   0.627   4.450   7.936 -1.4070 -0.3733 -0.8730
 6876SOL    HW232091   0.715   4.363   7.856  0.0828 -0.1308 -1.1060
 6877SOL     OW32092   0.827   1.766   8.959 -0.3921  0.1230 -0.5848
 6877SOL    HW132093   0.907   1.748   8.911 -0.2964 -0.3357 -0.2504
 6877SOL    HW232094   0.832   1.684   9.009 -0.0641  1.1314  1.0596
 6878SOL     OW32095   3.896   0.224  12.251 -0.4613 -0.5707 -0.2187
 6878SOL    HW132096   3.860   0.289  12.191 -3.3934  0.7643  3.0072
 6878SOL    HW232097   3.819   0.168  12.252 -2.2861  1.9941  0.8215
 6879SOL     OW32098   0.569   4.555  14.535 -0.4329  0.1711  0.5432
 6879SOL    HW132099   0.646   4.552  14.479 -0.6791 -3.6214  0.4118
 6879SOL    HW232100   0.571   4.645  14.567  0.7265  0.1359  0.5477
 6880SOL     OW32101   2.400   0.908   4.960 -0.0680  0.3378 -0.2139
 6880SOL    HW132102   2.477   0.956   4.989  0.6120 -1.1638  0.5278
 6880SOL    HW232103   2.444   0.838   4.911  0.4044 -0.7620  1.7825
 6881SOL     OW32104   4.456   1.659  14.913 -0.7228 -0.8723 -0.2401
 6881SOL    HW132105   4.456   1.714  14.991 -3.7485  1.8569 -2.1677
 6881SOL    HW232106   4.483   1.576  14.952  1.0689 -0.2309 -0.1452
 6882SOL     OW32107   2.077   1.881   3.567 -0.2107  0.4787 -0.3686
 6882SOL    HW132108   1.996   1.849   3.527  0.3634 -2.2105  0.6303
 6882SOL    HW232109   2.138   1.893   3.494 -0.7969  3.4757 -0.4082
 6883SOL     OW32110   4.058   3.003   9.495  0.3623 -0.2229  0.0275
 6883SOL    HW132111   4.097   3.076   9.446  2.7868 -0.3000  1.8155
 6883SOL    HW232112   3.999   3.055   9.550  2.4582  1.6395  0.5300
 6884SOL     OW32113   0.224   2.465   2.788 -0.3556 -0.0964  0.2850
 6884SOL    HW132114   0.162   2.392   2.790  0.4730 -0.7634  1.4567
 6884SOL    HW232115   0.295   2.425   2.838 -0.0836 -0.4806 -0.4011
 6885SOL     OW32116   1.836   3.687  14.042  0.0833  0.2058 -0.1404
 6885SOL    HW132117   1.784   3.691  13.962  0.0987 -2.1764 -0.2576
 6885SOL    HW232118   1.909   3.642  13.999 -1.2959 -0.5392 -1.7100
 6886SOL     OW32119   1.724   4.067   4.714  0.4671  0.0930 -0.6227
 6886SOL    HW132120   1.705   4.114   4.633  0.3621  1.2154  0.0590
 6886SOL    HW232121   1.772   4.138   4.757 -1.3121  0.4235  0.8342
 6887SOL     OW32122   1.992   1.608  13.868 -0.5693  0.1399  0.2253
 6887SOL    HW132123   1.939   1.528  13.857 -1.4628  0.4878  2.1037
 6887SOL    HW232124   1.974   1.645  13.781 -0.5964  1.8754  0.9853
 6888SOL     OW32125   0.810   2.950   8.861 -0.7383 -0.3652  0.6338
 6888SOL    HW132126   0.792   3.031   8.812  0.0079 -0.7389 -0.2657
 6888SOL    HW232127   0.725   2.929   8.898 -0.9562 -0.0797  0.2989
 6889SOL     OW32128   1.395   3.864   8.742  0.0818 -0.0971 -0.4520
 6889SOL    HW132129   1.337   3.845   8.816  1.5275 -0.1642  0.6517
 6889SOL    HW232130   1.349   3.933   8.695  1.6054  1.7414  0.7322
 6890SOL     OW32131   0.044   4.721   2.369 -0.0220 -0.4790 -0.3225
 6890SOL    HW132132   4.717   0.016   2.289 -0.4589  3.1375  0.7647
 6890SOL    HW232133   0.126   4.691   2.329 -0.9446 -0.6699 -2.0877
 6891SOL     OW32134   4.272   2.019   7.228 -0.6678 -0.7040  0.1930
 6891SOL    HW132135   4.315   2.008   7.143 -0.8931 -0.3049  0.0213
 6891SOL    HW232136   4.323   2.087   7.272 -1.9930  0.2636  0.2256
 6892SOL     OW32137   1.679   2.191   8.559 -0.4773  0.1398  0.0254
 6892SOL    HW132138   1.742   2.260   8.539 -2.0745  1.3562 -0.7994
 6892SOL    HW232139   1.736   2.115   8.575 -2.0625 -1.2965 -1.1524
 6893SOL     OW32140   2.447   0.275   8.031  0.7126 -0.5888  0.0353
 6893SOL    HW132141   2.533   0.280   8.073  0.0720  2.3360  1.0403
 6893SOL    HW232142   2.468   0.281   7.938 -0.1396 -1.0178 -0.1866
 6894SOL     OW32143   3.774   3.005   5.973 -1.1404 -0.1232  0.7756
 6894SOL    HW132144   3.808   3.091   5.997 -2.3887  0.2701  1.1622
 6894SOL    HW232145   3.777   2.997   5.878  0.2420 -1.3560  0.9340
 6895SOL     OW32146   1.214   4.016   2.594  0.4279 -0.6335 -0.5102
 6895SOL    HW132147   1.227   4.107   2.620 -2.2522 -0.3185 -0.3228
 6895SOL    HW232148   1.124   4.011   2.563 -1.1238 -0.5802  4.0332
 6896SOL     OW32149   2.036   0.563   4.085  0.5431 -0.4804 -0.6459
 6896SOL    HW132150   1.957   0.511   4.100  0.3272  0.5142  1.6782
 6896SOL    HW232151   2.105   0.514   4.042  1.9537  0.7550  0.2067
 6897SOL     OW32152   2.299   1.623   9.329 -0.6840 -0.1079 -0.0647
 6897SOL    HW132153   2.229   1.609   9.266  0.5814 -0.5813 -1.3542
 6897SOL    HW232154   2.360   1.676   9.277 -0.6162  0.2241  0.3513
 6898SOL     OW32155   0.968   1.283   6.294  0.5370  0.3335 -0.5865
 6898SOL    HW132156   0.912   1.212   6.326 -1.3422  2.2750  0.4752
 6898SOL    HW232157   0.971   1.348   6.364  0.0661 -1.0707  0.7435
 6899SOL     OW32158   2.940   2.305   3.153  0.3112  0.5084  0.2097
 6899SOL    HW132159   2.988   2.229   3.185  1.4646  0.6483 -1.2093
 6899SOL    HW232160   2.872   2.323   3.218  0.2881  0.4389  0.2052
 6900SOL     OW32161   0.529   1.775   3.390  0.1540  0.1124 -0.2351
 6900SOL    HW132162   0.494   1.782   3.479 -1.1946 -1.1676 -0.6735
 6900SOL    HW232163   0.543   1.681   3.380 -0.2041  0.0299  0.0532
 6901SOL     OW32164   3.584   1.417   3.874  0.3135 -0.1627  0.1307
 6901SOL    HW132165   3.596   1.419   3.779  0.2316  3.4335  0.2023
 6901SOL    HW232166   3.534   1.338   3.892 -2.1307  0.6321 -3.2481
 6902SOL     OW32167   4.435   0.948  10.526  0.1640 -0.2941  0.2890
 6902SOL    HW132168   4.416   1.042  10.523  1.4113  0.0412  3.3159
 6902SOL    HW232169   4.403   0.912  10.443 -1.0118 -0.3976  0.8017
 6903SOL     OW32170   1.048   1.143   1.727 -0.1512 -0.1026  0.1050
 6903SOL    HW132171   1.035   1.092   1.647  0.4386  0.4049 -0.3077
 6903SOL    HW232172   1.125   1.195   1.705  1.2720 -2.9595 -1.6696
 6904SOL     OW32173   3.268   2.817   5.405  0.9164 -0.2215 -0.0707
 6904SOL    HW132174   3.216   2.750   5.361  1.7080 -1.7062  1.2637
 6904SOL    HW232175   3.250   2.894   5.351 -0.1107 -0.0884  0.4673
 6905SOL     OW32176   0.369   3.615   5.623  0.1521 -0.2107  0.0050
 6905SOL    HW132177   0.293   3.560   5.604  0.3330 -0.2474 -0.6056
 6905SOL    HW232178   0.419   3.634   5.544  1.0098  0.6725  0.7525
 6906SOL     OW32179   4.089   4.636   4.687 -0.0394 -0.1331  0.5917
 6906SOL    HW132180   4.017   4.684   4.646 -0.2398 -1.8148 -0.9819
 6906SOL    HW232181   4.095   4.561   4.629  0.3763  0.1515  0.2648
 6907SOL     OW32182   1.970   2.996   0.151 -0.2520 -0.7473 -0.2581
 6907SOL    HW132183   1.922   3.048   0.216 -0.0268 -1.1661  0.2436
 6907SOL    HW232184   2.035   2.952   0.205 -0.8774 -1.3223  0.0270
 6908SOL     OW32185   1.631   0.900  14.599  0.1586 -0.3613  0.7917
 6908SOL    HW132186   1.591   0.979  14.563 -0.0155 -0.3018  1.1179
 6908SOL    HW232187   1.688   0.934  14.667  1.7574  0.6084 -1.0273
 6909SOL     OW32188   1.591   2.095  14.080  0.1989  0.7905  0.9243
 6909SOL    HW132189   1.659   2.130  14.137  0.9453 -1.1345  1.1866
 6909SOL    HW232190   1.625   2.014  14.043 -1.1269 -0.8979  3.4369
 6910SOL     OW32191   2.197   3.636   3.764 -0.2704 -0.3677 -0.0870
 6910SOL    HW132192   2.277   3.679   3.795  0.4880 -1.4715 -0.4756
 6910SOL    HW232193   2.130   3.686   3.809 -0.2554  0.1621 -0.6571
 6911SOL     OW32194   3.341   3.646   4.056 -0.1144  0.6359  0.1920
 6911SOL    HW132195   3.257   3.613   4.087 -0.5975  1.0434 -0.7037
 6911SOL    HW232196   3.319   3.709   3.987  0.7503  0.7360  0.0066
 6912SOL     OW32197   3.578   3.737  12.826  0.3646  0.2899 -0.0547
 6912SOL    HW132198   3.568   3.642  12.827  1.4128  0.1702 -0.6446
 6912SOL    HW232199   3.653   3.739  12.767  0.9761  0.2861  0.7254
 6913SOL     OW32200   4.655   1.225  10.782  0.5486  0.8137 -0.4986
 6913SOL    HW132201   4.704   1.247  10.861  0.5865 -0.5571 -0.1591
 6913SOL    HW232202   4.716   1.254  10.713 -1.0337  0.5183 -2.0254
 6914SOL     OW32203   4.031   1.136   7.672 -0.0480  0.8750 -0.3493
 6914SOL    HW132204   4.101   1.081   7.637 -0.0810 -0.1883  1.2617
 6914SOL    HW232205   3.951   1.089   7.648  0.1553  0.3636 -0.0264
 6915SOL     OW32206   1.960   1.186   7.140 -0.1066  0.0466 -0.1527
 6915SOL    HW132207   1.944   1.219   7.229  1.0111 -0.3676  0.2056
 6915SOL    HW232208   1.885   1.228   7.099  0.2825 -0.3316 -1.2508
 6916SOL     OW32209   1.416   0.752   1.297 -0.4277 -0.1762 -0.3408
 6916SOL    HW132210   1.495   0.787   1.255 -0.3091 -0.2246 -0.1593
 6916SOL    HW232211   1.459   0.718   1.375  0.5836  0.4676 -0.6146
 6917SOL     OW32212   1.050   3.399   6.053 -0.3203  0.3827  0.4079
 6917SOL    HW132213   1.000   3.480   6.055 -2.6401 -1.0405 -0.3824
 6917SOL    HW232214   1.074   3.381   6.144  3.3611  0.8032 -0.4844
 6918SOL     OW32215   1.813   3.214   5.847  0.0909  0.1804 -0.7320
 6918SOL    HW132216   1.821   3.122   5.821  2.3271  0.8043 -2.2716
 6918SOL    HW232217   1.907   3.223   5.857  0.1815 -2.1052  0.2934
 6919SOL     OW32218   0.913   3.577  10.390  0.3834 -0.1935 -0.6841
 6919SOL    HW132219   0.825   3.603  10.417  0.0873  1.1992 -3.0131
 6919SOL    HW232220   0.959   3.653  10.353  1.0164 -1.1046 -1.7552
 6920SOL     OW32221   2.923   4.695  10.045  0.7983 -0.5628  0.5384
 6920SOL    HW132222   2.932   4.615   9.994  1.8661  0.7768 -1.3516
 6920SOL    HW232223   2.918   4.658  10.133 -1.5230 -1.2339  0.1291
 6921SOL     OW32224   2.584   4.356   9.222 -0.3351  0.0974 -1.0953
 6921SOL    HW132225   2.527   4.374   9.297 -2.0759  0.7220 -2.5805
 6921SOL    HW232226   2.632   4.439   9.216 -0.3482  0.1679 -0.2030
 6922SOL     OW32227   1.396   0.692   7.951  0.0544 -0.2404 -0.1276
 6922SOL    HW132228   1.396   0.654   8.039  2.4559  2.1136  0.8996
 6922SOL    HW232229   1.326   0.644   7.905  1.6881 -0.7044 -2.1094
 6923SOL     OW32230   3.931   3.150  14.007  0.2930 -0.4145 -0.5566
 6923SOL    HW132231   3.897   3.118  13.923 -0.6008 -0.7857 -0.0574
 6923SOL    HW232232   4.010   3.096  14.011 -0.7749 -1.9858 -0.5690
 6924SOL     OW32233   1.483   2.899   7.979  0.0954  0.0432  1.1632
 6924SOL    HW132234   1.390   2.914   7.995 -0.1642 -0.5581  0.1753
 6924SOL    HW232235   1.498   2.810   8.010  0.8288  0.1289  1.0677
 6925SOL     OW32236   2.055   3.939  11.414 -0.2368 -0.9778  0.3914
 6925SOL    HW132237   1.980   3.915  11.359 -1.8820 -1.9196  3.0164
 6925SOL    HW232238   2.105   3.859  11.431  1.9433  0.1581 -0.8037
 6926SOL     OW32239   4.161   3.634   6.444  0.0086  0.4893 -0.0251
 6926SOL    HW132240   4.193   3.702   6.503  0.3054 -0.0788  0.4698
 6926SOL    HW232241   4.140   3.691   6.371  0.4871 -1.6681 -1.8414
 6927SOL     OW32242   3.473   4.526   4.877 -0.1429 -0.3915  0.3200
 6927SOL    HW132243   3.470   4.433   4.858  0.5683 -0.9313  2.8008
 6927SOL    HW232244   3.563   4.549   4.899 -0.6449 -0.9331  2.9045
 6928SOL     OW32245   1.070   2.892  14.969  0.8191  0.2565  0.3279
 6928SOL    HW132246   1.141   2.836  14.938 -0.5850 -0.0312 -2.2830
 6928SOL    HW232247   1.036   2.818  15.020 -0.0084  1.1119  1.0208
 6929SOL     OW32248   0.554   2.687   4.937 -0.3142 -0.2887  0.5625
 6929SOL    HW132249   0.468   2.717   4.967 -0.4591 -1.0123  0.8489
 6929SOL    HW232250   0.609   2.761   4.964 -0.4619 -1.1992  3.3748
 6930SOL     OW32251   0.090   1.534   3.841 -0.5058 -0.3297  0.0744
 6930SOL    HW132252   0.141   1.458   3.871  0.5300  0.6124  0.6717
 6930SOL    HW232253   0.109   1.605   3.902 -1.0307 -1.5014  1.6126
 6931SOL     OW32254   3.447   2.065  11.969  0.8058  0.1254  0.1811
 6931SOL    HW132255   3.421   2.050  12.060  1.3336  1.0566  0.4922
 6931SOL    HW232256   3.465   1.977  11.936 -0.5174  1.3445 -3.8440
 6932SOL     OW32257   1.307   1.411  10.301 -0.1474  0.0950 -0.3464
 6932SOL    HW132258   1.273   1.473  10.366 -0.2511 -0.3619  0.0390
 6932SOL    HW232259   1.389   1.458  10.289 -1.4036  1.5846 -3.1611
 6933SOL     OW32260   3.364   0.591   8.100  0.1842  0.4723  0.4546
 6933SOL    HW132261   3.292   0.541   8.139 -0.8052  1.1767 -0.4785
 6933SOL    HW232262   3.429   0.524   8.079  1.1162  0.9211  1.8983
 6934SOL     OW32263   1.414   3.374   3.390 -0.1278  0.1176  0.3979
 6934SOL    HW132264   1.386   3.385   3.299 -0.2129 -4.3872 -0.1409
 6934SOL    HW232265   1.372   3.451   3.429  0.5149  0.6487  0.0242
 6935SOL     OW32266   1.286   1.847   2.913  0.0545  0.4214 -0.2469
 6935SOL    HW132267   1.208   1.895   2.887  1.0488  1.5345 -1.1912
 6935SOL    HW232268   1.247   1.762   2.934 -1.3897  0.9260 -0.8912
 6936SOL     OW32269   1.967   2.113  11.777  0.0214  0.0330  0.2191
 6936SOL    HW132270   1.877   2.142  11.791  0.4686  1.9208 -0.8050
 6936SOL    HW232271   1.957   2.034  11.724 -0.4535 -1.6221  2.7597
 6937SOL     OW32272   0.278   1.689   5.237  0.1853 -0.3265 -0.2472
 6937SOL    HW132273   0.356   1.633   5.234 -1.1805 -2.2180 -0.2751
 6937SOL    HW232274   0.320   1.773   5.216  0.0033 -0.6893 -2.0389
 6938SOL     OW32275   4.482   1.103   6.207  0.1145  0.6454  0.4698
 6938SOL    HW132276   4.405   1.119   6.261  0.4322  1.3725  0.7103
 6938SOL    HW232277   4.502   1.195   6.191  1.7448  0.4547  1.4716
 6939SOL     OW32278   3.042   1.488  17.571 -0.1341 -0.6055  0.2879
 6939SOL    HW132279   2.996   1.493  17.487  1.3733 -1.5697 -0.5921
 6939SOL    HW232280   3.004   1.412  17.616 -0.2507 -1.8331 -1.8854
 6940SOL     OW32281   1.543   2.347   6.679  0.1898  0.5102 -0.0877
 6940SOL    HW132282   1.633   2.332   6.708  0.0730 -1.4750 -0.7397
 6940SOL    HW232283   1.501   2.300   6.751  0.8193 -0.0030 -0.0559
 6941SOL     OW32284   0.641   4.628   9.082  0.0889 -1.0057  0.4273
 6941SOL    HW132285   0.615   4.595   9.169  1.4713  1.4769  1.7672
 6941SOL    HW232286   0.727   4.588   9.070  1.2545  1.5060  0.4427
 6942SOL     OW32287   3.297   0.548  13.442  0.3445  0.3553  0.6519
 6942SOL    HW132288   3.224   0.609  13.458 -0.3487 -0.1090 -0.7929
 6942SOL    HW232289   3.244   0.478  13.404  1.3830 -1.4753  2.5258
 6943SOL     OW32290   2.883   0.066  11.317  0.6809  0.4509  0.3292
 6943SOL    HW132291   2.934   4.715  11.352  0.4577 -0.3176 -0.9525
 6943SOL    HW232292   2.954   0.116  11.279  0.4995 -1.1163 -2.0618
 6944SOL     OW32293   1.557   3.142  11.720 -0.0031 -0.4786  0.1403
 6944SOL    HW132294   1.556   3.134  11.815 -0.1223  1.3779  0.2998
 6944SOL    HW232295   1.524   3.059  11.687  1.8335 -0.7573 -1.0075
 6945SOL     OW32296   2.073   0.030   9.072  0.4469  0.0910 -0.0823
 6945SOL    HW132297   1.982   0.029   9.043  0.8415  1.4714 -1.3911
 6945SOL    HW232298   2.104   0.044   8.982 -0.2834 -1.2786 -0.5516
 6946SOL     OW32299   0.156   0.986   4.971 -0.0493 -0.2919 -0.0500
 6946SOL    HW132300   0.247   1.003   4.947 -0.2675  0.6932 -0.1575
 6946SOL    HW232301   0.140   0.916   4.908 -1.7264  1.0901 -1.1567
 6947SOL     OW32302   0.549   1.748  16.522 -0.5197 -0.0581  0.2788
 6947SOL    HW132303   0.625   1.806  16.524 -0.0358 -0.7495  1.8803
 6947SOL    HW232304   0.477   1.798  16.560 -0.8425  0.5543 -1.1464
 6948SOL     OW32305   2.995   0.051  12.518 -0.3219 -0.7684 -0.5292
 6948SOL    HW132306   3.062   4.707  12.501  0.0040  0.0155 -2.3122
 6948SOL    HW232307   3.027   0.095  12.597 -1.7546  0.5535 -0.6895
 6949SOL     OW32308   2.409   4.329  13.754  0.1215 -0.3764  0.2309
 6949SOL    HW132309   2.388   4.412  13.796 -0.8043  0.9691 -2.9480
 6949SOL    HW232310   2.502   4.341  13.735 -0.4677 -2.3931 -3.9451
 6950SOL     OW32311   2.607   0.089   0.445 -0.1762 -0.4893 -0.4416
 6950SOL    HW132312   2.652   0.124   0.368 -1.4283 -0.5419 -1.2033
 6950SOL    HW232313   2.539   0.155   0.460  0.9541  0.6594 -0.2852
 6951SOL     OW32314   1.099   1.388  10.112 -0.5569  0.1492  0.9791
 6951SOL    HW132315   1.104   1.468  10.060  1.7961 -2.0056 -2.1893
 6951SOL    HW232316   1.181   1.389  10.161  0.3160  1.1774 -0.5011
 6952SOL     OW32317   3.791   2.790  13.982 -0.3060 -0.0556 -0.4792
 6952SOL    HW132318   3.872   2.841  13.979 -0.9043  0.9465  0.4907
 6952SOL    HW232319   3.728   2.861  13.969 -0.5871 -0.1378  0.4328
 6953SOL     OW32320   3.683   1.190   4.184  0.0442 -0.0106 -0.0306
 6953SOL    HW132321   3.778   1.180   4.177 -0.0241 -0.5724 -0.1996
 6953SOL    HW232322   3.657   1.131   4.113 -0.9310  0.1463  0.1949
 6954SOL     OW32323   2.546   2.336   8.743  0.0086 -0.3099  0.0700
 6954SOL    HW132324   2.517   2.422   8.712  2.0848  0.5044  0.4055
 6954SOL    HW232325   2.639   2.357   8.743 -0.4758  1.8931 -0.4510
 6955SOL     OW32326   1.130   0.488   9.582 -0.0688  0.4320  0.2220
 6955SOL    HW132327   1.051   0.524   9.543 -0.4379  0.7569  1.2523
 6955SOL    HW232328   1.105   0.496   9.674  1.4825  1.4177  0.5521
 6956SOL     OW32329   3.415   2.142  16.149  0.0348  0.6991  0.3307
 6956SOL    HW132330   3.471   2.123  16.073 -1.1348  1.6538 -0.7681
 6956SOL    HW232331   3.325   2.137  16.116  0.4788  2.0440 -1.0843
 6957SOL     OW32332   1.628   1.187   7.450 -0.0759 -0.4310  0.3987
 6957SOL    HW132333   1.544   1.210   7.491  0.1562  1.3639 -0.1062
 6957SOL    HW232334   1.702   1.205   7.509 -1.1563  0.0964  1.6066
 6958SOL     OW32335   0.220   2.510  10.443 -0.3815 -0.2318 -0.4457
 6958SOL    HW132336   0.203   2.483  10.353 -0.7167 -0.4560 -0.3156
 6958SOL    HW232337   0.187   2.429  10.482 -1.1789 -1.3157 -3.3696
 6959SOL     OW32338   0.214   2.009   6.976  0.2707 -0.0012 -0.9461
 6959SOL    HW132339   0.139   2.034   7.030  0.7329  0.1991 -0.4100
 6959SOL    HW232340   0.220   2.089   6.924 -2.4517  1.1640  0.5099
 6960SOL     OW32341   2.819   4.602  10.281  0.1183 -0.1432  0.0902
 6960SOL    HW132342   2.749   4.550  10.319 -0.1739  0.8221  0.8622
 6960SOL    HW232343   2.799   4.691  10.309  2.1044 -0.5510  2.8561
 6961SOL     OW32344   2.445   3.098   5.830 -0.1665  0.1550 -0.6235
 6961SOL    HW132345   2.470   3.029   5.768 -0.4478 -2.0899  1.7632
 6961SOL    HW232346   2.502   3.078   5.904 -1.0094  0.2375  0.0512
 6962SOL     OW32347   2.474   4.340   6.123  0.0474  0.3371 -0.4244
 6962SOL    HW132348   2.522   4.387   6.055  0.3298  0.6747  0.0059
 6962SOL    HW232349   2.491   4.247   6.111  4.1821  0.8283  1.4979
 6963SOL     OW32350   1.758   0.729  10.873 -0.2566  0.1738 -0.2763
 6963SOL    HW132351   1.787   0.683  10.794 -1.9456 -0.3394 -0.5977
 6963SOL    HW232352   1.663   0.718  10.868 -0.4774  1.8177  0.2050
 6964SOL     OW32353   1.667   3.858   5.931 -0.6384  0.3419  0.3941
 6964SOL    HW132354   1.618   3.885   5.854  0.0532  0.6436  0.0627
 6964SOL    HW232355   1.753   3.886   5.899 -0.0620 -0.9892  0.7635
 6965SOL     OW32356   3.442   0.134   8.114  0.5231  0.1523 -0.1269
 6965SOL    HW132357   3.378   0.161   8.180  1.1660 -0.1728  0.6313
 6965SOL    HW232358   3.503   0.091   8.174  1.1022  0.8372 -0.2334
 6966SOL     OW32359   1.690   2.399   2.484 -0.3253 -0.8649 -0.3287
 6966SOL    HW132360   1.688   2.405   2.389  1.6844  1.4684 -0.2239
 6966SOL    HW232361   1.695   2.306   2.506 -2.7038 -0.4079  2.1342
 6967SOL     OW32362   4.152   0.736   7.524 -0.2914  0.5476 -0.1596
 6967SOL    HW132363   4.078   0.735   7.585 -1.0739 -0.6149 -1.1305
 6967SOL    HW232364   4.116   0.797   7.460  0.7070  2.5932  1.2153
 6968SOL     OW32365   1.621   1.116  10.737 -0.0050 -0.1438  0.4108
 6968SOL    HW132366   1.629   1.152  10.825 -0.1487 -0.9126  0.7371
 6968SOL    HW232367   1.711   1.126  10.704  0.8325  1.2653  3.1226
 6969SOL     OW32368   1.759   4.698   3.968 -0.1857 -0.5442 -0.6706
 6969SOL    HW132369   1.743   0.066   3.994  1.0653 -0.8757  1.2326
 6969SOL    HW232370   1.822   4.706   3.897 -0.7111  3.6215 -0.6708
 6970SOL     OW32371   0.375   3.278   6.446  0.4992 -0.5960 -0.5733
 6970SOL    HW132372   0.332   3.302   6.364 -0.7992 -0.6408  0.0934
 6970SOL    HW232373   0.409   3.363   6.472  0.8772 -1.4185  1.5580
 6971SOL     OW32374   2.962   0.933   3.455 -0.0038 -0.0550  0.1195
 6971SOL    HW132375   2.988   0.926   3.363  0.5965  1.5336  0.1749
 6971SOL    HW232376   2.897   1.004   3.457  0.6092  0.4948  0.3941
 6972SOL     OW32377   3.965   3.375   3.517  0.5557  0.3519 -0.0252
 6972SOL    HW132378   3.997   3.419   3.596 -1.8267  1.0391  0.5492
 6972SOL    HW232379   4.001   3.431   3.448  0.5297  0.0834 -0.2555
 6973SOL     OW32380   0.034   3.100  12.713 -0.0228 -0.3279 -0.1801
 6973SOL    HW132381   4.713   3.108  12.627  0.0929 -0.6609 -0.2682
 6973SOL    HW232382   4.687   3.135  12.769 -0.8640  0.2460 -1.5687
 6974SOL     OW32383   1.804   1.794   2.645  0.0316  0.1337 -0.4404
 6974SOL    HW132384   1.782   1.852   2.718 -1.3703  2.1505 -2.4484
 6974SOL    HW232385   1.822   1.709   2.683 -0.3175  0.9844  1.6655
 6975SOL     OW32386   4.526   2.563  16.071  0.0137  0.1458 -0.0881
 6975SOL    HW132387   4.602   2.526  16.026 -0.6015 -0.4989 -0.6043
 6975SOL    HW232388   4.499   2.495  16.133  1.9923  0.6757  1.3621
 6976SOL     OW32389   4.532   1.694   7.045  0.3004  0.1770  0.1619
 6976SOL    HW132390   4.466   1.626   7.059  0.0832  0.4645  0.5364
 6976SOL    HW232391   4.571   1.698   7.132  0.2648  2.3377  0.0739
 6977SOL     OW32392   2.210   2.984  14.440 -0.2992  0.3365 -0.1034
 6977SOL    HW132393   2.236   3.075  14.424 -3.5529  1.1025 -0.9982
 6977SOL    HW232394   2.254   2.959  14.521 -2.8537  0.6201  1.3889
 6978SOL     OW32395   2.743   0.089   5.067 -0.0946 -0.5097 -0.0546
 6978SOL    HW132396   2.647   0.081   5.072 -0.1000  0.3712  1.0407
 6978SOL    HW232397   2.757   0.123   5.155 -1.9103 -2.2513  0.9195
 6979SOL     OW32398   4.695   4.262   5.368 -0.1832 -0.0783  0.1544
 6979SOL    HW132399   4.686   4.207   5.445  1.0676  0.1888  0.4875
 6979SOL    HW232400   4.703   4.199   5.297 -0.0253  2.1247 -1.8154
 6980SOL     OW32401   1.557   4.096   8.128  0.2334  0.6342  0.4992
 6980SOL    HW132402   1.587   4.071   8.216 -2.5486 -1.2200  0.9099
 6980SOL    HW232403   1.525   4.183   8.155  0.3392  1.5770 -2.4671
 6981SOL     OW32404   1.608   3.630   3.637 -0.0581  1.5207  0.5062
 6981SOL    HW132405   1.679   3.601   3.579 -2.3129  0.8171 -1.8965
 6981SOL    HW232406   1.622   3.565   3.707  1.4479  0.9538 -0.3302
 6982SOL     OW32407   2.174   0.745   8.633 -0.4807  0.0179 -0.6286
 6982SOL    HW132408   2.108   0.732   8.701  0.3363  0.6451  0.2740
 6982SOL    HW232409   2.116   0.754   8.557 -1.2290 -0.9968 -0.1791
 6983SOL     OW32410   0.607   4.097   8.528 -0.5393  0.1066 -0.3572
 6983SOL    HW132411   0.627   4.125   8.618 -1.8681 -0.2462  0.0395
 6983SOL    HW232412   0.593   4.184   8.491 -0.7427  1.2046  2.3023
 6984SOL     OW32413   1.067   2.067  13.430 -0.2192  0.1055 -1.1567
 6984SOL    HW132414   1.059   2.159  13.405  2.7261  1.6796  3.6906
 6984SOL    HW232415   1.071   2.027  13.344 -1.6580  1.2279 -1.7387
 6985SOL     OW32416   4.413   3.578   9.303  0.4369 -0.4635  0.1217
 6985SOL    HW132417   4.388   3.551   9.391  1.7261 -0.8042  0.3854
 6985SOL    HW232418   4.417   3.673   9.319  2.2383 -0.1819 -2.0249
 6986SOL     OW32419   2.910   0.352   5.344  0.5229  0.2689  0.4586
 6986SOL    HW132420   2.855   0.406   5.400  1.9280  1.8932  0.2871
 6986SOL    HW232421   2.890   0.268   5.386 -1.4325  0.4862 -0.0335
 6987SOL     OW32422   2.973   4.185   2.001 -0.4199  0.4668  0.3199
 6987SOL    HW132423   2.905   4.248   2.024 -0.5694  0.6044 -0.5097
 6987SOL    HW232424   3.049   4.241   2.018 -0.1959 -0.0680  1.0689
 6988SOL     OW32425   4.037   0.363   3.974  0.5031 -0.4371  0.6377
 6988SOL    HW132426   4.017   0.335   3.885 -1.2888 -1.2823  1.2965
 6988SOL    HW232427   4.087   0.300   4.025  0.9070 -1.8295 -1.5206
 6989SOL     OW32428   4.198   1.029   9.062 -0.4033 -0.4854  0.5229
 6989SOL    HW132429   4.167   0.963   9.000  2.4581 -0.0796 -1.3190
 6989SOL    HW232430   4.270   1.074   9.018 -0.4712  0.8568  1.7818
 6990SOL     OW32431   4.218   2.364   1.304  0.0711  0.1958  0.2186
 6990SOL    HW132432   4.279   2.316   1.249 -1.2610 -2.8184  1.3635
 6990SOL    HW232433   4.274   2.356   1.381 -1.6149 -0.2574  1.4136
 6991SOL     OW32434   0.158   4.058   4.518  0.7184  0.1032 -0.2012
 6991SOL    HW132435   0.065   4.059   4.539  0.4601 -0.9707 -1.2922
 6991SOL    HW232436   0.200   4.098   4.595  1.9361 -0.2300 -0.6918
 6992SOL     OW32437   2.740   2.483   5.186 -0.2414 -0.2378  0.2788
 6992SOL    HW132438   2.700   2.425   5.121 -1.8971  1.0429  0.1416
 6992SOL    HW232439   2.822   2.517   5.152  0.3071 -0.3791  1.4651
 6993SOL     OW32440   1.659   1.844   4.839  0.1031  0.2451 -0.2492
 6993SOL    HW132441   1.573   1.831   4.879  1.0624  0.4958  1.8870
 6993SOL    HW232442   1.718   1.842   4.914  1.2941 -0.5976 -1.1891
 6994SOL     OW32443   3.626   4.059   9.850 -0.1767  0.3142  0.3951
 6994SOL    HW132444   3.693   4.127   9.839  1.0728 -1.0502 -0.5448
 6994SOL    HW232445   3.630   4.040   9.944 -2.9995 -2.1573 -0.0031
 6995SOL     OW32446   3.938   1.709   4.563 -0.3765 -0.1698 -0.6487
 6995SOL    HW132447   4.012   1.723   4.503 -0.2983  0.8986 -0.2990
 6995SOL    HW232448   3.869   1.678   4.505 -0.7614 -2.0665  0.8424
 6996SOL     OW32449   0.524   4.062   4.210 -0.0188  0.8046  0.1554
 6996SOL    HW132450   0.588   4.005   4.168 -0.9795 -1.6150  2.0232
 6996SOL    HW232451   0.561   4.055   4.298  3.2343 -2.4659 -1.4663
 6997SOL     OW32452   3.209   2.239   8.038  0.2267  0.0088  0.2973
 6997SOL    HW132453   3.262   2.244   8.118 -0.3469  0.0527  0.6725
 6997SOL    HW232454   3.276   2.237   7.970 -0.1115 -1.7625  0.0188
 6998SOL     OW32455   1.352   1.594   0.142  0.5928 -0.0471  0.0447
 6998SOL    HW132456   1.334   1.614   0.050  1.4346 -1.6793 -0.4803
 6998SOL    HW232457   1.355   1.499   0.131  1.1433 -0.1938  1.4604
 6999SOL     OW32458   4.239   2.628   4.618  0.0753 -0.3330 -0.1761
 6999SOL    HW132459   4.275   2.596   4.701 -1.3084  0.1765  0.6036
 6999SOL    HW232460   4.175   2.559   4.602  1.0079 -1.2296 -0.0260
 7000SOL     OW32461   3.104   0.589   0.582  0.1628 -0.0454 -0.2283
 7000SOL    HW132462   3.074   0.593   0.491  2.7820  0.2826 -1.0840
 7000SOL    HW232463   3.024   0.601   0.632  0.6031  1.1885  0.1900
 7001SOL     OW32464   0.591   3.072   4.520 -0.1355  0.2742  0.4352
 7001SOL    HW132465   0.550   3.146   4.565 -1.2263  0.6976 -1.2601
 7001SOL    HW232466   0.532   3.000   4.542 -0.9092  1.1599  1.2777
 7002SOL     OW32467   4.071   3.123   3.478 -0.2172 -0.0771  0.3860
 7002SOL    HW132468   4.154   3.167   3.462 -0.6458  1.5533  2.5687
 7002SOL    HW232469   4.015   3.201   3.487 -0.3515  0.0067 -1.1888
 7003SOL     OW32470   3.675   1.020   8.008  0.2412  0.3803  0.1428
 7003SOL    HW132471   3.719   1.008   8.092 -0.0825 -0.2110  0.2281
 7003SOL    HW232472   3.594   0.969   8.006 -0.0215  0.9315 -3.6574
 7004SOL     OW32473   0.266   4.376  10.582 -0.7427  0.0571 -0.1032
 7004SOL    HW132474   0.201   4.325  10.533 -1.3695 -1.1704  2.0307
 7004SOL    HW232475   0.338   4.337  10.533 -1.9847  0.2068 -2.0545
 7005SOL     OW32476   2.407   4.046   6.057  0.0775  0.4740  0.3492
 7005SOL    HW132477   2.500   4.056   6.078 -0.0300  1.2146  0.4787
 7005SOL    HW232478   2.383   3.980   6.122 -1.3650 -1.5675 -2.2613
 7006SOL     OW32479   3.562   4.001   9.476 -0.2531  0.0742  0.2686
 7006SOL    HW132480   3.545   3.980   9.384 -1.4539  2.6452 -0.0847
 7006SOL    HW232481   3.628   3.939   9.506 -0.9651 -0.7522  0.1319
 7007SOL     OW32482   3.190   0.668   7.566  0.1843 -0.3381 -0.3021
 7007SOL    HW132483   3.162   0.681   7.475 -0.7540 -0.1187  0.0152
 7007SOL    HW232484   3.118   0.613   7.597 -0.2355 -0.2307 -1.0676
 7008SOL     OW32485   0.743   1.749   8.600  0.0885 -0.0569 -0.2187
 7008SOL    HW132486   0.833   1.737   8.631 -0.3236 -1.3425  0.4723
 7008SOL    HW232487   0.751   1.828   8.546  0.5902 -0.1053 -0.2157
 7009SOL     OW32488   1.287   3.783   6.894  0.4534 -0.1737  0.2018
 7009SOL    HW132489   1.367   3.741   6.862  0.0402 -1.0985  0.3676
 7009SOL    HW232490   1.242   3.709   6.933  1.8172 -0.2410  1.6489
 7010SOL     OW32491   3.346   3.872   1.509  0.6124  0.3167 -0.0253
 7010SOL    HW132492   3.271   3.925   1.534 -0.8254 -1.4248 -0.7024
 7010SOL    HW232493   3.413   3.940   1.508 -1.6512  2.5207 -1.0709
 7011SOL     OW32494   4.012   1.233   8.950  0.1728 -0.5653  0.0101
 7011SOL    HW132495   4.061   1.314   8.934  1.5295 -1.0551  1.6452
 7011SOL    HW232496   3.957   1.252   9.026 -0.4606  0.8923 -0.8065
 7012SOL     OW32497   3.827   1.511   3.933 -0.2950  0.5082 -0.1487
 7012SOL    HW132498   3.737   1.489   3.910  0.0982 -0.7701 -0.4890
 7012SOL    HW232499   3.881   1.476   3.862  0.6310  0.0878  0.7584
 7013SOL     OW32500   1.459   1.298   3.812  0.0913  0.3094 -0.3422
 7013SOL    HW132501   1.427   1.246   3.738  2.1460  2.2639 -2.5790
 7013SOL    HW232502   1.489   1.376   3.766 -0.0304 -0.1023 -1.1315
 7014SOL     OW32503   1.537   3.612   5.978 -0.1660 -0.6417 -0.1592
 7014SOL    HW132504   1.593   3.687   5.998 -0.4983 -0.0778 -1.3558
 7014SOL    HW232505   1.595   3.555   5.927  0.6592 -0.8549  1.0002
 7015SOL     OW32506   1.623   3.958  16.379  0.1738 -0.6068  0.5167
 7015SOL    HW132507   1.603   4.046  16.346 -3.1050 -1.9187 -1.0374
 7015SOL    HW232508   1.695   3.975  16.440 -1.4275  1.0523  1.9599
 7016SOL     OW32509   2.507   1.861   2.726  0.6498 -0.1195  0.0342
 7016SOL    HW132510   2.575   1.793   2.730  0.4583 -0.2657  0.6543
 7016SOL    HW232511   2.549   1.941   2.695 -1.3903  0.6769 -0.6942
 7017SOL     OW32512   1.335   3.164   6.358  0.3041 -0.3496 -0.4345
 7017SOL    HW132513   1.282   3.202   6.429 -1.9143  0.6916 -2.6609
 7017SOL    HW232514   1.419   3.181   6.401 -0.2596  2.0451 -0.2584
 7018SOL     OW32515   0.805   3.372   2.989 -0.2962  0.4525 -0.1217
 7018SOL    HW132516   0.758   3.455   3.001  2.7083  2.1811 -0.0820
 7018SOL    HW232517   0.781   3.348   2.899  0.7242 -0.1831 -0.2230
 7019SOL     OW32518   3.575   4.567   5.291  0.3591 -0.0320 -0.2035
 7019SOL    HW132519   3.655   4.598   5.248 -0.5520  1.9192 -0.5254
 7019SOL    HW232520   3.567   4.634   5.358  0.3483  0.2835 -0.5166
 7020SOL     OW32521   2.398   3.113  16.549  0.6931  0.1969  0.2014
 7020SOL    HW132522   2.462   3.053  16.587  1.4691  1.0930  0.3255
 7020SOL    HW232523   2.324   3.088  16.604 -0.1766  1.0654 -0.5882
 7021SOL     OW32524   3.658   4.121   1.047 -0.3486  0.5514  0.2412
 7021SOL    HW132525   3.700   4.178   1.112  0.7161 -2.1262  1.8974
 7021SOL    HW232526   3.668   4.035   1.088  1.9602  0.7914  0.1692
 7022SOL     OW32527   4.664   3.680   4.516  0.3470  0.3440  0.1715
 7022SOL    HW132528   4.645   3.681   4.422  0.7455 -0.7559  0.0843
 7022SOL    HW232529   4.590   3.626   4.542  0.5763  0.4623  1.0718
 7023SOL     OW32530   2.271   1.676   5.203  0.5046  0.0536  0.5968
 7023SOL    HW132531   2.274   1.640   5.114 -0.2223  0.6384  0.3307
 7023SOL    HW232532   2.189   1.726   5.196  1.0471  0.4992 -2.6506
 7024SOL     OW32533   3.582   0.317   4.659 -0.4415  0.5640  0.1393
 7024SOL    HW132534   3.632   0.289   4.736 -0.8097  0.8071  0.4635
 7024SOL    HW232535   3.509   0.360   4.704  0.1950  1.6222  0.1639
 7025SOL     OW32536   4.018   3.819   2.464 -0.2644 -0.5075 -0.1214
 7025SOL    HW132537   3.933   3.794   2.502  0.3269 -1.8471  0.3415
 7025SOL    HW232538   4.066   3.737   2.475  2.0387  0.6398 -1.7250
 7026SOL     OW32539   4.267   1.559   2.101  0.0679  0.2065 -0.6064
 7026SOL    HW132540   4.344   1.540   2.154  0.1916  2.9886  0.2109
 7026SOL    HW232541   4.272   1.654   2.103 -0.8480  0.2641 -0.9647
 7027SOL     OW32542   2.602   0.540   2.218  0.9741  0.4440 -0.0712
 7027SOL    HW132543   2.595   0.634   2.235  1.0444  0.7440 -1.6309
 7027SOL    HW232544   2.616   0.539   2.123  2.1079 -1.5661  0.1186
 7028SOL     OW32545   4.468   2.896   7.502  0.0392  0.3249 -0.5994
 7028SOL    HW132546   4.422   2.869   7.581  0.4148 -1.2299 -0.9079
 7028SOL    HW232547   4.482   2.809   7.464  1.3290 -0.7798  2.3551
 7029SOL     OW32548   0.234   2.091  13.685  0.1037  0.4146  0.0904
 7029SOL    HW132549   0.290   2.110  13.611  0.6391  2.6873  1.0868
 7029SOL    HW232550   0.285   2.022  13.727  0.1542 -0.3650 -1.2678
 7030SOL     OW32551   3.586   0.678  12.610 -0.4340  0.1047  0.1996
 7030SOL    HW132552   3.569   0.755  12.664  0.2122 -1.2283  2.3090
 7030SOL    HW232553   3.658   0.632  12.653 -0.7956 -0.4324  0.2372
 7031SOL     OW32554   0.947   2.614   0.199 -0.1810  0.2546  0.0981
 7031SOL    HW132555   0.891   2.559   0.254  1.8246 -1.7410  0.1393
 7031SOL    HW232556   0.884   2.622   0.128 -0.7542 -0.7163  0.5090
 7032SOL     OW32557   4.435   2.848   5.053 -0.1447 -0.0883  0.8836
 7032SOL    HW132558   4.477   2.853   4.967 -0.1686 -1.5480  0.8031
 7032SOL    HW232559   4.383   2.769   5.047  1.9482 -1.3617 -0.3680
 7033SOL     OW32560   4.603   1.228   9.202  0.1101 -0.3800 -0.4308
 7033SOL    HW132561   4.583   1.135   9.211 -3.5257  0.3835 -0.5043
 7033SOL    HW232562   4.690   1.214   9.163 -0.2656  0.4556 -1.5807
 7034SOL     OW32563   0.635   1.200   7.562 -0.3094  0.5471 -0.2830
 7034SOL    HW132564   0.671   1.117   7.531  0.6940  1.8502 -2.6473
 7034SOL    HW232565   0.610   1.172   7.650 -0.8382 -0.6007 -0.8128
 7035SOL     OW32566   3.145   0.065   8.820  0.0160 -0.8588 -0.2348
 7035SOL    HW132567   3.094   0.137   8.783  0.0103 -1.1980 -0.8846
 7035SOL    HW232568   3.077   0.001   8.836 -0.5037 -0.5376 -1.2035
 7036SOL     OW32569   3.586   2.809   7.828 -0.1326  0.4237 -0.7741
 7036SOL    HW132570   3.597   2.885   7.771 -1.3933  0.3258 -1.1467
 7036SOL    HW232571   3.573   2.853   7.912  0.7074  0.0153 -0.4361
 7037SOL     OW32572   4.645   2.132  14.766 -0.2822  0.0900  0.3611
 7037SOL    HW132573   4.668   2.039  14.770 -2.1918 -0.4347 -0.7836
 7037SOL    HW232574   4.596   2.135  14.684  0.1929 -1.4515  0.0046
 7038SOL     OW32575   0.358   2.479   6.159 -0.0720  0.1214  0.1343
 7038SOL    HW132576   0.423   2.469   6.090 -1.9471  0.5980 -1.6915
 7038SOL    HW232577   0.323   2.567   6.151  1.7312  0.7887 -0.3941
 7039SOL     OW32578   3.249   1.784   5.083  0.2716 -0.1386 -0.2218
 7039SOL    HW132579   3.187   1.830   5.141 -2.1519  1.7400 -4.3320
 7039SOL    HW232580   3.225   1.692   5.095  1.5945 -0.3361  0.8911
 7040SOL     OW32581   4.595   3.705  13.572  0.1300  0.2456 -0.2670
 7040SOL    HW132582   4.501   3.718  13.584 -0.1663  0.6690 -3.0594
 7040SOL    HW232583   4.622   3.717  13.663 -1.2312 -0.3461  0.2191
 7041SOL     OW32584   2.474   3.214   5.261 -1.1064  0.1821 -0.2259
 7041SOL    HW132585   2.546   3.265   5.298  3.7936 -3.0847 -5.2270
 7041SOL    HW232586   2.486   3.129   5.303  0.4006  1.3187  1.6166
 7042SOL     OW32587   2.093   3.676   0.144 -0.0151  0.4400 -0.2459
 7042SOL    HW132588   2.060   3.756   0.185 -2.5875 -1.1509  0.7907
 7042SOL    HW232589   2.188   3.679   0.154  0.0907 -2.8282 -0.2894
 7043SOL     OW32590   2.739   0.118   8.678 -0.4015 -0.3770  0.1575
 7043SOL    HW132591   2.734   0.024   8.660  1.7212 -0.0621 -1.9600
 7043SOL    HW232592   2.796   0.107   8.754 -1.0293  0.0785  0.6888
 7044SOL     OW32593   1.598   3.601   3.220 -0.3014  0.1921 -0.1930
 7044SOL    HW132594   1.507   3.612   3.247 -0.7900 -0.2154 -1.6718
 7044SOL    HW232595   1.634   3.672   3.273  0.5760 -1.4384  1.3800
 7045SOL     OW32596   3.685   4.298   6.731  0.2613  0.1232 -0.1056
 7045SOL    HW132597   3.774   4.330   6.716  0.7145 -0.9642  0.2527
 7045SOL    HW232598   3.632   4.369   6.694 -2.2133 -0.9575  1.3403
 7046SOL     OW32599   0.534   4.627   6.132 -0.2149  0.0952 -0.1214
 7046SOL    HW132600   0.609   4.591   6.084  0.1092 -1.4183  1.5456
 7046SOL    HW232601   0.556   4.612   6.223 -0.8025 -1.4286 -0.2319
 7047SOL     OW32602   1.950   1.088  12.642  0.0825  0.2119 -0.0737
 7047SOL    HW132603   2.043   1.112  12.640  0.1733 -0.2813 -2.0401
 7047SOL    HW232604   1.912   1.176  12.649  2.8842  1.4629 -0.4088
 7048SOL     OW32605   1.928   2.804   2.820  0.7446  0.2706  0.7305
 7048SOL    HW132606   1.949   2.716   2.787  0.0982  0.2907  0.2738
 7048SOL    HW232607   2.003   2.852   2.783  0.0237 -1.0481 -2.4890
 7049SOL     OW32608   2.585   2.582   1.939  0.1017 -0.1588 -0.3493
 7049SOL    HW132609   2.622   2.625   2.017  2.1225 -0.0843 -1.3348
 7049SOL    HW232610   2.615   2.642   1.871 -0.5948  0.6627  0.0709
 7050SOL     OW32611   3.057   4.570   6.206 -0.2471 -0.2380 -0.8454
 7050SOL    HW132612   3.077   4.647   6.152  2.8336 -0.2491  0.3212
 7050SOL    HW232613   3.079   4.611   6.289  0.4338 -0.8271 -0.7417
 7051SOL     OW32614   0.106   3.151   3.442 -0.1613  0.0403 -0.3073
 7051SOL    HW132615   0.151   3.187   3.366 -1.0444  0.0500 -0.8301
 7051SOL    HW232616   0.136   3.219   3.501 -0.8331  1.2811 -1.3985
 7052SOL     OW32617   0.739   1.896   3.252 -0.2608 -0.0691 -0.4147
 7052SOL    HW132618   0.678   1.854   3.313 -0.3385 -0.6852 -0.9216
 7052SOL    HW232619   0.742   1.988   3.280 -1.0566 -0.0318 -0.4559
 7053SOL     OW32620   2.642   2.710   1.340 -0.1234  0.3380  0.2573
 7053SOL    HW132621   2.626   2.642   1.275  0.1803  0.1560  0.3714
 7053SOL    HW232622   2.562   2.763   1.339  1.1671  2.3218  1.3905
 7054SOL     OW32623   1.435   3.299  17.492 -0.1799 -0.2805 -0.4024
 7054SOL    HW132624   1.436   3.283  17.398  1.3028  0.2083 -0.4692
 7054SOL    HW232625   1.490   3.377  17.497  0.2899 -0.7775  2.0382
 7055SOL     OW32626   1.311   2.894   2.882  0.5178  1.0106  0.1761
 7055SOL    HW132627   1.238   2.834   2.893  3.0930 -1.8403  1.5491
 7055SOL    HW232628   1.300   2.916   2.789 -1.8078 -0.0520  0.1903
 7056SOL     OW32629   0.027   2.985  16.602  0.0648  0.0788 -0.2700
 7056SOL    HW132630   0.051   2.910  16.547 -1.0505 -0.8729  0.5373
 7056SOL    HW232631   4.688   2.948  16.665 -1.2139  2.1778 -0.3089
 7057SOL     OW32632   0.148   0.878   4.602  0.0871 -0.3272  0.5226
 7057SOL    HW132633   0.145   0.791   4.561 -0.3170 -0.7605  1.4716
 7057SOL    HW232634   0.147   0.849   4.694  2.0214 -0.4653  0.5081
 7058SOL     OW32635   1.526   4.477   3.027  0.0458  0.1784 -0.4763
 7058SOL    HW132636   1.560   4.532   3.097 -1.4664 -1.2971  1.4161
 7058SOL    HW232637   1.609   4.478   2.979 -0.9183 -1.1101 -2.2073
 7059SOL     OW32638   1.232   0.579  10.813 -0.6305  0.8996 -0.1294
 7059SOL    HW132639   1.209   0.491  10.844  1.6513  1.1550  2.2527
 7059SOL    HW232640   1.188   0.581  10.728 -0.0017 -1.3497 -0.4887
 7060SOL     OW32641   1.583   1.639   8.818 -0.4965 -0.1213  0.8584
 7060SOL    HW132642   1.668   1.682   8.819 -0.3342 -0.4277  0.1012
 7060SOL    HW232643   1.535   1.688   8.884 -1.8400 -0.7340  0.3420
 7061SOL     OW32644   4.465   1.285   5.904  0.1442 -0.7577 -0.3637
 7061SOL    HW132645   4.467   1.191   5.886  0.6752 -0.9974  0.9433
 7061SOL    HW232646   4.521   1.297   5.981 -1.7933  1.2759  0.6933
 7062SOL     OW32647   3.402   1.370   2.802  0.1571  0.1594  0.1580
 7062SOL    HW132648   3.350   1.290   2.793  2.6112 -1.7409  2.7648
 7062SOL    HW232649   3.489   1.330   2.801  1.4865  3.1051 -1.1636
 7063SOL     OW32650   2.730   0.404   7.823 -0.9799 -0.0727  0.3511
 7063SOL    HW132651   2.684   0.486   7.804 -1.9853 -1.4677 -3.0477
 7063SOL    HW232652   2.801   0.435   7.880 -0.5942  0.2672 -0.3161
 7064SOL     OW32653   3.272   0.918   8.676 -0.4244  0.1445  0.1854
 7064SOL    HW132654   3.222   0.995   8.703 -2.0816 -1.8218  2.8124
 7064SOL    HW232655   3.220   0.892   8.600 -2.5320  2.3399  0.8946
 7065SOL     OW32656   3.848   2.947  16.734 -0.0476  0.2941 -0.3088
 7065SOL    HW132657   3.772   2.901  16.697  0.1205 -0.5246  0.3437
 7065SOL    HW232658   3.892   2.878  16.785 -0.0255 -0.3911 -1.2526
 7066SOL     OW32659   2.061   2.172  13.192  0.9503 -0.7860 -0.1401
 7066SOL    HW132660   2.093   2.199  13.106 -0.7031  2.3419  0.2246
 7066SOL    HW232661   1.967   2.178  13.176  1.0773  0.0718 -0.5526
 7067SOL     OW32662   4.401   0.967  16.501 -0.7055 -0.5223  0.0189
 7067SOL    HW132663   4.344   0.933  16.432 -1.6659  3.5003 -1.2055
 7067SOL    HW232664   4.346   1.043  16.521  0.1371  1.1556 -4.0893
 7068SOL     OW32665   4.293   3.585   4.876 -0.0429  0.1736 -0.2858
 7068SOL    HW132666   4.244   3.563   4.797 -0.9067 -0.9050  0.5549
 7068SOL    HW232667   4.364   3.638   4.839  0.2923  1.2735  1.9446
 7069SOL     OW32668   3.098   3.185   4.774 -0.0190  0.1015  0.0804
 7069SOL    HW132669   3.175   3.148   4.730 -0.1031 -1.8054  1.5305
 7069SOL    HW232670   3.060   3.228   4.697 -1.0005  1.3340  1.2545
 7070SOL     OW32671   4.372   3.668  15.611 -0.6028  0.5021  0.4567
 7070SOL    HW132672   4.405   3.752  15.641  2.4193 -0.2432 -0.8212
 7070SOL    HW232673   4.378   3.616  15.691 -2.2784 -1.9656 -1.0045
 7071SOL     OW32674   4.483   3.159   6.110  0.1943  0.3633  0.0283
 7071SOL    HW132675   4.412   3.140   6.172  0.2215  3.0902  0.8789
 7071SOL    HW232676   4.446   3.142   6.024 -1.1798 -1.1314  0.9186
 7072SOL     OW32677   1.577   0.556  10.430 -0.5028 -0.0440  0.0781
 7072SOL    HW132678   1.521   0.631  10.448  0.5318  1.5741 -3.3676
 7072SOL    HW232679   1.561   0.548  10.336 -0.0260 -1.1546  0.0895
 7073SOL     OW32680   2.569   3.697   7.035 -0.1700  0.2866 -0.1693
 7073SOL    HW132681   2.560   3.792   7.028 -1.9075 -0.0857 -3.2705
 7073SOL    HW232682   2.503   3.674   7.101 -0.7676 -1.1666 -1.2689
 7074SOL     OW32683   0.956   0.734   9.206  0.2597 -0.3844  0.1904
 7074SOL    HW132684   1.010   0.670   9.160 -4.2079 -1.7502 -3.1277
 7074SOL    HW232685   0.945   0.795   9.133  0.6734  0.5682  0.9336
 7075SOL     OW32686   1.722   4.378  12.758  0.2495 -0.4849  0.5157
 7075SOL    HW132687   1.678   4.463  12.772  3.0082  0.8880  0.8369
 7075SOL    HW232688   1.712   4.336  12.843 -1.3695 -0.8984  0.1234
 7076SOL     OW32689   1.834   0.693   7.035 -0.0594 -0.1133  0.2311
 7076SOL    HW132690   1.802   0.742   6.959 -0.1472  1.6542  1.4018
 7076SOL    HW232691   1.925   0.723   7.042 -0.5823  1.5001  0.2178
 7077SOL     OW32692   3.099   2.061   4.969 -0.8423 -0.4673 -0.2122
 7077SOL    HW132693   3.178   2.115   4.970  0.8376 -2.8841 -1.5015
 7077SOL    HW232694   3.121   1.998   5.038  1.3602  0.4436 -0.0834
 7078SOL     OW32695   2.594   1.481   1.560  0.2860 -0.3286  0.9497
 7078SOL    HW132696   2.602   1.389   1.583 -0.2435 -1.2513 -2.5732
 7078SOL    HW232697   2.501   1.498   1.550  0.3327 -0.0231  1.0088
 7079SOL     OW32698   1.613   1.985   5.673 -0.1887 -0.1961 -0.4924
 7079SOL    HW132699   1.557   2.044   5.723  0.0288 -0.5264  0.1437
 7079SOL    HW232700   1.555   1.923   5.628  0.8885 -0.4908 -1.4630
 7080SOL     OW32701   0.825   2.861  16.102 -0.2482 -0.6344  0.1570
 7080SOL    HW132702   0.905   2.879  16.052  0.4166 -3.0588  0.3589
 7080SOL    HW232703   0.783   2.947  16.107  0.8215  0.0814 -3.2596
 7081SOL     OW32704   1.008   0.335  10.428 -0.2063  0.2963 -0.1322
 7081SOL    HW132705   0.940   0.283  10.384 -0.7370  0.1703  0.8372
 7081SOL    HW232706   1.084   0.277  10.429 -2.1020 -2.2278 -1.4693
 7082SOL     OW32707   0.220   1.440  14.219  0.2437 -0.0153  0.3113
 7082SOL    HW132708   0.291   1.382  14.190  0.5523  1.0415 -1.0359
 7082SOL    HW232709   0.145   1.380  14.210  0.7187 -0.2255 -2.1971
 7083SOL     OW32710   1.696   1.395   8.691 -0.6270 -0.1754 -0.0093
 7083SOL    HW132711   1.781   1.408   8.733  0.0068  2.1366 -2.0016
 7083SOL    HW232712   1.655   1.472   8.732  0.1508 -0.0093  0.4498
 7084SOL     OW32713   4.392   1.307  17.322  0.5780  0.2115 -0.0383
 7084SOL    HW132714   4.413   1.251  17.248  0.3605  0.3236 -0.1841
 7084SOL    HW232715   4.362   1.239  17.382 -3.0631 -0.0269 -2.1489
 7085SOL     OW32716   4.588   1.168   1.816 -0.2209 -0.1397 -0.1487
 7085SOL    HW132717   4.663   1.202   1.767  0.2200  1.0108  1.3015
 7085SOL    HW232718   4.621   1.157   1.905  0.5997 -0.6528 -0.5252
 7086SOL     OW32719   2.633   0.883   3.139  0.4433  0.4683  0.2691
 7086SOL    HW132720   2.643   0.937   3.060  1.5704 -0.8336 -0.4721
 7086SOL    HW232721   2.724   0.862   3.160  0.4421  0.9284  0.7384
 7087SOL     OW32722   2.811   1.787   6.279 -0.3816  0.0046  0.0299
 7087SOL    HW132723   2.779   1.699   6.301 -0.2340 -1.0408 -4.0064
 7087SOL    HW232724   2.846   1.780   6.190  2.8092  2.5963  1.0837
 7088SOL     OW32725   0.941   0.068   0.890 -0.0303 -0.3809  0.5198
 7088SOL    HW132726   0.847   0.075   0.873  0.1018 -0.4552 -0.2526
 7088SOL    HW232727   0.934   0.053   0.984 -1.3261 -0.3818  0.4333
 7089SOL     OW32728   2.190   3.540  14.910 -0.9491  0.6177  0.0130
 7089SOL    HW132729   2.096   3.521  14.907 -0.6791 -0.5785 -0.7397
 7089SOL    HW232730   2.200   3.588  14.828 -2.0526  0.3396 -0.2861
 7090SOL     OW32731   1.027   3.642   5.679 -0.6318 -0.1793  0.2285
 7090SOL    HW132732   1.062   3.553   5.682 -2.2372 -0.9147 -3.1862
 7090SOL    HW232733   0.942   3.613   5.645 -1.1596 -1.0897  2.3197
 7091SOL     OW32734   0.053   0.264   3.459  0.2235 -0.0210  0.3909
 7091SOL    HW132735   0.010   0.205   3.520 -0.1315 -0.1976 -0.0387
 7091SOL    HW232736   0.133   0.215   3.442 -0.5652 -0.6036 -1.6265
 7092SOL     OW32737   2.556   3.849   3.380  0.3388  0.2878  0.0265
 7092SOL    HW132738   2.539   3.904   3.304  2.3279  0.1158 -0.5550
 7092SOL    HW232739   2.475   3.859   3.429 -0.3258 -0.7720 -0.8500
 7093SOL     OW32740   2.810   4.331   4.039  0.3130  0.0573 -0.3685
 7093SOL    HW132741   2.822   4.240   4.066 -2.2391  0.7761  3.1515
 7093SOL    HW232742   2.765   4.321   3.955 -2.3725 -2.8421  1.4131
 7094SOL     OW32743   0.594   3.674   2.585 -0.4776 -0.1062 -0.4333
 7094SOL    HW132744   0.567   3.758   2.622  0.5219  0.7936 -1.7562
 7094SOL    HW232745   0.528   3.613   2.618  0.1324  0.1265  1.2353
 7095SOL     OW32746   4.289   3.849   8.845  0.5965  0.0101 -0.8886
 7095SOL    HW132747   4.235   3.850   8.924  0.4128  2.6197 -1.0525
 7095SOL    HW232748   4.332   3.934   8.839 -2.1294  1.4585 -0.0287
 7096SOL     OW32749   2.179   2.817   5.660  0.0261  0.0748 -0.4116
 7096SOL    HW132750   2.185   2.847   5.569 -1.5132 -0.8027 -0.8001
 7096SOL    HW232751   2.227   2.735   5.664 -0.5113 -0.2432 -0.5148
 7097SOL     OW32752   1.090   0.759   8.227 -0.3934 -0.2487  0.2625
 7097SOL    HW132753   1.138   0.806   8.295 -0.4203  1.5463 -0.9560
 7097SOL    HW232754   1.006   0.764   8.271  0.5255  0.8454  1.9067
 7098SOL     OW32755   1.922   2.945   5.289  0.0867  0.2783 -0.2349
 7098SOL    HW132756   1.973   2.864   5.287 -2.3305 -1.2841  0.8904
 7098SOL    HW232757   1.834   2.932   5.253  0.3965  0.5320 -1.0834
 7099SOL     OW32758   1.180   1.099   0.766 -0.0526 -0.0469 -0.2810
 7099SOL    HW132759   1.259   1.089   0.711 -0.3833  2.5810 -1.2179
 7099SOL    HW232760   1.117   1.048   0.716 -1.0683 -0.1899  1.1774
 7100SOL     OW32761   1.559   2.237   3.902  0.2429  0.8326  0.6717
 7100SOL    HW132762   1.639   2.235   3.955  0.4652  0.8297  0.3380
 7100SOL    HW232763   1.603   2.195   3.828  0.8855  2.0847  0.3582
 7101SOL     OW32764   0.649   2.631   2.738 -0.4039  0.7138  0.0942
 7101SOL    HW132765   0.623   2.723   2.733 -2.3539  0.2296  1.0079
 7101SOL    HW232766   0.604   2.598   2.661 -1.4848 -0.4763  1.2369
 7102SOL     OW32767   3.421   2.528  11.216 -0.1195  0.2737 -0.1396
 7102SOL    HW132768   3.482   2.489  11.153  1.1281 -0.7448  1.6777
 7102SOL    HW232769   3.468   2.595  11.266  0.1506 -0.2487  0.3080
 7103SOL     OW32770   4.514   2.294   9.323  0.3603 -0.1642 -0.3506
 7103SOL    HW132771   4.427   2.326   9.348  0.4529 -1.6259  1.8678
 7103SOL    HW232772   4.496   2.200   9.322  3.5215 -0.7645  0.0709
 7104SOL     OW32773   1.574   0.355   6.433  0.0196 -0.5310  0.3282
 7104SOL    HW132774   1.656   0.387   6.470 -0.4644  2.1374 -0.8998
 7104SOL    HW232775   1.558   0.435   6.383 -0.6903 -0.0879  1.2671
 7105SOL     OW32776   2.779   1.974   9.031  0.0327  0.1915  0.1564
 7105SOL    HW132777   2.834   1.899   9.009 -1.5613 -1.0462  0.3979
 7105SOL    HW232778   2.694   1.931   9.018 -0.5299  0.7335  2.0196
 7106SOL     OW32779   2.545   4.081   7.052 -0.0618 -0.2189  0.5390
 7106SOL    HW132780   2.609   4.124   6.995 -1.9007  0.6548 -0.8869
 7106SOL    HW232781   2.581   4.051   7.135  0.6665 -1.3890 -0.2021
 7107SOL     OW32782   4.698   2.088   7.929 -0.1597  0.2712  0.0279
 7107SOL    HW132783   4.681   2.029   7.855  0.7143  1.0933 -0.8159
 7107SOL    HW232784   0.015   2.168   7.894  1.3471  0.1190  1.4013
 7108SOL     OW32785   0.966   0.756   2.279 -0.2662  0.4942 -0.0605
 7108SOL    HW132786   0.885   0.742   2.229 -0.7941  1.1692  0.5899
 7108SOL    HW232787   1.029   0.699   2.237 -0.3031  0.4207 -0.0172
 7109SOL     OW32788   2.185   2.260   9.674 -0.4275  0.0449  0.1565
 7109SOL    HW132789   2.191   2.312   9.593  1.7655 -0.2766  0.1143
 7109SOL    HW232790   2.261   2.289   9.724 -0.1693  4.1847 -2.6127
 7110SOL     OW32791   1.534   2.367   3.042 -0.0080 -0.1072  0.7723
 7110SOL    HW132792   1.474   2.320   2.983 -0.2915  0.6412  0.4578
 7110SOL    HW232793   1.511   2.457   3.018  0.7829  0.1252  0.9082
 7111SOL     OW32794   1.962   0.431   6.047 -0.6868  0.3010  0.3848
 7111SOL    HW132795   1.989   0.520   6.071  0.5953  0.3659 -1.2386
 7111SOL    HW232796   1.895   0.454   5.982 -0.8232 -0.8290  0.1381
 7112SOL     OW32797   3.314   3.852   3.847 -0.4788  0.0636  0.1203
 7112SOL    HW132798   3.229   3.813   3.826  0.1401 -1.2168  0.0324
 7112SOL    HW232799   3.292   3.943   3.825  1.6819  0.3091 -1.0219
 7113SOL     OW32800   1.047   2.819   0.342 -0.3352 -0.0623 -0.2575
 7113SOL    HW132801   1.010   2.897   0.301  0.1231  1.3662  2.1016
 7113SOL    HW232802   0.991   2.756   0.297  0.0108  0.7309 -1.8384
 7114SOL     OW32803   4.450   3.495   6.890  0.5736  0.2438 -0.1609
 7114SOL    HW132804   4.527   3.440   6.876  0.6318  0.2866 -0.0039
 7114SOL    HW232805   4.381   3.430   6.906 -1.4966  1.8412 -2.6120
 7115SOL     OW32806   0.603   4.535  15.173  0.3274 -0.2255 -0.2927
 7115SOL    HW132807   0.632   4.522  15.264 -0.2570 -0.0771 -0.0859
 7115SOL    HW232808   0.546   4.461  15.154 -1.0683  1.1488 -1.4555
 7116SOL     OW32809   4.183   2.715  17.108  0.1238  0.1202 -0.0718
 7116SOL    HW132810   4.106   2.664  17.132  0.7228 -0.1280  1.3236
 7116SOL    HW232811   4.241   2.696  17.181  0.5976  3.0748  0.3139
 7117SOL     OW32812   0.871   0.629  13.739 -0.5271  0.7054  0.1634
 7117SOL    HW132813   0.893   0.601  13.828  1.9605 -1.5450 -1.1972
 7117SOL    HW232814   0.956   0.664  13.714 -0.1724  1.3457  2.2092
 7118SOL     OW32815   0.405   4.475   2.034 -0.1550  0.1032 -0.3049
 7118SOL    HW132816   0.454   4.526   1.970  1.0339 -2.2497 -1.2684
 7118SOL    HW232817   0.430   4.385   2.013  1.5063  0.0725  1.8530
 7119SOL     OW32818   1.567   1.829  12.254 -0.3294  0.6951 -0.0353
 7119SOL    HW132819   1.493   1.789  12.300  1.2543 -0.3708  1.5741
 7119SOL    HW232820   1.625   1.756  12.236  1.7523  2.1863  0.6560
 7120SOL     OW32821   0.470   3.141  15.799  0.0685 -0.3087  0.1324
 7120SOL    HW132822   0.547   3.091  15.772 -1.1624 -2.5272  0.7019
 7120SOL    HW232823   0.434   3.171  15.716  0.6961 -2.8781 -1.0700
 7121SOL     OW32824   0.879   0.725   8.355  0.2388  0.3225  0.1507
 7121SOL    HW132825   0.853   0.808   8.393  1.4362  0.0587  1.5676
 7121SOL    HW232826   0.792   0.700   8.325  0.0003  2.1432 -0.6454
 7122SOL     OW32827   4.023   1.563   2.531 -0.1710 -0.0925  0.1381
 7122SOL    HW132828   4.112   1.584   2.561 -0.3548 -0.0972  0.6835
 7122SOL    HW232829   3.977   1.516   2.601  1.6096 -0.5677  0.9983
 7123SOL     OW32830   2.573   3.272  11.637 -0.4361 -0.0051  0.3109
 7123SOL    HW132831   2.513   3.211  11.681  0.9179 -0.9310  0.8658
 7123SOL    HW232832   2.517   3.345  11.609 -2.0463 -2.1536 -2.0946
 7124SOL     OW32833   3.686   3.272   7.014 -0.2175 -0.1974  0.2826
 7124SOL    HW132834   3.672   3.265   7.108  1.3495 -0.8696  0.4574
 7124SOL    HW232835   3.766   3.326   7.013 -0.7280  0.5443 -2.8288
 7125SOL     OW32836   2.224   3.954   4.350  0.0800  0.4426  0.1531
 7125SOL    HW132837   2.277   4.033   4.361  1.0171 -0.3650  1.5258
 7125SOL    HW232838   2.274   3.908   4.282  0.5415  0.5046  0.4461
 7126SOL     OW32839   0.263   1.791   7.980  0.5774  0.3656  0.3068
 7126SOL    HW132840   0.309   1.793   7.896 -0.7057 -1.0728 -0.4524
 7126SOL    HW232841   0.290   1.867   8.030  3.2750 -0.1363 -0.3839
 7127SOL     OW32842   4.044   2.718  13.391  0.2208  0.1374  0.4794
 7127SOL    HW132843   4.109   2.784  13.368  2.6655 -2.4245  0.0526
 7127SOL    HW232844   4.002   2.712  13.306  0.0195 -2.3920  0.7643
 7128SOL     OW32845   4.224   0.549   8.905  0.0833 -0.2825 -0.4063
 7128SOL    HW132846   4.320   0.541   8.901  0.1055 -1.9031  3.4400
 7128SOL    HW232847   4.200   0.484   8.838  0.3498 -1.5267  0.7065
 7129SOL     OW32848   0.737   1.768   5.819 -0.1517  0.3489 -0.7255
 7129SOL    HW132849   0.774   1.850   5.851 -1.5456  0.3020  1.0354
 7129SOL    HW232850   0.805   1.742   5.757  2.2969  5.4445 -0.1917
 7130SOL     OW32851   0.179   3.824  16.129  0.2487 -0.8009  0.1363
 7130SOL    HW132852   0.198   3.807  16.221  1.4784 -0.9227 -0.1372
 7130SOL    HW232853   0.133   3.906  16.144  0.5759 -0.5154 -0.3974
 7131SOL     OW32854   1.902   3.315   2.875  0.1255 -0.5378 -0.0808
 7131SOL    HW132855   1.961   3.269   2.936 -1.1260 -2.3756 -0.2599
 7131SOL    HW232856   1.830   3.337   2.933  0.4469 -3.3182  1.3873
 7132SOL     OW32857   2.439   2.034   6.922 -0.7192  0.3419  0.3476
 7132SOL    HW132858   2.355   2.048   6.878 -0.9180  2.3434  1.3702
 7132SOL    HW232859   2.450   2.116   6.968  1.9546  0.0733  0.1588
 7133SOL     OW32860   2.847   4.063   3.457 -0.3094 -0.5794  0.1484
 7133SOL    HW132861   2.832   4.157   3.454 -0.2631 -0.6236 -1.8427
 7133SOL    HW232862   2.763   4.023   3.480  0.0484 -1.9864 -1.0284
 7134SOL     OW32863   3.084   2.151  10.346 -0.2159  0.0200  0.6366
 7134SOL    HW132864   3.007   2.123  10.395  0.3412 -0.3410  1.2985
 7134SOL    HW232865   3.040   2.156  10.261  1.0237 -1.2316 -0.0914
 7135SOL     OW32866   1.066   2.258   9.234  0.6858  0.3013 -0.0862
 7135SOL    HW132867   0.986   2.311   9.225  0.6098  0.3137  0.6687
 7135SOL    HW232868   1.105   2.319   9.297 -0.3519 -0.4030  1.2466
 7136SOL     OW32869   0.609   1.500   8.995 -0.4615 -0.0422 -0.1471
 7136SOL    HW132870   0.515   1.485   9.002 -0.6376  0.4459 -1.6138
 7136SOL    HW232871   0.617   1.516   9.089 -0.5975  0.3141 -0.1977
 7137SOL     OW32872   4.722   2.617   6.595  0.0711  0.2093 -0.0296
 7137SOL    HW132873   4.658   2.657   6.536  1.2803  0.7219 -0.9924
 7137SOL    HW232874   0.061   2.690   6.603  1.0308 -0.3812 -1.9956
 7138SOL     OW32875   3.090   1.616   6.080 -0.5471 -0.4439  0.1507
 7138SOL    HW132876   3.032   1.622   6.004 -1.0411 -0.8853  0.4872
 7138SOL    HW232877   3.127   1.528   6.076  2.2177  0.8776 -2.9363
 7139SOL     OW32878   2.197   2.722  10.466 -0.4925 -0.4923  1.5083
 7139SOL    HW132879   2.210   2.630  10.442 -1.3005 -0.0411 -0.7235
 7139SOL    HW232880   2.177   2.715  10.559 -2.0794  0.7342  1.2695
 7140SOL     OW32881   4.422   1.555   6.264 -0.3427  0.6270 -0.1786
 7140SOL    HW132882   4.470   1.616   6.321 -0.5894 -1.7924  2.6295
 7140SOL    HW232883   4.478   1.539   6.188  0.3369  0.9482  0.2526
 7141SOL     OW32884   2.223   3.259   5.362 -0.5940  0.3034 -0.4777
 7141SOL    HW132885   2.209   3.354   5.367  2.0954  0.6754  0.1349
 7141SOL    HW232886   2.306   3.258   5.315 -0.5785  0.0549 -0.4451
 7142SOL     OW32887   4.299   2.976   1.390  0.5777 -0.3021  0.1033
 7142SOL    HW132888   4.233   3.017   1.445  0.3936 -0.3074 -0.1145
 7142SOL    HW232889   4.375   2.957   1.445  0.1509 -1.7214  0.1851
 7143SOL     OW32890   1.378   1.931   0.584  0.1222 -0.1260 -0.0690
 7143SOL    HW132891   1.283   1.936   0.590  0.2466  1.4709  0.7225
 7143SOL    HW232892   1.389   1.904   0.493 -2.0512  0.5614 -0.5387
 7144SOL     OW32893   4.330   3.997   8.536 -0.4972  0.6148  0.1093
 7144SOL    HW132894   4.325   3.901   8.528 -0.6849  0.8460 -2.7742
 7144SOL    HW232895   4.384   4.003   8.614  0.9643  1.5885 -0.9736
 7145SOL     OW32896   0.634   0.616  15.553 -0.0886 -0.0317 -0.5522
 7145SOL    HW132897   0.694   0.658  15.615 -2.2554  1.3667  0.5932
 7145SOL    HW232898   0.685   0.620  15.472  1.7201 -0.4618  0.5737
 7146SOL     OW32899   2.934   3.509  16.658  0.0310 -0.4801 -0.3222
 7146SOL    HW132900   2.889   3.540  16.579 -0.0573  1.1367  0.3651
 7146SOL    HW232901   3.013   3.563  16.660 -1.3055  1.4309  0.4161
 7147SOL     OW32902   0.744   0.399  14.393  0.0297  0.5761  0.4586
 7147SOL    HW132903   0.803   0.344  14.444 -1.8781 -0.9151  1.0796
 7147SOL    HW232904   0.677   0.336  14.366  2.5787 -1.7924 -0.3389
 7148SOL     OW32905   0.561   2.188   4.654 -0.1693 -0.1456 -0.7206
 7148SOL    HW132906   0.551   2.268   4.602 -3.3290  0.5216  0.9099
 7148SOL    HW232907   0.559   2.125   4.582 -1.2490  0.0951 -0.9050
 7149SOL     OW32908   0.116   0.199   5.324 -0.2164 -0.1146  0.3213
 7149SOL    HW132909   0.181   0.268   5.316  0.0978 -0.1515  2.6046
 7149SOL    HW232910   0.034   0.249   5.320 -0.3781 -0.6581 -3.4420
 7150SOL     OW32911   3.246   4.509   7.493  0.4337 -0.2436 -0.5279
 7150SOL    HW132912   3.308   4.557   7.548  1.1561 -1.0604 -0.6330
 7150SOL    HW232913   3.304   4.495   7.417  1.9252 -3.4046  1.1634
 7151SOL     OW32914   3.980   3.547  12.225  0.2900 -0.2541 -0.1704
 7151SOL    HW132915   3.929   3.621  12.258  1.2164  0.6730 -0.8267
 7151SOL    HW232916   4.057   3.597  12.198 -0.3300  0.0205 -1.4413
 7152SOL     OW32917   0.749   3.140  10.078  0.2108 -0.3140 -0.5390
 7152SOL    HW132918   0.834   3.149  10.121 -0.4167  0.9884  0.4617
 7152SOL    HW232919   0.720   3.055  10.108 -1.5341 -0.2375 -2.0312
 7153SOL     OW32920   2.589   2.678   8.048 -0.1608  0.4444  0.7961
 7153SOL    HW132921   2.639   2.597   8.036 -0.1872  0.4167  0.8746
 7153SOL    HW232922   2.643   2.746   8.007 -0.9140  0.2857 -0.4759
 7154SOL     OW32923   3.712   3.161   4.858 -0.1100  0.1456  0.2208
 7154SOL    HW132924   3.738   3.091   4.798  0.1095 -1.6833  2.4916
 7154SOL    HW232925   3.764   3.146   4.937  0.2189 -0.6702 -0.1491
 7155SOL     OW32926   0.234   2.592  13.915  0.0681  0.0254  0.2833
 7155SOL    HW132927   0.263   2.633  13.833 -1.0966 -0.7259 -0.5060
 7155SOL    HW232928   0.270   2.658  13.974 -1.5426  1.3711 -0.1968
 7156SOL     OW32929   2.672   2.611   7.575  0.1598 -0.0973 -0.5751
 7156SOL    HW132930   2.700   2.644   7.660  0.3182  0.9169 -1.0244
 7156SOL    HW232931   2.742   2.654   7.526 -0.5780 -1.3680 -2.7231
 7157SOL     OW32932   4.628   1.958   7.689  0.2779 -0.5052  0.0650
 7157SOL    HW132933   4.603   1.869   7.666  2.2436 -0.7014 -1.3327
 7157SOL    HW232934   4.549   2.004   7.662 -0.5091 -0.8292  1.8337
 7158SOL     OW32935   3.401   0.085   8.845 -0.1691 -0.1314 -0.2948
 7158SOL    HW132936   3.443   4.722   8.832  3.1778  1.5990 -0.9624
 7158SOL    HW232937   3.310   0.064   8.826  0.7525 -2.4970 -2.0889
 7159SOL     OW32938   2.054   3.992   5.609  0.3794 -0.0852  0.1923
 7159SOL    HW132939   2.062   4.071   5.662 -0.1649  0.2039 -0.1693
 7159SOL    HW232940   2.124   4.007   5.546 -0.1386 -0.8575 -0.5664
 7160SOL     OW32941   0.530   1.074  13.604 -0.1341  0.0641  0.4057
 7160SOL    HW132942   0.598   1.031  13.656 -2.0493 -2.8501  0.5180
 7160SOL    HW232943   0.467   1.002  13.604  0.5805 -0.5582 -1.1986
 7161SOL     OW32944   4.219   0.613   5.589 -0.4199  0.4795 -0.2655
 7161SOL    HW132945   4.281   0.674   5.629  0.3623 -1.4211  1.4272
 7161SOL    HW232946   4.153   0.682   5.587  1.2735  2.1075  0.5113
 7162SOL     OW32947   3.777   1.376   3.663 -0.1583  0.1222  0.0586
 7162SOL    HW132948   3.835   1.374   3.586  0.5565  2.2805  0.5204
 7162SOL    HW232949   3.810   1.302   3.713  2.0347 -0.6319 -2.4847
 7163SOL     OW32950   1.573   4.190  16.289 -0.0344 -0.0087  0.6446
 7163SOL    HW132951   1.658   4.233  16.288  0.4699 -1.0206 -0.1167
 7163SOL    HW232952   1.526   4.262  16.248 -0.4049 -1.9245 -2.2834
 7164SOL     OW32953   2.436   3.645   7.256  0.2873 -0.4483 -0.3585
 7164SOL    HW132954   2.389   3.728   7.270 -0.4812 -1.0373  0.5435
 7164SOL    HW232955   2.369   3.580   7.236  1.3342 -1.9808  1.0540
 7165SOL     OW32956   1.384   3.395  15.281 -0.2663  0.1441 -0.4009
 7165SOL    HW132957   1.317   3.332  15.307 -0.7247  0.1007 -1.7204
 7165SOL    HW232958   1.384   3.382  15.186 -1.7167  0.9059 -0.5033
 7166SOL     OW32959   3.834   2.090  11.753  0.4360  0.0676 -0.1292
 7166SOL    HW132960   3.867   2.001  11.744  1.2917  0.2324  1.3598
 7166SOL    HW232961   3.792   2.068  11.836  0.1746 -1.0958 -0.5758
 7167SOL     OW32962   2.168   1.984   0.501  0.1700 -0.4092 -0.3858
 7167SOL    HW132963   2.214   1.930   0.437 -0.3271  1.5950 -2.4347
 7167SOL    HW232964   2.206   2.068   0.475 -0.2184  0.7471  2.8106
 7168SOL     OW32965   0.919   0.723  13.215 -0.5907  0.5208 -0.0450
 7168SOL    HW132966   0.959   0.662  13.153 -0.9512 -0.1459  0.3768
 7168SOL    HW232967   0.992   0.713  13.276 -0.0623  3.3064 -0.2211
 7169SOL     OW32968   4.310   3.720   2.847  0.0599 -0.0245  0.2702
 7169SOL    HW132969   4.258   3.665   2.788 -2.4600  0.5080  2.0491
 7169SOL    HW232970   4.398   3.682   2.855  1.3727  3.0767  0.4431
 7170SOL     OW32971   4.256   2.308  15.741  0.0520 -0.2219  0.3638
 7170SOL    HW132972   4.257   2.367  15.816  1.0374  0.4914 -0.2159
 7170SOL    HW232973   4.304   2.235  15.779  0.0808 -0.4429 -0.0909
 7171SOL     OW32974   3.012   2.952   8.327  0.1748  0.2829  0.2434
 7171SOL    HW132975   3.101   2.983   8.313  0.7315 -0.4285  2.2973
 7171SOL    HW232976   3.014   2.912   8.414  2.7110 -2.1433 -0.9277
 7172SOL     OW32977   1.985   0.693   2.096  0.0878 -0.0171  0.0597
 7172SOL    HW132978   1.920   0.633   2.061 -0.1448  0.9343 -1.1566
 7172SOL    HW232979   2.041   0.621   2.125  2.7112  2.4336  1.1113
 7173SOL     OW32980   0.504   1.407   7.434  0.0421 -0.1522  0.3238
 7173SOL    HW132981   0.452   1.447   7.504 -0.8378  0.6200 -0.7761
 7173SOL    HW232982   0.539   1.326   7.471  1.1428  0.0140 -0.3578
 7174SOL     OW32983   4.415   1.556   7.518  0.2483 -0.9102 -0.0393
 7174SOL    HW132984   4.369   1.490   7.466  0.0470 -0.7225 -0.1010
 7174SOL    HW232985   4.346   1.598   7.569  0.8628 -1.3054  1.1090
 7175SOL     OW32986   2.064   0.280   7.265 -0.3547 -0.0860 -0.4135
 7175SOL    HW132987   1.990   0.332   7.296  0.9719  1.7238 -0.2551
 7175SOL    HW232988   2.040   0.191   7.292  0.2502 -0.9009 -2.5420
 7176SOL     OW32989   3.867   0.179   1.971 -0.1441 -0.4309 -0.2380
 7176SOL    HW132990   3.879   0.089   2.001 -3.1585  0.3840  3.3774
 7176SOL    HW232991   3.809   0.172   1.895 -0.2918  0.9101 -0.2556
 7177SOL     OW32992   3.879   1.164   8.741  0.1507  0.0141  0.0578
 7177SOL    HW132993   3.936   1.183   8.815  2.0348 -1.2332 -1.0447
 7177SOL    HW232994   3.948   1.164   8.674  0.5740 -2.6942  0.4779
 7178SOL     OW32995   0.045   4.304   2.596 -0.1592  0.2388  0.0078
 7178SOL    HW132996   0.089   4.385   2.623  0.9775 -0.5520  0.5027
 7178SOL    HW232997   4.675   4.319   2.615 -0.5802  0.1287 -1.8911
 7179SOL     OW32998   2.571   2.756   2.164 -0.0868  0.0800 -0.4246
 7179SOL    HW132999   2.479   2.753   2.136 -0.0613 -2.6366 -0.2741
 7179SOL    HW233000   2.615   2.819   2.107  0.3696 -0.9382 -1.2197
 7180SOL     OW33001   3.590   1.110  17.437  0.2624 -0.0845  0.5176
 7180SOL    HW133002   3.525   1.123  17.506  0.7820  1.3441  0.7277
 7180SOL    HW233003   3.625   1.198  17.424  2.9087 -1.4257 -1.3540
 7181SOL     OW33004   0.392   4.011  15.774 -0.1765 -0.2475 -0.8323
 7181SOL    HW133005   0.478   3.973  15.758  0.9184  1.3947  1.1807
 7181SOL    HW233006   0.342   3.938  15.811 -0.6756  0.3122 -0.3902
 7182SOL     OW33007   0.884   1.997   0.695  0.3368  0.0191 -0.4924
 7182SOL    HW133008   0.916   1.907   0.709 -0.2375 -0.4507 -2.1910
 7182SOL    HW233009   0.792   1.987   0.672  1.0481  0.8119 -3.7109
 7183SOL     OW33010   3.865   3.317   1.973  0.0243 -0.0127  0.4820
 7183SOL    HW133011   3.830   3.404   1.958  2.1614  0.5249 -1.4814
 7183SOL    HW233012   3.907   3.305   1.887  0.0019 -1.1389  0.6346
 7184SOL     OW33013   3.142   4.593   2.641  0.2380  0.5127  0.1653
 7184SOL    HW133014   3.215   4.645   2.606 -0.2054 -0.4055 -2.1087
 7184SOL    HW233015   3.071   4.620   2.583 -0.8623 -1.8640  0.4200
 7185SOL     OW33016   4.376   1.848   6.568 -0.0152 -0.1869  0.1239
 7185SOL    HW133017   4.454   1.795   6.581  0.7256  1.1017  1.0753
 7185SOL    HW233018   4.335   1.800   6.496 -1.4047  0.9067  0.1771
 7186SOL     OW33019   0.801   4.274  16.389 -0.4705 -0.1765 -0.4430
 7186SOL    HW133020   0.858   4.266  16.466 -2.2749 -2.5740  0.6174
 7186SOL    HW233021   0.765   4.186  16.389 -0.5844 -0.1296 -0.3129
 7187SOL     OW33022   0.641   4.674   3.929 -0.5878  0.1768 -0.5313
 7187SOL    HW133023   0.582   0.003   3.983 -1.3209  2.2715 -3.3330
 7187SOL    HW233024   0.626   4.591   3.975  1.4782 -1.4387 -2.7551
 7188SOL     OW33025   4.586   2.844  12.252  0.0484 -0.4232  0.1742
 7188SOL    HW133026   4.672   2.803  12.262 -0.1920 -0.8773  0.3456
 7188SOL    HW233027   4.608   2.938  12.248 -0.4359 -0.4419 -2.7546
 7189SOL     OW33028   3.121   1.009  13.945 -0.6460  0.5338 -0.1488
 7189SOL    HW133029   3.167   1.092  13.957  2.7507 -1.7729  2.8466
 7189SOL    HW233030   3.164   0.965  14.019 -0.1415  0.5629 -0.4209
 7190SOL     OW33031   1.418   4.677   3.764 -0.3509  0.6771 -0.1214
 7190SOL    HW133032   1.392   4.644   3.850 -0.5725 -1.3667 -0.9805
 7190SOL    HW233033   1.359   4.634   3.702 -1.2383  2.9266 -0.8550
 7191SOL     OW33034   3.142   3.197   6.587  0.4358 -0.4783  0.0764
 7191SOL    HW133035   3.218   3.174   6.534  0.5902  1.3570 -0.4940
 7191SOL    HW233036   3.184   3.266   6.637 -0.8412  0.5822 -0.3133
 7192SOL     OW33037   2.024   1.395   9.078 -0.0747  0.4690  0.6161
 7192SOL    HW133038   2.109   1.351   9.071  0.1320  0.9579  0.0692
 7192SOL    HW233039   1.970   1.316   9.081 -0.8785  1.0372  0.8371
 7193SOL     OW33040   2.804   1.459   6.556 -0.0924  0.1903  0.1627
 7193SOL    HW133041   2.761   1.498   6.480 -0.5148  1.9880  1.3129
 7193SOL    HW233042   2.757   1.499   6.629 -0.5227 -1.6283  0.8746
 7194SOL     OW33043   0.319   3.778  10.702 -0.7419  0.0399 -0.2949
 7194SOL    HW133044   0.292   3.709  10.763  1.0126 -1.4282 -1.1606
 7194SOL    HW233045   0.406   3.798  10.736  0.0853 -0.6061 -2.0456
 7195SOL     OW33046   4.512   4.383   6.136 -0.3275 -0.1824  0.3132
 7195SOL    HW133047   4.474   4.333   6.208  1.0363  1.3462  2.0719
 7195SOL    HW233048   4.465   4.343   6.062 -1.2996  1.0532  0.2825
 7196SOL     OW33049   4.099   0.711   0.100 -0.0381 -0.5877  0.2406
 7196SOL    HW133050   4.016   0.666   0.087 -0.7055  0.0348  2.4385
 7196SOL    HW233051   4.075   0.803   0.087  2.0301 -0.1412 -0.3570
 7197SOL     OW33052   1.336   3.475  17.227 -0.6302  0.3634  0.3023
 7197SOL    HW133053   1.329   3.381  17.213 -0.2307  0.3523  0.1638
 7197SOL    HW233054   1.308   3.508  17.141  1.2563 -2.5443 -1.4245
 7198SOL     OW33055   2.662   3.148   3.758  0.1156  0.2588 -0.0668
 7198SOL    HW133056   2.685   3.109   3.674 -0.4465 -2.0016  0.8223
 7198SOL    HW233057   2.646   3.067   3.806  1.3433  1.0253  1.6321
 7199SOL     OW33058   0.437   2.687   4.632  0.6218  0.1765 -0.1059
 7199SOL    HW133059   0.530   2.677   4.608  0.6962  0.0762  0.2204
 7199SOL    HW233060   0.450   2.663   4.724 -0.8278 -2.9481 -0.7075
 7200SOL     OW33061   2.633   0.606   5.837  0.2352  0.1021 -0.3757
 7200SOL    HW133062   2.571   0.635   5.770  0.4743  3.0057  0.6304
 7200SOL    HW233063   2.581   0.567   5.906 -0.7787 -0.1566 -1.2855
 7201SOL     OW33064   4.323   1.041   9.588  0.2452  0.2816 -0.0390
 7201SOL    HW133065   4.248   1.091   9.620  1.9041  0.7678  3.0804
 7201SOL    HW233066   4.291   1.034   9.498 -1.4475 -1.4047  0.7062
 7202SOL     OW33067   1.531   1.533   3.694  0.0104 -0.4639 -0.7064
 7202SOL    HW133068   1.479   1.589   3.752  2.1199 -0.0075  0.7300
 7202SOL    HW233069   1.598   1.594   3.663 -0.1751 -1.1069 -2.3888
 7203SOL     OW33070   1.340   1.185  13.846 -0.0061 -0.0058  0.6951
 7203SOL    HW133071   1.286   1.106  13.853  0.1285 -0.1638 -0.0772
 7203SOL    HW233072   1.430   1.154  13.842 -1.1089 -3.3732  1.7529
 7204SOL     OW33073   3.399   0.275   4.198  0.2304  0.0495 -0.2610
 7204SOL    HW133074   3.493   0.272   4.183  0.0889 -1.1386 -0.9209
 7204SOL    HW233075   3.378   0.193   4.241 -2.2445  0.1894 -1.1447
 7205SOL     OW33076   2.604   1.577   9.263  0.0252  0.2138 -0.4304
 7205SOL    HW133077   2.622   1.509   9.198  0.0315 -0.5230  0.3452
 7205SOL    HW233078   2.662   1.645   9.227  0.5703  1.2474  2.3895
 7206SOL     OW33079   0.043   4.129   4.003  0.2517 -0.2396 -0.0074
 7206SOL    HW133080   0.016   4.188   4.074 -0.2401  1.0855 -1.2846
 7206SOL    HW233081   4.682   4.122   3.958  1.6388 -0.2197 -2.5794
 7207SOL     OW33082   2.648   3.946   8.814  0.4153 -0.3145 -0.4680
 7207SOL    HW133083   2.584   3.881   8.843  2.0793 -0.7879  2.1222
 7207SOL    HW233084   2.607   4.027   8.846 -2.2747 -1.3831 -1.1832
 7208SOL     OW33085   2.593   1.058  15.574  0.1434  0.3968  0.2801
 7208SOL    HW133086   2.608   0.970  15.609 -2.9485  0.1194  0.8489
 7208SOL    HW233087   2.644   1.105  15.640  0.1148  1.3919 -0.4051
 7209SOL     OW33088   4.021   1.674   5.342  0.3741  0.2046 -0.5559
 7209SOL    HW133089   4.032   1.728   5.420 -0.7057  1.4292 -1.2650
 7209SOL    HW233090   4.081   1.600   5.356  1.3834  1.4686  1.8334
 7210SOL     OW33091   1.047   4.221   2.896  0.1207 -0.0790  0.4314
 7210SOL    HW133092   1.047   4.151   2.960 -1.1799 -2.3075 -1.9866
 7210SOL    HW233093   0.975   4.203   2.835  0.6124  1.7716 -0.7210
 7211SOL     OW33094   3.756   2.191   5.189  0.2068  0.4808 -0.2945
 7211SOL    HW133095   3.750   2.134   5.112 -0.5698 -0.2061  0.2820
 7211SOL    HW233096   3.830   2.252   5.187 -0.2068  0.9969 -0.0785
 7212SOL     OW33097   1.708   1.210   1.534 -0.0041 -0.0006  0.3152
 7212SOL    HW133098   1.646   1.274   1.569 -0.4227 -0.6968  0.8416
 7212SOL    HW233099   1.653   1.183   1.461 -0.7666  1.4935  0.3361
 7213SOL     OW33100   4.478   1.533   9.780  0.6470  0.0836 -0.2717
 7213SOL    HW133101   4.546   1.490   9.833 -0.1042 -2.0917 -1.0505
 7213SOL    HW233102   4.439   1.456   9.737  0.9233 -0.9371  1.2861
 7214SOL     OW33103   1.798   0.238  17.432 -0.5854 -0.1637 -0.6606
 7214SOL    HW133104   1.813   0.303  17.500 -1.8743 -1.5836  0.9718
 7214SOL    HW233105   1.745   0.293  17.374  0.0035  1.0750 -0.0300
 7215SOL     OW33106   4.188   0.478   2.139 -0.2886  0.5095 -0.0599
 7215SOL    HW133107   4.169   0.426   2.061  0.8420  0.6130 -0.3928
 7215SOL    HW233108   4.111   0.449   2.188  0.0434 -1.2198 -0.5621
 7216SOL     OW33109   4.695   0.139   7.483  0.3699 -0.3065  1.0983
 7216SOL    HW133110   4.623   0.180   7.435  1.5725  1.6127  0.9445
 7216SOL    HW233111   0.041   0.144   7.417 -1.4841 -1.6373 -0.9363
 7217SOL     OW33112   1.592   3.693   5.280  0.0635 -0.0924 -0.9898
 7217SOL    HW133113   1.655   3.625   5.258 -0.6608 -1.1896  0.3173
 7217SOL    HW233114   1.654   3.764   5.267  0.2901  0.1315  1.3249
 7218SOL     OW33115   1.794   2.216  13.141 -0.0331  0.1070  0.4621
 7218SOL    HW133116   1.808   2.272  13.064 -1.0911  0.4949  0.5582
 7218SOL    HW233117   1.791   2.286  13.205 -0.7704 -0.8804  1.5050
 7219SOL     OW33118   3.491   0.129   2.567 -0.0349 -0.3944  0.2842
 7219SOL    HW133119   3.509   0.184   2.491  1.2360 -0.3128  0.6450
 7219SOL    HW233120   3.450   0.054   2.525 -0.8249  0.5709 -0.6443
 7220SOL     OW33121   1.848   3.553   4.172  0.1609  0.4138 -0.1797
 7220SOL    HW133122   1.870   3.464   4.147  0.9683  0.6349 -0.2632
 7220SOL    HW233123   1.826   3.546   4.264 -0.8290 -0.2005 -0.4710
 7221SOL     OW33124   3.632   3.566  14.527  0.1678 -0.0967  0.8693
 7221SOL    HW133125   3.724   3.574  14.554  1.5186 -0.8928 -3.4853
 7221SOL    HW233126   3.582   3.558  14.608 -2.0382 -2.2605 -0.6976
 7222SOL     OW33127   2.220   1.767  10.742 -0.3936  0.0539  0.4127
 7222SOL    HW133128   2.266   1.850  10.755  0.2527  0.0027 -1.6087
 7222SOL    HW233129   2.132   1.793  10.770 -0.8640 -1.4969  0.3849
 7223SOL     OW33130   0.472   2.399  12.623 -0.5223 -0.2148  0.3319
 7223SOL    HW133131   0.412   2.364  12.689 -0.8068 -4.0703 -1.9809
 7223SOL    HW233132   0.505   2.477  12.668  0.0478  0.8009 -1.8469
 7224SOL     OW33133   4.677   2.127  12.436  0.3557 -0.9243 -0.8792
 7224SOL    HW133134   4.658   2.071  12.361  2.1269 -0.9641 -1.2918
 7224SOL    HW233135   4.655   2.061  12.503 -1.5296  1.1950  0.5970
 7225SOL     OW33136   0.552   3.947  16.526 -0.0662  0.0855  0.0422
 7225SOL    HW133137   0.531   3.933  16.618  2.4997  0.4517  0.6878
 7225SOL    HW233138   0.486   4.012  16.503 -0.4507 -0.9591 -1.8201
 7226SOL     OW33139   1.797   0.153   4.284 -0.2506  0.1326 -0.1369
 7226SOL    HW133140   1.730   0.112   4.228  1.0530 -0.1028 -1.5154
 7226SOL    HW233141   1.743   0.161   4.363 -2.7861  0.4628 -1.8971
 7227SOL     OW33142   4.435   2.909   3.936 -0.6071  0.8341 -0.5965
 7227SOL    HW133143   4.461   2.942   4.022 -0.7849  2.2993 -1.0907
 7227SOL    HW233144   4.367   2.852   3.972 -1.0767  1.7794  0.0325
 7228SOL     OW33145   1.195   3.596   9.202  0.2167  0.3775  0.7012
 7228SOL    HW133146   1.117   3.635   9.243  0.6116  1.4079  0.4854
 7228SOL    HW233147   1.236   3.580   9.287  1.6519 -2.2456 -0.4882
 7229SOL     OW33148   3.974   0.080   7.757  0.2943  0.1741 -0.4599
 7229SOL    HW133149   3.967   0.064   7.662  0.4410 -1.1158 -0.2543
 7229SOL    HW233150   4.007   4.719   7.790 -2.0656 -0.0380  1.3221
 7230SOL     OW33151   2.494   1.130   4.600 -0.1129  0.1531  0.1103
 7230SOL    HW133152   2.568   1.179   4.564  0.8949 -0.5835  1.1273
 7230SOL    HW233153   2.511   1.046   4.557 -1.5709  0.2949 -0.7256
 7231SOL     OW33154   4.482   1.182   5.220 -0.2027 -0.4759  0.1837
 7231SOL    HW133155   4.410   1.224   5.173  0.4800 -0.6617 -1.0083
 7231SOL    HW233156   4.536   1.142   5.152  0.3418  1.9957 -0.8346
 7232SOL     OW33157   1.418   0.954   2.955 -0.1704  0.0420  0.0463
 7232SOL    HW133158   1.503   0.925   2.988 -1.8459 -2.3662  2.2782
 7232SOL    HW233159   1.439   1.045   2.937  0.6185 -0.4849 -1.6985
 7233SOL     OW33160   0.865   1.631   8.289 -0.0062 -0.3354 -0.1705
 7233SOL    HW133161   0.852   1.537   8.298  2.7123 -0.7198 -0.3928
 7233SOL    HW233162   0.959   1.638   8.305 -0.1570 -2.1149  1.4418
 7234SOL     OW33163   4.305   0.882   1.511 -0.1849 -0.5201  0.7130
 7234SOL    HW133164   4.330   0.969   1.543  0.0432  0.5434 -2.3228
 7234SOL    HW233165   4.374   0.820   1.532  1.9220  1.6215  0.0614
 7235SOL     OW33166   2.433   1.277   6.444 -0.5846 -0.4981  0.7460
 7235SOL    HW133167   2.377   1.245   6.374 -0.8276 -1.0726  1.2013
 7235SOL    HW233168   2.461   1.201   6.496 -0.7684 -0.4664  0.8912
 7236SOL     OW33169   3.219   2.925   4.460 -0.4310 -0.5545 -0.0706
 7236SOL    HW133170   3.146   2.940   4.401 -1.3953  0.8358  1.4898
 7236SOL    HW233171   3.294   2.949   4.405  0.6024 -0.3363  1.4412
 7237SOL     OW33172   3.691   3.419   1.646  0.1750  0.4602 -0.3429
 7237SOL    HW133173   3.659   3.420   1.555  0.3040 -2.2473 -0.4290
 7237SOL    HW233174   3.611   3.432   1.698 -1.7648  0.8952 -3.4123
 7238SOL     OW33175   1.404   2.232   2.521  0.5903 -0.0308  0.2938
 7238SOL    HW133176   1.467   2.161   2.508  0.4580  0.3324 -2.3761
 7238SOL    HW233177   1.345   2.220   2.447  3.0360 -3.0724 -1.1682
 7239SOL     OW33178   2.925   1.499   2.132  0.1182  0.3449  0.5795
 7239SOL    HW133179   2.949   1.587   2.102 -1.1091  0.1005 -1.0934
 7239SOL    HW233180   2.988   1.467   2.197  0.8749 -0.4485 -0.5350
 7240SOL     OW33181   1.777   3.146  13.787  0.0278 -0.3654  0.0092
 7240SOL    HW133182   1.789   3.215  13.852  2.5762 -0.4835 -0.3537
 7240SOL    HW233183   1.760   3.189  13.704  1.3940 -2.7530 -1.4796
 7241SOL     OW33184   2.202   3.199   7.652  0.9761  0.2490 -0.0062
 7241SOL    HW133185   2.286   3.219   7.611  0.6915  0.1603 -0.6314
 7241SOL    HW233186   2.157   3.284   7.647 -2.5773 -1.5283  1.2596
 7242SOL     OW33187   3.283   1.856  16.682  0.0825 -0.0319 -0.3336
 7242SOL    HW133188   3.246   1.798  16.615 -2.0638  0.7399  0.1861
 7242SOL    HW233189   3.283   1.800  16.759 -0.9246  1.8946  1.0594
 7243SOL     OW33190   0.110   3.781   6.582 -0.7005 -0.1427  1.2792
 7243SOL    HW133191   0.150   3.863   6.612 -0.7874  0.8906 -1.3885
 7243SOL    HW233192   0.051   3.755   6.653  0.5058 -1.9239  1.6068
 7244SOL     OW33193   0.531   4.016   3.950 -0.0955  0.2835  0.6765
 7244SOL    HW133194   0.455   4.074   3.958 -0.6316 -0.6042  2.0135
 7244SOL    HW233195   0.607   4.071   3.964  0.9011 -0.9193 -0.0355
 7245SOL     OW33196   3.483   2.770   4.604  0.3998 -0.1960  0.6675
 7245SOL    HW133197   3.481   2.844   4.543  1.2027 -0.4645  0.3252
 7245SOL    HW233198   3.399   2.729   4.583  0.1266  0.3477  0.7009
 7246SOL     OW33199   0.067   2.704   6.216  0.4533 -0.6174  0.0564
 7246SOL    HW133200   0.077   2.612   6.240  1.5854 -0.3596  0.6096
 7246SOL    HW233201   0.064   2.750   6.300  0.5355  0.1153 -0.3452
 7247SOL     OW33202   3.687   2.121   8.758  0.2322 -0.0178 -0.2119
 7247SOL    HW133203   3.671   2.026   8.753  0.8293  0.0557 -3.2483
 7247SOL    HW233204   3.622   2.143   8.825 -0.2688 -3.1790  0.3599
 7248SOL     OW33205   3.370   4.336   0.238  0.1229  0.6053 -0.0596
 7248SOL    HW133206   3.422   4.265   0.201  2.0609  1.6296  0.7238
 7248SOL    HW233207   3.311   4.363   0.167 -0.3549  1.1197  0.5299
 7249SOL     OW33208   2.214   0.858   1.670 -0.2620 -0.2768 -0.0829
 7249SOL    HW133209   2.151   0.860   1.742 -1.3236  0.1657 -1.0245
 7249SOL    HW233210   2.174   0.801   1.605  1.8224 -1.2688 -0.4914
 7250SOL     OW33211   4.480   1.822   8.019  0.1097  0.0963 -0.6837
 7250SOL    HW133212   4.532   1.741   8.016 -0.1249 -0.0499 -0.8143
 7250SOL    HW233213   4.502   1.847   8.109 -1.9132 -1.2640  0.2108
 7251SOL     OW33214   0.326   3.810   5.248 -0.2852 -0.1450 -0.5355
 7251SOL    HW133215   0.233   3.787   5.250  0.4222 -3.0288 -1.2839
 7251SOL    HW233216   0.314   3.900   5.219 -1.7764 -0.5189 -1.0689
 7252SOL     OW33217   4.710   1.196   2.052 -0.2105  0.1314 -0.1861
 7252SOL    HW133218   0.028   1.116   2.085 -2.2488 -0.1780  1.5396
 7252SOL    HW233219   0.059   1.259   2.051 -0.4521  0.4061 -0.0043
 7253SOL     OW33220   3.687   4.643   0.673  0.1760  0.2895  0.4373
 7253SOL    HW133221   3.673   4.693   0.593 -0.7462  0.3416  0.6419
 7253SOL    HW233222   3.782   4.644   0.687 -0.4319  1.4758  4.3964
 7254SOL     OW33223   2.056   4.591   6.919  0.3013  0.3900 -0.0146
 7254SOL    HW133224   2.000   4.516   6.898 -0.7747  1.2123 -0.0984
 7254SOL    HW233225   1.999   4.666   6.903  0.3439  0.2130 -0.9718
 7255SOL     OW33226   0.026   4.025   7.988  0.0748  0.0833 -0.0414
 7255SOL    HW133227   0.070   4.081   8.051  0.9906  1.6050 -2.0269
 7255SOL    HW233228   0.021   3.937   8.025  2.4678  0.1062  0.3427
 7256SOL     OW33229   1.719   3.852   1.852 -0.2897 -0.1678  0.4261
 7256SOL    HW133230   1.797   3.823   1.805 -0.5072 -0.1915  0.0811
 7256SOL    HW233231   1.666   3.846   1.773  0.5193  1.2498 -0.2266
 7257SOL     OW33232   3.973   1.353   2.763 -0.1503 -0.2541  0.4114
 7257SOL    HW133233   4.021   1.314   2.835  0.5853  0.2193  0.1877
 7257SOL    HW233234   4.022   1.306   2.695  1.0353  1.6257 -0.0561
 7258SOL     OW33235   0.928   0.267   6.493 -0.5665  0.5025 -0.8582
 7258SOL    HW133236   0.849   0.215   6.484  1.0998 -2.0091 -1.0934
 7258SOL    HW233237   0.915   0.333   6.425 -0.1480  0.7585 -0.6974
 7259SOL     OW33238   1.564   3.120   2.790  0.6606  0.1869 -0.0557
 7259SOL    HW133239   1.626   3.177   2.744  0.1145  0.9348  0.1347
 7259SOL    HW233240   1.607   3.037   2.771 -0.7619 -0.8248  1.2512
 7260SOL     OW33241   2.055   1.232   7.870 -0.1179  0.3688 -0.6375
 7260SOL    HW133242   1.995   1.203   7.939 -0.1714  0.4932 -0.6315
 7260SOL    HW233243   2.015   1.202   7.789 -3.0899  0.2706  0.8798
 7261SOL     OW33244   1.746   3.466   7.965 -0.0638 -0.5278  0.2693
 7261SOL    HW133245   1.700   3.521   8.029 -1.3292 -0.7496 -0.4530
 7261SOL    HW233246   1.828   3.442   8.008 -0.3341  1.6449  2.0020
 7262SOL     OW33247   3.127   2.488   4.063  0.5475  0.0279  0.1231
 7262SOL    HW133248   3.155   2.580   4.068  0.3566  0.0870  0.0891
 7262SOL    HW233249   3.194   2.442   4.114  0.2951  0.3846  0.7814
 7263SOL     OW33250   3.406   2.529   2.974  0.0802 -0.0996  0.6285
 7263SOL    HW133251   3.461   2.467   2.925 -0.2049 -0.2498  0.4967
 7263SOL    HW233252   3.353   2.467   3.024 -0.1820 -1.2928 -1.0974
 7264SOL     OW33253   3.533   0.796   1.731  0.1322  0.2101 -0.0447
 7264SOL    HW133254   3.468   0.769   1.666  1.1140 -1.0677 -0.5156
 7264SOL    HW233255   3.597   0.725   1.721 -0.9434 -0.6721 -0.6273
 7265SOL     OW33256   3.712   0.878   3.606  0.2675  0.4008  0.2558
 7265SOL    HW133257   3.802   0.846   3.600 -0.7199 -2.5338  1.3359
 7265SOL    HW233258   3.656   0.823   3.552  0.4004  0.1951  0.3265
 7266SOL     OW33259   1.305   0.259   7.862  0.1338 -0.0980 -0.3481
 7266SOL    HW133260   1.382   0.311   7.885 -0.3125  1.3652 -2.1543
 7266SOL    HW233261   1.323   0.237   7.770 -0.5476  1.8949 -0.9619
 7267SOL     OW33262   1.952   0.924   6.797 -0.2714 -0.6316 -0.1162
 7267SOL    HW133263   1.922   1.013   6.778  0.2854 -0.8230 -1.9225
 7267SOL    HW233264   1.867   0.895   6.831 -0.7507  0.3224 -0.5112
 7268SOL     OW33265   3.068   1.680   4.131 -0.0106  0.2718 -0.1153
 7268SOL    HW133266   2.973   1.691   4.142  0.1773  2.9636 -1.1609
 7268SOL    HW233267   3.082   1.701   4.223 -0.3267  1.4089 -0.3183
 7269SOL     OW33268   0.265   4.062  16.545 -0.7604  0.1199 -0.1810
 7269SOL    HW133269   0.288   4.122  16.616  1.0662 -0.0620 -0.6113
 7269SOL    HW233270   0.318   4.100  16.475  2.2802 -0.2313  1.9586
 7270SOL     OW33271   3.457   1.132   0.009  0.1139  0.2913 -0.2297
 7270SOL    HW133272   3.464   1.038  17.685  0.5538  0.3013 -0.1003
 7270SOL    HW233273   3.407   1.133   0.091 -0.6012  0.4626 -0.6648
 7271SOL     OW33274   1.486   3.502   1.297 -0.1888 -0.0110  0.0385
 7271SOL    HW133275   1.532   3.419   1.287 -1.8405 -1.0082  0.7046
 7271SOL    HW233276   1.395   3.475   1.280  0.2041  0.5684 -3.1305
 7272SOL     OW33277   3.006   4.541   4.049  0.2174  0.3386 -0.3244
 7272SOL    HW133278   3.100   4.537   4.061  0.2318 -1.8707 -1.1585
 7272SOL    HW233279   2.965   4.455   4.059 -3.6760  2.1699 -0.3336
 7273SOL     OW33280   2.240   4.137   3.364 -0.4753  0.8334 -0.0543
 7273SOL    HW133281   2.277   4.158   3.278 -3.7476 -2.1928 -2.1863
 7273SOL    HW233282   2.158   4.092   3.342  1.3693 -0.6897 -3.8785
 7274SOL     OW33283   4.662   0.072  17.065  0.1362  0.0509  0.2632
 7274SOL    HW133284   4.659   0.081  16.969  1.2668 -0.5124  0.1815
 7274SOL    HW233285   0.013   0.131  17.082 -0.2869  1.3258 -2.2664
 7275SOL     OW33286   0.640   3.428  12.609 -0.3599  0.1801 -0.1714
 7275SOL    HW133287   0.655   3.406  12.517 -1.5901 -0.5434 -0.1961
 7275SOL    HW233288   0.602   3.345  12.639  1.0844 -0.6102 -0.5313
 7276SOL     OW33289   3.270   2.753   8.188 -0.6440 -0.2692  0.1130
 7276SOL    HW133290   3.287   2.718   8.276  0.5404 -1.1293 -0.4590
 7276SOL    HW233291   3.252   2.844   8.212 -0.7943 -0.3870  0.4495
 7277SOL     OW33292   0.342   4.254  11.205 -0.0931 -0.2416  0.2402
 7277SOL    HW133293   0.252   4.279  11.182  0.7069  0.0798 -2.6275
 7277SOL    HW233294   0.396   4.256  11.125 -0.2315  3.9311  0.2755
 7278SOL     OW33295   1.078   0.699   8.648  0.0354 -0.4376 -0.7437
 7278SOL    HW133296   1.167   0.727   8.624  0.3144 -2.1550 -1.7159
 7278SOL    HW233297   1.056   0.755   8.723  0.2088 -1.8320  0.3541
 7279SOL     OW33298   2.498   4.021   3.160 -0.2480  0.1679 -0.1108
 7279SOL    HW133299   2.515   4.112   3.185 -1.5175  0.8876 -1.8047
 7279SOL    HW233300   2.501   4.022   3.064  2.4011  0.4137 -0.0279
 7280SOL     OW33301   2.536   1.658   7.045  0.7751  0.2984 -0.5550
 7280SOL    HW133302   2.579   1.613   7.118 -2.2816 -1.0375  0.4029
 7280SOL    HW233303   2.479   1.720   7.090 -0.7866 -1.0764 -0.6474
 7281SOL     OW33304   1.677   4.430  14.419 -0.0894  0.2454 -0.5656
 7281SOL    HW133305   1.749   4.478  14.377  1.4917  0.2800  2.1783
 7281SOL    HW233306   1.707   4.444  14.509  3.1267 -1.6136 -1.3232
 7282SOL     OW33307   1.103   2.556   0.558  0.0956  0.2433  0.3829
 7282SOL    HW133308   1.066   2.587   0.476 -1.7295 -0.0948  1.0634
 7282SOL    HW233309   1.096   2.638   0.607  2.0295  0.2035  0.7024
 7283SOL     OW33310   4.246   3.771  16.965 -0.1301  0.0879  0.2415
 7283SOL    HW133311   4.251   3.700  16.901 -4.5163  0.3368 -0.3755
 7283SOL    HW233312   4.167   3.819  16.941  1.3022  1.3720 -1.9124
 7284SOL     OW33313   1.401   0.315   0.815 -0.4050 -0.4458 -0.0032
 7284SOL    HW133314   1.307   0.317   0.831 -0.0989  0.1422  1.6629
 7284SOL    HW233315   1.430   0.239   0.866  1.2886 -1.2282 -2.0751
 7285SOL     OW33316   4.083   1.437   1.944 -0.0149 -0.1714  0.5346
 7285SOL    HW133317   4.144   1.463   2.013 -0.4056  0.7165  0.5435
 7285SOL    HW233318   4.146   1.378   1.904 -0.6004  0.0353 -0.6724
 7286SOL     OW33319   2.954   0.534   9.346  0.4284 -0.4585  0.0020
 7286SOL    HW133320   2.879   0.495   9.391  1.5329 -3.0125 -0.3732
 7286SOL    HW233321   2.914   0.599   9.289 -0.3474 -2.2111 -1.4326
 7287SOL     OW33322   2.752   2.986   3.519  0.0141 -0.7908 -0.3065
 7287SOL    HW133323   2.809   2.910   3.502 -0.5084 -1.5310  1.2687
 7287SOL    HW233324   2.778   3.042   3.446  0.0646 -0.4608 -0.0332
 7288SOL     OW33325   2.591   1.605   6.785  0.1427 -0.2242 -0.0810
 7288SOL    HW133326   2.555   1.602   6.873  2.7057 -0.5177  0.9412
 7288SOL    HW233327   2.682   1.592   6.811  0.7309  0.9954 -1.4662
 7289SOL     OW33328   2.354   3.132   7.882  0.2384 -0.1752  0.2381
 7289SOL    HW133329   2.426   3.078   7.851 -0.4262 -1.8769  1.6567
 7289SOL    HW233330   2.299   3.140   7.804 -1.6491  0.7997  1.6591
 7290SOL     OW33331   0.714   0.326   0.999  0.8326 -0.0524 -0.5411
 7290SOL    HW133332   0.702   0.240   0.959 -1.0641 -0.5616  1.1374
 7290SOL    HW233333   0.760   0.372   0.929 -0.9329  2.0143 -0.3427
 7291SOL     OW33334   1.162   1.765   9.213  0.2271 -0.2512 -0.4051
 7291SOL    HW133335   1.178   1.699   9.280  1.9527 -2.3554 -2.8703
 7291SOL    HW233336   1.145   1.847   9.259  2.4304  0.6732 -1.2243
 7292SOL     OW33337   4.244   0.864  16.318  0.0092  0.0949  0.1233
 7292SOL    HW133338   4.199   0.935  16.272  2.0463  1.0878 -0.3354
 7292SOL    HW233339   4.178   0.804  16.352  0.7173 -0.3184  0.7765
 7293SOL     OW33340   4.023   4.159   5.869 -0.4611 -0.0447 -0.1351
 7293SOL    HW133341   3.945   4.210   5.848 -0.0619  0.5595 -0.1345
 7293SOL    HW233342   4.080   4.230   5.897 -1.8472  0.8082  0.5203
 7294SOL     OW33343   1.028   1.964   3.134 -0.0819  0.0064  0.3547
 7294SOL    HW133344   1.072   2.032   3.084  1.3494  1.4859  3.6827
 7294SOL    HW233345   1.001   2.012   3.212  1.3817 -2.0775  2.1304
 7295SOL     OW33346   4.510   0.840  15.895  0.0725 -0.0466 -0.2780
 7295SOL    HW133347   4.507   0.865  15.803 -1.3358 -2.6659 -0.9612
 7295SOL    HW233348   4.495   0.923  15.939  3.5718  1.4544 -1.8922
 7296SOL     OW33349   2.962   3.529  13.240 -0.1255  0.1191  0.2642
 7296SOL    HW133350   3.010   3.545  13.158 -0.4540  0.6332  0.1749
 7296SOL    HW233351   2.883   3.582  13.236  1.5816  2.6362  0.1523
 7297SOL     OW33352   4.556   1.386   3.860  0.1252  0.3826 -0.7450
 7297SOL    HW133353   4.631   1.445   3.857  1.1586 -0.8636  0.4715
 7297SOL    HW233354   4.549   1.368   3.954  1.1158 -0.5443 -0.8550
 7298SOL     OW33355   4.079   1.848   6.964 -0.1268  0.1364 -0.4836
 7298SOL    HW133356   4.012   1.914   6.979  0.5390  1.0622 -1.5497
 7298SOL    HW233357   4.138   1.895   6.904  0.3546  0.0038 -0.1130
 7299SOL     OW33358   0.926   1.236   4.092 -0.0204 -0.1189 -0.1000
 7299SOL    HW133359   0.889   1.166   4.038 -0.2195 -0.0969  0.0107
 7299SOL    HW233360   1.020   1.220   4.079 -0.2841 -0.7518 -1.2351
 7300SOL     OW33361   1.937   1.273   2.570  0.1867  0.3701  0.1369
 7300SOL    HW133362   1.868   1.207   2.562 -1.6727  2.3613 -0.2734
 7300SOL    HW233363   1.964   1.284   2.479  2.3881 -1.3607  0.5717
 7301SOL     OW33364   0.346   2.825  10.492  0.0701 -0.4000 -0.1971
 7301SOL    HW133365   0.372   2.743  10.533  0.1540 -0.7749 -1.0150
 7301SOL    HW233366   0.414   2.885  10.525 -2.5710  2.2753  0.3884
 7302SOL     OW33367   4.653   3.171  14.861 -0.4087  0.5637 -0.2859
 7302SOL    HW133368   4.577   3.228  14.857 -1.5877 -0.9094  1.0210
 7302SOL    HW233369   4.694   3.206  14.940  1.1606 -0.8861 -0.4633
 7303SOL     OW33370   3.244   4.673   9.323  0.5612 -0.1073  0.3024
 7303SOL    HW133371   3.303   4.615   9.274 -0.2969  0.6726 -1.6470
 7303SOL    HW233372   3.236   0.009   9.248  0.6631  0.7530  0.9731
 7304SOL     OW33373   0.959   0.476  12.696  0.3041 -0.2709 -0.3402
 7304SOL    HW133374   0.936   0.394  12.652  0.6515 -1.6438  2.0091
 7304SOL    HW233375   0.996   0.444  12.778 -0.2895 -0.9710 -0.3417
 7305SOL     OW33376   1.995   0.895   5.608 -0.5992  0.5576  0.5103
 7305SOL    HW133377   1.918   0.947   5.584 -1.2069 -0.6843 -0.2720
 7305SOL    HW233378   2.061   0.944   5.561 -0.1253 -0.2257  0.3654
 7306SOL     OW33379   0.316   1.441   5.955 -0.6714  0.4434  0.0428
 7306SOL    HW133380   0.276   1.398   5.880 -0.1765  1.1285 -0.6189
 7306SOL    HW233381   0.387   1.481   5.904  0.3307  0.6133  1.5709
 7307SOL     OW33382   2.227   4.577   7.126  0.2245  0.4202  0.0010
 7307SOL    HW133383   2.308   4.552   7.081 -2.3218 -3.3078 -2.5054
 7307SOL    HW233384   2.169   4.603   7.054  0.3579 -1.1011 -0.6594
 7308SOL     OW33385   1.538   0.395   7.239 -0.2919 -0.2822 -0.0650
 7308SOL    HW133386   1.602   0.439   7.295 -0.2246 -0.9217  0.3568
 7308SOL    HW233387   1.471   0.382   7.306 -1.4651 -1.2048 -1.4256
 7309SOL     OW33388   4.379   4.159  10.016 -0.0720  0.4431  0.0925
 7309SOL    HW133389   4.320   4.221   9.974 -2.1050 -1.7873 -0.3303
 7309SOL    HW233390   4.375   4.185  10.108 -0.7474  1.9622 -0.3633
 7310SOL     OW33391   3.309   3.803   8.456 -0.2192  0.1004  0.0181
 7310SOL    HW133392   3.397   3.765   8.445  0.0953  0.7715  0.1980
 7310SOL    HW233393   3.317   3.893   8.424  1.9942  0.2022  0.8509
 7311SOL     OW33394   3.523   3.983  11.125 -0.6058 -0.8304 -0.8500
 7311SOL    HW133395   3.527   3.931  11.205 -0.2460  0.7940  0.1907
 7311SOL    HW233396   3.435   3.970  11.091 -0.4093 -4.5089  0.0554
 7312SOL     OW33397   0.188   4.257  15.005 -0.2372  0.0501 -0.3864
 7312SOL    HW133398   0.147   4.222  15.084  0.6020 -0.6366 -0.2554
 7312SOL    HW233399   0.279   4.229  15.015 -0.3704 -0.0322  0.5680
 7313SOL     OW33400   0.968   0.840   4.871 -0.0218  0.4142 -0.5061
 7313SOL    HW133401   0.877   0.869   4.867 -0.0585  0.4145  0.2493
 7313SOL    HW233402   0.950   0.766   4.813  0.2385 -1.5930  1.9883
 7314SOL     OW33403   4.533   0.361  16.811  0.0538 -0.4719  0.2919
 7314SOL    HW133404   4.571   0.438  16.769  0.1732 -0.6061  0.1556
 7314SOL    HW233405   4.526   0.394  16.901  2.2635  2.3793 -0.5663
 7315SOL     OW33406   4.677   1.195   6.813  0.2645 -0.0482 -0.1889
 7315SOL    HW133407   4.602   1.254   6.811 -0.7259 -1.2964  0.1987
 7315SOL    HW233408   4.659   1.133   6.884 -1.4268 -1.8435 -2.1724
 7316SOL     OW33409   3.263   0.886   9.948 -0.0596 -0.3562  0.2061
 7316SOL    HW133410   3.177   0.927   9.938 -0.2562 -0.9280 -0.4154
 7316SOL    HW233411   3.324   0.960   9.957  0.7011 -0.9185 -0.3111
 7317SOL     OW33412   1.438   2.007   5.341 -0.2402 -0.1097  0.2144
 7317SOL    HW133413   1.521   2.033   5.300  0.3154 -0.4415  1.1278
 7317SOL    HW233414   1.385   2.087   5.345  0.1689  0.1887 -0.3920
 7318SOL     OW33415   2.700   3.702   3.083  0.3998  0.3978  0.1592
 7318SOL    HW133416   2.747   3.785   3.087  1.4677 -0.0199 -3.5878
 7318SOL    HW233417   2.661   3.704   2.996  1.6464  0.0235 -0.4058
 7319SOL     OW33418   4.465   4.273   7.990  0.1987  0.7270 -0.0219
 7319SOL    HW133419   4.478   4.334   7.918  2.3458  0.0725 -0.1869
 7319SOL    HW233420   4.463   4.346   8.052 -2.1071  1.9683 -1.5411
 7320SOL     OW33421   4.132   1.633  15.057 -0.0945 -0.3353 -0.3008
 7320SOL    HW133422   4.107   1.550  15.099  1.0906  0.2499  1.6013
 7320SOL    HW233423   4.065   1.690  15.095 -0.3989  0.6888 -2.4322
 7321SOL     OW33424   4.139   4.672  10.984  0.6014 -0.3643  0.2282
 7321SOL    HW133425   4.199   0.018  10.955 -1.5312  1.7238  0.8161
 7321SOL    HW233426   4.135   4.635  10.895  3.6813  0.0833 -0.1002
 7322SOL     OW33427   0.728   1.966  11.172 -0.3224 -0.0823  0.2600
 7322SOL    HW133428   0.822   1.952  11.156  0.0147  0.6337  1.5702
 7322SOL    HW233429   0.699   1.901  11.108 -0.8263  0.7525 -0.3473
 7323SOL     OW33430   2.461   1.335  17.047  0.4613 -0.6373 -0.0148
 7323SOL    HW133431   2.374   1.359  17.080  0.1831 -1.1103 -0.4116
 7323SOL    HW233432   2.442   1.313  16.956  1.1477 -2.3083  0.2577
 7324SOL     OW33433   2.765   0.951   5.931  0.0428  0.8463  0.0128
 7324SOL    HW133434   2.804   0.879   5.980  3.8088  1.8770 -1.5063
 7324SOL    HW233435   2.680   0.910   5.910 -0.3275  0.7858  1.6394
 7325SOL     OW33436   1.815   2.480   4.775  0.1698  0.0315 -0.2975
 7325SOL    HW133437   1.764   2.407   4.740 -0.2799  0.7994 -1.2228
 7325SOL    HW233438   1.899   2.434   4.772 -1.2580 -2.4773 -2.1549
 7326SOL     OW33439   0.567   4.554   2.427  0.1482 -0.4553  0.3059
 7326SOL    HW133440   0.649   4.566   2.379 -1.2858  0.7553 -1.8873
 7326SOL    HW233441   0.512   4.632   2.413 -0.9916 -1.2601  0.3212
 7327SOL     OW33442   3.373   2.843   3.911  0.4653  0.0019 -0.1697
 7327SOL    HW133443   3.324   2.771   3.871  1.5505 -0.0155 -1.4821
 7327SOL    HW233444   3.425   2.874   3.837 -2.8873  0.5349 -2.2779
 7328SOL     OW33445   3.479   4.323   8.123  0.6493 -0.5660 -0.3402
 7328SOL    HW133446   3.560   4.314   8.073 -0.4511 -0.9120 -2.0621
 7328SOL    HW233447   3.510   4.363   8.204 -1.0401  1.2373 -0.5959
 7329SOL     OW33448   1.178   2.811  15.577  0.3747 -0.4970 -0.4491
 7329SOL    HW133449   1.187   2.817  15.482  1.4538  2.2218 -0.1606
 7329SOL    HW233450   1.251   2.867  15.605 -0.0580 -0.0625 -0.1774
 7330SOL     OW33451   0.191   0.307  13.537 -0.1200 -0.3672  0.1988
 7330SOL    HW133452   0.269   0.263  13.571  0.1933 -0.7103 -0.9632
 7330SOL    HW233453   0.193   0.382  13.597  1.3929  1.2071 -1.8472
 7331SOL     OW33454   2.268   3.028   4.681  0.3993  0.3085 -1.0271
 7331SOL    HW133455   2.238   3.116   4.704  0.6792  0.1596 -0.0584
 7331SOL    HW233456   2.278   3.045   4.588  0.1708 -1.5584 -1.3899
 7332SOL     OW33457   0.466   2.938   7.460 -0.5709  0.2622 -0.0301
 7332SOL    HW133458   0.439   2.886   7.384  1.9594  0.6100 -1.1656
 7332SOL    HW233459   0.550   2.964   7.423 -0.1805  1.3218  1.5917
 7333SOL     OW33460   0.516   1.006   4.676  0.5614 -0.2597 -0.3723
 7333SOL    HW133461   0.530   1.013   4.582 -5.0295 -1.6250 -1.3291
 7333SOL    HW233462   0.423   1.026   4.685  1.1136  2.4837 -0.9189
 7334SOL     OW33463   4.436   3.911  17.124 -0.2676  0.6515 -0.4722
 7334SOL    HW133464   4.506   3.846  17.120 -1.0848 -0.3669  1.5533
 7334SOL    HW233465   4.372   3.861  17.073  1.1517  1.2904 -2.8800
 7335SOL     OW33466   2.660   1.556   6.335 -0.0515 -0.1392 -0.2619
 7335SOL    HW133467   2.591   1.521   6.391  0.6274  0.5491  1.0063
 7335SOL    HW233468   2.621   1.537   6.249  2.3448  0.0177 -1.4125
 7336SOL     OW33469   2.914   0.727   8.087 -0.2876  0.7537  0.1353
 7336SOL    HW133470   2.819   0.711   8.082 -0.1221  0.3001 -1.5100
 7336SOL    HW233471   2.948   0.662   8.025  0.4941  2.4485 -1.2192
 7337SOL     OW33472   1.838   1.067  13.274 -0.0565  0.6722  0.1651
 7337SOL    HW133473   1.906   1.015  13.317  0.9531  1.2612 -0.7189
 7337SOL    HW233474   1.758   1.019  13.297  0.2349 -0.1896 -0.6150
 7338SOL     OW33475   0.316   1.452   2.974  0.7175 -0.1482  1.0269
 7338SOL    HW133476   0.360   1.410   2.900 -1.0378  1.2315 -0.8131
 7338SOL    HW233477   0.349   1.541   2.963 -2.2181  0.9072  0.8864
 7339SOL     OW33478   2.202   1.774   7.568  0.1101  0.0622 -0.0046
 7339SOL    HW133479   2.206   1.798   7.475  0.9635 -1.4941 -0.3817
 7339SOL    HW233480   2.257   1.695   7.569  0.3387  0.2142 -0.4585
 7340SOL     OW33481   4.191   4.648   3.444  0.2134 -0.8574  0.0676
 7340SOL    HW133482   4.191   4.721   3.507  1.6520 -0.7232 -0.0827
 7340SOL    HW233483   4.154   4.684   3.364  0.4562  2.9417  1.6877
 7341SOL     OW33484   3.339   3.275   8.413 -0.1898 -0.1889 -0.7600
 7341SOL    HW133485   3.276   3.310   8.476  0.5966  1.9936 -1.1837
 7341SOL    HW233486   3.373   3.355   8.374  1.5943 -1.1640 -1.2381
 7342SOL     OW33487   2.588   1.785   1.536  0.3692  0.5081 -0.0380
 7342SOL    HW133488   2.570   1.691   1.545  1.7998  0.0094 -2.3411
 7342SOL    HW233489   2.647   1.801   1.610  0.6095 -1.5930  0.2189
 7343SOL     OW33490   3.319   1.423   5.773 -0.8444  0.0224 -0.0050
 7343SOL    HW133491   3.338   1.428   5.867 -0.1171 -2.1183 -0.0446
 7343SOL    HW233492   3.406   1.392   5.748 -0.6926 -0.1175  0.7111
 7344SOL     OW33493   3.901   0.504   9.110 -0.8788 -0.3222  0.0234
 7344SOL    HW133494   3.841   0.457   9.167 -2.9622 -0.3751 -2.2392
 7344SOL    HW233495   3.946   0.563   9.171 -0.5256 -1.7726  1.1763
 7345SOL     OW33496   4.402   2.494  15.594  0.0702 -0.1450 -0.5036
 7345SOL    HW133497   4.361   2.416  15.631  0.1137  0.5945  1.0866
 7345SOL    HW233498   4.468   2.459  15.534  0.6186  0.6305 -0.3533
 7346SOL     OW33499   4.319   1.259   0.228 -0.5039 -0.1524 -0.0370
 7346SOL    HW133500   4.391   1.225   0.282 -0.0862 -0.1152 -0.5628
 7346SOL    HW233501   4.268   1.304   0.295  3.2722  0.8370  2.1935
 7347SOL     OW33502   2.077   2.424   4.388 -0.5702 -0.1355  0.1667
 7347SOL    HW133503   2.089   2.469   4.471 -0.8033 -1.5650  0.9849
 7347SOL    HW233504   2.088   2.494   4.324 -0.9300 -0.7848 -0.6083
 7348SOL     OW33505   0.982   2.979   2.288  0.4933  0.0452  0.4914
 7348SOL    HW133506   1.071   2.987   2.254  0.2108 -1.9781 -0.7684
 7348SOL    HW233507   0.965   2.891   2.252  2.0994  0.3990 -1.1727
 7349SOL     OW33508   1.846   0.294   1.734 -0.2784  0.6776 -0.4540
 7349SOL    HW133509   1.791   0.244   1.673  1.1872 -0.5367 -0.8185
 7349SOL    HW233510   1.818   0.381   1.705  2.0965  2.2926  2.1606
 7350SOL     OW33511   1.323   0.172  16.955  0.8629 -0.0160 -0.1102
 7350SOL    HW133512   1.229   0.157  16.968  0.3727  1.9345 -1.2273
 7350SOL    HW233513   1.342   0.228  17.030 -2.3285  1.0653 -0.0729
 7351SOL     OW33514   1.793   2.544   6.911  0.1603 -0.5691 -0.3751
 7351SOL    HW133515   1.786   2.489   6.989  1.4068 -2.7149 -1.7705
 7351SOL    HW233516   1.776   2.629   6.952 -1.3784 -1.5152  0.9457
 7352SOL     OW33517   2.283   0.713   6.880 -0.5419  0.3875 -0.4601
 7352SOL    HW133518   2.251   0.780   6.819  0.8408  1.6548  0.2106
 7352SOL    HW233519   2.356   0.750   6.929  0.2906 -0.1155 -1.3437
 7353SOL     OW33520   0.451   1.816  13.197 -0.0032 -0.8812 -0.4662
 7353SOL    HW133521   0.509   1.784  13.128  2.2024  0.1537  0.9246
 7353SOL    HW233522   0.494   1.898  13.220  1.7891 -2.0377  0.3339
 7354SOL     OW33523   0.169   1.340   7.663  0.0824  0.0168  0.4350
 7354SOL    HW133524   0.247   1.395   7.654  0.0370  0.1961  1.1638
 7354SOL    HW233525   0.175   1.311   7.754 -1.6069 -0.4537  0.4024
 7355SOL     OW33526   0.823   3.972   4.036  0.0617 -0.5291 -0.1917
 7355SOL    HW133527   0.846   3.921   4.114  1.4504 -2.1998 -1.7167
 7355SOL    HW233528   0.777   3.905   3.986  1.3356 -0.7773 -1.0229
 7356SOL     OW33529   3.848   2.696   7.381 -0.1358  0.8928 -0.7152
 7356SOL    HW133530   3.909   2.625   7.360 -0.0267  0.2900  1.6806
 7356SOL    HW233531   3.774   2.678   7.323 -0.9619  2.0347  0.0061
 7357SOL     OW33532   2.713   1.041  10.168 -0.2193 -0.2748  0.0033
 7357SOL    HW133533   2.707   1.125  10.124 -0.9655 -0.1845  0.2624
 7357SOL    HW233534   2.771   1.049  10.244  0.6526 -0.7354 -0.6230
 7358SOL     OW33535   3.657   0.139  15.479  0.4173  0.1315 -0.0594
 7358SOL    HW133536   3.676   0.225  15.442 -0.3047 -0.9152 -2.8659
 7358SOL    HW233537   3.621   0.091  15.405  0.1951 -2.5432  1.7911
 7359SOL     OW33538   0.294   3.652   8.813  0.0891 -0.8315 -0.1468
 7359SOL    HW133539   0.209   3.629   8.775  0.4028 -0.6973 -0.9299
 7359SOL    HW233540   0.284   3.744   8.838 -1.9132 -1.9522  3.2876
 7360SOL     OW33541   2.022   3.850  13.876  0.1434  0.4602  0.1107
 7360SOL    HW133542   1.928   3.844  13.864  0.5608 -0.7057 -2.6301
 7360SOL    HW233543   2.045   3.895  13.795 -0.7703 -0.7629 -0.8134
 7361SOL     OW33544   1.487   3.945   2.501 -0.3507  0.2029 -0.2777
 7361SOL    HW133545   1.412   3.999   2.525  1.0398  1.3236  1.5169
 7361SOL    HW233546   1.449   3.863   2.471 -0.5241 -0.0380  0.5885
 7362SOL     OW33547   1.271   0.822  11.610 -0.6418  0.2160 -0.4812
 7362SOL    HW133548   1.245   0.821  11.702  1.4195  0.0243  0.0975
 7362SOL    HW233549   1.219   0.897  11.582  0.0645 -0.2267 -3.0533
 7363SOL     OW33550   0.360   3.305   4.357  0.3538 -0.4177 -0.4555
 7363SOL    HW133551   0.326   3.296   4.446 -1.7892 -0.5656 -1.2818
 7363SOL    HW233552   0.347   3.216   4.325  0.4454 -0.5290 -0.1810
 7364SOL     OW33553   0.060   0.701   6.426 -0.6987 -0.2949  0.3983
 7364SOL    HW133554   0.040   0.731   6.515 -1.1243 -0.2510  0.2881
 7364SOL    HW233555   0.009   0.764   6.375  1.4221 -0.2764 -1.7240
 7365SOL     OW33556   1.657   0.352   8.904  0.0467  0.3304 -0.3045
 7365SOL    HW133557   1.604   0.317   8.975  1.4359  0.2874  0.7129
 7365SOL    HW233558   1.624   0.304   8.828  0.3340  1.5995 -1.2434
 7366SOL     OW33559   2.118   3.471   6.383 -0.3104 -0.4003  0.8353
 7366SOL    HW133560   2.056   3.513   6.324  3.1465  0.6910 -2.0605
 7366SOL    HW233561   2.101   3.377   6.383 -1.6184 -0.1619 -2.1308
 7367SOL     OW33562   2.634   3.871   3.941 -0.0661 -0.1590 -0.7518
 7367SOL    HW133563   2.634   3.839   4.031 -0.4739  1.8146 -0.0715
 7367SOL    HW233564   2.684   3.802   3.896  1.0102  1.9972 -2.8374
 7368SOL     OW33565   4.485   3.476   3.081 -0.1811 -0.7191 -0.3093
 7368SOL    HW133566   4.520   3.396   3.121 -1.1898 -0.3536  1.3158
 7368SOL    HW233567   4.511   3.480   2.989  1.2527 -0.4265  0.1161
 7369SOL     OW33568   1.529   4.471   2.109 -0.4358 -0.0182 -0.6112
 7369SOL    HW133569   1.587   4.395   2.101  2.8938  2.2506  2.1503
 7369SOL    HW233570   1.559   4.513   2.189 -1.2361  0.3392 -0.4951
 7370SOL     OW33571   0.226   0.083   3.862  0.2326 -0.1401 -0.7108
 7370SOL    HW133572   0.176   0.076   3.781  0.8713 -0.3178 -1.0904
 7370SOL    HW233573   0.197   0.006   3.911  0.7638  0.5590  0.7011
 7371SOL     OW33574   0.888   2.568   8.548  0.1929  0.5854 -0.3123
 7371SOL    HW133575   0.846   2.542   8.465  0.6316  0.2161 -0.4212
 7371SOL    HW233576   0.817   2.563   8.612  0.8419  1.5439  0.4799
 7372SOL     OW33577   3.896   3.431   3.871  0.4413 -0.4688 -0.2129
 7372SOL    HW133578   3.916   3.465   3.784 -1.0162  0.4140 -0.2104
 7372SOL    HW233579   3.827   3.368   3.850  0.4387 -0.5508  0.0453
 7373SOL     OW33580   2.292   1.489   2.083 -0.1740  0.4569  0.5732
 7373SOL    HW133581   2.198   1.507   2.090 -0.6670 -1.7855 -0.0347
 7373SOL    HW233582   2.341   1.551   2.136 -0.8929 -0.1227  1.9201
 7374SOL     OW33583   4.011   0.242   9.438  0.0392 -0.3484  0.4866
 7374SOL    HW133584   3.991   0.326   9.397  2.2536 -0.3731 -0.6691
 7374SOL    HW233585   3.944   0.190   9.393 -0.2392  0.9412 -0.6038
 7375SOL     OW33586   1.822   3.184  17.282  0.3103 -0.0078  0.2980
 7375SOL    HW133587   1.773   3.251  17.234 -0.7780 -2.2913 -1.8010
 7375SOL    HW233588   1.895   3.235  17.316  0.4396 -0.1043  0.1627
 7376SOL     OW33589   4.415   3.830   5.181 -0.7584 -0.4198  0.0102
 7376SOL    HW133590   4.496   3.805   5.138  0.8187  0.2009  2.6041
 7376SOL    HW233591   4.432   3.916   5.221  1.0657 -0.3540 -0.9136
 7377SOL     OW33592   3.965   2.546   2.873  0.1303  0.0451 -0.6001
 7377SOL    HW133593   3.982   2.467   2.924  0.2720  0.6586  0.3108
 7377SOL    HW233594   3.881   2.531   2.830  0.1407  0.0485 -0.6216
 7378SOL     OW33595   4.020   4.479  15.585  0.3597  0.2591  0.2666
 7378SOL    HW133596   3.975   4.563  15.578 -0.4758 -0.1676  0.4906
 7378SOL    HW233597   3.974   4.429  15.517  1.1130  1.4206 -1.1036
 7379SOL     OW33598   2.583   0.540   3.540  0.4912  0.4229  0.4858
 7379SOL    HW133599   2.645   0.609   3.520  3.4893 -2.2445  0.6338
 7379SOL    HW233600   2.498   0.583   3.545  1.4032  2.2834 -0.2533
 7380SOL     OW33601   2.959   3.995   8.686  0.3180 -0.5598 -0.5372
 7380SOL    HW133602   2.913   4.078   8.700  0.4096 -0.3803 -1.3032
 7380SOL    HW233603   3.044   4.027   8.655 -1.1115  1.3363 -2.4584
 7381SOL     OW33604   2.872   4.226   0.061 -0.0290  0.3123  0.0533
 7381SOL    HW133605   2.885   4.131   0.062  2.9315  0.7105 -1.2991
 7381SOL    HW233606   2.807   4.217  17.683 -1.4327  0.8884  1.2673
 7382SOL     OW33607   1.786   3.852   9.598  0.0110 -0.5875 -0.3201
 7382SOL    HW133608   1.779   3.758   9.613 -0.9830 -0.6299 -1.0807
 7382SOL    HW233609   1.857   3.864   9.661  0.2518  0.1075 -0.7218
 7383SOL     OW33610   4.159   2.838   3.419  0.2475 -0.1307  0.2912
 7383SOL    HW133611   4.199   2.848   3.506  1.8298 -0.9117 -0.3563
 7383SOL    HW233612   4.156   2.929   3.389  0.6200 -0.9790 -2.2666
 7384SOL     OW33613   1.039   3.701   7.481 -0.0407 -0.7386 -0.1281
 7384SOL    HW133614   1.047   3.778   7.538 -2.7359 -0.3336 -0.2956
 7384SOL    HW233615   0.972   3.648   7.523  1.5367 -0.7486  2.3811
 7385SOL     OW33616   0.124   2.802   7.625  0.0828 -0.4644  0.5273
 7385SOL    HW133617   0.096   2.856   7.698 -1.2447 -0.1603 -0.2113
 7385SOL    HW233618   0.120   2.858   7.548  0.6790  0.0351  0.8593
 7386SOL     OW33619   4.102   1.139   9.774  0.2181  0.5691 -0.1617
 7386SOL    HW133620   4.022   1.092   9.795 -0.3772  1.8739  0.5147
 7386SOL    HW233621   4.142   1.132   9.861 -0.4534 -0.1982  0.0780
 7387SOL     OW33622   2.716   1.230  11.068  0.0044 -0.4333  0.2416
 7387SOL    HW133623   2.736   1.250  11.159  0.4104 -1.5976  0.4100
 7387SOL    HW233624   2.630   1.271  11.063 -1.2685 -3.2940 -1.7318
 7388SOL     OW33625   4.452   0.546   9.641  0.9144 -0.2574  0.2315
 7388SOL    HW133626   4.440   0.454   9.617  2.7569 -0.3190 -0.4569
 7388SOL    HW233627   4.388   0.555   9.711  0.1419  1.7127 -0.7149
 7389SOL     OW33628   2.399   1.148  15.418  0.0016  0.0934  0.1729
 7389SOL    HW133629   2.375   1.240  15.428  1.3973  0.3292  1.3419
 7389SOL    HW233630   2.472   1.153  15.480 -0.0017 -2.2562  0.3840
 7390SOL     OW33631   3.870   2.099   4.759 -0.1233 -0.5139 -0.8020
 7390SOL    HW133632   3.901   2.185   4.785 -0.3993 -0.4895 -0.5645
 7390SOL    HW233633   3.790   2.097   4.810 -0.2413 -1.8505 -1.0466
 7391SOL     OW33634   0.798   0.818   3.539  0.0283  0.3511 -0.1295
 7391SOL    HW133635   0.713   0.859   3.551 -1.0674 -1.6616 -1.0356
 7391SOL    HW233636   0.812   0.838   3.447 -0.3349 -0.8798 -0.4601
 7392SOL     OW33637   0.937   4.289   9.794  0.1937 -0.3721  0.3279
 7392SOL    HW133638   1.011   4.325   9.842 -0.2618  0.9154  0.0505
 7392SOL    HW233639   0.972   4.202   9.773  0.8742 -0.5722  2.3395
 7393SOL     OW33640   1.146   4.174   1.683 -0.3908 -0.2055 -0.7314
 7393SOL    HW133641   1.208   4.120   1.633 -0.0327  0.5041 -1.0549
 7393SOL    HW233642   1.065   4.127   1.663 -0.7284 -0.2784  0.8139
 7394SOL     OW33643   0.213   0.745   4.833  0.1161  0.1455 -1.0009
 7394SOL    HW133644   0.156   0.697   4.893  0.5128  0.1988 -0.5771
 7394SOL    HW233645   0.295   0.702   4.856  0.1603  0.8378  0.1449
 7395SOL     OW33646   0.010   3.151  16.850 -0.3718  0.1407 -0.4383
 7395SOL    HW133647   0.016   3.162  16.755 -0.7578  2.1780 -0.2316
 7395SOL    HW233648   4.700   3.061  16.855  1.4739 -0.5199 -0.2617
 7396SOL     OW33649   2.516   3.742   6.541 -0.4658  0.6056  0.1916
 7396SOL    HW133650   2.450   3.674   6.556  0.7457 -0.7467 -0.6127
 7396SOL    HW233651   2.478   3.813   6.593 -0.6519 -0.0406  0.9384
 7397SOL     OW33652   4.504   0.991   8.563  0.0993 -1.1201  0.3073
 7397SOL    HW133653   4.465   0.984   8.476 -0.0274  1.2941  0.1685
 7397SOL    HW233654   4.588   0.945   8.560  2.6209  3.5605 -0.0209
 7398SOL     OW33655   2.866   2.223  16.255  0.0283 -0.2676  0.3893
 7398SOL    HW133656   2.907   2.308  16.274  0.4438 -0.1410 -1.0750
 7398SOL    HW233657   2.790   2.226  16.314 -1.5345 -0.5861 -1.6314
 7399SOL     OW33658   3.410   3.162   2.688  0.0406 -0.7598  0.4040
 7399SOL    HW133659   3.381   3.098   2.623 -2.7034 -0.6202  1.4772
 7399SOL    HW233660   3.479   3.197   2.631 -0.2437  0.9176  1.0997
 7400SOL     OW33661   3.009   0.474  10.600 -0.2431  0.1117 -0.0305
 7400SOL    HW133662   2.957   0.498  10.677 -0.4936 -3.2120  0.8224
 7400SOL    HW233663   2.971   0.525  10.527 -0.0173 -0.1987 -0.3646
 7401SOL     OW33664   2.970   3.426   0.064  0.6959  0.3618  0.0841
 7401SOL    HW133665   2.886   3.382   0.049  0.0190  1.7382 -0.1877
 7401SOL    HW233666   3.022   3.353   0.098 -0.7680 -1.4129 -1.4481
 7402SOL     OW33667   2.342   4.563  13.844 -0.6492 -0.0861 -0.4101
 7402SOL    HW133668   2.382   4.561  13.931 -1.7794  1.3355  0.1412
 7402SOL    HW233669   2.257   4.587  13.879 -0.4327 -1.1998  0.9040
 7403SOL     OW33670   2.014   3.183   6.936 -0.0390  0.1366  0.3967
 7403SOL    HW133671   1.995   3.131   6.858 -2.2663  1.8902 -0.2434
 7403SOL    HW233672   2.039   3.120   7.003  0.5318  1.6311  1.6020
 7404SOL     OW33673   4.123   2.080   6.076  0.2405  0.2259 -0.4793
 7404SOL    HW133674   4.107   1.986   6.068  0.0772  0.2204 -0.0492
 7404SOL    HW233675   4.095   2.091   6.167  1.6624  1.3460 -0.1895
 7405SOL     OW33676   0.419   1.005   4.972 -0.0196  0.2148 -0.5912
 7405SOL    HW133677   0.492   0.947   4.995 -1.4271 -1.8968 -1.4721
 7405SOL    HW233678   0.453   1.095   4.968 -0.0595  0.1988 -1.1872
 7406SOL     OW33679   2.687   2.217   7.170  0.0928 -0.3250  0.4864
 7406SOL    HW133680   2.651   2.190   7.255  0.1731  1.3570  1.0529
 7406SOL    HW233681   2.745   2.291   7.187 -0.3160  0.2419 -0.6180
 7407SOL     OW33682   1.112   1.061  15.138  0.1706  0.6960 -0.1088
 7407SOL    HW133683   1.166   1.136  15.112  2.4840 -0.8329  0.2572
 7407SOL    HW233684   1.108   1.070  15.233  2.7523  0.0043  0.0695
 7408SOL     OW33685   4.411   0.245   9.571  0.2704 -0.0492  0.3618
 7408SOL    HW133686   4.414   0.202   9.656  0.7133 -1.5326 -0.4062
 7408SOL    HW233687   4.378   0.180   9.509  1.2329  0.1366 -0.3526
 7409SOL     OW33688   0.312   4.208   3.965 -0.4830  0.0135  0.0750
 7409SOL    HW133689   0.328   4.245   4.051  0.4018 -0.0682 -0.0479
 7409SOL    HW233690   0.240   4.146   3.978 -0.7626  0.5231  0.9060
 7410SOL     OW33691   1.018   2.204  14.282  0.3245 -0.4017 -0.2432
 7410SOL    HW133692   1.029   2.191  14.188  0.2799 -4.4371  0.3173
 7410SOL    HW233693   1.003   2.298  14.291 -0.7569 -0.5165 -0.8367
 7411SOL     OW33694   4.010   0.610   3.271  0.2798 -0.3572 -0.3389
 7411SOL    HW133695   3.921   0.648   3.274  0.3793 -0.1274 -0.2433
 7411SOL    HW233696   4.061   0.680   3.231 -1.4370 -0.9669 -3.5954
 7412SOL     OW33697   1.506   0.931   2.649  0.0899 -0.0500 -0.0830
 7412SOL    HW133698   1.470   0.888   2.726 -0.5314  2.0082  0.7805
 7412SOL    HW233699   1.432   0.976   2.607  0.3305  1.0747  0.7181
 7413SOL     OW33700   1.106   3.677   7.880 -0.1189 -0.4196 -0.3195
 7413SOL    HW133701   1.092   3.657   7.973  0.5905 -0.7439 -0.2856
 7413SOL    HW233702   1.133   3.598   7.833 -0.2093 -0.5841 -0.0961
 7414SOL     OW33703   1.557   4.293  15.053 -0.5062  0.3910 -0.4301
 7414SOL    HW133704   1.480   4.266  15.004 -1.8038 -0.6022  2.1730
 7414SOL    HW233705   1.622   4.284  14.983  1.6637  1.3024  1.4646
 7415SOL     OW33706   0.002   2.919   5.363 -0.3736 -0.0862  0.2218
 7415SOL    HW133707   4.672   2.999   5.365  0.6123  0.5704 -0.0346
 7415SOL    HW233708   4.657   2.862   5.398 -1.3089  0.2752 -1.0077
 7416SOL     OW33709   1.190   3.435   9.866 -0.1418  0.3562  0.4923
 7416SOL    HW133710   1.108   3.421   9.913  0.3447  0.9678  1.5340
 7416SOL    HW233711   1.241   3.424   9.946  1.7815  0.2258 -0.7617
 7417SOL     OW33712   1.793   2.968   7.750  0.4082 -0.4832  0.3076
 7417SOL    HW133713   1.710   2.999   7.714 -1.0570 -3.0309  1.5620
 7417SOL    HW233714   1.761   2.895   7.803  0.3466 -0.9419 -0.3616
 7418SOL     OW33715   1.552   0.096   7.786  0.8933  0.4612  0.0289
 7418SOL    HW133716   1.642   0.063   7.796  0.2187 -1.1173  0.8866
 7418SOL    HW233717   1.567   0.189   7.801 -0.9994  1.1272 -2.2627
 7419SOL     OW33718   1.935   3.150  13.382 -0.2849 -0.5661 -0.2751
 7419SOL    HW133719   1.983   3.207  13.323 -0.1689  1.3393  1.6305
 7419SOL    HW233720   1.870   3.217  13.406  1.7068  0.8861  1.0776
 7420SOL     OW33721   4.392   0.414   6.492  0.6732 -0.9203 -0.1889
 7420SOL    HW133722   4.477   0.455   6.508 -0.3388  0.9725  0.4331
 7420SOL    HW233723   4.370   0.455   6.409  1.9584  0.8061  0.3196
 7421SOL     OW33724   1.187   0.020  13.376  0.0204 -0.2791  0.0528
 7421SOL    HW133725   1.140   0.097  13.341  0.0517  0.3500  1.3826
 7421SOL    HW233726   1.167   0.029  13.469 -1.1660  2.2210 -0.4337
 7422SOL     OW33727   1.030   3.752  15.471  0.1921 -0.5266 -0.0408
 7422SOL    HW133728   1.101   3.783  15.414 -0.4885 -0.0011 -0.5943
 7422SOL    HW233729   1.037   3.813  15.544  0.0070 -0.0632 -0.4113
 7423SOL     OW33730   4.202   2.561   4.236 -0.4234  0.2947  0.5270
 7423SOL    HW133731   4.108   2.543   4.223  0.0993 -0.9635 -1.5848
 7423SOL    HW233732   4.242   2.479   4.265 -1.1247 -0.3489 -0.3354
 7424SOL     OW33733   3.255   4.372   6.179  0.4244  0.0935 -0.5982
 7424SOL    HW133734   3.206   4.451   6.203  1.4939 -0.5565  3.7629
 7424SOL    HW233735   3.186   4.306   6.186  0.7177 -0.1106  0.4594
 7425SOL     OW33736   0.196   1.161   7.328 -0.5056 -0.1282  0.1681
 7425SOL    HW133737   0.223   1.250   7.349 -0.3823 -0.1619  0.1520
 7425SOL    HW233738   0.204   1.124   7.415  0.3502  1.3788  0.7278
 7426SOL     OW33739   2.568   0.219   4.300 -0.5186  0.1909  0.1472
 7426SOL    HW133740   2.477   0.241   4.283 -0.4983  1.9092  2.2607
 7426SOL    HW233741   2.563   0.231   4.395  0.7814 -3.9461  0.7235
 7427SOL     OW33742   1.223   0.155   2.327  0.1563  0.3428  0.3098
 7427SOL    HW133743   1.244   0.076   2.278 -1.4276  0.4812 -0.5852
 7427SOL    HW233744   1.182   0.116   2.404  1.5603 -1.1011  0.3058
 7428SOL     OW33745   2.308   3.080  10.286  0.1830  0.4661  0.5301
 7428SOL    HW133746   2.241   3.146  10.306  1.5103  1.3893  1.9797
 7428SOL    HW233747   2.388   3.132  10.281  0.2520  0.3314  0.2398
 7429SOL     OW33748   1.964   2.710  11.501 -0.5423  0.1540 -0.0666
 7429SOL    HW133749   2.030   2.698  11.570 -2.3708  1.0425  1.8461
 7429SOL    HW233750   2.010   2.783  11.461  1.3611 -2.4623 -2.6893
 7430SOL     OW33751   0.630   1.584  10.306 -1.2952 -0.1818  0.2791
 7430SOL    HW133752   0.593   1.504  10.268  1.5006 -1.8595  1.0707
 7430SOL    HW233753   0.723   1.560  10.302 -1.0931  0.7023 -0.2652
 7431SOL     OW33754   2.624   3.501   9.292 -0.1082 -0.7202  0.7441
 7431SOL    HW133755   2.553   3.518   9.353 -1.2707  1.1243 -1.1266
 7431SOL    HW233756   2.589   3.527   9.206  2.2924  0.2493  0.0532
 7432SOL     OW33757   2.514   1.983   5.472 -0.7016 -0.2791 -0.0667
 7432SOL    HW133758   2.523   1.944   5.385  1.3579 -2.3251  1.0573
 7432SOL    HW233759   2.463   2.062   5.453  1.2713  1.2594  1.0635
 7433SOL     OW33760   0.840   4.604   9.950  0.5650 -0.1608  0.2772
 7433SOL    HW133761   0.923   4.640   9.917  1.6007 -2.5153  0.3146
 7433SOL    HW233762   0.784   4.653   9.890  1.4414 -0.0412 -0.4508
 7434SOL     OW33763   0.988   0.903   9.015 -0.6587  0.6663 -0.2142
 7434SOL    HW133764   0.929   0.885   8.941 -1.5740  2.5071  0.0478
 7434SOL    HW233765   1.011   0.992   8.987  0.0075  1.2038  2.1142
 7435SOL     OW33766   2.060   4.023  13.684 -0.8333  0.0012 -0.2529
 7435SOL    HW133767   2.028   4.034  13.594  0.8323  1.0513 -0.7262
 7435SOL    HW233768   2.081   4.112  13.711 -2.7936  0.5192 -0.4133
 7436SOL     OW33769   4.105   4.440   4.486 -0.0023 -0.1655  0.5786
 7436SOL    HW133770   4.013   4.439   4.460  0.0391 -0.2014  0.4361
 7436SOL    HW233771   4.114   4.348   4.511  0.9067 -0.4393 -0.7732
 7437SOL     OW33772   3.932   3.524  17.190  1.0510 -0.0618  0.3163
 7437SOL    HW133773   3.982   3.588  17.239  1.8114  1.5002 -2.5396
 7437SOL    HW233774   3.859   3.522  17.252  2.5924  2.1443  2.1823
 7438SOL     OW33775   3.216   3.570  16.690  0.0585  0.3525 -0.1666
 7438SOL    HW133776   3.292   3.623  16.717  1.3624 -1.1025 -1.0033
 7438SOL    HW233777   3.176   3.560  16.776 -0.0836  2.2593 -0.0034
 7439SOL     OW33778   3.482   1.176   6.491  0.2622 -0.2926 -0.5976
 7439SOL    HW133779   3.510   1.089   6.462  1.1501 -0.2305  0.0612
 7439SOL    HW233780   3.387   1.175   6.480  0.1871  0.2373  0.0049
 7440SOL     OW33781   3.876   1.160   6.486  0.0690  0.4816 -0.0509
 7440SOL    HW133782   3.872   1.080   6.538 -2.0277  1.3096  1.0668
 7440SOL    HW233783   3.932   1.216   6.539 -0.1171 -0.5372  1.2096
 7441SOL     OW33784   3.876   1.414  13.401 -0.2808 -0.1502  0.1215
 7441SOL    HW133785   3.825   1.405  13.321 -1.5451  5.0599  0.3751
 7441SOL    HW233786   3.860   1.324  13.431  0.0195  0.0829  0.9967
 7442SOL     OW33787   3.507   2.643  12.437  0.0197  0.0444 -0.0627
 7442SOL    HW133788   3.484   2.610  12.524 -2.0138  0.4294 -0.4359
 7442SOL    HW233789   3.492   2.576  12.370 -1.0534 -2.1753  2.4035
 7443SOL     OW33790   0.454   1.150   1.423 -0.0888 -0.4142  0.0591
 7443SOL    HW133791   0.383   1.186   1.370  0.8328 -0.4635 -1.2263
 7443SOL    HW233792   0.471   1.064   1.384  0.4113  0.7375 -2.2732
 7444SOL     OW33793   0.106   1.108   9.060  0.2886 -0.5467 -0.6658
 7444SOL    HW133794   0.143   1.184   9.016 -1.2730  1.0063  0.6855
 7444SOL    HW233795   0.127   1.047   8.990 -0.9990 -1.1798 -0.4918
 7445SOL     OW33796   1.172   3.101   4.277 -0.3422  0.1584 -0.2455
 7445SOL    HW133797   1.180   3.008   4.256 -0.2099 -0.3755  2.1372
 7445SOL    HW233798   1.183   3.139   4.190  1.3376  1.2206  0.4409
 7446SOL     OW33799   2.413   3.929   6.694  0.4066 -0.4828 -0.4088
 7446SOL    HW133800   2.359   3.986   6.639  1.7366  0.3535 -0.8751
 7446SOL    HW233801   2.391   3.956   6.784 -1.1399  1.6467 -1.4222
 7447SOL     OW33802   2.937   4.346   5.118 -0.3248  0.2100  0.1344
 7447SOL    HW133803   3.011   4.393   5.156  0.9843 -1.5271 -0.3160
 7447SOL    HW233804   2.865   4.386   5.168 -0.5778  0.8975 -0.7747
 7448SOL     OW33805   3.261   0.603   3.774 -0.5547  0.3430 -0.4725
 7448SOL    HW133806   3.179   0.640   3.743 -0.1390  0.7063 -1.1492
 7448SOL    HW233807   3.267   0.525   3.718 -1.2954  0.6109 -0.9139
 7449SOL     OW33808   3.573   2.009   4.549 -0.4498  0.1786  0.1856
 7449SOL    HW133809   3.481   2.012   4.523 -0.6304  0.8782  0.8985
 7449SOL    HW233810   3.561   1.942   4.616  0.2651  1.0583  1.2015
 7450SOL     OW33811   3.596   4.128   6.945  0.1370  0.0845  0.4336
 7450SOL    HW133812   3.638   4.164   6.867  0.5778 -0.0859  0.5950
 7450SOL    HW233813   3.568   4.210   6.985 -1.3619 -0.4715  0.5228
 7451SOL     OW33814   4.043   0.167  15.028 -0.1100  0.5524  0.4877
 7451SOL    HW133815   4.068   0.206  15.112 -0.2071 -0.0913  0.8188
 7451SOL    HW233816   3.952   0.139  15.040  0.1098 -0.1291  0.5652
 7452SOL     OW33817   1.498   2.925   8.851 -0.3018  0.0023 -0.1006
 7452SOL    HW133818   1.571   2.863   8.861 -0.5719 -0.2316  0.4544
 7452SOL    HW233819   1.526   2.987   8.919 -2.6291 -3.0859  3.6741
 7453SOL     OW33820   0.899   4.092   4.588  0.4406  0.2100  0.1590
 7453SOL    HW133821   0.960   4.019   4.578 -1.1787 -1.3875  2.0211
 7453SOL    HW233822   0.908   4.101   4.683 -0.7152  1.1788  0.1727
 7454SOL     OW33823   1.932   4.351  13.068  0.2728 -0.3624 -1.0295
 7454SOL    HW133824   1.895   4.424  13.116  2.4011  1.6857 -2.4867
 7454SOL    HW233825   1.848   4.312  13.046  0.3064 -0.5242 -0.8695
 7455SOL     OW33826   2.497   1.724   8.811 -0.1738  0.1503  0.2133
 7455SOL    HW133827   2.582   1.723   8.767  0.1801 -2.6121  0.9269
 7455SOL    HW233828   2.451   1.789   8.758  0.8639 -0.8173 -1.8864
 7456SOL     OW33829   0.404   4.261  15.876  0.6030 -0.2830 -0.1870
 7456SOL    HW133830   0.382   4.170  15.855 -0.1113 -0.5290  1.6175
 7456SOL    HW233831   0.342   4.317  15.830  1.2835  2.4403  2.2103
 7457SOL     OW33832   1.517   2.137   8.310 -0.4477  0.2817 -0.6174
 7457SOL    HW133833   1.462   2.061   8.325 -0.1425 -0.4566 -3.3140
 7457SOL    HW233834   1.538   2.155   8.402 -0.4393 -1.7015 -0.2385
 7458SOL     OW33835   1.039   3.984  11.258 -0.0601 -0.3677 -0.3542
 7458SOL    HW133836   1.064   3.933  11.181 -0.9874  0.0165 -0.9098
 7458SOL    HW233837   1.001   4.063  11.220  1.8628  0.6357 -0.1754
 7459SOL     OW33838   1.272   1.491  13.143 -0.0398  0.3342  0.0015
 7459SOL    HW133839   1.274   1.585  13.161  0.6359  0.3166 -0.0146
 7459SOL    HW233840   1.362   1.475  13.116 -0.9887 -2.2609 -1.6622
 7460SOL     OW33841   4.663   2.237   5.404 -0.3879  0.2335 -0.0199
 7460SOL    HW133842   4.650   2.142   5.395  0.6590  0.2142 -1.3299
 7460SOL    HW233843   0.005   2.248   5.475  0.2407  1.7495 -0.8296
 7461SOL     OW33844   3.100   0.683   8.510 -0.0391 -0.3478 -1.2039
 7461SOL    HW133845   3.054   0.666   8.592  1.5452  3.6245  0.5127
 7461SOL    HW233846   3.062   0.612   8.459  0.7201 -1.0229 -0.8392
 7462SOL     OW33847   0.426   3.293   7.677 -0.3052  0.0422 -0.3424
 7462SOL    HW133848   0.428   3.368   7.736  0.2974 -0.2273 -0.0138
 7462SOL    HW233849   0.405   3.318   7.587 -0.4218  0.4539 -0.2008
 7463SOL     OW33850   4.109   1.920   8.249  0.5526  0.2484 -0.2383
 7463SOL    HW133851   4.129   2.011   8.228  0.0957  0.2368 -0.7506
 7463SOL    HW233852   4.034   1.911   8.190 -0.4377 -2.7954  1.5042
 7464SOL     OW33853   0.164   0.765   3.483  0.0950  0.2655  0.0476
 7464SOL    HW133854   0.156   0.833   3.416 -2.0395 -1.1702 -1.1301
 7464SOL    HW233855   0.198   0.822   3.552  0.5379  1.6687 -1.3358
 7465SOL     OW33856   4.198   4.644   3.883 -0.3805  0.4613  0.0341
 7465SOL    HW133857   4.273   4.596   3.847 -0.5848 -1.4653  2.1944
 7465SOL    HW233858   4.180   4.701   3.809 -0.8125 -3.2822 -2.6885
 7466SOL     OW33859   4.663   1.737   4.512 -0.3891  0.1661  0.3166
 7466SOL    HW133860   4.650   1.651   4.472  0.6609  0.5891 -0.9255
 7466SOL    HW233861   4.577   1.740   4.554 -1.3425  2.4442 -1.7726
 7467SOL     OW33862   2.871   4.471   3.677  0.0817 -0.0113 -0.0392
 7467SOL    HW133863   2.819   4.535   3.725 -3.0322 -2.2601 -0.4169
 7467SOL    HW233864   2.937   4.532   3.644 -0.1358  1.4201  2.1580
 7468SOL     OW33865   0.966   1.387   3.669 -0.3564 -0.3629  0.7742
 7468SOL    HW133866   0.954   1.293   3.681 -2.4520 -0.1840  0.0658
 7468SOL    HW233867   0.886   1.424   3.631 -0.4175  0.4354  1.6710
 7469SOL     OW33868   0.807   1.531   5.963 -0.1485 -0.7675  0.0906
 7469SOL    HW133869   0.828   1.567   6.049 -2.7884 -2.3823  1.4171
 7469SOL    HW233870   0.754   1.607   5.938  1.3980  0.1511 -0.3675
 7470SOL     OW33871   0.706   2.974  14.147 -0.2175 -0.5955  0.1348
 7470SOL    HW133872   0.660   2.950  14.067  0.7959  1.5377 -1.0896
 7470SOL    HW233873   0.739   3.062  14.128 -1.7234  0.2130  1.2147
 7471SOL     OW33874   2.450   3.273   2.778 -0.1891  0.0504  0.0472
 7471SOL    HW133875   2.502   3.199   2.750  1.2133  0.5593  1.2810
 7471SOL    HW233876   2.376   3.268   2.718  1.1545 -2.2726 -1.4025
 7472SOL     OW33877   3.023   4.048  10.063 -0.2234 -0.0144  0.0114
 7472SOL    HW133878   3.091   4.002  10.014 -1.6356  0.4680 -2.3990
 7472SOL    HW233879   2.965   3.977  10.091 -1.2883  0.6830 -0.4337
 7473SOL     OW33880   4.657   3.890   5.704 -0.2718  0.1414 -0.3892
 7473SOL    HW133881   4.614   3.805   5.692 -1.6641  0.6069  1.3303
 7473SOL    HW233882   0.028   3.871   5.692  0.1300  1.8125  0.1930
 7474SOL     OW33883   1.172   2.037   7.509  0.0130 -0.0430 -0.0386
 7474SOL    HW133884   1.246   2.082   7.549 -0.1302 -1.2866  1.6671
 7474SOL    HW233885   1.134   2.106   7.455  0.6643 -1.0586 -1.7868
 7475SOL     OW33886   1.474   0.270   4.194  0.5008 -0.3941  0.2133
 7475SOL    HW133887   1.547   0.282   4.133 -1.9697  1.3622 -2.3683
 7475SOL    HW233888   1.454   0.179   4.170  0.4248 -0.1714 -0.5764
 7476SOL     OW33889   3.683   1.492  12.266 -0.3069  0.5437  0.1444
 7476SOL    HW133890   3.724   1.574  12.295 -0.1013  0.2130  0.7854
 7476SOL    HW233891   3.762   1.452  12.229 -1.6144 -1.5625 -0.3130
 7477SOL     OW33892   2.609   3.890   6.325  0.0536  0.0384 -0.3081
 7477SOL    HW133893   2.562   3.833   6.385 -0.9309  1.2184  0.0542
 7477SOL    HW233894   2.697   3.854   6.321 -0.6634 -1.7550  0.2191
 7478SOL     OW33895   3.828   0.016   4.673 -0.2154  0.0266  0.4229
 7478SOL    HW133896   3.753   4.721   4.617  0.2683 -0.8954  0.0638
 7478SOL    HW233897   3.808   4.696   4.757 -2.1317  0.9480  0.4368
 7479SOL     OW33898   0.894   1.733   3.472  0.0971  0.1038  0.1472
 7479SOL    HW133899   0.915   1.822   3.443 -1.7364  1.4073  2.8565
 7479SOL    HW233900   0.837   1.757   3.545 -1.0920  3.0821 -1.7273
 7480SOL     OW33901   0.178   3.434   6.698  0.1693 -0.3814 -0.1125
 7480SOL    HW133902   0.090   3.409   6.670  1.1101 -2.8422 -0.9474
 7480SOL    HW233903   0.227   3.358   6.729  0.0922 -0.0454  0.8185
 7481SOL     OW33904   1.647   2.549   9.098  0.1648 -0.8594 -0.7428
 7481SOL    HW133905   1.649   2.501   9.014  4.5556 -4.3225  1.3782
 7481SOL    HW233906   1.731   2.534   9.139 -0.7193  2.8318  2.3312
 7482SOL     OW33907   3.188   4.185   7.367 -0.1519 -0.3368  0.4515
 7482SOL    HW133908   3.107   4.229   7.393  1.4771  2.9557 -0.0167
 7482SOL    HW233909   3.185   4.194   7.272 -2.1265 -0.8440  0.4670
 7483SOL     OW33910   1.195   1.149  10.060 -0.7166  0.4878  0.1490
 7483SOL    HW133911   1.149   1.231  10.080 -2.4103 -0.0708 -1.4794
 7483SOL    HW233912   1.269   1.175  10.004 -1.2862 -0.0928 -0.8619
 7484SOL     OW33913   1.151   0.230   8.238  0.1560 -0.5466 -0.1291
 7484SOL    HW133914   1.144   0.319   8.273 -0.6183 -0.0415 -1.5648
 7484SOL    HW233915   1.080   0.215   8.175 -0.5671  0.9850  0.3223
 7485SOL     OW33916   0.297   2.060   4.132  0.1126  0.5832  0.2797
 7485SOL    HW133917   0.227   2.050   4.068 -0.3659 -1.4355  1.1073
 7485SOL    HW233918   0.363   2.090   4.069  0.0744  0.7425  0.3168
 7486SOL     OW33919   4.009   1.894   5.503 -0.1780  0.3651 -0.4244
 7486SOL    HW133920   3.921   1.929   5.516 -1.0444 -0.8812 -3.0103
 7486SOL    HW233921   4.041   1.952   5.434 -1.3328  0.3758 -0.9525
 7487SOL     OW33922   0.457   2.207   2.562  0.3586  0.7599  0.0197
 7487SOL    HW133923   0.436   2.301   2.566  0.8401  0.9981 -3.2042
 7487SOL    HW233924   0.511   2.211   2.483  2.9284 -0.1668  1.7309
 7488SOL     OW33925   4.107   0.692   1.084  0.3367  0.3241  0.1635
 7488SOL    HW133926   4.026   0.672   1.036  0.9252 -1.5331 -0.0667
 7488SOL    HW233927   4.131   0.779   1.054  1.4082 -0.1461 -0.3453
 7489SOL     OW33928   0.841   1.109   6.495 -0.0386  0.2405  0.0994
 7489SOL    HW133929   0.841   1.033   6.437  0.1767 -1.7162  2.6588
 7489SOL    HW233930   0.892   1.059   6.559 -0.6252  1.1802  1.3226
 7490SOL     OW33931   0.777   1.509   5.053  0.2509  0.3418  0.6291
 7490SOL    HW133932   0.868   1.541   5.052  0.5771 -0.6530 -1.6585
 7490SOL    HW233933   0.734   1.581   5.008  0.9081  1.4553  1.7716
 7491SOL     OW33934   3.265   0.901  14.135  0.3552 -0.1652 -0.1970
 7491SOL    HW133935   3.232   0.887  14.224 -1.3740  2.4164 -0.4491
 7491SOL    HW233936   3.296   0.813  14.113 -1.6669 -1.0373  0.4331
 7492SOL     OW33937   0.099   4.604   4.010  0.3852  0.0820  0.0231
 7492SOL    HW133938   0.011   4.572   3.995  0.4339  1.1919 -2.5388
 7492SOL    HW233939   0.145   4.554   3.943  0.4892 -1.6908  1.4117
 7493SOL     OW33940   0.893   3.315   4.590  0.2854 -0.2472  0.0385
 7493SOL    HW133941   0.893   3.229   4.549 -2.0646 -0.5485  0.6906
 7493SOL    HW233942   0.806   3.326   4.627 -1.2579 -1.3785 -3.2708
 7494SOL     OW33943   3.614   4.216   0.784  1.0605  0.1873 -0.2280
 7494SOL    HW133944   3.694   4.241   0.737  0.8064  0.7805 -0.3357
 7494SOL    HW233945   3.646   4.203   0.873 -1.4624 -0.1268  0.6307
 7495SOL     OW33946   2.711   4.345   2.740 -0.0311  0.1884  0.3674
 7495SOL    HW133947   2.677   4.342   2.651  1.2702  0.7767 -0.1483
 7495SOL    HW233948   2.721   4.438   2.759  0.6428 -0.0108  0.9896
 7496SOL     OW33949   3.466   3.563   2.012 -0.3322  0.1068  0.3352
 7496SOL    HW133950   3.435   3.584   2.101 -4.0938 -1.7405 -0.5086
 7496SOL    HW233951   3.406   3.490   1.997  0.4151 -0.9454  2.4162
 7497SOL     OW33952   3.240   1.513   7.372  0.6760 -0.5616  0.1193
 7497SOL    HW133953   3.258   1.419   7.377 -1.9212 -1.0851 -0.6630
 7497SOL    HW233954   3.160   1.512   7.320  0.3040  2.4680  0.6592
 7498SOL     OW33955   1.855   2.580  16.274 -0.6551 -0.2252  0.1176
 7498SOL    HW133956   1.839   2.642  16.345 -0.7590 -0.0212 -0.0853
 7498SOL    HW233957   1.772   2.579  16.228  0.1401 -0.6326 -1.3035
 7499SOL     OW33958   3.586   1.616   8.424  0.0390  0.0434  0.0903
 7499SOL    HW133959   3.663   1.651   8.379 -1.1831  1.1506 -1.1177
 7499SOL    HW233960   3.544   1.570   8.352  0.9176 -1.7897  0.7386
 7500SOL     OW33961   2.098   0.710   7.086 -0.0220  0.2294 -0.0353
 7500SOL    HW133962   2.141   0.630   7.117  0.2328  0.5707  0.4818
 7500SOL    HW233963   2.152   0.729   7.009  1.7468 -0.2795  1.0775
 7501SOL     OW33964   4.566   0.270   6.665  0.0263 -0.0305 -0.0896
 7501SOL    HW133965   4.563   0.363   6.644 -2.4001 -0.5617 -2.0974
 7501SOL    HW233966   4.553   0.234   6.578  0.0005 -0.6082  0.1519
 7502SOL     OW33967   2.674   2.372  10.213  0.3693  0.2758 -0.7904
 7502SOL    HW133968   2.681   2.464  10.190 -3.2141 -0.1882 -3.7319
 7502SOL    HW233969   2.638   2.380  10.301  1.8960 -0.1502 -0.1286
 7503SOL     OW33970   0.911   3.798   6.762  0.5998  0.1019  0.5239
 7503SOL    HW133971   0.897   3.708   6.789 -0.7128  0.1587  0.0624
 7503SOL    HW233972   0.855   3.841   6.827  1.9114  4.1028 -0.9336
 7504SOL     OW33973   3.497   1.969  15.652 -0.2152  0.4177  0.0623
 7504SOL    HW133974   3.560   2.018  15.600  1.4484 -1.9937 -0.1884
 7504SOL    HW233975   3.494   2.017  15.735  0.3692  1.9579 -0.8112
 7505SOL     OW33976   2.061   3.683  11.852  0.0808 -0.4190  0.5165
 7505SOL    HW133977   2.098   3.637  11.776 -1.8576 -1.1117 -0.0140
 7505SOL    HW233978   1.971   3.656  11.836  1.0117 -3.0695 -0.3595
 7506SOL     OW33979   1.351   0.166   7.596 -0.0720 -0.3951  0.1818
 7506SOL    HW133980   1.431   0.132   7.637  0.4267 -0.6502 -0.9849
 7506SOL    HW233981   1.299   0.086   7.596 -0.5651 -0.0689  0.3415
 7507SOL     OW33982   1.844   1.965   8.541 -0.4760  0.2025 -0.4719
 7507SOL    HW133983   1.820   1.967   8.449  0.9230  1.1039 -0.8139
 7507SOL    HW233984   1.778   1.907   8.577 -1.8930  1.8184 -0.4545
 7508SOL     OW33985   1.967   1.590   6.780 -0.3002  0.5987  0.0475
 7508SOL    HW133986   2.027   1.630   6.843 -1.1566 -1.1288  1.9374
 7508SOL    HW233987   1.882   1.613   6.818 -0.7134  0.9430 -1.0681
 7509SOL     OW33988   3.863   3.949  11.125 -0.1846  0.6401  0.1189
 7509SOL    HW133989   3.937   3.894  11.151 -1.6100 -0.7622  1.2258
 7509SOL    HW233990   3.862   3.941  11.030 -0.7999 -0.1969  0.1927
 7510SOL     OW33991   0.430   4.045  15.200 -0.1859 -0.5229  0.0323
 7510SOL    HW133992   0.444   3.954  15.226 -1.0200 -0.3716  0.9854
 7510SOL    HW233993   0.422   4.044  15.104 -2.3040 -1.3518  0.2216
 7511SOL     OW33994   1.865   1.855  15.891  0.3114  0.2891 -0.9230
 7511SOL    HW133995   1.949   1.893  15.865 -0.0575 -0.8037 -3.6645
 7511SOL    HW233996   1.862   1.874  15.985  2.6433 -0.1240 -0.7632
 7512SOL     OW33997   1.933   3.027   6.733 -0.0237  0.0692  0.6324
 7512SOL    HW133998   1.850   3.027   6.685  0.6146  0.6906 -0.4709
 7512SOL    HW233999   1.988   2.984   6.669 -0.0925  0.0007  0.6193
 7513SOL     OW34000   3.338   2.095  12.255  0.0026 -0.1107  0.2866
 7513SOL    HW134001   3.260   2.048  12.285 -0.8432 -0.6944 -2.8696
 7513SOL    HW234002   3.309   2.178  12.218  2.0833 -0.5626 -2.3563
 7514SOL     OW34003   2.747   4.537   6.083 -0.2724 -0.3503 -0.2650
 7514SOL    HW134004   2.773   4.536   5.991 -0.3889  2.5969 -0.3360
 7514SOL    HW234005   2.786   4.464   6.131  1.6481  0.2963 -0.8546
 7515SOL     OW34006   2.887   0.371   0.451  0.0684 -0.2902  0.0051
 7515SOL    HW134007   2.893   0.460   0.417  2.4548 -0.2366  0.5799
 7515SOL    HW234008   2.979   0.349   0.462  0.5555 -0.2686 -3.9620
 7516SOL     OW34009   4.039   2.051   5.788 -0.1591  0.0835 -0.2539
 7516SOL    HW134010   3.952   2.021   5.763  0.0225  0.7551 -1.7118
 7516SOL    HW234011   4.033   2.064   5.882  0.2318  0.8652 -0.3366
 7517SOL     OW34012   1.031   1.891   6.319 -0.5062  0.4607 -0.1400
 7517SOL    HW134013   1.045   1.949   6.245 -0.1567  0.5761  0.0180
 7517SOL    HW234014   1.020   1.952   6.391 -0.4417 -0.4834  0.6800
 7518SOL     OW34015   0.640   1.916   2.521  0.5003  0.7341 -0.7147
 7518SOL    HW134016   0.605   1.933   2.609  1.7413  1.0104 -0.2774
 7518SOL    HW234017   0.639   2.007   2.491 -1.9488  1.1662  0.6252
 7519SOL     OW34018   1.761   4.398   8.084 -0.0548 -0.0810  0.2339
 7519SOL    HW134019   1.825   4.329   8.063  0.4422  0.8930 -1.4791
 7519SOL    HW234020   1.687   4.359   8.130 -0.2348 -2.4417 -2.0319
 7520SOL     OW34021   0.567   4.216  14.837  0.3828 -0.1912 -0.2224
 7520SOL    HW134022   0.576   4.120  14.834  0.7856 -0.1511 -0.3531
 7520SOL    HW234023   0.508   4.231  14.911  1.6658 -3.8785  1.5881
 7521SOL     OW34024   1.308   1.047   1.401  0.4602 -0.7325 -0.7701
 7521SOL    HW134025   1.302   1.126   1.347 -0.1777 -0.1424  0.1739
 7521SOL    HW234026   1.367   0.993   1.348  1.4031 -1.9252  1.5293
 7522SOL     OW34027   3.870   4.198   7.812 -0.2931 -0.2318 -0.2345
 7522SOL    HW134028   3.817   4.148   7.750  0.1410 -0.7051 -0.2240
 7522SOL    HW234029   3.876   4.282   7.766 -2.3582 -1.5243 -2.8082
 7523SOL     OW34030   4.041   1.264   5.838 -0.1125  0.2144  0.0523
 7523SOL    HW134031   4.095   1.281   5.760  1.3971  3.7208  1.8933
 7523SOL    HW234032   4.063   1.173   5.859  1.1001  0.0312 -1.9685
 7524SOL     OW34033   3.656   3.303   5.845 -0.0329 -0.3543  0.6532
 7524SOL    HW134034   3.604   3.224   5.827 -2.3595  1.1288  0.7664
 7524SOL    HW234035   3.724   3.281   5.782 -1.5106  1.3721 -1.5474
 7525SOL     OW34036   4.217   2.837  15.147 -0.2578 -0.4684  0.2292
 7525SOL    HW134037   4.141   2.781  15.130 -2.3582  2.8431 -1.3438
 7525SOL    HW234038   4.286   2.772  15.162  0.8887  0.5596 -0.5839
 7526SOL     OW34039   0.325   1.018   8.618 -0.0523  0.5955 -0.0971
 7526SOL    HW134040   0.329   1.024   8.714 -0.6178 -2.1722  0.0897
 7526SOL    HW234041   0.310   1.110   8.596 -0.6139  1.3841  3.5188
 7527SOL     OW34042   3.560   3.759   5.983 -0.0577  0.0105 -0.0641
 7527SOL    HW134043   3.623   3.740   6.053  0.9723  1.1228 -0.6740
 7527SOL    HW234044   3.548   3.673   5.945 -1.6663 -0.5114  1.6263
 7528SOL     OW34045   1.655   4.199   9.502 -0.3382 -0.1473  0.3108
 7528SOL    HW134046   1.681   4.135   9.436  0.4131 -1.6700  2.1056
 7528SOL    HW234047   1.639   4.148   9.581  1.7758 -1.4691 -0.1253
 7529SOL     OW34048   0.319   1.867   8.292 -0.2916  0.0461 -0.1148
 7529SOL    HW134049   0.292   1.823   8.372  0.2679  0.6662  0.4132
 7529SOL    HW234050   0.238   1.881   8.243  0.1052  1.3706 -0.3957
 7530SOL     OW34051   0.265   3.538  11.336 -0.0309 -0.1373 -0.5066
 7530SOL    HW134052   0.330   3.494  11.391 -1.2014 -2.5549 -1.0929
 7530SOL    HW234053   0.326   3.586  11.280  2.9733  0.2361  3.0311
 7531SOL     OW34054   2.020   1.639   9.168  0.1607 -0.1499 -0.0622
 7531SOL    HW134055   2.012   1.548   9.140  2.8203  0.1723 -1.9768
 7531SOL    HW234056   1.929   1.663   9.180 -0.3248 -2.0545  0.0382
 7532SOL     OW34057   1.318   1.106   3.182  0.2242 -0.0540 -0.3099
 7532SOL    HW134058   1.400   1.118   3.230 -0.8011  1.8397  0.9427
 7532SOL    HW234059   1.347   1.054   3.107  1.9125  1.9539 -1.0673
 7533SOL     OW34060   3.243   0.808   0.764 -0.5606  0.2734  0.9428
 7533SOL    HW134061   3.218   0.738   0.702 -1.7444  0.8853  0.7289
 7533SOL    HW234062   3.295   0.758   0.827 -0.1845  0.7271  0.9882
 7534SOL     OW34063   1.863   4.488   3.178  0.1164 -0.3198  0.0642
 7534SOL    HW134064   1.845   4.486   3.084  0.6582  0.1159 -0.0514
 7534SOL    HW234065   1.958   4.476   3.173  0.0206 -1.3854  1.0028
 7535SOL     OW34066   4.206   2.170   8.157  0.0278  0.0487  0.0466
 7535SOL    HW134067   4.204   2.256   8.198  0.8978  0.4922 -0.8448
 7535SOL    HW234068   4.301   2.160   8.146  0.0741  2.1102 -1.2730
 7536SOL     OW34069   3.936   2.555   6.513  0.3686 -0.2660  0.3316
 7536SOL    HW134070   3.855   2.509   6.537 -0.4399 -0.2494 -2.3590
 7536SOL    HW234071   3.902   2.616   6.448 -0.8432 -1.5096 -0.2191
 7537SOL     OW34072   3.020   1.730   3.408 -0.2724 -0.2980 -0.7626
 7537SOL    HW134073   2.963   1.678   3.352 -2.0095 -0.5007  1.2025
 7537SOL    HW234074   2.967   1.808   3.423  1.5829  1.2985 -2.5252
 7538SOL     OW34075   4.193   1.521  17.348 -0.0893 -0.1306  0.5040
 7538SOL    HW134076   4.249   1.457  17.304  1.9149  0.9921  1.4492
 7538SOL    HW234077   4.231   1.604  17.319  0.2444 -0.2361  0.6437
 7539SOL     OW34078   1.995   0.681   6.125 -0.0714  0.7396 -0.1169
 7539SOL    HW134079   1.966   0.710   6.211 -1.3476  0.0887 -0.3214
 7539SOL    HW234080   1.961   0.749   6.067  0.5869 -0.4885 -1.9453
 7540SOL     OW34081   1.663   3.295   7.000  0.4633 -0.7872  0.2972
 7540SOL    HW134082   1.640   3.268   6.911 -0.6055 -1.0640  0.6526
 7540SOL    HW234083   1.682   3.210   7.040  2.0589 -0.3999  0.3532
 7541SOL     OW34084   1.986   3.028   5.614  0.7187  0.5244  0.0120
 7541SOL    HW134085   2.025   2.940   5.610 -1.3234 -0.3610 -0.1124
 7541SOL    HW234086   1.921   3.030   5.684  1.6921  0.3343  0.9351
 7542SOL     OW34087   1.406   1.576   1.787 -0.1701  0.1211  0.2692
 7542SOL    HW134088   1.415   1.644   1.854  0.5321  1.8898 -1.6363
 7542SOL    HW234089   1.367   1.509   1.844 -1.7901  1.7743  1.1290
 7543SOL     OW34090   0.091   3.083   3.765 -0.8356  0.3281 -0.1101
 7543SOL    HW134091   0.121   3.025   3.695  2.0292  0.9092  0.5969
 7543SOL    HW234092   0.038   3.023   3.818 -0.5179 -1.8960 -2.3102
 7544SOL     OW34093   2.564   0.152   2.849  0.2617  0.3142 -0.0939
 7544SOL    HW134094   2.558   0.182   2.759 -0.7624 -1.7409 -0.7007
 7544SOL    HW234095   2.614   0.222   2.891  1.0299 -1.1830  1.4990
 7545SOL     OW34096   1.946   4.226   5.948  0.2441 -0.4077  0.2902
 7545SOL    HW134097   2.015   4.182   5.997  0.2327  0.7345  1.3316
 7545SOL    HW234098   1.915   4.275   6.024  2.6340 -0.6613  1.4482
 7546SOL     OW34099   0.105   0.191  16.592  0.1945 -0.4109 -0.1530
 7546SOL    HW134100   0.120   0.158  16.503  0.1512  0.3765 -0.4520
 7546SOL    HW234101   0.186   0.241  16.605 -0.3948  0.4637  0.1292
 7547SOL     OW34102   0.065   0.833  12.346  0.5441 -0.1242  0.1732
 7547SOL    HW134103   4.711   0.777  12.343  0.0809  0.6058 -1.8010
 7547SOL    HW234104   0.132   0.803  12.284  2.2697  2.1273  0.9573
 7548SOL     OW34105   1.793   4.722   7.778 -0.2751 -0.4108  0.2642
 7548SOL    HW134106   1.856   4.660   7.815  0.6755  0.6521  0.4534
 7548SOL    HW234107   1.839   0.024   7.697  1.4579 -2.8582  0.5129
 7549SOL     OW34108   0.410   1.221   9.912 -0.3570  0.2731 -0.5512
 7549SOL    HW134109   0.332   1.168   9.925  2.0271 -3.5363 -1.5897
 7549SOL    HW234110   0.379   1.302   9.873  1.8741  1.5512  0.3143
 7550SOL     OW34111   3.491   2.379  16.301 -0.2255  0.2011 -0.3254
 7550SOL    HW134112   3.410   2.426  16.317 -0.5103 -0.0567 -1.0056
 7550SOL    HW234113   3.453   2.291  16.303 -0.1746  0.1574 -1.1669
 7551SOL     OW34114   4.313   2.044   4.033  0.5794  0.1110 -0.1983
 7551SOL    HW134115   4.369   2.121   4.022  0.0961  0.8987  3.0517
 7551SOL    HW234116   4.380   1.976   4.035 -1.2904 -1.6290  3.1251
 7552SOL     OW34117   2.901   3.012   1.431  0.3868  0.6391  0.6936
 7552SOL    HW134118   2.819   3.033   1.385  0.4264 -2.3391 -0.7444
 7552SOL    HW234119   2.886   2.922   1.459 -0.1727  0.1076 -1.3165
 7553SOL     OW34120   2.472   3.231   7.561  0.1773 -0.0462 -0.0190
 7553SOL    HW134121   2.491   3.152   7.511 -3.3019 -2.3512  2.3352
 7553SOL    HW234122   2.557   3.237   7.606 -0.0465 -0.1949  0.4205
 7554SOL     OW34123   1.687   0.696   5.126 -0.2192 -0.2703  0.1425
 7554SOL    HW134124   1.651   0.765   5.070  3.8479  2.8174  1.2583
 7554SOL    HW234125   1.743   0.653   5.061  0.9523  0.9183  0.3570
 7555SOL     OW34126   2.496   1.845   1.864 -0.1768 -0.2219 -0.0908
 7555SOL    HW134127   2.584   1.842   1.829  0.3860 -0.5178  1.3487
 7555SOL    HW234128   2.501   1.867   1.957 -2.3863  1.3832 -0.3441
 7556SOL     OW34129   4.048   4.000   9.349 -0.5070 -0.2929  0.0777
 7556SOL    HW134130   4.060   3.914   9.387 -0.6984 -0.4405 -0.1957
 7556SOL    HW234131   4.091   4.060   9.410 -1.0040 -1.1130  1.2177
 7557SOL     OW34132   1.799   0.740   5.351  0.3669  0.6856 -0.2417
 7557SOL    HW134133   1.771   0.703   5.267 -2.1018  0.0309  0.8600
 7557SOL    HW234134   1.790   0.832   5.327 -0.9118  0.8581  0.8585
 7558SOL     OW34135   3.297   3.335   1.193  0.0905  0.0073 -0.2191
 7558SOL    HW134136   3.228   3.274   1.169 -0.1422 -0.5563  1.9616
 7558SOL    HW234137   3.370   3.274   1.186  0.9594  0.9114  0.9180
 7559SOL     OW34138   1.763   0.867   8.185 -0.0309 -0.0661  0.2431
 7559SOL    HW134139   1.767   0.842   8.093  2.9177 -0.4168  0.4677
 7559SOL    HW234140   1.773   0.775   8.211  0.3967  0.1186  0.7427
 7560SOL     OW34141   2.492   3.258   2.167 -0.0705 -0.5739 -0.1785
 7560SOL    HW134142   2.491   3.230   2.076 -1.9857  2.0399 -0.9685
 7560SOL    HW234143   2.431   3.190   2.198 -0.8644 -0.2994 -1.1544
 7561SOL     OW34144   2.197   4.484   4.456  0.4182  0.3900 -0.1638
 7561SOL    HW134145   2.275   4.537   4.437  1.3712 -0.5104  1.2889
 7561SOL    HW234146   2.140   4.547   4.500  1.2827  2.8358 -2.5495
 7562SOL     OW34147   0.720   3.314   3.389  0.7096  0.2948 -0.4440
 7562SOL    HW134148   0.769   3.235   3.366 -0.9129 -0.9454  0.3486
 7562SOL    HW234149   0.753   3.364   3.315  1.9233  1.5304  0.9403
 7563SOL     OW34150   0.130   2.347   2.107  0.5881 -0.1804 -0.4316
 7563SOL    HW134151   0.217   2.344   2.067  1.1861  2.5857  0.7041
 7563SOL    HW234152   0.134   2.266   2.159  0.5359 -0.2071 -0.4700
 7564SOL     OW34153   3.798   1.430   1.942 -0.6170  0.2429 -0.1251
 7564SOL    HW134154   3.894   1.440   1.940 -0.5496 -0.2655  0.4067
 7564SOL    HW234155   3.773   1.521   1.925 -3.3014 -0.5024 -0.0815
 7565SOL     OW34156   0.231   1.405   8.293 -0.2755 -0.5753 -0.1558
 7565SOL    HW134157   0.151   1.457   8.300  1.2992  2.0791 -1.5479
 7565SOL    HW234158   0.285   1.464   8.239 -0.4234 -0.0088  0.3183
 7566SOL     OW34159   4.110   3.001   6.059 -0.1531 -0.0147  0.6387
 7566SOL    HW134160   4.192   2.984   6.013 -1.4771 -0.3636 -1.5730
 7566SOL    HW234161   4.049   2.938   6.022  0.4181  0.2219 -0.6765
 7567SOL     OW34162   0.713   1.125   8.857  0.0667 -0.2275 -0.0991
 7567SOL    HW134163   0.650   1.169   8.799  0.6351 -0.8377 -1.1958
 7567SOL    HW234164   0.759   1.202   8.889  1.8092 -1.0122 -0.7331
 7568SOL     OW34165   4.283   2.580   3.422  0.0526  0.3444 -0.0377
 7568SOL    HW134166   4.253   2.591   3.512 -0.8207 -0.6657 -0.2031
 7568SOL    HW234167   4.234   2.644   3.370  0.8402  1.8680  1.1101
 7569SOL     OW34168   1.389   3.548   4.785  0.5244  0.2798  0.3597
 7569SOL    HW134169   1.353   3.623   4.738  1.1700 -0.5197 -1.4221
 7569SOL    HW234170   1.393   3.485   4.712  1.0405  0.1195  0.5274
 7570SOL     OW34171   1.001   1.898   2.788  0.1810 -0.1449  0.0865
 7570SOL    HW134172   0.990   1.973   2.731 -3.7250  0.0409  1.0452
 7570SOL    HW234173   0.942   1.927   2.858  0.4660  1.4468 -0.3547
 7571SOL     OW34174   1.150   0.073  16.457  0.1319 -0.2065  0.5280
 7571SOL    HW134175   1.058   0.072  16.430 -0.0180  2.6542  0.9559
 7571SOL    HW234176   1.201   0.105  16.383  0.7631 -1.6140  0.3631
 7572SOL     OW34177   1.260   3.658   4.536 -0.5074 -0.1093  0.1957
 7572SOL    HW134178   1.324   3.730   4.531 -1.9880  1.1547 -0.4962
 7572SOL    HW234179   1.303   3.575   4.518 -1.9233 -0.4969 -1.3979
 7573SOL     OW34180   1.319   3.579  11.250  0.0334  0.2648  0.2321
 7573SOL    HW134181   1.317   3.502  11.193 -2.0593  0.6688 -0.2285
 7573SOL    HW234182   1.235   3.625  11.247  0.5154  1.0966 -0.3875
 7574SOL     OW34183   1.435   0.070  16.698  0.6195 -0.0120  0.4020
 7574SOL    HW134184   1.376   4.717  16.692  0.8998 -0.2133  0.2090
 7574SOL    HW234185   1.415   0.096  16.788 -0.0537  2.0080 -0.3420
 7575SOL     OW34186   2.819   0.531  13.931  0.1775 -0.6516  0.3461
 7575SOL    HW134187   2.905   0.546  13.970  0.8604 -0.4279 -1.2405
 7575SOL    HW234188   2.842   0.494  13.845 -0.7374 -1.6443  0.5291
 7576SOL     OW34189   3.113   1.360   6.767 -0.1979 -0.6350 -0.8531
 7576SOL    HW134190   3.050   1.300   6.727 -0.2707 -1.6266  0.7727
 7576SOL    HW234191   3.083   1.354   6.857 -1.3116  1.5148 -1.0765
 7577SOL     OW34192   2.476   4.063   8.341 -0.5251 -0.3847 -0.2341
 7577SOL    HW134193   2.472   4.102   8.254  0.5614 -1.5721 -0.8324
 7577SOL    HW234194   2.385   4.060   8.371 -1.2552 -0.3712 -2.4294
 7578SOL     OW34195   0.088   3.537   8.151  0.5744 -0.1446  0.0069
 7578SOL    HW134196   0.141   3.470   8.109 -1.1117 -0.9869 -0.7818
 7578SOL    HW234197   0.042   3.481   8.214 -0.4399 -0.2005 -0.7879
 7579SOL     OW34198   2.507   2.703   5.454 -0.3011  0.4043  0.3323
 7579SOL    HW134199   2.444   2.726   5.386  1.8574 -0.4224 -1.9398
 7579SOL    HW234200   2.594   2.709   5.414 -0.0079  0.8959  1.0450
 7580SOL     OW34201   3.424   2.153   7.360 -0.6428 -0.3829 -0.0310
 7580SOL    HW134202   3.387   2.237   7.333  0.1131  0.7080  2.3406
 7580SOL    HW234203   3.410   2.098   7.283  2.2324 -0.7226 -0.3353
 7581SOL     OW34204   1.643   1.157   2.292 -0.1438  0.8656  0.2929
 7581SOL    HW134205   1.559   1.186   2.255 -2.3195 -4.0915  1.3108
 7581SOL    HW234206   1.614   1.087   2.350 -1.9645  1.0929 -0.3207
 7582SOL     OW34207   1.684   0.068  16.572 -0.6338 -0.4132  0.6235
 7582SOL    HW134208   1.601   0.070  16.620 -0.1447  1.0597  1.3852
 7582SOL    HW234209   1.654   0.072  16.481  0.8026  1.9909  0.2544
 7583SOL     OW34210   1.881   4.111   6.269  0.0366 -0.2139 -0.2527
 7583SOL    HW134211   1.801   4.162   6.257  0.2476  0.2510  0.3131
 7583SOL    HW234212   1.948   4.169   6.306 -0.7242 -0.1968  1.0739
 7584SOL     OW34213   2.018   1.261   6.512  0.0062  0.2764 -0.2204
 7584SOL    HW134214   1.937   1.279   6.465 -0.4612 -0.9760  0.1032
 7584SOL    HW234215   2.047   1.351   6.526 -0.8973  0.2975  1.5743
 7585SOL     OW34216   1.786   3.940   5.547 -0.5757  0.0532  0.4485
 7585SOL    HW134217   1.809   3.859   5.502 -1.4579 -1.7792  3.3487
 7585SOL    HW234218   1.871   3.970   5.580 -0.5762 -0.7473  1.1523
 7586SOL     OW34219   1.462   1.035   7.002  0.0337 -0.6214  0.1596
 7586SOL    HW134220   1.521   1.037   7.077 -0.1460 -0.1482  0.2907
 7586SOL    HW234221   1.388   0.984   7.034  0.2918 -1.2305 -0.2302
 7587SOL     OW34222   3.889   2.510   5.870  0.7566 -0.7295 -0.5760
 7587SOL    HW134223   3.969   2.461   5.891  1.1336  0.4028  0.7054
 7587SOL    HW234224   3.824   2.442   5.858  0.2201 -0.4913  0.8894
 7588SOL     OW34225   0.301   1.111  15.423  0.1837  0.3859 -0.5288
 7588SOL    HW134226   0.360   1.094  15.349 -0.4776  0.1939 -1.0099
 7588SOL    HW234227   0.233   1.051  15.394 -3.0793  1.9443  3.9073
 7589SOL     OW34228   3.430   3.413   2.385 -0.0156 -0.2354 -0.4800
 7589SOL    HW134229   3.496   3.367   2.333 -1.6043 -2.8159 -0.2171
 7589SOL    HW234230   3.348   3.376   2.352  0.2073  0.0876 -1.3912
 7590SOL     OW34231   3.092   0.124  17.349  0.1544 -0.2440  0.3987
 7590SOL    HW134232   3.025   0.062  17.375 -1.7879  1.7737  0.2145
 7590SOL    HW234233   3.176   0.078  17.358  0.2321 -0.5914 -2.3449
 7591SOL     OW34234   0.026   3.101  12.247 -0.0182  0.3752  0.3944
 7591SOL    HW134235   0.109   3.116  12.292  0.3080 -0.9324  0.2389
 7591SOL    HW234236   0.033   3.151  12.165  0.3366 -2.2698 -1.2120
 7592SOL     OW34237   2.767   2.704   3.682  0.0866 -0.0968  0.0029
 7592SOL    HW134238   2.735   2.789   3.710  0.7469 -0.6673  2.4480
 7592SOL    HW234239   2.837   2.693   3.746  0.6741 -1.6355 -0.8859
 7593SOL     OW34240   0.228   4.609  14.657  0.3821 -0.1177 -0.0667
 7593SOL    HW134241   0.163   4.570  14.716  0.8981 -1.4898 -0.4140
 7593SOL    HW234242   0.278   4.535  14.625  1.3484  0.7101 -0.4638
 7594SOL     OW34243   4.553   0.526   2.355  0.1951  0.1607 -0.1249
 7594SOL    HW134244   4.638   0.568   2.340  1.4235 -2.3433 -0.2312
 7594SOL    HW234245   4.555   0.452   2.294 -0.1066  0.8961 -1.0153
 7595SOL     OW34246   3.323   0.285  15.737 -0.5066  0.5097  0.3449
 7595SOL    HW134247   3.234   0.260  15.762 -0.0561  0.0734  1.4865
 7595SOL    HW234248   3.310   0.379  15.724  0.9828  1.0337  2.7383
 7596SOL     OW34249   3.966   3.345   7.595  0.2597  0.2170 -0.1188
 7596SOL    HW134250   3.935   3.425   7.637 -3.1222 -0.9013 -0.4846
 7596SOL    HW234251   4.050   3.330   7.640  0.4120  0.4036 -0.3462
 7597SOL     OW34252   0.628   0.403   5.618  0.7001  0.6466  0.1110
 7597SOL    HW134253   0.590   0.354   5.691  2.6356 -1.7545 -0.4767
 7597SOL    HW234254   0.577   0.371   5.544  1.4413 -1.3816  0.4664
 7598SOL     OW34255   2.272   2.501  15.476 -0.1186  0.0439 -0.7746
 7598SOL    HW134256   2.185   2.463  15.488 -0.0083 -0.0327 -0.1899
 7598SOL    HW234257   2.299   2.485  15.566 -0.9162  2.1373 -0.1630
 7599SOL     OW34258   3.015   1.436  17.268  0.0975  0.6641  0.3248
 7599SOL    HW134259   2.952   1.365  17.261 -0.2604  1.1456 -1.3370
 7599SOL    HW234260   2.978   1.497  17.204 -0.7388  1.3563  1.4769
 7600SOL     OW34261   2.775   0.473  17.510  0.4597 -0.5009 -0.0277
 7600SOL    HW134262   2.813   0.496  17.425  0.0891 -1.1434 -0.3639
 7600SOL    HW234263   2.767   0.378  17.502  1.2631 -0.7186  1.7255
 7601SOL     OW34264   0.483   4.232   4.685 -0.2680 -0.0250 -0.1337
 7601SOL    HW134265   0.513   4.267   4.600 -1.4728  0.2265 -0.4536
 7601SOL    HW234266   0.494   4.137   4.681 -0.8377 -0.0543 -1.0837
 7602SOL     OW34267   1.845   1.168   9.169  1.3932 -0.2048 -0.2291
 7602SOL    HW134268   1.876   1.141   9.083  0.3937 -1.5900 -0.1679
 7602SOL    HW234269   1.834   1.079   9.205 -0.3698  0.0782 -0.0551
 7603SOL     OW34270   1.622   1.402   1.081 -0.2533  0.5498 -0.4820
 7603SOL    HW134271   1.663   1.450   1.152  0.8585 -1.0263 -0.0639
 7603SOL    HW234272   1.697   1.384   1.024  1.2812 -1.0364  2.0566
 7604SOL     OW34273   4.496   3.020  13.314 -0.7071 -0.4025  0.1333
 7604SOL    HW134274   4.447   3.057  13.388 -1.3162 -1.1656  0.1188
 7604SOL    HW234275   4.497   3.089  13.248  1.1659 -1.1653 -0.6197
 7605SOL     OW34276   1.842   3.713   6.443  0.7037  0.2680  0.0833
 7605SOL    HW134277   1.884   3.687   6.526  0.9883 -0.9210 -0.4276
 7605SOL    HW234278   1.907   3.776   6.412  0.1223 -0.1197 -1.9254
 7606SOL     OW34279   3.436   1.078   4.870 -0.4680  0.5942 -0.2150
 7606SOL    HW134280   3.370   1.009   4.865  0.9334 -0.8886  1.8954
 7606SOL    HW234281   3.510   1.031   4.832  0.5918  0.0757  2.4903
 7607SOL     OW34282   3.914   2.651   5.625 -0.3055 -0.2292 -0.3320
 7607SOL    HW134283   3.939   2.581   5.686  1.1237  0.3238 -0.2877
 7607SOL    HW234284   3.988   2.712   5.622  0.7143 -1.4351 -0.1229
 7608SOL     OW34285   4.068   3.076   7.933  0.3102  0.1816  0.8552
 7608SOL    HW134286   4.034   3.109   8.016 -0.7288  1.7928 -0.2160
 7608SOL    HW234287   4.142   3.137   7.937 -1.0974  1.7577  2.7221
 7609SOL     OW34288   3.836   4.376  14.054  0.1300 -0.0579  0.2012
 7609SOL    HW134289   3.907   4.372  14.118  0.6568 -0.2243 -0.3921
 7609SOL    HW234290   3.852   4.285  14.028  1.3762  0.2112  0.0167
 7610SOL     OW34291   1.629   3.054   6.429 -0.1595 -0.0332  0.1251
 7610SOL    HW134292   1.683   3.130   6.452 -0.0557 -0.7022  2.0996
 7610SOL    HW234293   1.654   2.991   6.496  0.5815  0.3262  0.1826
 7611SOL     OW34294   2.892   0.887  11.105 -0.2499  0.0502  0.0303
 7611SOL    HW134295   2.982   0.872  11.133  0.3168 -2.5764 -3.1456
 7611SOL    HW234296   2.906   0.918  11.015 -0.4365  2.9331  1.0183
 7612SOL     OW34297   1.528   3.997   1.236 -0.1387  0.0534  0.7722
 7612SOL    HW134298   1.493   3.911   1.214 -0.4590  0.9846 -2.3347
 7612SOL    HW234299   1.448   4.048   1.252 -0.1627  0.2701 -0.0377
 7613SOL     OW34300   3.274   2.732   2.236  0.1142  0.2362  0.1105
 7613SOL    HW134301   3.190   2.777   2.245  0.2972  0.6832 -0.4150
 7613SOL    HW234302   3.254   2.647   2.275  2.8006 -0.0706  0.8519
 7614SOL     OW34303   3.102   1.603   7.813  0.2393  0.2412 -0.0643
 7614SOL    HW134304   3.035   1.671   7.815 -0.4748 -0.4064 -2.6993
 7614SOL    HW234305   3.149   1.618   7.731  3.4865 -0.7990  1.6085
 7615SOL     OW34306   0.895   3.128   0.499 -0.1415  0.7072 -0.0590
 7615SOL    HW134307   0.942   3.128   0.582 -0.9355  1.4310  0.3952
 7615SOL    HW234308   0.816   3.076   0.518  0.3809  1.1200  3.2585
 7616SOL     OW34309   2.511   2.881   5.676  0.0964  0.5475  0.1245
 7616SOL    HW134310   2.553   2.831   5.745 -0.7997  0.3924  0.5556
 7616SOL    HW234311   2.511   2.807   5.615 -1.1811  0.8917 -0.2909
 7617SOL     OW34312   1.666   3.104   3.507  0.3978  0.4030  0.0508
 7617SOL    HW134313   1.738   3.079   3.448  0.1056 -0.4328  0.0450
 7617SOL    HW234314   1.595   3.067   3.455  1.9608  0.0228 -1.8324
 7618SOL     OW34315   2.557   0.813  10.210  0.3185  0.2076 -0.5421
 7618SOL    HW134316   2.605   0.889  10.241 -0.1109 -0.2970  1.3522
 7618SOL    HW234317   2.606   0.792  10.130  0.3643 -0.6307 -0.2974
 7619SOL     OW34318   1.659   3.496   4.461 -0.1226  0.6068 -0.0819
 7619SOL    HW134319   1.616   3.556   4.401  2.1363  0.7176 -1.6101
 7619SOL    HW234320   1.600   3.422   4.448 -0.4874  0.8274  0.3358
 7620SOL     OW34321   3.816   0.454   7.572 -0.3167 -0.3006  0.7250
 7620SOL    HW134322   3.733   0.464   7.617 -0.3213  0.1479  0.6178
 7620SOL    HW234323   3.847   0.544   7.575 -0.3534 -0.2878  0.7120
 7621SOL     OW34324   2.073   0.436   6.772  0.1141  0.2529 -0.3437
 7621SOL    HW134325   1.979   0.425   6.789  0.4836 -1.9581  0.1910
 7621SOL    HW234326   2.059   0.520   6.728 -0.0592 -0.6102 -1.9215
 7622SOL     OW34327   1.023   1.935   7.781 -0.4508 -0.1375 -0.5212
 7622SOL    HW134328   0.992   1.855   7.825 -1.3305  0.8074  0.5572
 7622SOL    HW234329   1.087   1.913   7.713  2.0848  0.9458  1.5367
 7623SOL     OW34330   0.016   0.795  17.287 -0.1376  0.1091 -0.3463
 7623SOL    HW134331   0.091   0.848  17.260  0.6623 -0.3252  1.0525
 7623SOL    HW234332   4.664   0.855  17.273 -0.6773 -0.9205 -1.9465
 7624SOL     OW34333   4.580   4.111   7.783 -0.4471  0.2000  0.2413
 7624SOL    HW134334   4.640   4.083   7.852  0.7354 -0.8150 -1.2013
 7624SOL    HW234335   4.505   4.139   7.836 -2.2240 -1.9174 -1.1421
 7625SOL     OW34336   3.950   3.848  11.643  0.5599  0.2656  0.5703
 7625SOL    HW134337   3.889   3.775  11.649 -1.5590  1.9751  0.0629
 7625SOL    HW234338   3.934   3.856  11.549  0.5593 -0.3685  0.5177
 7626SOL     OW34339   0.823   0.604   6.960 -0.1738  0.0114  0.4242
 7626SOL    HW134340   0.911   0.643   6.957 -0.2069  0.1773  1.6867
 7626SOL    HW234341   0.843   0.510   6.955  1.1412  0.3041  0.1559
 7627SOL     OW34342   0.618   4.599  12.463 -0.0983  0.0140  0.0057
 7627SOL    HW134343   0.545   4.619  12.521  1.1285  1.6999  0.9507
 7627SOL    HW234344   0.683   4.624  12.528  2.0366 -3.4835 -0.7805
 7628SOL     OW34345   1.739   3.971   9.345 -1.0502 -0.2315  0.6848
 7628SOL    HW134346   1.734   3.926   9.429 -0.7897  0.0294  0.8386
 7628SOL    HW234347   1.714   3.902   9.283 -0.5002 -0.0089  0.2110
 7629SOL     OW34348   2.515   0.125   8.340  0.0550 -0.6609 -0.3166
 7629SOL    HW134349   2.517   0.094   8.430 -0.6279  0.1818 -0.0115
 7629SOL    HW234350   2.452   0.063   8.304 -0.5625  0.4294 -1.1178
 7630SOL     OW34351   0.156   4.354   7.555 -0.3910  0.4370 -0.5001
 7630SOL    HW134352   0.198   4.318   7.477 -0.2200 -0.2059 -0.1172
 7630SOL    HW234353   0.227   4.387   7.610  0.4167 -0.3583 -1.0674
 7631SOL     OW34354   1.577   0.761   1.945  0.1184  0.2423 -0.2059
 7631SOL    HW134355   1.631   0.786   2.020 -0.5099 -0.2071  0.4072
 7631SOL    HW234356   1.528   0.843   1.949  1.3335  0.9284  0.6047
 7632SOL     OW34357   1.263   0.541  12.956  0.3940  0.1573  0.4381
 7632SOL    HW134358   1.274   0.515  12.865 -0.2161  1.3107  0.0320
 7632SOL    HW234359   1.341   0.595  12.968  0.9223 -0.3512 -0.7597
 7633SOL     OW34360   4.287   0.164   5.970  0.3677 -0.1222  0.3311
 7633SOL    HW134361   4.267   0.123   5.886  2.4938 -0.2738 -0.0820
 7633SOL    HW234362   4.365   0.214   5.950  1.0767 -0.5376  2.0091
 7634SOL     OW34363   1.974   3.194   2.626 -0.2826  0.4729  0.8762
 7634SOL    HW134364   1.907   3.208   2.559  0.0041 -0.7581  0.3238
 7634SOL    HW234365   1.942   3.243   2.701 -0.4690  2.3901 -0.4690
 7635SOL     OW34366   3.874   2.134  15.479  0.1456  0.0884 -0.1983
 7635SOL    HW134367   3.849   2.173  15.395 -0.8630  2.2116  1.0789
 7635SOL    HW234368   3.838   2.205  15.533 -0.7918 -0.8759  0.4619
 7636SOL     OW34369   1.316   3.287   1.345 -0.0286 -0.5283  0.5713
 7636SOL    HW134370   1.302   3.280   1.439  0.3269  1.6053  0.7830
 7636SOL    HW234371   1.410   3.273   1.332  0.4682  1.3195  2.1143
 7637SOL     OW34372   3.389   2.439   5.991  0.2506  0.8399 -0.1716
 7637SOL    HW134373   3.467   2.385   5.981 -0.8286 -0.3792 -1.9383
 7637SOL    HW234374   3.373   2.445   6.086 -0.8109 -0.8581 -0.2481
 7638SOL     OW34375   2.516   3.978  17.537 -0.1020 -0.6000  0.1532
 7638SOL    HW134376   2.530   3.898  17.488 -0.4135  1.5026 -3.3594
 7638SOL    HW234377   2.506   3.949  17.628  1.3853 -0.1764  0.4448
 7639SOL     OW34378   0.941   3.121   0.754  0.5762 -0.1058  0.0825
 7639SOL    HW134379   0.945   3.037   0.801  1.3182 -0.6505 -0.9615
 7639SOL    HW234380   0.961   3.183   0.824  0.5559 -1.8149  1.6147
 7640SOL     OW34381   1.129   3.961   3.694 -0.5615 -0.1493 -0.2414
 7640SOL    HW134382   1.105   4.016   3.768 -1.2062 -0.2270 -0.3956
 7640SOL    HW234383   1.172   4.021   3.633  0.6528 -0.6520  0.1203
 7641SOL     OW34384   2.087   2.398   2.453 -0.7307 -0.6515 -0.1243
 7641SOL    HW134385   2.029   2.386   2.377 -1.1527 -0.8675  0.2313
 7641SOL    HW234386   2.137   2.316   2.446 -0.1359 -0.4358  1.6281
 7642SOL     OW34387   0.710   4.685   2.998 -0.2412  0.3741  0.0567
 7642SOL    HW134388   0.700   0.052   3.029 -1.4009 -0.0924  1.0041
 7642SOL    HW234389   0.786   4.694   2.940  0.4757 -1.2143  0.7387
 7643SOL     OW34390   4.645   1.596   2.995  0.1911 -0.3045  0.1992
 7643SOL    HW134391   4.651   1.690   3.010 -1.6948  0.0288 -1.1156
 7643SOL    HW234392   4.720   1.588   2.936 -0.3787  0.3910 -0.6136
 7644SOL     OW34393   0.046   1.180   3.166  0.4682  0.0972  0.2909
 7644SOL    HW134394   0.032   1.124   3.089  0.2204 -1.6935  1.6616
 7644SOL    HW234395   4.680   1.209   3.185 -0.4362 -4.7343  3.2544
 7645SOL     OW34396   3.625   4.483  11.530  0.5675  0.1127  0.6584
 7645SOL    HW134397   3.643   4.390  11.519  0.9447  0.1335  1.1189
 7645SOL    HW234398   3.697   4.513  11.474  1.3944  0.3605  1.8619
 7646SOL     OW34399   0.399   3.921   0.208 -0.0255  0.1987  0.1096
 7646SOL    HW134400   0.417   3.897   0.299  1.7549  4.3580  0.8748
 7646SOL    HW234401   0.304   3.925   0.221 -0.0347 -1.9340  0.6458
 7647SOL     OW34402   0.360   2.585  12.976 -0.6435  0.8727  0.2198
 7647SOL    HW134403   0.284   2.549  12.930 -0.4263  0.7817 -0.0705
 7647SOL    HW234404   0.407   2.625  12.903 -1.0620  1.0976  0.0733
 7648SOL     OW34405   0.140   2.617   2.456  0.2951  0.6035  0.3366
 7648SOL    HW134406   0.078   2.600   2.385 -2.1902  3.7889  1.7358
 7648SOL    HW234407   0.220   2.580   2.417  0.8650  0.6352  1.4752
 7649SOL     OW34408   1.910   1.404   5.166  0.4838 -0.1734 -0.2752
 7649SOL    HW134409   1.836   1.464   5.160  0.2048 -0.3223  1.8337
 7649SOL    HW234410   1.920   1.372   5.076 -0.0835 -0.7412 -0.1370
 7650SOL     OW34411   1.927   2.883   8.844  0.2486 -0.5529 -0.0142
 7650SOL    HW134412   1.982   2.807   8.861  1.0239  0.2028  0.8171
 7650SOL    HW234413   1.848   2.839   8.814 -0.7659  0.6280  0.8941
 7651SOL     OW34414   1.795   0.022   9.000 -0.2801 -0.2598  0.1376
 7651SOL    HW134415   1.752   0.089   8.946 -0.4127 -1.0944 -0.7954
 7651SOL    HW234416   1.787   4.670   8.940  2.7657 -1.1848  0.9160
 7652SOL     OW34417   2.589   1.743   4.401 -0.9290 -0.5322  0.0627
 7652SOL    HW134418   2.644   1.778   4.471 -0.6800  1.6755 -1.2385
 7652SOL    HW234419   2.523   1.813   4.397 -1.1796 -0.8618 -1.7142
 7653SOL     OW34420   1.205   3.521   4.020 -0.0815  0.4975  0.6458
 7653SOL    HW134421   1.143   3.589   4.047 -3.3300 -2.4259  0.5807
 7653SOL    HW234422   1.240   3.554   3.938 -1.8908 -0.7649 -0.6177
 7654SOL     OW34423   3.834   1.325  11.304 -0.3908 -0.0691 -0.1939
 7654SOL    HW134424   3.769   1.376  11.255 -1.8519 -0.3313  1.4617
 7654SOL    HW234425   3.764   1.293  11.361  1.3219 -2.5015  0.5005
 7655SOL     OW34426   4.651   0.577  16.038 -0.2390 -0.5514  0.0835
 7655SOL    HW134427   4.651   0.638  15.965 -0.3382 -0.3292  0.2704
 7655SOL    HW234428   4.615   0.633  16.107 -0.4106  1.1521 -1.3914
 7656SOL     OW34429   1.225   2.398   3.082 -0.9011  0.7448  0.3381
 7656SOL    HW134430   1.245   2.428   2.994 -2.2715 -1.2786 -0.6563
 7656SOL    HW234431   1.229   2.482   3.128  0.9950  1.2569 -0.8175
 7657SOL     OW34432   2.230   4.026   9.126  0.0303 -0.2123 -0.4689
 7657SOL    HW134433   2.261   4.031   9.217  1.7401 -2.8598 -0.9023
 7657SOL    HW234434   2.138   4.042   9.145  0.2003  0.0665  0.1154
 7658SOL     OW34435   2.478   0.139   0.152  0.5822  0.3638 -0.4935
 7658SOL    HW134436   2.479   0.225   0.193  3.4391 -0.1069  0.4280
 7658SOL    HW234437   2.480   0.094   0.237 -0.2420 -1.2469 -1.3110
 7659SOL     OW34438   3.518   4.547   7.551 -0.2444 -0.7488 -0.1765
 7659SOL    HW134439   3.599   4.548   7.499 -0.7257 -1.6002 -0.9536
 7659SOL    HW234440   3.548   4.540   7.642 -1.9520  0.2104  0.4561
 7660SOL     OW34441   4.544   1.538  17.293  0.5271 -0.0607  0.4786
 7660SOL    HW134442   4.624   1.488  17.280  0.4223 -0.4365  1.2824
 7660SOL    HW234443   4.494   1.464  17.327 -0.4714  1.3491  2.1078
 7661SOL     OW34444   4.008   0.957   3.247 -0.3376 -0.0787 -0.0970
 7661SOL    HW134445   4.101   0.977   3.258 -0.3117 -0.1956 -0.0976
 7661SOL    HW234446   3.987   0.893   3.315 -3.3516  1.3072  0.2757
 7662SOL     OW34447   0.620   2.708   3.758 -0.3234 -0.6601 -0.5286
 7662SOL    HW134448   0.582   2.777   3.813  0.2599 -2.2578  1.8642
 7662SOL    HW234449   0.631   2.631   3.813  0.7388 -1.1637 -1.4409
 7663SOL     OW34450   4.191   2.887   4.289 -0.0162  0.0441 -0.5099
 7663SOL    HW134451   4.214   2.871   4.198 -0.6071  0.1960 -0.6884
 7663SOL    HW234452   4.253   2.828   4.332 -0.4767 -0.0108  0.0869
 7664SOL     OW34453   3.930   1.025  13.490 -0.0734  0.8177  0.0308
 7664SOL    HW134454   3.893   1.048  13.575  2.8090  3.0874  0.6999
 7664SOL    HW234455   4.022   1.052  13.497  0.1173 -0.1861  1.2838
 7665SOL     OW34456   2.988   1.531   8.420  0.1372 -0.4135 -0.5732
 7665SOL    HW134457   2.985   1.544   8.515 -0.2264  2.3715 -0.9576
 7665SOL    HW234458   3.082   1.514   8.417  0.3395  0.7721 -1.0439
 7666SOL     OW34459   3.591   0.084   3.738 -0.5286 -0.1621  0.3717
 7666SOL    HW134460   3.639   0.003   3.754 -0.7422  0.1409  2.5059
 7666SOL    HW234461   3.640   0.120   3.663 -0.1557 -0.0340  0.6751
 7667SOL     OW34462   2.651   3.387   7.223  0.3908 -0.0734  0.3258
 7667SOL    HW134463   2.666   3.453   7.290 -0.6158 -0.9222  1.3909
 7667SOL    HW234464   2.700   3.431   7.153  0.1684  0.6809  0.6431
 7668SOL     OW34465   2.992   1.223  12.592  0.3623 -0.2096  0.5432
 7668SOL    HW134466   3.073   1.268  12.568  0.0584 -0.2587 -0.6008
 7668SOL    HW234467   2.991   1.219  12.687  0.5594 -1.0022  0.5043
 7669SOL     OW34468   2.792   0.390  14.192  0.4489 -0.0913  0.5542
 7669SOL    HW134469   2.843   0.326  14.142  1.8434  0.6114  1.0820
 7669SOL    HW234470   2.755   0.437  14.118  0.3884  1.4857  1.5972
 7670SOL     OW34471   0.787   1.192  11.085  0.1136  0.0452  0.3440
 7670SOL    HW134472   0.865   1.246  11.072  0.3575 -0.6990 -1.2645
 7670SOL    HW234473   0.754   1.186  10.996  0.5854 -1.0700  0.2470
 7671SOL     OW34474   2.553   0.558   4.613  0.3230 -0.0234  0.5038
 7671SOL    HW134475   2.629   0.500   4.606  0.8522  0.9626 -1.9161
 7671SOL    HW234476   2.478   0.503   4.634  0.7268 -1.1399 -0.9565
 7672SOL     OW34477   1.401   2.231   4.140  0.3167 -0.2291 -0.1566
 7672SOL    HW134478   1.459   2.240   4.065 -0.1884 -1.0640 -0.6490
 7672SOL    HW234479   1.327   2.282   4.109  0.1921  0.2112  0.8560
 7673SOL     OW34480   3.895   3.756   7.153  0.4060 -0.5482 -0.8586
 7673SOL    HW134481   3.952   3.822   7.192 -0.5943 -0.1222 -0.0989
 7673SOL    HW234482   3.816   3.810   7.161  1.3449  0.8174 -0.7936
 7674SOL     OW34483   1.065   0.217  11.362 -0.5896  0.3509  0.5648
 7674SOL    HW134484   0.989   0.264  11.396  0.2363  3.3483 -1.6907
 7674SOL    HW234485   1.136   0.280  11.368  0.6393 -0.8568 -1.4855
 7675SOL     OW34486   1.610   0.252   6.998 -0.5531  1.2081 -0.4912
 7675SOL    HW134487   1.609   0.281   7.089  0.8569  0.8495 -0.3591
 7675SOL    HW234488   1.601   0.158   7.008  0.1488  1.3777  1.7221
 7676SOL     OW34489   0.864   3.521  15.974  0.1890 -0.3344 -0.1632
 7676SOL    HW134490   0.794   3.504  15.911  0.6454  1.5587 -1.1594
 7676SOL    HW234491   0.821   3.553  16.054 -0.8053 -1.1998 -0.3567
 7677SOL     OW34492   0.631   0.105   1.615  0.2439  0.1800  0.0836
 7677SOL    HW134493   0.616   0.068   1.702 -0.1900 -1.0659 -0.5272
 7677SOL    HW234494   0.652   0.198   1.630 -1.1702  0.4248  0.5646
 7678SOL     OW34495   4.659   1.299   9.927 -0.4283 -0.5876  0.3837
 7678SOL    HW134496   4.687   1.258  10.008 -1.1748  0.5112  1.2051
 7678SOL    HW234497   0.018   1.338   9.895 -0.6142 -1.7333 -1.4549
 7679SOL     OW34498   0.248   3.562   4.229  0.2851 -0.1184  0.1235
 7679SOL    HW134499   0.316   3.604   4.176 -0.2449  1.1230  0.4107
 7679SOL    HW234500   0.289   3.477   4.241 -1.2208 -0.6948  1.1748
 7680SOL     OW34501   1.141   0.541   1.500 -0.0636 -0.1983  0.2503
 7680SOL    HW134502   1.200   0.476   1.462  1.8493  1.7580 -0.1205
 7680SOL    HW234503   1.099   0.582   1.424  1.6114 -0.3738 -0.7680
 7681SOL     OW34504   2.403   0.270   7.681 -0.6008 -0.5392 -0.1669
 7681SOL    HW134505   2.343   0.280   7.607  0.5337 -2.0329 -1.2900
 7681SOL    HW234506   2.401   0.176   7.701  2.3320 -0.5504  0.0028
 7682SOL     OW34507   4.365   2.459   0.602  0.0089 -0.3461  0.5869
 7682SOL    HW134508   4.377   2.547   0.638  1.5773  0.0090 -0.8185
 7682SOL    HW234509   4.453   2.421   0.595 -0.8623 -2.2546  0.0072
 7683SOL     OW34510   4.200   0.929   6.511  0.1742  0.1728 -0.2348
 7683SOL    HW134511   4.113   0.895   6.532  0.4946 -0.6303 -0.1765
 7683SOL    HW234512   4.248   0.917   6.593  0.6005  1.0604 -0.3663
 7684SOL     OW34513   0.629   1.750   4.119 -0.8352  0.0818  0.3541
 7684SOL    HW134514   0.607   1.668   4.162  0.5082  0.5404  1.9102
 7684SOL    HW234515   0.725   1.748   4.113 -0.9242 -0.0500 -1.0641
 7685SOL     OW34516   3.129   1.454  14.081  0.0307 -0.0193 -0.1799
 7685SOL    HW134517   3.177   1.510  14.020  3.5013 -0.9101  1.7497
 7685SOL    HW234518   3.140   1.502  14.163  0.1682 -3.0111  1.5224
 7686SOL     OW34519   3.939   1.077   1.916 -0.5984 -0.2652  0.0341
 7686SOL    HW134520   3.897   1.014   1.975 -0.7468 -0.4194 -0.2376
 7686SOL    HW234521   3.956   1.146   1.980 -2.0335 -1.5918  1.8679
 7687SOL     OW34522   3.834   1.426   7.933 -0.2079 -0.7096  0.5491
 7687SOL    HW134523   3.892   1.352   7.917  0.1503 -0.5066  0.8979
 7687SOL    HW234524   3.751   1.380   7.947  0.5121 -2.6826 -1.6810
 7688SOL     OW34525   4.661   1.989   4.807 -0.0620 -0.1164  0.3855
 7688SOL    HW134526   4.597   1.979   4.879 -0.4823 -1.9285 -0.2173
 7688SOL    HW234527   4.606   1.976   4.730 -0.6008  1.8199  0.4582
 7689SOL     OW34528   2.102   0.231   6.471  0.0615 -0.3203 -0.3135
 7689SOL    HW134529   2.134   0.241   6.561  1.2485 -2.2847 -0.5008
 7689SOL    HW234530   2.113   0.321   6.442 -1.2137 -0.7861 -2.2305
 7690SOL     OW34531   0.648   1.999   4.815 -0.0578  0.2374 -0.1144
 7690SOL    HW134532   0.742   2.016   4.817  0.1516 -1.0092  1.0674
 7690SOL    HW234533   0.614   2.082   4.781 -0.3927  0.6073  1.1212
 7691SOL     OW34534   2.953   4.032   7.024  0.0609  0.1768  0.1812
 7691SOL    HW134535   3.037   4.072   7.002 -1.6119  1.2507 -4.3593
 7691SOL    HW234536   2.954   3.954   6.968  0.8358  1.6151 -1.8262
 7692SOL     OW34537   0.757   0.808   1.913  0.0600 -0.4712 -0.2421
 7692SOL    HW134538   0.814   0.846   1.847 -0.1755 -1.1808 -0.8450
 7692SOL    HW234539   0.667   0.823   1.882  0.5183  1.3838 -0.6607
 7693SOL     OW34540   3.833   0.245  12.825  0.8513 -0.0347 -0.6298
 7693SOL    HW134541   3.784   0.168  12.855 -0.1173  0.1036 -1.8903
 7693SOL    HW234542   3.860   0.209  12.741 -1.3101  0.6848 -1.6175
 7694SOL     OW34543   3.304   0.917   3.142  0.1941  0.2029  0.2051
 7694SOL    HW134544   3.316   0.826   3.113  0.5205  0.7719 -1.4543
 7694SOL    HW234545   3.375   0.959   3.094 -0.4509  1.5827  0.4711
 7695SOL     OW34546   1.481   4.607   0.932  0.1188 -0.1493  0.3167
 7695SOL    HW134547   1.428   4.582   0.856  1.6395  2.3093 -1.5415
 7695SOL    HW234548   1.474   4.528   0.986 -0.9727  1.6593  2.8018
 7696SOL     OW34549   2.446   2.701  10.172  0.6430 -0.0235 -0.3905
 7696SOL    HW134550   2.494   2.652  10.105 -0.3322  0.5732 -1.5100
 7696SOL    HW234551   2.512   2.770  10.185  0.7116 -0.3792  1.2515
 7697SOL     OW34552   3.871   0.685  11.215 -0.5524 -0.2415 -0.1388
 7697SOL    HW134553   3.910   0.701  11.129 -0.8295  1.0807 -0.0304
 7697SOL    HW234554   3.941   0.640  11.261 -0.6903 -1.1694 -0.8292
 7698SOL     OW34555   1.407   0.364   2.471  0.2820  0.1559  0.3369
 7698SOL    HW134556   1.360   0.326   2.397 -1.9240  2.9903  0.2642
 7698SOL    HW234557   1.427   0.290   2.528 -0.1169  1.1082  1.7182
 7699SOL     OW34558   3.713   3.103   6.427  0.5259 -0.4316  0.2588
 7699SOL    HW134559   3.729   3.147   6.511  0.6628 -1.8284  0.9819
 7699SOL    HW234560   3.804   3.093   6.397  0.2685  0.7219 -0.8795
 7700SOL     OW34561   0.280   0.896   1.673 -0.0326  0.3050 -0.4857
 7700SOL    HW134562   0.226   0.963   1.632  1.3279 -0.7317 -3.9572
 7700SOL    HW234563   0.286   0.825   1.609 -1.0808 -0.8823  0.7171
 7701SOL     OW34564   1.647   2.390   9.747  0.1246  0.7128  0.2202
 7701SOL    HW134565   1.706   2.346   9.809  2.3997  0.1000 -2.3750
 7701SOL    HW234566   1.703   2.397   9.669  1.5572 -1.5254  1.0308
 7702SOL     OW34567   1.529   1.024   0.982 -0.3304 -0.5141  0.1298
 7702SOL    HW134568   1.531   0.932   1.005  0.7779  0.1411  2.6108
 7702SOL    HW234569   1.622   1.045   0.973 -0.3910 -0.1279  0.3898
 7703SOL     OW34570   2.025   1.990  13.404 -0.1909 -0.0747  0.8228
 7703SOL    HW134571   2.074   2.037  13.337 -0.3926  1.1415  1.5427
 7703SOL    HW234572   1.965   1.942  13.346 -0.4130  0.4192  0.6463
 7704SOL     OW34573   1.661   2.539   0.244  0.2069  0.0038 -0.0830
 7704SOL    HW134574   1.596   2.540   0.315  0.0810 -0.2236 -0.1935
 7704SOL    HW234575   1.612   2.585   0.177 -1.3857  1.7472  2.2672
 7705SOL     OW34576   2.774   4.347   3.473  0.1241 -0.2029  0.2063
 7705SOL    HW134577   2.798   4.398   3.550 -3.0676  1.7898 -0.1244
 7705SOL    HW234578   2.785   4.415   3.406 -1.4421 -1.6840 -1.5470
 7706SOL     OW34579   0.721   2.806   1.113  0.7546 -0.1576 -0.3571
 7706SOL    HW134580   0.648   2.756   1.148  0.9996 -0.9715 -0.9879
 7706SOL    HW234581   0.739   2.868   1.184  1.7448 -1.8387  0.8494
 7707SOL     OW34582   2.203   0.541   2.842  0.4279  0.3356  0.2136
 7707SOL    HW134583   2.216   0.448   2.824 -1.4950 -0.0253  0.7071
 7707SOL    HW234584   2.123   0.556   2.892 -1.0835 -1.8929 -1.5138
 7708SOL     OW34585   2.203   3.603  10.055 -0.3559 -0.0238  0.7859
 7708SOL    HW134586   2.289   3.619  10.096 -1.2388  1.4804  2.0403
 7708SOL    HW234587   2.149   3.631  10.128 -1.0129  2.0956 -0.5257
 7709SOL     OW34588   0.050   2.472   6.363  0.6200  0.3045 -0.5550
 7709SOL    HW134589   4.699   2.411   6.359  0.0667  0.7602  2.3664
 7709SOL    HW234590   0.033   2.496   6.454  0.4357 -0.0918 -0.4852
 7710SOL     OW34591   2.439   2.082   3.270 -0.3753  0.1794 -0.0716
 7710SOL    HW134592   2.375   2.152   3.258  0.1658  0.8711  1.0846
 7710SOL    HW234593   2.498   2.097   3.196  1.1263 -0.9511  0.8866
 7711SOL     OW34594   2.167   3.534   5.352 -0.2297  0.4118  0.6677
 7711SOL    HW134595   2.112   3.610   5.370 -0.6379 -0.1284  1.7124
 7711SOL    HW234596   2.187   3.536   5.259  1.7650  1.3042  1.1083
 7712SOL     OW34597   0.918   4.359   5.424 -0.4581 -0.0782 -0.2969
 7712SOL    HW134598   0.956   4.426   5.366 -2.0441  0.5485 -0.6135
 7712SOL    HW234599   0.844   4.336   5.368 -1.0131 -0.4301  0.5804
 7713SOL     OW34600   3.993   1.128  10.072  0.4841 -0.1607 -0.2863
 7713SOL    HW134601   3.981   1.110  10.166  0.6959 -1.6642 -0.5505
 7713SOL    HW234602   3.916   1.083  10.037  0.4044 -0.4791  0.2858
 7714SOL     OW34603   4.367   1.338   9.346 -0.5223 -0.4607 -0.0074
 7714SOL    HW134604   4.282   1.345   9.305 -0.3960  1.6214  0.0504
 7714SOL    HW234605   4.427   1.375   9.281  0.9158 -1.8987  0.4874
 7715SOL     OW34606   3.776   0.397   1.601  0.1122 -0.2503 -0.0468
 7715SOL    HW134607   3.826   0.414   1.522 -0.9651  2.6540 -0.0937
 7715SOL    HW234608   3.846   0.359   1.655  0.7559  2.1182  0.7992
 7716SOL     OW34609   2.881   3.346  16.912 -0.6960 -0.0787  0.2009
 7716SOL    HW134610   2.916   3.385  16.832 -2.5809 -0.8615 -1.0294
 7716SOL    HW234611   2.921   3.260  16.925 -0.2556  0.7160  3.8707
 7717SOL     OW34612   3.174   0.314   0.818 -0.0019  0.1563 -0.3302
 7717SOL    HW134613   3.090   0.302   0.774 -1.1247  0.2603  1.7919
 7717SOL    HW234614   3.164   0.269   0.902  1.3390  2.5239  1.1206
 7718SOL     OW34615   0.243   1.675  11.870 -0.4576 -0.8395  0.4209
 7718SOL    HW134616   0.288   1.748  11.913  0.1654 -0.5451 -0.7331
 7718SOL    HW234617   0.293   1.598  11.896 -1.2039 -0.8914  1.7434
 7719SOL     OW34618   0.250   0.190   6.991  0.0922  0.2571  0.0659
 7719SOL    HW134619   0.192   0.250   6.944 -0.0588  1.6370  2.0267
 7719SOL    HW234620   0.231   0.107   6.947 -0.0835  1.0446 -1.3559
 7720SOL     OW34621   0.475   1.125   6.659 -0.5261 -0.3178 -0.1214
 7720SOL    HW134622   0.396   1.166   6.625 -0.8843  0.7084  1.9794
 7720SOL    HW234623   0.544   1.189   6.644 -0.4102 -0.6262 -0.9399
 7721SOL     OW34624   1.980   3.877   7.331  0.1498  0.1684  0.6775
 7721SOL    HW134625   1.969   3.811   7.399  2.8534  0.4950  1.4608
 7721SOL    HW234626   2.031   3.943   7.379 -1.0892  1.2198  0.5477
 7722SOL     OW34627   3.261   0.675   0.258  0.1200  0.2141  0.0280
 7722SOL    HW134628   3.279   0.701   0.348 -1.4363 -0.8782  0.6509
 7722SOL    HW234629   3.348   0.694   0.222  0.1185 -1.2054 -0.6944
 7723SOL     OW34630   0.659   0.299  17.155  0.0417  0.3445 -0.5079
 7723SOL    HW134631   0.683   0.330  17.068 -1.0732  1.0097 -0.5858
 7723SOL    HW234632   0.740   0.268  17.194  0.4199  0.7989 -0.9386
 7724SOL     OW34633   3.883   0.421   3.016 -0.2425 -0.0609 -0.7055
 7724SOL    HW134634   3.884   0.328   2.995  1.6472  0.0090 -0.8932
 7724SOL    HW234635   3.972   0.451   2.997 -0.2998  1.7857  1.8902
 7725SOL     OW34636   1.390   3.805   8.140 -0.3670 -0.3627  0.2904
 7725SOL    HW134637   1.342   3.884   8.115  1.1197  0.0417 -1.2995
 7725SOL    HW234638   1.401   3.819   8.234 -0.2368 -1.3134  0.4080
 7726SOL     OW34639   4.005   2.400   2.265  0.3835 -0.3849  0.6430
 7726SOL    HW134640   4.030   2.321   2.314 -0.2559  0.3426  2.1526
 7726SOL    HW234641   4.063   2.464   2.306  1.3386  0.5831 -2.2277
 7727SOL     OW34642   4.593   0.200   6.400  0.0054  0.1867 -0.1339
 7727SOL    HW134643   4.532   0.160   6.338  0.2336 -0.9835  0.3797
 7727SOL    HW234644   4.577   0.289   6.371  0.8804  1.8350  4.3397
 7728SOL     OW34645   1.577   4.274  13.262  0.0264  0.2549 -0.0502
 7728SOL    HW134646   1.500   4.330  13.279 -0.2982 -0.5768  1.2618
 7728SOL    HW234647   1.624   4.276  13.346  2.7347  1.2204 -1.5952
 7729SOL     OW34648   0.628   3.339  13.625  0.9543 -0.3360 -0.2710
 7729SOL    HW134649   0.668   3.387  13.552 -0.5927  0.7150 -0.4452
 7729SOL    HW234650   0.704   3.290  13.655  0.9140 -1.7318 -2.4388
 7730SOL     OW34651   2.261   1.341   2.907  0.4263 -0.0755 -0.0740
 7730SOL    HW134652   2.259   1.246   2.917  0.1714  0.0670  1.2879
 7730SOL    HW234653   2.356   1.349   2.903  0.6458 -1.8243  1.6767
 7731SOL     OW34654   3.195   4.392   2.413  0.1122 -0.1472  0.3767
 7731SOL    HW134655   3.177   4.328   2.482 -0.0731 -0.1021  0.3717
 7731SOL    HW234656   3.102   4.411   2.400  0.2669  0.7137  0.5830
 7732SOL     OW34657   0.677   4.584   0.741  0.0618 -0.5726  0.3430
 7732SOL    HW134658   0.597   4.576   0.689  1.3111  0.0956 -1.7206
 7732SOL    HW234659   0.742   4.571   0.671 -2.0651 -0.2304 -1.6874
 7733SOL     OW34660   3.146   1.767   5.775 -0.1233 -0.0361 -0.1596
 7733SOL    HW134661   3.085   1.700   5.805 -0.2274  0.1567  0.0587
 7733SOL    HW234662   3.088   1.841   5.758  0.7094  0.5147 -0.6405
 7734SOL     OW34663   1.880   1.184   3.801 -0.7162 -0.0284 -0.1443
 7734SOL    HW134664   1.801   1.174   3.853 -0.7728  4.0881  0.5893
 7734SOL    HW234665   1.939   1.118   3.837 -0.9074 -1.2892 -2.1472
 7735SOL     OW34666   3.910   3.602   6.764 -0.2675  0.2944  0.0980
 7735SOL    HW134667   3.831   3.643   6.729  1.4958  1.9097 -2.0021
 7735SOL    HW234668   3.970   3.676   6.750  0.6321 -0.6342 -0.8738
 7736SOL     OW34669   2.176   0.740   4.657 -0.6509 -0.4636  0.4764
 7736SOL    HW134670   2.109   0.808   4.655 -2.3583 -2.1519 -0.0351
 7736SOL    HW234671   2.225   0.759   4.577 -0.4594  0.2015  0.7490
 7737SOL     OW34672   2.784   3.567   0.690 -0.1129 -0.1087 -0.4825
 7737SOL    HW134673   2.712   3.589   0.750  0.6040 -0.1318  0.3879
 7737SOL    HW234674   2.843   3.537   0.760  0.2106  0.5059 -0.4967
 7738SOL     OW34675   3.447   3.700   4.481 -0.3398 -0.5557  0.3017
 7738SOL    HW134676   3.506   3.766   4.444 -0.7128 -1.2569 -1.5447
 7738SOL    HW234677   3.365   3.712   4.433  1.6452  0.0199 -2.9319
 7739SOL     OW34678   2.404   0.253   5.440  0.5260  0.0167  0.2052
 7739SOL    HW134679   2.461   0.222   5.510 -0.0118 -0.2494  0.5270
 7739SOL    HW234680   2.355   0.314   5.494 -1.4108 -2.4315  1.2280
 7740SOL     OW34681   0.552   3.623  10.075 -0.1469  0.3461 -0.7162
 7740SOL    HW134682   0.584   3.627  10.165 -1.2652 -3.0665 -0.1687
 7740SOL    HW234683   0.600   3.551  10.036 -0.8693 -1.7912  2.3496
 7741SOL     OW34684   1.137   2.261   5.223 -0.2484  0.1354 -0.5190
 7741SOL    HW134685   1.139   2.333   5.160 -3.4804  0.6975  0.0299
 7741SOL    HW234686   1.228   2.232   5.219 -0.2144 -0.0793  2.0593
 7742SOL     OW34687   0.816   2.616   5.840  0.8007 -0.2994 -0.3748
 7742SOL    HW134688   0.884   2.617   5.907  0.3616 -1.4327  0.0981
 7742SOL    HW234689   0.856   2.573   5.765  0.6832  0.2184 -0.7357
 7743SOL     OW34690   4.192   3.759  14.811  0.2813 -0.4325 -0.2118
 7743SOL    HW134691   4.188   3.838  14.757 -0.2285 -0.4027 -0.1233
 7743SOL    HW234692   4.104   3.724  14.818  0.4810 -0.5292  1.9748
 7744SOL     OW34693   3.846   3.487   1.437  0.2864  0.4996  0.4382
 7744SOL    HW134694   3.919   3.546   1.453  3.4041 -3.2897  0.3140
 7744SOL    HW234695   3.822   3.464   1.526  0.4109 -0.0778  0.3261
 7745SOL     OW34696   3.829   2.834   8.402 -0.0092  0.3743 -0.0884
 7745SOL    HW134697   3.826   2.902   8.468  1.7233 -0.7845  1.1818
 7745SOL    HW234698   3.812   2.760   8.460 -0.2215  1.1103  0.7857
 7746SOL     OW34699   2.969   4.513   5.440  0.3505 -0.2674 -0.1637
 7746SOL    HW134700   3.018   4.526   5.521  1.8935 -1.9670 -0.8405
 7746SOL    HW234701   2.913   4.441   5.470 -0.2996 -0.0617 -0.8770
 7747SOL     OW34702   4.406   4.066   3.224  0.3081  0.2054 -0.6640
 7747SOL    HW134703   4.487   4.105   3.256 -0.4622  0.0771  1.3986
 7747SOL    HW234704   4.394   4.118   3.144 -0.0009  0.6375 -0.3292
 7748SOL     OW34705   3.522   2.331   5.593  0.9480  0.7275  0.2619
 7748SOL    HW134706   3.451   2.395   5.590 -1.2818 -1.8796 -4.4958
 7748SOL    HW234707   3.468   2.252   5.584  3.0511 -0.6443 -0.2649
 7749SOL     OW34708   3.010   4.550   8.876  0.4040  0.1792  0.1615
 7749SOL    HW134709   3.076   4.485   8.899 -0.8888 -0.6317  1.5948
 7749SOL    HW234710   2.931   4.511   8.914  0.7533  1.3406  2.0662
 7750SOL     OW34711   2.405   3.184  15.112 -0.3641  0.1358 -0.1768
 7750SOL    HW134712   2.405   3.270  15.072 -0.0309  0.5034  0.6237
 7750SOL    HW234713   2.358   3.129  15.048 -0.5407 -1.2133  1.0996
 7751SOL     OW34714   0.301   3.421   9.709  0.4613  0.1370  0.7053
 7751SOL    HW134715   0.342   3.480   9.646  2.3210 -0.8958  0.9426
 7751SOL    HW234716   0.380   3.376   9.740  1.1657 -1.5507 -3.5553
 7752SOL     OW34717   1.368   3.521   8.997  0.1782  0.0437 -0.1611
 7752SOL    HW134718   1.321   3.439   8.982  1.3322 -0.6184 -0.1457
 7752SOL    HW234719   1.315   3.566   9.062 -1.8725 -1.4280 -0.8326
 7753SOL     OW34720   4.443   1.777   3.785  0.5767 -0.2736 -0.0770
 7753SOL    HW134721   4.469   1.710   3.722 -1.6150 -0.3846 -0.8677
 7753SOL    HW234722   4.404   1.729   3.858 -0.4763  2.2070  1.0076
 7754SOL     OW34723   3.256   3.757  11.612  0.5515  0.1285 -0.1714
 7754SOL    HW134724   3.351   3.765  11.615  0.5143  0.2583  0.8486
 7754SOL    HW234725   3.220   3.846  11.620 -0.0254 -0.2467  1.3362
 7755SOL     OW34726   3.278   1.290   8.671 -0.6367 -0.3274  0.1440
 7755SOL    HW134727   3.245   1.294   8.582  1.1286  0.0642 -0.4790
 7755SOL    HW234728   3.222   1.228   8.718  0.4101 -2.2795 -1.2412
 7756SOL     OW34729   3.716   1.361   2.979  0.5945 -0.0776  0.0636
 7756SOL    HW134730   3.703   1.292   2.915 -0.7774  0.8157 -0.6206
 7756SOL    HW234731   3.641   1.355   3.038  0.4654 -1.2878 -0.2299
 7757SOL     OW34732   4.406   0.727   5.758 -0.1362  0.0102  0.5432
 7757SOL    HW134733   4.501   0.719   5.768 -0.1958 -0.7258  0.5333
 7757SOL    HW234734   4.399   0.822   5.770 -1.5066 -0.2472  1.7434
 7758SOL     OW34735   3.950   1.538  10.267  0.4672 -0.1223 -0.2926
 7758SOL    HW134736   4.023   1.570  10.320 -1.2265 -0.3051  2.1785
 7758SOL    HW234737   3.892   1.614  10.279 -0.4235 -1.1141  1.6711
 7759SOL     OW34738   2.201   3.926   3.892 -0.7461 -0.6026 -0.1146
 7759SOL    HW134739   2.272   3.964   3.839  0.1860 -0.9001  0.9073
 7759SOL    HW234740   2.123   3.969   3.859  0.2716  1.5602  0.2730
 7760SOL     OW34741   1.751   2.629   1.445  0.1500 -0.4093 -0.2669
 7760SOL    HW134742   1.699   2.572   1.503  1.4195 -3.2246 -1.8865
 7760SOL    HW234743   1.736   2.603   1.354 -0.6936 -1.6583  0.2344
 7761SOL     OW34744   1.099   4.214   5.564  0.2096  0.2599  0.0977
 7761SOL    HW134745   1.035   4.255   5.506 -0.9407 -3.2542 -1.1315
 7761SOL    HW234746   1.052   4.213   5.648 -1.6327  0.3714 -0.9429
 7762SOL     OW34747   4.364   4.489   3.771 -0.3211  0.2443  0.5580
 7762SOL    HW134748   4.324   4.407   3.797  0.9922 -0.1316  1.4166
 7762SOL    HW234749   4.373   4.474   3.677 -1.0364 -0.3879  0.5954
 7763SOL     OW34750   1.977   0.044   3.748 -0.1656 -0.4894  0.1167
 7763SOL    HW134751   2.049   0.085   3.700 -1.7038  1.0697 -0.8751
 7763SOL    HW234752   1.953   4.719   3.668 -0.5522 -1.4735  0.8351
 7764SOL     OW34753   0.347   1.881   2.342 -0.5647  0.8093 -0.1825
 7764SOL    HW134754   0.431   1.844   2.315  0.6318  2.2366  1.6258
 7764SOL    HW234755   0.348   1.883   2.438 -2.7100 -1.2483 -0.1184
 7765SOL     OW34756   3.681   1.000   3.219 -0.2721 -0.1799 -0.7556
 7765SOL    HW134757   3.767   1.000   3.261 -0.0075 -0.4697 -1.3037
 7765SOL    HW234758   3.697   0.932   3.153  3.3178  0.5619 -0.6403
 7766SOL     OW34759   0.812   3.621  14.270 -0.3389  0.6400  0.0185
 7766SOL    HW134760   0.811   3.650  14.179 -1.2372 -0.5329 -0.3447
 7766SOL    HW234761   0.876   3.680  14.309 -0.6721  1.2788 -0.4017
 7767SOL     OW34762   0.561   3.402   4.632  0.0342  0.2820  0.2366
 7767SOL    HW134763   0.523   3.480   4.671  0.1304  0.4114  0.0753
 7767SOL    HW234764   0.537   3.332   4.692 -2.0966  0.1352 -0.7827
 7768SOL     OW34765   4.326   0.853   7.260 -0.5512 -0.3639 -0.1709
 7768SOL    HW134766   4.286   0.776   7.300 -1.2503 -0.8107 -1.7316
 7768SOL    HW234767   4.414   0.816   7.263 -0.4308 -0.0576  0.1326
 7769SOL     OW34768   2.944   4.396  17.362  0.4299  0.0362  0.0227
 7769SOL    HW134769   3.038   4.383  17.349  0.6921  1.2218  0.7820
 7769SOL    HW234770   2.904   4.351  17.287 -1.3932  1.5755  0.0867
 7770SOL     OW34771   1.697   0.872   2.163  0.5740 -0.2452  0.5245
 7770SOL    HW134772   1.614   0.894   2.205  0.2064  0.7300 -0.7218
 7770SOL    HW234773   1.764   0.890   2.229 -0.8190 -0.9622  2.1161
 7771SOL     OW34774   0.555   0.610   0.724 -0.4683 -0.1154  0.6892
 7771SOL    HW134775   0.638   0.573   0.752  0.2974  1.0179 -0.0988
 7771SOL    HW234776   0.582   0.702   0.726  1.1611 -0.5706 -0.7845
 7772SOL     OW34777   4.588   4.485   8.429 -0.2559  0.0931  0.3577
 7772SOL    HW134778   4.523   4.491   8.359  1.8033 -0.8680 -1.6177
 7772SOL    HW234779   4.663   4.447   8.384  0.6389 -1.0998  2.8694
 7773SOL     OW34780   3.157   1.066   5.997 -0.2016 -0.2824  0.1314
 7773SOL    HW134781   3.137   1.076   5.904 -1.3772 -0.8377  0.3158
 7773SOL    HW234782   3.075   1.091   6.039 -0.5033  3.0790 -2.3989
 7774SOL     OW34783   2.524   3.775  12.395 -0.6799  0.1242 -0.1118
 7774SOL    HW134784   2.488   3.797  12.308  1.2835 -0.0186 -0.9613
 7774SOL    HW234785   2.612   3.810  12.387 -0.9449  0.9172  0.4851
 7775SOL     OW34786   0.948   0.915  11.006 -0.0159 -0.0439 -0.5593
 7775SOL    HW134787   0.910   0.966  10.935 -0.5251  1.4295  0.7728
 7775SOL    HW234788   0.870   0.909  11.062 -0.5129  2.4336 -0.9770
 7776SOL     OW34789   4.327   3.124   6.319 -0.1085 -0.1645 -0.0389
 7776SOL    HW134790   4.237   3.092   6.315 -0.3551  0.3513  1.3104
 7776SOL    HW234791   4.307   3.203   6.370 -1.9464 -1.8102  1.7596
 7777SOL     OW34792   0.757   3.893   5.080 -0.4457 -0.1311 -0.2958
 7777SOL    HW134793   0.783   3.875   4.990 -0.1509 -0.1825 -0.2029
 7777SOL    HW234794   0.845   3.907   5.116 -0.9248 -0.9770  1.1918
 7778SOL     OW34795   3.087   3.876   2.547  0.1231 -0.0824 -0.5644
 7778SOL    HW134796   3.170   3.834   2.571  0.2202 -0.0578 -0.8673
 7778SOL    HW234797   3.077   3.945   2.613 -0.0385  1.7620 -2.5232
 7779SOL     OW34798   1.945   4.604   4.574 -0.5223  0.1091 -0.7839
 7779SOL    HW134799   1.882   4.578   4.507 -0.6987  2.6116 -1.5555
 7779SOL    HW234800   1.885   4.645   4.636  0.7281  1.4335 -0.4662
 7780SOL     OW34801   1.673   1.697   8.550 -0.2142  0.1351  0.1550
 7780SOL    HW134802   1.602   1.722   8.491 -0.3191  2.5102  1.2984
 7780SOL    HW234803   1.618   1.683   8.627  2.3055  1.1412  2.1475
 7781SOL     OW34804   2.505   1.686  15.200  0.5320 -0.2295  0.1667
 7781SOL    HW134805   2.469   1.744  15.267 -0.5311  0.6539 -1.1613
 7781SOL    HW234806   2.554   1.748  15.146  3.0917 -1.8414  0.6494
 7782SOL     OW34807   1.442   0.728   0.581  0.0860  0.0409  0.5826
 7782SOL    HW134808   1.458   0.678   0.661  1.0685 -0.0806  0.3091
 7782SOL    HW234809   1.346   0.731   0.574  0.1871 -1.4285 -1.2735
 7783SOL     OW34810   0.542   0.626   6.538 -0.1371 -0.2396  0.1361
 7783SOL    HW134811   0.529   0.720   6.551  0.7059 -0.0294 -0.5012
 7783SOL    HW234812   0.467   0.586   6.581 -0.5238  1.4283  1.0187
 7784SOL     OW34813   3.381   1.078   1.299  0.0605  0.5415  0.4164
 7784SOL    HW134814   3.341   1.082   1.386 -1.5071 -0.2686 -0.2758
 7784SOL    HW234815   3.317   1.132   1.254 -0.4775 -0.1903  0.3065
 7785SOL     OW34816   0.536   1.658  11.714  0.4291  0.6344 -0.5715
 7785SOL    HW134817   0.558   1.688  11.802 -0.4367  0.4489 -0.2898
 7785SOL    HW234818   0.459   1.604  11.733  0.1310  1.7174  1.2422
 7786SOL     OW34819   1.133   0.062   5.216  0.5228 -1.1438  0.2102
 7786SOL    HW134820   1.188   0.070   5.294  0.9428  0.1796 -0.2239
 7786SOL    HW234821   1.139   0.150   5.179 -2.2276 -0.1819  2.0242
 7787SOL     OW34822   0.682   3.567   3.199  0.2092 -0.2613  0.3348
 7787SOL    HW134823   0.756   3.625   3.215  0.8104 -0.5170 -1.5522
 7787SOL    HW234824   0.634   3.585   3.280  1.5616 -0.1737  1.1092
 7788SOL     OW34825   0.740   3.051   9.811  0.4682  0.4050 -0.6188
 7788SOL    HW134826   0.831   3.073   9.795 -0.2199  2.1994 -2.0932
 7788SOL    HW234827   0.732   3.080   9.903  0.9881  1.6015 -0.9470
 7789SOL     OW34828   1.625   2.084   9.220 -0.2246  0.5267 -0.9626
 7789SOL    HW134829   1.669   2.165   9.247  1.3097 -0.6490  0.0191
 7789SOL    HW234830   1.573   2.065   9.299  0.1036  0.5359 -0.7441
 7790SOL     OW34831   1.767   0.195   2.425  0.8576  0.2735  0.5455
 7790SOL    HW134832   1.715   0.229   2.498  0.1755  0.5956 -0.0878
 7790SOL    HW234833   1.850   0.203   2.472  1.8233  0.1566 -1.1859
 7791SOL     OW34834   4.045   3.407  16.970  0.1156 -0.6727 -0.3769
 7791SOL    HW134835   3.998   3.442  16.894  2.0090  0.6164 -0.9632
 7791SOL    HW234836   4.004   3.453  17.043 -1.8620 -1.4626 -0.9908
 7792SOL     OW34837   2.575   1.769   7.520  0.4946  0.0152  0.1158
 7792SOL    HW134838   2.664   1.803   7.530  0.7110 -0.2811 -0.8227
 7792SOL    HW234839   2.523   1.813   7.588  0.7085 -0.6161  0.6950
 7793SOL     OW34840   3.872   0.160   2.445  0.1437  0.3699  0.3832
 7793SOL    HW134841   3.856   0.113   2.526  1.2760 -0.4658  0.1183
 7793SOL    HW234842   3.961   0.140   2.417  0.3837 -0.1901  1.5461
 7794SOL     OW34843   1.663   1.593  10.044 -0.3033 -0.0042  0.0400
 7794SOL    HW134844   1.646   1.538  10.121  1.4439 -1.6323 -0.7483
 7794SOL    HW234845   1.573   1.612  10.015 -0.3458  0.6292  0.5817
 7795SOL     OW34846   3.731   1.259   1.384  0.0122 -0.3582 -0.2906
 7795SOL    HW134847   3.760   1.173   1.352  1.0341 -0.5090  1.0305
 7795SOL    HW234848   3.725   1.244   1.478  0.5142  0.1139 -0.1833
 7796SOL     OW34849   4.373   1.447  10.126  0.2341 -0.1487  0.1307
 7796SOL    HW134850   4.397   1.539  10.119  0.5711 -0.1836  0.8316
 7796SOL    HW234851   4.296   1.440  10.070 -1.1497 -0.4168  2.0750
 7797SOL     OW34852   1.363   1.475   6.691  0.9212 -0.3925  0.7334
 7797SOL    HW134853   1.454   1.505   6.687 -0.3432  3.0973 -2.1771
 7797SOL    HW234854   1.382   1.387   6.722 -2.2723 -1.4400 -0.2917
 7798SOL     OW34855   1.839   0.516   4.947 -0.2951 -0.0467 -0.5039
 7798SOL    HW134856   1.920   0.473   4.918 -0.3431 -0.5442  0.0980
 7798SOL    HW234857   1.771   0.470   4.898  2.6209 -2.8119 -1.9839
 7799SOL     OW34858   1.329   0.061   6.858  0.4293 -0.0371  0.0487
 7799SOL    HW134859   1.421   0.068   6.883  0.7546  0.8018 -1.3753
 7799SOL    HW234860   1.283   0.132   6.903 -0.2137 -1.2865  1.3462
 7800SOL     OW34861   0.362   3.051   4.954 -0.0725 -0.2486  0.3796
 7800SOL    HW134862   0.354   2.996   5.032  1.1147 -1.4212 -0.3147
 7800SOL    HW234863   0.304   3.002   4.895 -0.6865 -0.1210  0.8821
 7801SOL     OW34864   3.992   2.074   6.334 -0.1821 -0.3208 -0.6032
 7801SOL    HW134865   4.031   2.145   6.385  2.2173 -2.9924  1.2540
 7801SOL    HW234866   3.980   2.009   6.404 -1.2575  0.6017  0.0839
 7802SOL     OW34867   0.905   4.452   6.486  0.6676  0.4217  0.0543
 7802SOL    HW134868   0.963   4.488   6.418  0.0305 -0.1718 -0.8141
 7802SOL    HW234869   0.962   4.399   6.542 -2.7149 -3.0604  0.2130
 7803SOL     OW34870   4.635   1.049   5.017 -0.1075 -0.2383  0.3408
 7803SOL    HW134871   0.008   1.045   5.015 -0.0577 -0.1517  2.7488
 7803SOL    HW234872   4.623   1.078   4.926  0.3182  0.5257  0.5180
 7804SOL     OW34873   3.821   0.080   5.938 -0.1690  0.5065  0.1010
 7804SOL    HW134874   3.733   0.069   5.974 -0.8378  1.5907 -1.2279
 7804SOL    HW234875   3.847   0.172   5.932  2.5245 -0.1123  1.9918
 7805SOL     OW34876   0.403   1.642  16.839  0.3696  0.0215 -0.0610
 7805SOL    HW134877   0.338   1.712  16.831 -0.0628 -0.4377 -0.5879
 7805SOL    HW234878   0.440   1.661  16.925  3.9395  0.3182 -1.6506
 7806SOL     OW34879   1.982   4.297   2.666 -0.3844 -0.0513 -0.5876
 7806SOL    HW134880   1.974   4.270   2.574 -2.2133  1.4044 -0.8543
 7806SOL    HW234881   2.013   4.387   2.654  0.3753 -0.1315  0.8106
 7807SOL     OW34882   2.947   2.458   2.449 -0.0590  0.1208 -0.0283
 7807SOL    HW134883   2.868   2.459   2.395 -0.4121  1.6926  0.5179
 7807SOL    HW234884   3.020   2.473   2.388 -1.3309  1.5382 -1.1976
 7808SOL     OW34885   4.125   0.888   0.885  0.1804 -0.1951 -0.5888
 7808SOL    HW134886   4.112   0.976   0.850  0.1106 -0.1099 -0.3487
 7808SOL    HW234887   4.063   0.838   0.832 -0.1159 -1.9474  1.3930
 7809SOL     OW34888   4.348   2.474   3.854  0.7495  0.3784  0.1923
 7809SOL    HW134889   4.379   2.553   3.809 -1.5150  1.9537  1.3942
 7809SOL    HW234890   4.266   2.453   3.810  1.1346 -1.7011  0.4499
 7810SOL     OW34891   4.140   0.186   2.998 -0.4235  0.4318  0.4539
 7810SOL    HW134892   4.174   0.271   2.969  0.0356  0.4545  1.0503
 7810SOL    HW234893   4.057   0.173   2.952 -1.1871 -0.8933  2.1990
 7811SOL     OW34894   2.379   1.983   3.514  0.0614  0.0763  0.7709
 7811SOL    HW134895   2.430   2.041   3.570  0.2573  1.9253 -1.3251
 7811SOL    HW234896   2.388   2.024   3.428  4.6286 -2.1956  0.1776
 7812SOL     OW34897   0.510   4.092   3.316 -0.5802 -0.2097  0.3335
 7812SOL    HW134898   0.505   4.031   3.390 -0.4746 -0.9940 -0.3030
 7812SOL    HW234899   0.581   4.055   3.263 -0.1644  2.7995 -1.1737
 7813SOL     OW34900   4.453   3.212  13.139 -0.7718 -0.0995  1.2069
 7813SOL    HW134901   4.490   3.225  13.052  1.2259 -0.0924  2.0594
 7813SOL    HW234902   4.394   3.288  13.141 -0.8861 -0.1930  1.3514
 7814SOL     OW34903   1.420   4.238   3.025 -0.1695  0.2671 -0.4189
 7814SOL    HW134904   1.461   4.221   2.940 -2.9280 -0.5625 -1.5799
 7814SOL    HW234905   1.451   4.327   3.037 -2.7828  0.7335  2.7701
 7815SOL     OW34906   2.860   3.236   4.548  0.6593 -0.3137  1.1848
 7815SOL    HW134907   2.813   3.313   4.581  2.4378  2.2671 -2.3179
 7815SOL    HW234908   2.843   3.177   4.621  0.8874  0.3256  1.7630
 7816SOL     OW34909   1.075   1.685  17.248 -0.0063  0.1611 -0.4706
 7816SOL    HW134910   1.168   1.663  17.259 -0.0524  0.0635 -0.2770
 7816SOL    HW234911   1.053   1.602  17.206  1.0873 -1.3866  2.0836
 7817SOL     OW34912   3.810   3.159   7.508 -0.1913 -0.1478 -0.4207
 7817SOL    HW134913   3.865   3.222   7.555 -0.4631 -0.9403  0.9480
 7817SOL    HW234914   3.881   3.103   7.475  0.5115 -1.3292  3.0418
 7818SOL     OW34915   1.169   2.865   3.562  0.3498  0.2008 -0.8212
 7818SOL    HW134916   1.109   2.877   3.636  1.1598 -0.2074 -0.0846
 7818SOL    HW234917   1.251   2.847   3.610  2.7793 -1.3098 -5.5106
 7819SOL     OW34918   2.429   1.891   7.173  0.6324 -0.3221 -0.6269
 7819SOL    HW134919   2.390   1.968   7.214  0.2797 -0.4225 -0.7710
 7819SOL    HW234920   2.437   1.927   7.085  0.8611  1.1497  0.0019
 7820SOL     OW34921   2.508   3.635   5.410  0.4387 -0.1359 -0.4058
 7820SOL    HW134922   2.456   3.627   5.331 -0.4385  1.3793  0.0100
 7820SOL    HW234923   2.599   3.643   5.380  1.3563  0.1173  2.3688
 7821SOL     OW34924   0.593   2.880  12.570  0.5736 -0.4227 -0.5624
 7821SOL    HW134925   0.571   2.905  12.480 -0.2856 -2.3741 -0.8952
 7821SOL    HW234926   0.685   2.855  12.561  0.2324 -1.8258 -0.1234
 7822SOL     OW34927   4.467   1.498   1.905  0.0428  0.7639 -0.4936
 7822SOL    HW134928   4.431   1.566   1.962 -1.2225 -0.3368 -0.0018
 7822SOL    HW234929   4.509   1.537   1.828  0.2625  3.8914  1.2310
 7823SOL     OW34930   2.934   4.668   2.456  0.4976 -0.3648  0.2978
 7823SOL    HW134931   2.965   4.686   2.367 -0.7559 -2.7306 -0.6170
 7823SOL    HW234932   2.925   4.573   2.461 -1.6467 -0.0672  2.3940
 7824SOL     OW34933   1.595   2.253   6.291 -0.0984  0.4655  0.1734
 7824SOL    HW134934   1.676   2.285   6.331 -0.1552  0.7024  0.0971
 7824SOL    HW234935   1.601   2.285   6.201 -0.7299  0.0890 -0.0013
 7825SOL     OW34936   0.251   2.588  13.306  0.6532 -0.5716 -0.1436
 7825SOL    HW134937   0.278   2.524  13.241 -0.8812 -2.6344  1.2408
 7825SOL    HW234938   0.259   2.674  13.265  1.5310 -0.0717  1.0471
 7826SOL     OW34939   2.553   0.665   4.890 -0.8598  0.1446 -0.5527
 7826SOL    HW134940   2.638   0.709   4.897 -0.9174  0.1532  0.0698
 7826SOL    HW234941   2.539   0.644   4.797 -1.1914 -0.6543 -0.3291
 7827SOL     OW34942   1.289   2.077  13.073 -0.2767  0.2471 -0.2176
 7827SOL    HW134943   1.319   2.098  12.984  0.6047 -1.4895 -0.3514
 7827SOL    HW234944   1.372   2.080  13.120 -0.5350  0.7329  0.2019
 7828SOL     OW34945   4.086   1.150  17.490  0.2805 -0.6188  0.8586
 7828SOL    HW134946   4.021   1.136  17.560 -0.5566 -0.2914  0.1512
 7828SOL    HW234947   4.138   1.208  17.545  1.2538 -0.4318 -0.2559
 7829SOL     OW34948   3.414   3.870   9.821 -0.1774  0.5106  0.1278
 7829SOL    HW134949   3.395   3.858   9.914 -2.3045  0.1541 -0.3420
 7829SOL    HW234950   3.451   3.958   9.820  0.9061  0.0233 -2.2088
 7830SOL     OW34951   2.559   2.045   4.103 -0.3245 -0.0498  0.0805
 7830SOL    HW134952   2.591   1.964   4.065 -0.1396 -0.3407  0.8494
 7830SOL    HW234953   2.469   2.023   4.127 -1.3989  4.5171  0.3930
 7831SOL     OW34954   1.671   0.869   6.873 -0.0125 -0.2633 -0.7511
 7831SOL    HW134955   1.605   0.938   6.883 -0.1714 -0.3490 -1.2310
 7831SOL    HW234956   1.622   0.801   6.920  0.1842  0.4450  0.4955
 7832SOL     OW34957   2.889   4.075   4.194 -0.0052 -0.7188  0.5349
 7832SOL    HW134958   2.958   4.038   4.139 -1.2978 -0.4923 -1.2161
 7832SOL    HW234959   2.942   4.141   4.240 -2.0698  1.5417 -0.3327
 7833SOL     OW34960   3.680   2.769   6.099 -0.6927  0.5336  0.4267
 7833SOL    HW134961   3.654   2.724   6.018  0.8339  3.4370 -1.6857
 7833SOL    HW234962   3.673   2.859   6.065 -0.0835  1.4659  2.8022
 7834SOL     OW34963   0.677   3.184  12.171 -0.6009 -0.6275  0.4196
 7834SOL    HW134964   0.699   3.091  12.181 -1.0082 -0.8370 -0.6967
 7834SOL    HW234965   0.582   3.184  12.166 -0.5794 -0.3141  0.0841
 7835SOL     OW34966   3.370   1.419  15.216  0.6092 -0.4825  0.2537
 7835SOL    HW134967   3.370   1.326  15.195 -0.5796 -0.2486 -0.7536
 7835SOL    HW234968   3.460   1.445  15.196 -0.3876  3.5050  0.7915
 7836SOL     OW34969   0.379   2.647  13.581 -0.4973 -0.2927 -0.4519
 7836SOL    HW134970   0.465   2.623  13.545 -0.6490  0.5034 -1.3346
 7836SOL    HW234971   0.333   2.639  13.497  1.9830  1.1826 -1.9427
 7837SOL     OW34972   3.723   1.599   3.181  0.4458  0.0261  0.3066
 7837SOL    HW134973   3.756   1.519   3.140  1.3092 -0.3834  1.8019
 7837SOL    HW234974   3.660   1.565   3.245 -0.9398  0.4682 -0.8196
 7838SOL     OW34975   0.881   2.894   4.281  0.4797 -0.4391 -0.7105
 7838SOL    HW134976   0.892   2.951   4.204 -1.9547  0.4705 -0.3772
 7838SOL    HW234977   0.804   2.842   4.261  0.3413 -0.1423 -0.9621
 7839SOL     OW34978   2.877   3.260   1.234  0.2152  0.1833 -0.1917
 7839SOL    HW134979   2.959   3.220   1.263 -0.2664  0.4899  1.6007
 7839SOL    HW234980   2.833   3.192   1.184  1.3935 -0.2566 -0.6408
 7840SOL     OW34981   4.020   4.405   8.875 -0.2973 -0.0705  0.6391
 7840SOL    HW134982   4.011   4.318   8.836 -1.2042  0.4384 -0.2849
 7840SOL    HW234983   4.113   4.410   8.898 -0.9077  1.4063  2.7947
 7841SOL     OW34984   2.034   4.276   7.074  0.0482  0.1959  0.2549
 7841SOL    HW134985   2.086   4.278   6.994  1.8338  0.2465  1.4136
 7841SOL    HW234986   2.083   4.345   7.119  1.4646 -1.6906  1.5944
 7842SOL     OW34987   3.397   2.709   7.139  0.0605 -0.3337 -0.2979
 7842SOL    HW134988   3.350   2.732   7.219  0.5134 -1.0314  0.1564
 7842SOL    HW234989   3.339   2.761   7.083  0.1208 -1.0064 -0.9916
 7843SOL     OW34990   2.639   1.328  12.523  0.4410 -0.4309 -0.0467
 7843SOL    HW134991   2.662   1.247  12.477 -0.0810 -0.9300  0.5670
 7843SOL    HW234992   2.589   1.298  12.599  0.7775  2.1852  1.1972
 7844SOL     OW34993   4.178   0.809   9.719 -0.1758 -0.0034 -0.3639
 7844SOL    HW134994   4.231   0.734   9.745 -0.5786  0.5131  1.9059
 7844SOL    HW234995   4.248   0.870   9.695 -0.1344  0.3695  0.7207
 7845SOL     OW34996   1.795   1.277   2.995  0.2250 -0.5118  0.2405
 7845SOL    HW134997   1.861   1.305   2.932  0.8157 -2.8947 -0.2133
 7845SOL    HW234998   1.849   1.289   3.073  0.5792  0.8429 -0.2208
 7846SOL     OW34999   2.295   2.352   3.892  0.2331  0.3258 -0.8055
 7846SOL    HW135000   2.371   2.340   3.949 -1.2781 -1.3800  0.8347
 7846SOL    HW235001   2.322   2.409   3.820 -0.3983  0.8064 -0.6632
 7847SOL     OW35002   2.358   4.156  12.720  0.4849  0.6118  0.7089
 7847SOL    HW135003   2.300   4.187  12.651 -0.9095 -0.4915  1.3936
 7847SOL    HW235004   2.304   4.130  12.795  0.1921 -0.9236 -0.0222
 7848SOL     OW35005   0.095   0.891   8.547  0.3701  0.0973  0.4892
 7848SOL    HW135006   0.100   0.798   8.570 -0.7091 -0.0804 -0.0230
 7848SOL    HW235007   0.180   0.925   8.575  0.5789 -2.0432  2.5274
 7849SOL     OW35008   0.699   3.825   7.573  0.6677 -0.5849  0.5200
 7849SOL    HW135009   0.719   3.832   7.667 -0.2638  1.4731  0.5539
 7849SOL    HW235010   0.677   3.732   7.561  0.1211 -0.3769 -0.0658
 7850SOL     OW35011   3.648   1.502  13.137  0.1286  0.0551 -0.0445
 7850SOL    HW135012   3.584   1.438  13.106  1.5447 -1.8143  0.8683
 7850SOL    HW235013   3.720   1.489  13.076  0.6005 -0.5318  0.6311
 7851SOL     OW35014   3.040   2.452   4.726 -0.3758 -0.4678 -0.8189
 7851SOL    HW135015   3.018   2.511   4.654  1.0857 -1.1335 -1.7976
 7851SOL    HW235016   3.113   2.504   4.760 -0.9937 -0.4546  0.5268
 7852SOL     OW35017   3.506   3.456   7.120 -0.2975 -0.1980 -0.0025
 7852SOL    HW135018   3.518   3.551   7.120  0.5469 -0.3035  0.1241
 7852SOL    HW235019   3.569   3.421   7.056 -1.8211  0.2172 -1.7294
 7853SOL     OW35020   0.356   1.528   7.663  0.2564 -0.0422 -0.2422
 7853SOL    HW135021   0.415   1.565   7.729  3.0197  0.6451 -3.0513
 7853SOL    HW235022   0.306   1.608   7.646  0.2257 -0.6584 -3.1132
 7854SOL     OW35023   2.231   4.205  14.991  0.3632 -0.1326 -0.3299
 7854SOL    HW135024   2.247   4.254  15.072  1.7825 -0.9822 -0.0901
 7854SOL    HW235025   2.316   4.186  14.951  0.6893  1.8636 -0.5500
 7855SOL     OW35026   0.972   1.394   4.783  1.4749  0.7336 -0.0242
 7855SOL    HW135027   0.982   1.332   4.711  0.1493  0.1308  0.3142
 7855SOL    HW235028   0.958   1.336   4.858  0.8746  0.0675 -0.6595
 7856SOL     OW35029   3.496   1.471   8.204 -0.7090 -0.1282 -0.6827
 7856SOL    HW135030   3.500   1.384   8.244  0.9341  0.0194 -0.4947
 7856SOL    HW235031   3.429   1.454   8.137  0.6074 -0.6093 -1.8971
 7857SOL     OW35032   3.575   0.396   8.548 -0.4234 -0.2165  0.5332
 7857SOL    HW135033   3.514   0.470   8.556  1.5244  1.6931 -2.1263
 7857SOL    HW235034   3.612   0.388   8.635 -0.3584 -1.9012  0.3482
 7858SOL     OW35035   2.521   3.531   4.775  0.2048  0.3696  0.7578
 7858SOL    HW135036   2.588   3.570   4.832  2.2688 -1.0472 -0.6902
 7858SOL    HW235037   2.469   3.604   4.743  1.2740  0.2263 -1.2863
 7859SOL     OW35038   4.495   1.027   4.740 -0.7674 -0.0066  0.3652
 7859SOL    HW135039   4.454   1.007   4.824 -1.4786 -2.9695 -0.6962
 7859SOL    HW235040   4.458   0.958   4.685  0.5545 -0.0894 -0.4203
 7860SOL     OW35041   1.841   0.996   8.447  0.6016 -0.4814 -0.1538
 7860SOL    HW135042   1.748   0.986   8.431  0.2394 -0.0535  1.6373
 7860SOL    HW235043   1.864   0.965   8.360  2.5549 -3.2461  1.3364
 7861SOL     OW35044   2.311   0.874  12.406 -0.8273 -0.3879  0.1262
 7861SOL    HW135045   2.353   0.870  12.320 -0.6387  1.2117  0.1441
 7861SOL    HW235046   2.220   0.890  12.382 -0.6080  1.0135  0.2526
 7862SOL     OW35047   3.051   1.422   5.580 -0.0428  0.7817 -0.3465
 7862SOL    HW135048   3.127   1.455   5.627  0.0265  0.7862 -0.4638
 7862SOL    HW235049   3.077   1.331   5.564  2.6519  1.6634 -0.8324
 7863SOL     OW35050   1.609   0.090   3.476  0.3602 -0.0069 -0.0250
 7863SOL    HW135051   1.632   4.720   3.485 -2.0606 -0.5759  0.2857
 7863SOL    HW235052   1.515   0.078   3.483  0.4832 -0.2558  1.0918
 7864SOL     OW35053   3.914   0.413   0.971  0.3174 -0.1147  0.4813
 7864SOL    HW135054   3.880   0.495   0.935  1.9813  0.3311 -0.0444
 7864SOL    HW235055   3.831   0.366   0.966 -0.8464  1.6109  3.2208
 7865SOL     OW35056   4.247   2.474   6.147 -0.0835  0.2591  0.4098
 7865SOL    HW135057   4.179   2.537   6.172  2.3800  2.3398  1.8052
 7865SOL    HW235058   4.188   2.414   6.101  1.8333 -2.4689  1.5044
 7866SOL     OW35059   2.160   2.154   9.007 -0.2362  0.9465  0.2096
 7866SOL    HW135060   2.122   2.108   8.932 -0.0400 -1.0413  1.3384
 7866SOL    HW235061   2.215   2.220   8.964 -0.8631  1.0853 -0.3732
 7867SOL     OW35062   2.324   3.809   0.998 -0.0419  0.3340 -0.1155
 7867SOL    HW135063   2.338   3.867   1.073  1.9471 -1.3399  0.7929
 7867SOL    HW235064   2.306   3.731   1.051 -2.1123  0.9106  0.0511
 7868SOL     OW35065   0.537   3.504   7.837 -0.3789 -0.1915  0.2765
 7868SOL    HW135066   0.628   3.517   7.811 -0.1978 -0.9709  0.5408
 7868SOL    HW235067   0.542   3.518   7.932 -1.1672 -0.1696  0.3170
 7869SOL     OW35068   0.949   2.078  15.226  0.0028  0.2004  0.2833
 7869SOL    HW135069   0.929   2.135  15.152  2.7751 -1.6832 -1.9044
 7869SOL    HW235070   0.925   1.993  15.190  1.4310 -0.9917  2.1310
 7870SOL     OW35071   0.805   2.368   9.256  0.6116 -0.1907  0.1465
 7870SOL    HW135072   0.732   2.429   9.252  1.6371  1.0762  0.6887
 7870SOL    HW235073   0.760   2.296   9.300  1.8308 -0.7446  0.4841
 7871SOL     OW35074   1.468   0.602   3.095 -0.0284 -0.6052 -0.4569
 7871SOL    HW135075   1.551   0.606   3.049  0.5079 -1.4674  0.4383
 7871SOL    HW235076   1.410   0.610   3.019 -0.5759  2.1372  0.2427
 7872SOL     OW35077   4.157   0.005   5.404 -0.2487  0.0494 -0.2329
 7872SOL    HW135078   4.084   4.666   5.411 -0.7489  0.5107 -1.4745
 7872SOL    HW235079   4.188   4.722   5.314  0.4234 -0.9432  0.0602
 7873SOL     OW35080   0.982   3.592   9.513 -0.0364  0.2364  0.6542
 7873SOL    HW135081   0.908   3.642   9.548 -0.4296 -0.1920  0.4264
 7873SOL    HW235082   0.987   3.642   9.432  2.3611  1.7323  1.7199
 7874SOL     OW35083   3.335   0.971   1.838 -0.0556 -0.0459 -0.0887
 7874SOL    HW135084   3.383   0.889   1.837 -0.5509 -0.3721  1.4558
 7874SOL    HW235085   3.411   1.027   1.854  1.2631 -1.8998  0.1091
 7875SOL     OW35086   2.946   3.505   1.135  0.0927  0.2642 -0.1556
 7875SOL    HW135087   2.930   3.418   1.173 -1.0511 -0.9056 -3.2694
 7875SOL    HW235088   3.001   3.543   1.203  3.3707 -0.5795 -2.2920
 7876SOL     OW35089   2.850   2.129  14.125 -0.1147 -0.5094  0.6120
 7876SOL    HW135090   2.772   2.075  14.136  0.5136 -1.0755  2.3540
 7876SOL    HW235091   2.846   2.168  14.213 -1.5226  0.2464  0.2119
 7877SOL     OW35092   1.398   0.910   6.419  0.5753  0.2386 -0.1233
 7877SOL    HW135093   1.356   0.867   6.345  0.1718 -0.6410  0.6087
 7877SOL    HW235094   1.451   0.845   6.465 -1.1020 -1.5712 -0.7447
 7878SOL     OW35095   0.652   3.579  14.483 -0.0709 -0.0503  0.2217
 7878SOL    HW135096   0.741   3.555  14.506 -0.0751  1.3819  1.7404
 7878SOL    HW235097   0.666   3.603  14.391 -2.6718  0.6430 -0.0061
 7879SOL     OW35098   3.819   0.687   5.971  1.1850  0.5344 -0.0686
 7879SOL    HW135099   3.840   0.671   5.879  1.0260 -0.4725  0.0740
 7879SOL    HW235100   3.816   0.783   5.965 -1.5721  0.6736  3.9814
 7880SOL     OW35101   4.038   0.355   9.699  1.1214 -0.7805  0.1545
 7880SOL    HW135102   4.047   0.293   9.627  2.0040  2.0707 -2.2192
 7880SOL    HW235103   3.943   0.370   9.700  1.0674 -1.0802 -0.6592
 7881SOL     OW35104   3.001   1.214   4.158  0.0330 -0.1796  0.4854
 7881SOL    HW135105   2.971   1.123   4.170  0.6750 -0.6916 -1.6362
 7881SOL    HW235106   2.955   1.250   4.233  0.4447 -1.4370  1.3339
 7882SOL     OW35107   2.924   2.158  15.949  0.2700 -0.2927 -0.1331
 7882SOL    HW135108   2.877   2.216  16.009  1.6769  2.4247 -1.6231
 7882SOL    HW235109   2.878   2.076  15.965 -0.2108  0.3483  1.7859
 7883SOL     OW35110   3.567   3.842   3.448  0.4349 -0.2315  0.0064
 7883SOL    HW135111   3.606   3.826   3.534  1.2469 -0.3210 -0.3708
 7883SOL    HW235112   3.606   3.781   3.385  1.7858  1.4648 -0.7878
 7884SOL     OW35113   0.215   2.155   6.580  0.0329 -0.4088  0.3678
 7884SOL    HW135114   0.290   2.131   6.525 -0.4765  1.1865 -1.0161
 7884SOL    HW235115   0.201   2.248   6.560  1.4378 -0.6222 -1.6495
 7885SOL     OW35116   1.764   2.727   7.901  0.1620 -0.2372  0.1589
 7885SOL    HW135117   1.753   2.658   7.967 -0.4489 -0.4375 -0.1561
 7885SOL    HW235118   1.759   2.809   7.951  0.2107 -0.2689  0.2159
 7886SOL     OW35119   1.453   0.148   2.630 -0.1760  0.3927  0.2192
 7886SOL    HW135120   1.493   0.069   2.666  1.3145  0.1776 -1.9133
 7886SOL    HW235121   1.368   0.111   2.611  1.0378 -0.2587 -3.8204
 7887SOL     OW35122   2.105   1.954   3.852 -0.1649 -0.0910 -0.9274
 7887SOL    HW135123   2.093   1.911   3.767  2.9866 -0.2360 -1.2750
 7887SOL    HW235124   2.111   2.042   3.814 -2.8250  0.3182 -0.3798
 7888SOL     OW35125   0.836   1.166  10.481  0.0352  0.2611 -0.1899
 7888SOL    HW135126   0.832   1.148  10.388 -0.2910 -0.9303  0.0599
 7888SOL    HW235127   0.837   1.076  10.514 -0.5952  0.8975  1.5525
 7889SOL     OW35128   0.082   1.424   3.520 -0.5823  0.0347  0.1101
 7889SOL    HW135129   0.136   1.347   3.506 -0.6730  0.0067 -0.0827
 7889SOL    HW235130   0.051   1.440   3.431  0.2701  1.8294  0.1254
 7890SOL     OW35131   4.385   0.413  11.787 -0.2470  0.2425 -0.2792
 7890SOL    HW135132   4.344   0.434  11.703  0.5362 -1.7345 -1.1640
 7890SOL    HW235133   4.336   0.467  11.850  1.1533 -0.3470  1.3154
 7891SOL     OW35134   4.722   4.617   2.964  0.0957 -0.1840 -0.3073
 7891SOL    HW135135   0.087   4.617   2.927 -0.7262 -1.8618 -2.2859
 7891SOL    HW235136   4.669   4.654   2.893  0.7490  1.6271  0.1766
 7892SOL     OW35137   1.079   1.408   7.403 -0.1440  0.2117 -0.4419
 7892SOL    HW135138   0.991   1.419   7.439  0.4434  0.6364  0.8364
 7892SOL    HW235139   1.050   1.377   7.317 -1.7755 -1.1446  0.6085
 7893SOL     OW35140   0.756   1.128   2.429  0.4326 -0.4358 -0.4262
 7893SOL    HW135141   0.760   1.194   2.360 -0.5872  0.2460  0.1669
 7893SOL    HW235142   0.843   1.090   2.415 -0.0428 -1.9069  0.6124
 7894SOL     OW35143   3.875   0.140  12.575 -0.5884  0.4518  0.1715
 7894SOL    HW135144   3.894   0.181  12.490  3.1107  0.3095  0.9278
 7894SOL    HW235145   3.840   0.052  12.565 -1.5218  0.7637  0.7066
 7895SOL     OW35146   0.159   3.372   3.644 -0.3416 -0.2782 -1.0357
 7895SOL    HW135147   0.161   3.442   3.579  1.1053 -0.1511 -0.8619
 7895SOL    HW235148   0.252   3.358   3.662 -0.9241 -1.5286  0.9625
 7896SOL     OW35149   2.010   1.265   5.367  0.2071  0.9600 -0.6478
 7896SOL    HW135150   1.982   1.319   5.293 -0.2175 -0.3459 -1.4360
 7896SOL    HW235151   2.103   1.262   5.341  0.0660 -1.9033 -0.7874
 7897SOL     OW35152   2.876   3.907   3.154  0.1125  0.4148 -0.0754
 7897SOL    HW135153   2.939   3.974   3.182 -0.3348  0.5879  0.5211
 7897SOL    HW235154   2.913   3.888   3.068  2.7414 -0.4640  1.2243
 7898SOL     OW35155   2.016   0.210   4.640 -0.2109 -0.1152 -0.3276
 7898SOL    HW135156   1.943   0.264   4.612 -0.0294 -0.0077 -0.5933
 7898SOL    HW235157   2.062   0.176   4.563  0.9243  0.3216  0.1503
 7899SOL     OW35158   1.478   3.279   8.313 -0.0520 -0.3267  0.2283
 7899SOL    HW135159   1.519   3.233   8.240  2.3199  2.3310 -0.1049
 7899SOL    HW235160   1.465   3.205   8.372  1.0860 -1.5898 -1.1012
 7900SOL     OW35161   2.444   4.095   5.626  0.3944 -0.0729  0.0852
 7900SOL    HW135162   2.418   4.020   5.679  0.5108 -0.2056 -0.0452
 7900SOL    HW235163   2.390   4.079   5.549  0.7399 -0.5742 -0.0546
 7901SOL     OW35164   0.511   0.466   8.161 -0.0597  0.3849  0.6622
 7901SOL    HW135165   0.575   0.405   8.196 -1.1806 -0.0668  1.9067
 7901SOL    HW235166   0.471   0.418   8.088  1.7640 -1.5373  0.9431
 7902SOL     OW35167   2.660   3.325   6.368 -0.2336 -0.8083 -0.0894
 7902SOL    HW135168   2.596   3.318   6.439  0.7867  1.5772  1.0186
 7902SOL    HW235169   2.745   3.343   6.408 -1.2701  0.9175  1.3121
 7903SOL     OW35170   2.204   2.918   5.398  0.1923  0.2561 -0.3282
 7903SOL    HW135171   2.184   2.898   5.306  2.2074  1.1595 -0.9805
 7903SOL    HW235172   2.287   2.966   5.387 -1.0020  1.8847 -2.4030
 7904SOL     OW35173   2.573   1.268   4.081 -0.2370  0.1429 -0.4031
 7904SOL    HW135174   2.505   1.280   4.015  1.6581  1.5071 -2.0908
 7904SOL    HW235175   2.652   1.263   4.029  0.4743  0.3282  0.6595
 7905SOL     OW35176   3.652   4.080   8.224 -0.0219 -0.4414  0.0953
 7905SOL    HW135177   3.638   4.127   8.141  2.9603  1.1780  0.4897
 7905SOL    HW235178   3.572   4.042   8.259 -0.1853  1.6445  1.9710
 7906SOL     OW35179   1.197   1.957   8.053 -0.1226  0.1334  0.2165
 7906SOL    HW135180   1.212   2.046   8.087  0.4360  0.5636 -1.1593
 7906SOL    HW235181   1.212   1.983   7.962  0.9184 -2.5075 -0.3442
 7907SOL     OW35182   3.622   2.792   8.217  0.0266  0.1095 -0.5871
 7907SOL    HW135183   3.701   2.772   8.267 -0.8710  0.6334  1.0554
 7907SOL    HW235184   3.562   2.730   8.258  0.8444 -1.4852 -1.8511
 7908SOL     OW35185   3.826   3.154  10.579 -0.1821  0.2404 -0.3975
 7908SOL    HW135186   3.815   3.183  10.669  0.4673  0.8496 -0.5141
 7908SOL    HW235187   3.918   3.167  10.556  0.1710  0.4776  1.1554
 7909SOL     OW35188   1.159   2.886   7.370 -0.0086  0.3872 -0.6291
 7909SOL    HW135189   1.231   2.867   7.429  0.3219 -0.1102 -1.1890
 7909SOL    HW235190   1.082   2.890   7.427  1.5009 -0.3655  1.4219
 7910SOL     OW35191   3.172   1.104   6.429 -0.1659  0.5221 -0.3712
 7910SOL    HW135192   3.170   1.041   6.501 -0.2346 -0.7597 -1.4877
 7910SOL    HW235193   3.091   1.153   6.443  0.1258  0.5399  1.2261
 7911SOL     OW35194   2.255   1.173   7.125  0.3408  0.0407 -0.6540
 7911SOL    HW135195   2.234   1.261   7.153 -0.1510 -0.0103 -0.8687
 7911SOL    HW235196   2.168   1.134   7.125  0.4985 -0.3027 -0.0159
 7912SOL     OW35197   3.379   4.527   6.395 -1.0153 -0.0181 -0.0753
 7912SOL    HW135198   3.387   4.446   6.446  0.4140  1.0743  1.4119
 7912SOL    HW235199   3.331   4.486   6.323  1.2979 -1.8177 -0.6004
 7913SOL     OW35200   0.457   3.985  11.032 -0.0920  0.4312  0.1725
 7913SOL    HW135201   0.483   3.974  10.941 -0.5338  2.7022 -0.2350
 7913SOL    HW235202   0.365   3.956  11.031 -0.6451  2.1686  1.6999
 7914SOL     OW35203   2.936   3.112   7.688 -0.5203 -0.2109 -0.1463
 7914SOL    HW135204   2.994   3.155   7.624  0.0476  0.6248  0.9357
 7914SOL    HW235205   2.987   3.032   7.703 -1.0747 -0.2146  1.7273
 7915SOL     OW35206   3.291   2.235   0.331 -0.7989  0.4384 -0.6761
 7915SOL    HW135207   3.257   2.200   0.248 -0.3894  3.0706 -1.9461
 7915SOL    HW235208   3.352   2.300   0.296 -0.8436 -0.8860 -3.2449
 7916SOL     OW35209   4.487   4.280  15.077 -0.4659 -0.0605 -0.5652
 7916SOL    HW135210   4.527   4.365  15.095 -0.5277 -0.0845 -0.3056
 7916SOL    HW235211   4.546   4.238  15.014 -0.7539 -0.2862 -0.6847
 7917SOL     OW35212   1.260   3.988  11.399 -0.1926 -0.0805  0.4365
 7917SOL    HW135213   1.231   3.909  11.444 -0.1031 -0.3766 -0.0201
 7917SOL    HW235214   1.185   4.009  11.343  0.3738 -0.3179 -0.4012
 7918SOL     OW35215   4.220   2.905   4.650  0.1197 -0.4663  0.2765
 7918SOL    HW135216   4.305   2.932   4.684 -0.4924  0.7667  0.8376
 7918SOL    HW235217   4.223   2.810   4.636 -1.6586 -0.4349 -0.3399
 7919SOL     OW35218   2.012   2.262  13.543 -0.3364 -0.2419 -0.1199
 7919SOL    HW135219   1.974   2.307  13.467  1.3561  3.0052  1.0028
 7919SOL    HW235220   2.012   2.175  13.502  2.3965 -0.7940  1.0703
 7920SOL     OW35221   1.021   0.190  14.386  0.3650  0.2850 -0.5499
 7920SOL    HW135222   0.994   0.102  14.413 -3.4601  1.2623 -1.2176
 7920SOL    HW235223   1.024   0.242  14.466 -0.2273  0.2051 -0.4817
 7921SOL     OW35224   4.142   0.966   5.071 -0.2839 -0.2964  0.2449
 7921SOL    HW135225   4.104   1.049   5.100 -0.9510 -0.5164 -0.0073
 7921SOL    HW235226   4.070   0.919   5.030 -0.3637 -1.3173  1.5521
 7922SOL     OW35227   4.167   2.721   7.130 -0.3513 -0.4039  0.2987
 7922SOL    HW135228   4.097   2.678   7.079 -0.6839  0.3939  0.0790
 7922SOL    HW235229   4.221   2.651   7.165 -0.9372 -0.7384  0.5431
 7923SOL     OW35230   4.366   1.420   2.504  0.2025  0.5888  0.4025
 7923SOL    HW135231   4.439   1.357   2.503 -0.6943 -0.4738  2.2591
 7923SOL    HW235232   4.392   1.477   2.432  0.8172  1.3833  1.2559
 7924SOL     OW35233   2.030   3.678  13.123  0.3450  0.5600 -0.4707
 7924SOL    HW135234   2.058   3.766  13.151  1.1220 -0.2718  1.3133
 7924SOL    HW235235   2.096   3.667  13.054 -0.6210  0.7889 -1.4443
 7925SOL     OW35236   3.332   0.752   8.330 -0.2022 -0.1215 -0.2756
 7925SOL    HW135237   3.240   0.745   8.354  0.0252  1.1079  0.9012
 7925SOL    HW235238   3.349   0.700   8.250 -2.0160 -0.4281 -0.4535
 7926SOL     OW35239   1.400   4.535  15.982 -0.3689  0.6373 -0.0575
 7926SOL    HW135240   1.359   4.515  15.897 -1.0018 -0.0688  0.4152
 7926SOL    HW235241   1.486   4.555  15.944  1.3890 -0.9308  3.1018
 7927SOL     OW35242   0.606   4.283   5.918 -0.2056 -0.0824 -0.0752
 7927SOL    HW135243   0.615   4.264   6.011 -0.4162 -0.3029 -0.1019
 7927SOL    HW235244   0.511   4.294   5.914 -0.1626  0.3001 -0.1040
 7928SOL     OW35245   2.107   3.958   5.086 -0.6957  0.0720  0.2604
 7928SOL    HW135246   2.073   4.045   5.108 -1.7364 -0.5939  1.3006
 7928SOL    HW235247   2.198   3.980   5.067 -1.2799  0.0050 -2.6222
 7929SOL     OW35248   3.496   0.630   0.104  0.4903 -0.0370 -0.5513
 7929SOL    HW135249   3.471   0.555   0.049  1.2207 -2.3555  2.2660
 7929SOL    HW235250   3.560   0.583   0.157 -0.9066  0.3670  1.4845
 7930SOL     OW35251   0.418   3.009   7.720 -0.1029  0.1046  0.1004
 7930SOL    HW135252   0.406   3.104   7.716 -2.3155 -0.2297 -1.2992
 7930SOL    HW235253   0.427   2.991   7.627 -3.8682 -0.8715 -0.0611
 7931SOL     OW35254   2.131   1.786   6.952 -0.1591 -0.2969  0.6588
 7931SOL    HW135255   2.173   1.756   6.872 -0.7085  1.5503 -0.3197
 7931SOL    HW235256   2.155   1.878   6.957 -1.8907  0.2726 -1.3433
 7932SOL     OW35257   2.449   2.147   7.704 -0.0723 -0.1016 -0.1571
 7932SOL    HW135258   2.391   2.121   7.632 -0.3052 -0.3126  0.1027
 7932SOL    HW235259   2.461   2.066   7.754  0.8810  0.7252  0.9417
 7933SOL     OW35260   3.561   0.893   8.797  1.0324  0.2210  0.0013
 7933SOL    HW135261   3.569   0.800   8.821 -2.1164 -0.2080 -0.6237
 7933SOL    HW235262   3.474   0.898   8.757  1.3332  2.1289 -0.3945
 7934SOL     OW35263   2.309   1.643   8.455  0.0668 -0.3998  0.2592
 7934SOL    HW135264   2.282   1.680   8.540  0.0940 -0.5077  0.3150
 7934SOL    HW235265   2.226   1.620   8.413  0.5363  1.0460 -1.4280
 7935SOL     OW35266   3.240   1.267   5.059 -0.7098 -0.0322 -0.9032
 7935SOL    HW135267   3.166   1.213   5.030 -0.2233 -0.8666 -0.5728
 7935SOL    HW235268   3.294   1.236   4.987  2.3106  1.8341  0.5541
 7936SOL     OW35269   0.855   0.484   1.837 -0.0734 -0.9234  0.1843
 7936SOL    HW135270   0.899   0.500   1.920  1.9220  0.8970 -1.1942
 7936SOL    HW235271   0.861   0.567   1.789 -0.9068 -0.2644  1.2250
 7937SOL     OW35272   1.009   3.629   8.129  0.4239 -0.4761  0.0081
 7937SOL    HW135273   1.044   3.556   8.180  1.4143  1.4427  2.0359
 7937SOL    HW235274   1.025   3.709   8.180  0.4949 -0.1819 -0.4719
 7938SOL     OW35275   4.071   3.946   7.210 -0.3966 -0.6728 -0.1776
 7938SOL    HW135276   4.094   4.007   7.281  2.0288 -0.9710 -0.6890
 7938SOL    HW235277   4.021   4.000   7.149 -0.3373  0.5469  0.8463
 7939SOL     OW35278   2.403   1.061   8.149  0.3962 -0.6753  0.1931
 7939SOL    HW135279   2.394   0.999   8.077  1.0007 -2.5934  1.7646
 7939SOL    HW235280   2.382   1.010   8.227 -0.2785 -2.3103 -1.0485
 7940SOL     OW35281   2.430   1.021  12.620 -0.4117 -0.7944  0.5138
 7940SOL    HW135282   2.393   0.974  12.545 -0.0153  2.2009 -1.5534
 7940SOL    HW235283   2.518   0.982  12.612 -0.4125 -0.5158 -0.9613
 7941SOL     OW35284   1.270   1.075   4.247 -0.1824 -0.0236  0.3202
 7941SOL    HW135285   1.184   1.106   4.275 -0.6850 -0.7549 -0.4232
 7941SOL    HW235286   1.270   1.113   4.159 -1.1165  0.2680  0.4543
 7942SOL     OW35287   4.239   1.165   6.378 -0.1200 -0.3210  0.1626
 7942SOL    HW135288   4.218   1.075   6.403  0.9800 -0.9823 -1.2552
 7942SOL    HW235289   4.251   1.207   6.463  2.0896  1.5487 -1.0825
 7943SOL     OW35290   4.206   1.886   0.273 -0.1153  0.1851 -0.3340
 7943SOL    HW135291   4.164   1.942   0.207  2.1708  3.3452  0.9261
 7943SOL    HW235292   4.253   1.827   0.214  0.7809  0.5414  0.0247
 7944SOL     OW35293   0.124   2.179   8.346 -0.0942 -0.1385 -0.2409
 7944SOL    HW135294   0.171   2.131   8.277  2.0749 -0.0186  1.1538
 7944SOL    HW235295   0.200   2.185   8.405  0.4666  2.6414 -1.2334
 7945SOL     OW35296   2.170   2.572   4.632 -0.5013 -0.0225 -0.1652
 7945SOL    HW135297   2.152   2.493   4.683 -0.4049  0.0371 -0.0412
 7945SOL    HW235298   2.174   2.636   4.703 -2.1871 -0.9076  0.7380
 7946SOL     OW35299   1.844   2.374   3.264 -0.0513  0.2328 -0.0356
 7946SOL    HW135300   1.815   2.365   3.174  0.4280  0.1305 -0.1813
 7946SOL    HW235301   1.881   2.462   3.272 -0.5522  0.3965  0.4397
 7947SOL     OW35302   3.392   2.059   9.220  0.0257 -0.0566 -0.7147
 7947SOL    HW135303   3.405   2.141   9.268 -1.5582  0.7068 -1.6007
 7947SOL    HW235304   3.305   2.077   9.183  0.5190 -0.9275 -2.2871
 7948SOL     OW35305   1.191   2.651   6.689 -0.2130 -0.0386  0.3400
 7948SOL    HW135306   1.196   2.603   6.772  2.3154 -1.4884 -0.6611
 7948SOL    HW235307   1.107   2.696   6.699  0.1999  0.6672  0.6477
 7949SOL     OW35308   2.791   1.884   3.050  0.0758 -0.2277 -0.1099
 7949SOL    HW135309   2.880   1.910   3.073  0.1993 -2.0050  1.4675
 7949SOL    HW235310   2.754   1.852   3.133  2.4610  0.6053  1.2761
 7950SOL     OW35311   4.322   4.335   5.470 -0.0930  0.1772 -0.5190
 7950SOL    HW135312   4.403   4.383   5.490  0.1495 -0.0231 -1.0078
 7950SOL    HW235313   4.323   4.346   5.375  0.6977  3.5250 -0.1370
 7951SOL     OW35314   2.647   3.165   8.183  0.2966 -0.1447  0.0700
 7951SOL    HW135315   2.738   3.192   8.196  0.6024 -0.8233 -0.6433
 7951SOL    HW235316   2.606   3.159   8.270  0.1682 -1.3403 -0.0648
 7952SOL     OW35317   1.242   4.146  16.186 -0.1491 -0.0694  0.2470
 7952SOL    HW135318   1.282   4.230  16.210 -2.1937  0.3049  2.3204
 7952SOL    HW235319   1.293   4.091  16.246 -0.5010 -1.5666 -0.8477
 7953SOL     OW35320   3.108   0.723  14.580  0.4171 -0.2701 -0.4369
 7953SOL    HW135321   3.168   0.651  14.559 -0.3067 -1.0041  0.0397
 7953SOL    HW235322   3.034   0.671  14.609  0.6087  1.1048  2.5265
 7954SOL     OW35323   1.685   3.618   7.304  0.0194 -0.4100 -0.1367
 7954SOL    HW135324   1.603   3.603   7.258  0.5602  0.0389 -1.2365
 7954SOL    HW235325   1.711   3.530   7.331 -2.7544 -0.8600  1.0620
 7955SOL     OW35326   2.201   1.200   3.194 -0.0484 -0.4657  0.2816
 7955SOL    HW135327   2.244   1.124   3.234  1.2874 -0.3382 -0.9435
 7955SOL    HW235328   2.203   1.187   3.099 -0.5069  1.2633  0.0359
 7956SOL     OW35329   4.104   4.337   5.630  0.1220 -0.1040 -0.4220
 7956SOL    HW135330   4.179   4.336   5.570  0.6928 -1.4924  0.3194
 7956SOL    HW235331   4.054   4.270   5.583  1.6495 -0.6819 -1.2073
 7957SOL     OW35332   0.136   2.196   9.416  0.1237 -0.4174 -0.4429
 7957SOL    HW135333   0.176   2.171   9.333  0.5061  0.5538 -0.5622
 7957SOL    HW235334   0.065   2.132   9.420 -0.2478  0.0089 -0.1283
 7958SOL     OW35335   2.327   2.659   3.770 -0.1063 -0.3066  0.1195
 7958SOL    HW135336   2.331   2.593   3.701 -0.0061 -1.5066  1.2558
 7958SOL    HW235337   2.245   2.705   3.756  1.2780  1.7579 -1.1680
 7959SOL     OW35338   4.173   1.270   5.603  0.2485  0.1337 -0.1485
 7959SOL    HW135339   4.262   1.303   5.591  0.0080  0.6169 -0.6165
 7959SOL    HW235340   4.187   1.178   5.581 -0.5605 -0.2390  0.8886
 7960SOL     OW35341   1.406   0.352   1.618 -0.1264  0.5631  0.3715
 7960SOL    HW135342   1.396   0.433   1.668  0.5339  0.4601  0.6707
 7960SOL    HW235343   1.432   0.286   1.683 -0.9831 -1.2184 -1.0897
 7961SOL     OW35344   2.304   4.715   2.664 -0.1452 -0.1460 -0.4075
 7961SOL    HW135345   2.376   4.652   2.666  0.7025  0.8021 -0.8113
 7961SOL    HW235346   2.236   4.657   2.698  1.6583 -1.6427  0.6805
 7962SOL     OW35347   0.360   0.793   3.218  0.0719  0.0237 -0.4625
 7962SOL    HW135348   0.355   0.756   3.306  0.5703 -0.7302 -0.7450
 7962SOL    HW235349   0.444   0.839   3.212  1.2792 -2.0517  0.6096
 7963SOL     OW35350   2.123   2.027   7.055 -0.0117 -0.6722  0.1575
 7963SOL    HW135351   2.186   2.085   7.098 -0.3889 -1.0607  1.2086
 7963SOL    HW235352   2.042   2.058   7.096 -0.6803 -0.5952 -1.2288
 7964SOL     OW35353   0.015   2.052   4.026  0.3877  0.1664  0.3993
 7964SOL    HW135354   4.674   1.981   4.014  1.7576 -1.2935  1.8710
 7964SOL    HW235355   0.059   2.044   3.941 -1.0659 -1.8815 -0.1687
 7965SOL     OW35356   4.406   1.728   9.304  0.0313 -0.1874  0.4303
 7965SOL    HW135357   4.361   1.695   9.382 -0.4238 -0.0187  0.2422
 7965SOL    HW235358   4.364   1.679   9.233  0.7152 -0.6082  0.3135
 7966SOL     OW35359   3.541   4.576   3.223  0.3432 -0.4458  0.2134
 7966SOL    HW135360   3.530   4.504   3.160 -0.2840 -1.0687  1.0262
 7966SOL    HW235361   3.576   4.639   3.160  0.2871  2.2127  2.8523
 7967SOL     OW35362   2.846   4.245  15.482 -0.2179  0.1814 -0.0690
 7967SOL    HW135363   2.842   4.252  15.577 -2.9810 -0.1071 -0.1656
 7967SOL    HW235364   2.910   4.316  15.473  0.0904 -0.1371 -0.3632
 7968SOL     OW35365   1.362   4.181   6.421 -0.1295 -0.9891 -0.0562
 7968SOL    HW135366   1.288   4.131   6.385 -0.7845 -0.1221  0.0924
 7968SOL    HW235367   1.392   4.125   6.493 -0.9327 -0.6004  0.5755
 7969SOL     OW35368   4.208   1.704   5.811 -0.1031  0.3190 -0.4771
 7969SOL    HW135369   4.227   1.764   5.739  1.0003  2.3302  1.4931
 7969SOL    HW235370   4.287   1.650   5.824 -0.8214 -0.2921  1.4518
 7970SOL     OW35371   0.800   1.655   6.763  0.4706  0.1993 -0.3177
 7970SOL    HW135372   0.840   1.573   6.735  0.8760  0.2042  0.2433
 7970SOL    HW235373   0.720   1.614   6.796  0.2735  0.8074 -0.0430
 7971SOL     OW35374   2.084   0.646  10.705 -0.2496  0.4809 -0.6504
 7971SOL    HW135375   2.178   0.629  10.704  0.2635  3.4486 -2.4558
 7971SOL    HW235376   2.060   0.714  10.769  0.1993 -0.4128  0.4610
 7972SOL     OW35377   0.876   2.768  17.002 -0.0168  0.1188  0.4889
 7972SOL    HW135378   0.837   2.855  16.995  0.6743  0.3622 -0.2957
 7972SOL    HW235379   0.941   2.760  16.932  0.1447  0.6867  0.5797
 7973SOL     OW35380   1.488   3.624   6.808 -0.4973 -0.1645 -0.5022
 7973SOL    HW135381   1.479   3.661   6.720 -0.0969  0.4111 -0.3003
 7973SOL    HW235382   1.584   3.619   6.807 -0.6028 -2.5779  1.6236
 7974SOL     OW35383   0.904   3.236  14.386 -0.5282  0.4134  0.4471
 7974SOL    HW135384   0.957   3.310  14.357  0.4802  0.5869  2.7006
 7974SOL    HW235385   0.868   3.215  14.300 -2.7963 -0.8413  1.7308
 7975SOL     OW35386   4.390   3.795   8.207  0.2633  0.0080  0.0599
 7975SOL    HW135387   4.296   3.812   8.208 -0.0278 -1.5594 -1.2780
 7975SOL    HW235388   4.414   3.885   8.185  1.0701 -0.4192 -0.7850
 7976SOL     OW35389   1.964   0.204   6.207 -0.5286  0.5389 -0.1199
 7976SOL    HW135390   1.968   0.278   6.147 -1.1199 -0.7941 -1.8136
 7976SOL    HW235391   1.987   0.239   6.293  3.5820  1.5256 -1.6457
 7977SOL     OW35392   3.827   1.208  14.721  0.9814  0.2990  0.3019
 7977SOL    HW135393   3.906   1.260  14.731  0.0921  1.5820  0.5456
 7977SOL    HW235394   3.770   1.267  14.672  2.7170  1.6686 -0.0599
 7978SOL     OW35395   1.385   1.615   1.064 -0.0589 -0.0603 -0.0424
 7978SOL    HW135396   1.333   1.535   1.077 -1.7546  0.6566 -2.3473
 7978SOL    HW235397   1.398   1.615   0.969  0.4509 -1.5736  0.0264
 7979SOL     OW35398   3.613   0.802   9.480  0.3300 -0.4479 -0.0137
 7979SOL    HW135399   3.518   0.795   9.477  0.4213 -1.4699 -0.2067
 7979SOL    HW235400   3.639   0.866   9.414  0.9827 -0.3237  0.3635
 7980SOL     OW35401   0.686   1.124   3.047 -0.6804  0.6130  0.6656
 7980SOL    HW135402   0.777   1.108   3.074 -0.3771 -0.9726 -1.3484
 7980SOL    HW235403   0.700   1.185   2.975 -1.1391  2.1734  1.8921
 7981SOL     OW35404   0.830   3.593   2.771 -0.3212 -0.0648  0.5623
 7981SOL    HW135405   0.817   3.533   2.697  0.2025  2.0714 -1.2739
 7981SOL    HW235406   0.744   3.582   2.811 -0.0891  0.2555  1.1464
 7982SOL     OW35407   4.472   0.911   2.133  0.1770  0.2675  0.4239
 7982SOL    HW135408   4.461   0.840   2.197  1.8055 -0.5085 -0.1695
 7982SOL    HW235409   4.559   0.928   2.168 -0.4545  1.6093  1.3561
 7983SOL     OW35410   2.971   1.739   8.206 -0.6622 -0.2535  0.1543
 7983SOL    HW135411   2.963   1.673   8.275  0.5369  0.5185  1.0410
 7983SOL    HW235412   2.893   1.711   8.159 -1.6031  0.9689  0.9965
 7984SOL     OW35413   2.796   0.154   2.566  0.3772 -0.1918  0.0409
 7984SOL    HW135414   2.875   0.175   2.617  0.1080  0.9022  0.0056
 7984SOL    HW235415   2.829   0.096   2.497  1.6798  1.0640 -0.3858
 7985SOL     OW35416   0.941   0.038   8.021 -0.1219  0.3502  0.1238
 7985SOL    HW135417   0.916   0.063   7.932  3.7512 -0.3789 -1.1376
 7985SOL    HW235418   0.859   0.065   8.062 -0.8896 -0.2162 -1.0447
 7986SOL     OW35419   0.365   1.426  11.836  0.2215  0.3168  0.0877
 7986SOL    HW135420   0.443   1.388  11.875  1.0737  0.1489 -1.7721
 7986SOL    HW235421   0.337   1.344  11.795  0.9462  0.1445 -0.0578
 7987SOL     OW35422   1.969   2.809   5.002  0.1135 -0.6834  0.2599
 7987SOL    HW135423   2.007   2.751   5.068 -1.0509 -0.8042  0.8178
 7987SOL    HW235424   1.883   2.769   4.988  0.5745 -1.1813 -1.2007
 7988SOL     OW35425   3.083   3.273   6.979  0.0508  0.1174  0.3139
 7988SOL    HW135426   3.147   3.201   6.977  1.0010  0.9881 -0.6689
 7988SOL    HW235427   3.126   3.320   7.050 -1.6933  2.2921 -0.0953
 7989SOL     OW35428   0.447   1.656   0.438  0.1644 -0.6167 -0.9763
 7989SOL    HW135429   0.469   1.749   0.446  1.5115 -0.9696 -0.6674
 7989SOL    HW235430   0.476   1.624   0.523 -0.2889  1.3786 -0.0885
 7990SOL     OW35431   1.783   2.952   7.355  0.0833  0.5194 -0.3122
 7990SOL    HW135432   1.858   2.939   7.413  1.1977 -0.7059 -2.0234
 7990SOL    HW235433   1.712   2.963   7.419 -0.3497 -1.7746 -0.3799
 7991SOL     OW35434   0.467   1.666   0.137 -0.3163  0.3614  0.5353
 7991SOL    HW135435   0.550   1.653   0.184 -0.7422  0.5188  1.3372
 7991SOL    HW235436   0.417   1.725   0.193 -0.2549  1.1966 -0.3051
 7992SOL     OW35437   1.132   2.990   3.960  0.0315  0.3844 -0.2508
 7992SOL    HW135438   1.209   2.937   3.977 -0.1145  0.4265  0.5807
 7992SOL    HW235439   1.175   3.056   3.905 -3.5264  1.3214 -1.8887
 7993SOL     OW35440   0.487   2.141  17.256 -0.2054 -0.1946 -0.6803
 7993SOL    HW135441   0.471   2.060  17.207 -2.9346 -0.3475  0.4449
 7993SOL    HW235442   0.525   2.200  17.191 -0.7852  1.8971  0.8889
 7994SOL     OW35443   2.987   1.384   7.922 -0.6198 -0.1273  0.1501
 7994SOL    HW135444   3.009   1.445   7.852  1.4584  0.5755  1.4165
 7994SOL    HW235445   2.940   1.323   7.865 -0.6152 -0.6691  0.7292
 7995SOL     OW35446   4.541   1.961   8.266  0.6103  0.1489 -0.0743
 7995SOL    HW135447   4.551   2.003   8.351 -0.5746 -0.6904  0.4898
 7995SOL    HW235448   4.472   2.019   8.234  1.9562  0.5848 -2.1785
 7996SOL     OW35449   3.499   3.132   8.586  0.0739  0.0266 -0.5849
 7996SOL    HW135450   3.455   3.183   8.518 -2.9379 -0.7563  0.7650
 7996SOL    HW235451   3.514   3.196   8.655 -0.0914 -1.0631  0.4717
 7997SOL     OW35452   3.199   2.213   2.383  0.2161  0.4607  0.0601
 7997SOL    HW135453   3.140   2.163   2.440 -0.6989  1.2352 -0.1988
 7997SOL    HW235454   3.270   2.230   2.446 -0.0243 -1.1008  0.7435
 7998SOL     OW35455   3.050   2.440   7.881  0.1140  0.1542  0.8511
 7998SOL    HW135456   3.026   2.502   7.950 -0.3371 -0.0673  0.8930
 7998SOL    HW235457   3.127   2.398   7.921 -0.7388 -0.8985  1.3836
 7999SOL     OW35458   0.958   1.021   8.010  0.5243  0.5453  0.3622
 7999SOL    HW135459   0.943   0.971   8.090 -3.5791 -1.5036 -1.6636
 7999SOL    HW235460   0.876   1.007   7.962  1.1671  1.2967 -0.9662
 8000SOL     OW35461   3.700   0.453   2.530 -0.3415  0.4928 -0.5096
 8000SOL    HW135462   3.776   0.395   2.531 -0.2443  0.6151 -1.0632
 8000SOL    HW235463   3.674   0.456   2.438  2.4562 -1.8123 -1.3710
 8001SOL     OW35464   2.351   4.199   0.616  0.1562 -0.2470  0.0264
 8001SOL    HW135465   2.340   4.151   0.698  0.3282  2.5834  1.6882
 8001SOL    HW235466   2.441   4.182   0.590  0.4143  1.2114  0.0113
 8002SOL     OW35467   1.016   4.218  13.307 -0.4565  0.2288 -0.3252
 8002SOL    HW135468   1.020   4.314  13.297 -1.0642  0.2385 -0.4873
 8002SOL    HW235469   0.923   4.212  13.331 -0.3595  1.6216  0.3822
 8003SOL     OW35470   4.221   3.678  13.249  0.3503  0.1308  0.7774
 8003SOL    HW135471   4.301   3.666  13.301  0.4025  0.5145  0.7845
 8003SOL    HW235472   4.236   3.759  13.201  1.4626  0.0510  0.9732
 8004SOL     OW35473   4.208   4.665  10.457 -0.3511  0.8886  0.0787
 8004SOL    HW135474   4.240   0.030  10.478  2.0477 -0.5459  2.4172
 8004SOL    HW235475   4.246   4.599  10.515  0.9736  2.5365  1.0730
 8005SOL     OW35476   3.379   3.302   1.516  0.0992 -0.0456 -0.5026
 8005SOL    HW135477   3.374   3.357   1.594  0.8627  0.6788 -0.9769
 8005SOL    HW235478   3.390   3.366   1.446 -1.1332  0.2648 -0.4179
 8006SOL     OW35479   0.917   3.048   1.551  0.6444 -0.0424 -0.3167
 8006SOL    HW135480   0.981   3.046   1.622  1.8452  3.7562 -1.2573
 8006SOL    HW235481   0.884   3.138   1.547  0.7725 -0.0611 -1.9230
 8007SOL     OW35482   0.083   1.572  14.943 -0.3425  0.0383  0.3563
 8007SOL    HW135483   0.022   1.508  14.907  0.2883 -0.6796  0.5622
 8007SOL    HW235484   0.040   1.657  14.938 -1.6410 -0.5995  0.6233
 8008SOL     OW35485   1.243   3.587   7.093 -0.3043  0.0070  0.3735
 8008SOL    HW135486   1.324   3.536   7.103 -1.6098 -2.6641 -2.6426
 8008SOL    HW235487   1.273   3.671   7.130  1.4937 -0.6519  0.4334
 8009SOL     OW35488   0.297   3.730  16.723  0.3062  0.2410 -0.1617
 8009SOL    HW135489   0.228   3.796  16.729 -0.4406 -0.8283  3.0475
 8009SOL    HW235490   0.373   3.779  16.692  0.3045 -0.0940 -0.6939
 8010SOL     OW35491   2.926   3.140   4.020 -0.3746  0.1354  0.0929
 8010SOL    HW135492   2.916   3.131   3.925  0.5808  0.3590 -0.0336
 8010SOL    HW235493   2.868   3.069   4.046 -0.4855 -0.2526 -1.1977
 8011SOL     OW35494   3.477   1.624  17.515  0.5219 -0.0956  0.1701
 8011SOL    HW135495   3.487   1.529  17.507  1.7165  0.1018 -0.6799
 8011SOL    HW235496   3.523   1.668  17.444  0.1687  2.5578  1.5772
 8012SOL     OW35497   0.233   1.327   5.736  0.2913 -0.0507 -0.2576
 8012SOL    HW135498   0.295   1.338   5.664  0.1940 -0.4283 -0.3956
 8012SOL    HW235499   0.250   1.238   5.765  1.3080  0.3756  0.4322
 8013SOL     OW35500   3.821   4.329   8.518  0.2394  0.5590 -0.0711
 8013SOL    HW135501   3.914   4.348   8.504  0.3798 -0.6306 -0.7842
 8013SOL    HW235502   3.812   4.235   8.501 -1.0144  0.8020 -0.8168
 8014SOL     OW35503   3.296   2.791  11.609 -0.3773  0.1075 -0.0090
 8014SOL    HW135504   3.261   2.748  11.531 -0.9871 -0.8496  0.7847
 8014SOL    HW235505   3.224   2.850  11.632 -0.2742  0.0790  0.3832
 8015SOL     OW35506   3.993   0.359   5.343 -0.8463 -0.0814 -0.9177
 8015SOL    HW135507   4.036   0.332   5.262 -0.9652  0.9750 -1.3368
 8015SOL    HW235508   3.944   0.434   5.311  1.6995  1.1407 -1.9924
 8016SOL     OW35509   2.519   4.272   5.812 -0.0984 -0.2898  0.0216
 8016SOL    HW135510   2.506   4.216   5.736  2.0622 -0.7284 -0.0151
 8016SOL    HW235511   2.600   4.234   5.846  0.9236 -0.6592 -2.8501
 8017SOL     OW35512   0.971   4.547   3.940 -0.4317  0.0762 -0.1451
 8017SOL    HW135513   0.946   4.468   3.988  1.1611 -0.7758 -0.7050
 8017SOL    HW235514   1.060   4.549   3.976 -0.4172 -3.0145  0.0526
 8018SOL     OW35515   2.562   3.792   8.415  0.0710  0.5233  0.1501
 8018SOL    HW135516   2.647   3.808   8.456  0.4938 -0.4091 -0.3721
 8018SOL    HW235517   2.524   3.880   8.414 -0.2226  0.3903 -0.4698
 8019SOL     OW35518   1.936   1.337   4.253 -0.1994  0.2683  0.1677
 8019SOL    HW135519   1.939   1.352   4.348 -0.6105  0.3291  0.1715
 8019SOL    HW235520   1.947   1.242   4.257  3.4019  0.8269  3.3469
 8020SOL     OW35521   0.566   1.995   4.438 -0.0802 -0.1731  0.2396
 8020SOL    HW135522   0.507   1.923   4.413 -0.3654  0.3910 -0.6914
 8020SOL    HW235523   0.636   1.941   4.474 -1.9653 -1.3154  2.2370
 8021SOL     OW35524   3.689   1.310  16.200  0.1810 -0.0216 -0.8081
 8021SOL    HW135525   3.739   1.382  16.238  0.2691  0.0443 -1.0547
 8021SOL    HW235526   3.612   1.360  16.172  0.3700  0.3851 -0.6139
 8022SOL     OW35527   0.868   4.549   1.665 -0.0772  0.1709 -0.2250
 8022SOL    HW135528   0.920   4.538   1.586  1.2540  1.2538  0.5198
 8022SOL    HW235529   0.913   4.486   1.721  1.9218  1.0213 -0.8960
 8023SOL     OW35530   0.493   0.090  15.445 -0.3477  0.1789 -0.6754
 8023SOL    HW135531   0.569   0.079  15.387 -0.8432  0.9342 -1.4533
 8023SOL    HW235532   0.536   0.130  15.521 -1.5138  1.0899 -0.4922
 8024SOL     OW35533   3.062   4.054  17.522 -0.3495  0.2310  0.4119
 8024SOL    HW135534   3.053   4.008  17.606  1.5238 -3.4104 -1.3763
 8024SOL    HW235535   3.010   3.995  17.468  1.0660  1.4885 -2.2769
 8025SOL     OW35536   1.197   2.513  16.478 -0.2393 -0.1055 -0.0113
 8025SOL    HW135537   1.141   2.469  16.542  0.9490 -1.5924  0.0065
 8025SOL    HW235538   1.145   2.592  16.464  0.0291 -0.1370 -1.1773
 8026SOL     OW35539   1.564   1.642   5.426  0.0447  0.0557 -0.5254
 8026SOL    HW135540   1.475   1.658   5.395  0.2336 -0.4929 -1.3472
 8026SOL    HW235541   1.576   1.549   5.406 -0.0330  0.2480 -1.4728
 8027SOL     OW35542   1.638   2.708   2.516  0.4756  0.1132 -0.2290
 8027SOL    HW135543   1.726   2.672   2.504  0.5464  0.1376  0.2070
 8027SOL    HW235544   1.630   2.747   2.429 -1.0739  1.2591  0.4342
 8028SOL     OW35545   2.616   2.036   6.584  0.1253  0.2932  0.2754
 8028SOL    HW135546   2.533   1.991   6.572 -0.6541  2.3947 -2.2214
 8028SOL    HW235547   2.639   1.995   6.667  0.6783 -2.0669 -1.0539
 8029SOL     OW35548   3.963   1.446  14.793  0.2609 -0.8580 -0.3562
 8029SOL    HW135549   4.050   1.443  14.833 -0.0871  2.8042  0.6298
 8029SOL    HW235550   3.902   1.471  14.863 -1.4945  0.2365 -2.2711
 8030SOL     OW35551   3.956   2.799   6.716  0.0513 -0.2550  0.1526
 8030SOL    HW135552   4.019   2.819   6.786  2.0202 -0.6478 -1.5074
 8030SOL    HW235553   4.008   2.740   6.662  0.4821  1.1550 -0.9947
 8031SOL     OW35554   3.100   0.664   7.310 -0.5839 -0.3581  0.4327
 8031SOL    HW135555   3.083   0.666   7.216  0.1672  1.4176  0.3528
 8031SOL    HW235556   3.042   0.592   7.337 -4.3202  1.8452 -1.7853
 8032SOL     OW35557   0.901   2.255  10.347 -0.4591  0.6659 -0.2683
 8032SOL    HW135558   0.892   2.174  10.296  1.3513  1.5213 -1.9367
 8032SOL    HW235559   0.819   2.298  10.321  0.1853  1.6745 -0.6338
 8033SOL     OW35560   1.998   3.281   3.188 -0.3870 -0.2081  0.0668
 8033SOL    HW135561   1.920   3.327   3.156 -0.3967  0.6425  1.3314
 8033SOL    HW235562   2.037   3.346   3.246  1.8035 -2.0409  0.6665
 8034SOL     OW35563   3.806   0.355   5.924 -0.0227  0.0290  0.2994
 8034SOL    HW135564   3.775   0.350   5.834  0.0147 -1.2793  0.3567
 8034SOL    HW235565   3.815   0.450   5.930 -2.0821  0.2527 -0.0938
 8035SOL     OW35566   0.912   1.744   4.120 -0.3837 -0.1725  0.3357
 8035SOL    HW135567   0.932   1.736   4.213 -1.5542 -1.6270  0.4633
 8035SOL    HW235568   0.974   1.813   4.097 -0.0759 -0.5822 -0.0603
 8036SOL     OW35569   4.605   4.581   6.544 -0.0235  0.2212  0.6729
 8036SOL    HW135570   4.636   4.671   6.545  1.2030 -0.2106  1.4048
 8036SOL    HW235571   4.661   4.537   6.480 -0.0165  2.6004 -0.9349
 8037SOL     OW35572   2.724   0.210   4.062 -0.0389 -0.1998  0.0530
 8037SOL    HW135573   2.647   0.244   4.015  0.4078 -0.1347 -0.6434
 8037SOL    HW235574   2.688   0.200   4.150  0.8877 -2.7269  0.1346
 8038SOL     OW35575   2.737   1.519   1.885 -0.4861  0.1678  0.1863
 8038SOL    HW135576   2.644   1.500   1.879 -0.7507  2.0301 -1.8709
 8038SOL    HW235577   2.750   1.569   1.804  0.9596 -0.7282 -0.1585
 8039SOL     OW35578   1.911   2.398  13.349  0.0134  0.0144  0.4314
 8039SOL    HW135579   1.992   2.444  13.328 -0.4760  0.8870  0.4300
 8039SOL    HW235580   1.847   2.437  13.289 -0.8225 -2.4459 -0.2772
 8040SOL     OW35581   0.726   0.974  13.390 -0.1691 -0.1742 -0.4721
 8040SOL    HW135582   0.788   1.045  13.410 -2.0740  0.9350  1.4204
 8040SOL    HW235583   0.744   0.922  13.468  1.0728  0.3689 -0.3857
 8041SOL     OW35584   1.073   3.339   7.668 -0.4061 -0.1588  0.0828
 8041SOL    HW135585   1.086   3.367   7.578  1.5755  1.3362  0.8560
 8041SOL    HW235586   1.137   3.268   7.672  1.2087  1.2558 -0.5615
 8042SOL     OW35587   0.013   1.015   2.947  0.4465  0.5086 -0.2076
 8042SOL    HW135588   0.095   0.979   2.912 -0.2520 -0.4486 -0.8431
 8042SOL    HW235589   4.672   0.990   2.881  1.7064 -0.0907 -1.1968
 8043SOL     OW35590   2.837   2.098   8.404  0.2965  0.3035 -0.2705
 8043SOL    HW135591   2.855   2.188   8.430 -1.5268  0.7018 -0.3787
 8043SOL    HW235592   2.914   2.056   8.441 -0.3488 -0.0040  0.7121
 8044SOL     OW35593   0.157   0.795   7.078  0.5320  0.4910  0.1588
 8044SOL    HW135594   0.192   0.826   7.161 -0.5750 -1.4343  1.3392
 8044SOL    HW235595   0.231   0.740   7.053  0.8170  0.1840  1.7096
 8045SOL     OW35596   4.399   4.432   8.210 -0.3495  0.6437  0.1792
 8045SOL    HW135597   4.382   4.518   8.246  1.0210  0.9652  0.0791
 8045SOL    HW235598   4.353   4.374   8.270  0.2985  0.2651  0.3153
 8046SOL     OW35599   2.264   2.145  15.433 -0.3972 -0.0125 -0.5668
 8046SOL    HW135600   2.216   2.197  15.369 -2.9145 -1.5450  0.0932
 8046SOL    HW235601   2.212   2.155  15.513 -1.2017 -1.9395 -0.8524
 8047SOL     OW35602   3.613   3.917   4.395 -0.0590  0.0648 -0.3453
 8047SOL    HW135603   3.640   3.907   4.304  0.7796  0.2601 -0.1222
 8047SOL    HW235604   3.535   3.968   4.377  0.3363  0.7521 -0.1226
 8048SOL     OW35605   1.822   3.001   2.460  0.2162  0.9098 -0.0099
 8048SOL    HW135606   1.917   3.012   2.450  0.0612  2.4111  0.1754
 8048SOL    HW235607   1.826   2.935   2.529  0.3589 -0.4942 -1.3577
 8049SOL     OW35608   1.037   0.642   0.865  0.1734  0.3216  0.0301
 8049SOL    HW135609   1.082   0.669   0.945  0.4478 -2.1189  0.7108
 8049SOL    HW235610   1.071   0.693   0.792  0.3392 -0.7722 -0.6648
 8050SOL     OW35611   0.535   1.360   8.308  0.1393  0.3414  0.4209
 8050SOL    HW135612   0.458   1.402   8.271 -1.1820 -0.5472  2.1053
 8050SOL    HW235613   0.532   1.391   8.399  1.1620 -0.9149  0.8973
 8051SOL     OW35614   1.320   2.052   1.485  0.2830  0.8092 -0.1350
 8051SOL    HW135615   1.343   1.969   1.443  1.0063  0.8503  0.1788
 8051SOL    HW235616   1.399   2.075   1.534  0.8232  0.7762 -0.9908
 8052SOL     OW35617   3.067   1.308   7.063  0.0673 -0.5546  0.0475
 8052SOL    HW135618   3.122   1.253   7.119  1.4958  0.4569 -0.3833
 8052SOL    HW235619   2.983   1.261   7.058 -0.8818  1.0316  1.2649
 8053SOL     OW35620   4.170   2.723   8.064  0.1437 -0.3878  0.2023
 8053SOL    HW135621   4.102   2.783   8.096  1.6462  1.2907  0.2465
 8053SOL    HW235622   4.128   2.638   8.079 -1.8395  0.3934 -0.9852
 8054SOL     OW35623   1.391   2.212  15.509  0.1192 -0.0242  0.2120
 8054SOL    HW135624   1.338   2.185  15.434 -0.4518 -0.5893  0.8232
 8054SOL    HW235625   1.370   2.305  15.518 -2.0067 -0.3833 -0.9695
 8055SOL     OW35626   0.098   0.863   4.201  0.2687  0.3688  0.2988
 8055SOL    HW135627   0.150   0.886   4.124  0.1635 -0.2514  0.0507
 8055SOL    HW235628   0.165   0.820   4.254 -0.0195 -0.2470  0.1573
 8056SOL     OW35629   0.363   2.455   2.552 -0.1305 -0.0456  0.3144
 8056SOL    HW135630   0.404   2.529   2.507 -1.2858  0.3108 -0.1550
 8056SOL    HW235631   0.293   2.504   2.597 -0.8394 -1.5532  0.8572
 8057SOL     OW35632   0.765   3.289   5.491  0.1595  0.4936 -0.5723
 8057SOL    HW135633   0.801   3.347   5.558  2.2407  1.1301 -2.2575
 8057SOL    HW235634   0.833   3.225   5.471 -0.9813 -0.3778 -1.7011
 8058SOL     OW35635   1.214   4.318   0.397 -0.3317 -0.1955  0.5056
 8058SOL    HW135636   1.202   4.321   0.492  1.5523  2.6097  0.6859
 8058SOL    HW235637   1.308   4.301   0.404 -0.6134 -1.8785  0.0682
 8059SOL     OW35638   3.143   0.252   0.477 -0.2376  0.5675 -0.3897
 8059SOL    HW135639   3.163   0.159   0.491  1.0676  1.0584  1.0628
 8059SOL    HW235640   3.158   0.264   0.383 -2.0917  0.9105 -0.6366
 8060SOL     OW35641   3.604   0.032   8.301 -0.3213  0.1646  0.3636
 8060SOL    HW135642   3.626   0.052   8.392  1.0013 -0.7319  0.2312
 8060SOL    HW235643   3.611   4.659   8.300 -0.2955  0.1615  1.1382
 8061SOL     OW35644   0.271   2.925  15.375  0.2172  0.5359  0.5392
 8061SOL    HW135645   0.321   2.906  15.296 -0.1695  2.1300 -0.0818
 8061SOL    HW235646   0.185   2.925  15.335  0.5929 -1.7812 -0.3037
 8062SOL     OW35647   2.131   2.919  13.365 -0.1123 -0.7330  0.5998
 8062SOL    HW135648   2.106   3.003  13.403  2.2011 -1.2817  3.3285
 8062SOL    HW235649   2.092   2.912  13.278 -1.1240  2.1326  0.8341
 8063SOL     OW35650   0.695   1.890   6.100 -0.4575  0.0772  0.4142
 8063SOL    HW135651   0.751   1.813   6.109  0.1785  0.6203  1.1390
 8063SOL    HW235652   0.742   1.944   6.037  0.1876 -3.0964 -1.8270
 8064SOL     OW35653   2.472   4.476  12.916  0.1793  0.4687 -0.3827
 8064SOL    HW135654   2.394   4.428  12.889  1.1942 -0.0516 -2.4095
 8064SOL    HW235655   2.447   4.568  12.912 -1.1174  0.1863  1.5214
 8065SOL     OW35656   3.522   2.415   8.486 -0.2262 -0.0537 -0.6477
 8065SOL    HW135657   3.548   2.442   8.574  1.4168 -4.5281  0.2197
 8065SOL    HW235658   3.505   2.321   8.492 -1.4837  0.0233 -2.7755
 8066SOL     OW35659   2.985   3.731   4.502  0.1175  0.3791 -0.2824
 8066SOL    HW135660   3.060   3.790   4.502  0.8535 -0.5602 -0.2212
 8066SOL    HW235661   3.033   3.648   4.495  1.5050  0.9780  2.0493
 8067SOL     OW35662   1.480   0.257   0.565  1.0354 -0.2566 -0.1134
 8067SOL    HW135663   1.413   0.291   0.506  0.5422 -0.1847  0.4890
 8067SOL    HW235664   1.445   0.285   0.649  0.1972  0.5265 -0.7200
 8068SOL     OW35665   1.925   3.601   5.922  0.0705  0.4631  0.0830
 8068SOL    HW135666   1.871   3.532   5.885  1.0813 -0.3588  0.1238
 8068SOL    HW235667   2.008   3.590   5.875 -0.9322  0.8163 -1.7608
 8069SOL     OW35668   2.557   1.885  12.145 -0.0669  0.3828  0.1263
 8069SOL    HW135669   2.552   1.980  12.155  1.4277  0.4319  0.4403
 8069SOL    HW235670   2.498   1.863  12.074 -1.0912 -0.2278  1.1653
 8070SOL     OW35671   2.284   0.497   4.685 -0.0986  0.5572 -0.2117
 8070SOL    HW135672   2.268   0.591   4.691  1.3399  0.7830  0.0157
 8070SOL    HW235673   2.239   0.483   4.601 -0.0076 -2.2674  0.1996
 8071SOL     OW35674   0.450   0.880   7.455 -0.1727  0.5594  0.1485
 8071SOL    HW135675   0.413   0.792   7.449 -2.8090  1.8341 -1.8470
 8071SOL    HW235676   0.485   0.892   7.367  0.3147  1.3742  0.4509
 8072SOL     OW35677   1.676   4.058   8.594  0.4556  0.1858  0.3305
 8072SOL    HW135678   1.619   4.079   8.668 -1.9728 -0.2457 -1.3954
 8072SOL    HW235679   1.742   4.127   8.594 -2.6055  3.1526 -1.1811
 8073SOL     OW35680   3.508   2.426  11.500 -0.3297 -0.4140 -0.6756
 8073SOL    HW135681   3.505   2.465  11.413 -0.9122 -1.9240 -1.3354
 8073SOL    HW235682   3.531   2.501  11.556  1.1522 -1.9312  0.7593
 8074SOL     OW35683   4.521   1.518   2.225 -0.1811 -0.1789 -0.0634
 8074SOL    HW135684   4.514   1.600   2.274  0.0505 -1.3226  1.8984
 8074SOL    HW235685   4.611   1.527   2.193  0.2073 -1.3505  0.6781
 8075SOL     OW35686   1.495   3.800   4.005  0.0320  0.3790  0.3502
 8075SOL    HW135687   1.486   3.830   3.914 -0.5990  0.3910  0.4183
 8075SOL    HW235688   1.408   3.827   4.035  0.7589  0.8690  1.9807
 8076SOL     OW35689   0.846   1.632  10.029  0.6034 -0.2542  0.0633
 8076SOL    HW135690   0.842   1.724  10.004  1.2056 -0.4146 -0.6184
 8076SOL    HW235691   0.889   1.644  10.114  2.4213 -2.8363 -0.4911
 8077SOL     OW35692   3.913   0.333  11.715  0.2121  0.1394  0.6764
 8077SOL    HW135693   3.932   0.243  11.687  0.4284  0.1184  0.8843
 8077SOL    HW235694   3.913   0.387  11.636  3.8277  0.0363  0.5901
 8078SOL     OW35695   2.833   3.734   7.857 -0.4635 -0.1956  0.0425
 8078SOL    HW135696   2.751   3.771   7.889 -0.4883 -2.3602  2.4465
 8078SOL    HW235697   2.799   3.650   7.827 -1.7682  1.1029 -2.0996
 8079SOL     OW35698   3.306   1.819  16.340 -0.1088 -0.9587 -0.1142
 8079SOL    HW135699   3.268   1.756  16.401 -1.4916  0.1256  0.1353
 8079SOL    HW235700   3.357   1.772  16.274 -2.3741 -2.7406 -0.5911
 8080SOL     OW35701   2.060   2.558   6.649  0.1939  0.0846 -0.3627
 8080SOL    HW135702   2.002   2.527   6.580 -1.7771  3.5796 -0.2842
 8080SOL    HW235703   2.126   2.490   6.635 -1.5114 -1.5975 -0.2069
 8081SOL     OW35704   2.956   2.516   5.780  0.0426 -0.0410  0.1750
 8081SOL    HW135705   2.882   2.494   5.836 -0.6471  2.2429  0.1836
 8081SOL    HW235706   3.021   2.451   5.808  1.0600  0.5950 -0.6907
 8082SOL     OW35707   0.178   2.058   3.819  0.2522  0.4506 -0.4076
 8082SOL    HW135708   0.261   2.106   3.822 -0.0366  0.9017  0.3817
 8082SOL    HW235709   0.181   2.022   3.730  0.7630 -1.0850  0.2319
 8083SOL     OW35710   2.988   3.466   4.401  0.7122  0.4497  0.4951
 8083SOL    HW135711   3.065   3.421   4.368 -0.9843 -0.5308 -2.1987
 8083SOL    HW235712   2.923   3.397   4.411 -0.0206  0.9780 -0.5410
 8084SOL     OW35713   2.076   1.545   9.805 -0.3988 -0.2783  0.1612
 8084SOL    HW135714   2.076   1.549   9.709 -1.8758  0.6330  0.1879
 8084SOL    HW235715   1.990   1.582   9.827 -0.7199 -0.5720 -0.6100
 8085SOL     OW35716   1.804   2.951   6.246  0.0412 -0.2117 -0.1325
 8085SOL    HW135717   1.878   3.011   6.250 -0.5181  0.3839  1.1339
 8085SOL    HW235718   1.731   3.004   6.278 -0.3243 -0.2400 -0.9015
 8086SOL     OW35719   0.004   1.611   9.427  0.2379 -0.6057  0.4471
 8086SOL    HW135720   4.721   1.654   9.512 -1.1560 -1.9584  1.0345
 8086SOL    HW235721   4.658   1.653   9.376  1.2456 -0.6522 -0.9592
 8087SOL     OW35722   1.053   1.503   1.814  0.2377  0.0644 -0.2634
 8087SOL    HW135723   1.012   1.587   1.834 -0.6428 -0.8590  1.8410
 8087SOL    HW235724   1.079   1.516   1.723 -0.5524  0.8360 -0.3778
 8088SOL     OW35725   0.259   2.571  14.400  0.5265  0.2556  0.4533
 8088SOL    HW135726   0.354   2.564  14.406  0.5988  1.6037  0.9480
 8088SOL    HW235727   0.234   2.486  14.364  1.9072  1.0397 -2.3015
 8089SOL     OW35728   0.336   0.653   4.285 -0.5606  0.2573 -0.0356
 8089SOL    HW135729   0.418   0.672   4.330  0.1893 -0.6969 -1.0149
 8089SOL    HW235730   0.362   0.575   4.238 -0.8093  0.1779 -0.0415
 8090SOL     OW35731   3.490   2.974   8.052  0.1456  0.0881 -0.2623
 8090SOL    HW135732   3.553   3.046   8.049  2.4441 -1.9378 -0.4388
 8090SOL    HW235733   3.535   2.926   8.122  2.1908 -2.5208 -3.3569
 8091SOL     OW35734   0.000   2.530   8.647  0.7280  0.6163  0.1140
 8091SOL    HW135735   0.072   2.519   8.584  0.8322  0.7659  0.2052
 8091SOL    HW235736   4.707   2.624   8.661 -0.2400  0.9254 -2.9166
 8092SOL     OW35737   4.275   3.102  12.120 -0.1649 -0.0660  0.0973
 8092SOL    HW135738   4.283   3.009  12.096 -1.5500 -0.3676  0.7989
 8092SOL    HW235739   4.186   3.120  12.091 -0.5115 -0.1932  1.1062
 8093SOL     OW35740   4.274   2.828  13.312  0.7245 -0.1376  0.0346
 8093SOL    HW135741   4.346   2.766  13.300 -0.5944 -1.5920 -0.3489
 8093SOL    HW235742   4.327   2.908  13.316  0.1419  0.2992 -0.9787
 8094SOL     OW35743   0.465   3.686   0.676 -0.3858 -0.2826 -0.9212
 8094SOL    HW135744   0.384   3.728   0.650 -0.5601 -0.9914 -1.5325
 8094SOL    HW235745   0.427   3.598   0.667 -0.8270 -0.1322 -0.5113
 8095SOL     OW35746   3.166   4.050   3.709 -0.0543 -0.1205 -0.3740
 8095SOL    HW135747   3.125   4.135   3.697  0.5329  0.5462  2.3581
 8095SOL    HW235748   3.158   4.024   3.618  1.6843 -0.9323 -0.2990
 8096SOL     OW35749   3.272   0.276   7.574  0.1873  0.0378 -0.2355
 8096SOL    HW135750   3.222   0.350   7.608  0.5671  0.0063  0.3967
 8096SOL    HW235751   3.212   0.208   7.603 -1.1586  1.1430 -0.4184
 8097SOL     OW35752   4.194   1.949   0.736 -0.0313 -0.0444  0.3581
 8097SOL    HW135753   4.231   1.942   0.648  1.8388 -0.3169  1.1550
 8097SOL    HW235754   4.180   2.043   0.735 -0.5479 -0.0728  4.1371
 8098SOL     OW35755   2.485   1.345  11.065 -0.4107 -0.1466 -0.2124
 8098SOL    HW135756   2.474   1.438  11.081  0.3345 -0.0746 -0.1027
 8098SOL    HW235757   2.409   1.330  11.008  0.0780 -1.8206 -0.4433
 8099SOL     OW35758   1.029   4.705  13.635  0.0165  0.2218 -0.6837
 8099SOL    HW135759   0.955   4.659  13.596  0.0627  0.0472 -0.5636
 8099SOL    HW235760   0.987   0.067  13.651  1.4224  0.7751  0.1041
 8100SOL     OW35761   0.582   1.871   3.897  0.0145 -0.1140 -0.2987
 8100SOL    HW135762   0.571   1.819   3.977  1.4138  1.4833  0.9168
 8100SOL    HW235763   0.518   1.823   3.845 -0.0299 -0.8051  0.3849
 8101SOL     OW35764   2.688   3.430   3.269 -0.1489 -0.5654 -0.1407
 8101SOL    HW135765   2.621   3.370   3.237  0.1234 -0.4412 -0.9211
 8101SOL    HW235766   2.762   3.407   3.214  0.1506  1.9574 -0.7792
 8102SOL     OW35767   1.866   1.471   7.586 -0.0878  0.2422  0.4516
 8102SOL    HW135768   1.777   1.451   7.616  0.6616  0.2763  2.6801
 8102SOL    HW235769   1.857   1.565   7.574  2.2089  0.2645 -1.0385
 8103SOL     OW35770   2.841   2.471  15.249  0.0392 -0.1575  0.1474
 8103SOL    HW135771   2.795   2.417  15.185 -0.6046  0.4604  0.0842
 8103SOL    HW235772   2.830   2.413  15.324 -1.9045  0.8503  0.6448
 8104SOL     OW35773   0.382   2.735   8.440  0.3492  0.6131  0.5330
 8104SOL    HW135774   0.412   2.728   8.530  0.6371  1.1615  0.4805
 8104SOL    HW235775   0.335   2.817   8.449 -2.6492 -0.9781 -0.3827
 8105SOL     OW35776   4.085   0.104   0.754  0.3121  0.1706  1.0960
 8105SOL    HW135777   4.009   0.123   0.809 -1.1031  0.3711 -0.9291
 8105SOL    HW235778   4.056   0.023   0.710  0.3536  1.5490 -1.4898
 8106SOL     OW35779   2.246   3.305   8.109 -0.6022 -0.7119  0.0019
 8106SOL    HW135780   2.274   3.238   8.047  2.3154  0.9524 -0.4868
 8106SOL    HW235781   2.264   3.254   8.187 -1.4935 -2.1120 -0.6960
 8107SOL     OW35782   0.465   0.161   3.570 -0.2773 -0.6884 -0.3225
 8107SOL    HW135783   0.401   0.172   3.500  0.0646 -2.8207 -0.9707
 8107SOL    HW235784   0.483   0.067   3.576 -0.5615 -0.4933  3.9660
 8108SOL     OW35785   4.361   4.374  16.094  0.2503  0.5699 -0.1993
 8108SOL    HW135786   4.343   4.459  16.134  1.5386  0.8230 -0.1482
 8108SOL    HW235787   4.349   4.314  16.167  1.3273 -3.3961 -3.3062
 8109SOL     OW35788   1.304   2.238   3.290  0.3826 -0.9546  0.3366
 8109SOL    HW135789   1.309   2.143   3.282 -0.1968 -0.6680 -3.4251
 8109SOL    HW235790   1.272   2.261   3.203 -3.0632 -1.0161  1.5798
 8110SOL     OW35791   3.652   3.491   4.420 -0.3045 -0.4771 -0.2775
 8110SOL    HW135792   3.608   3.524   4.499  2.3195  1.2908  0.4757
 8110SOL    HW235793   3.623   3.558   4.358  1.1635  0.2001 -0.2475
 8111SOL     OW35794   1.998   2.249   0.125 -0.1824 -0.2397  0.4418
 8111SOL    HW135795   2.008   2.303   0.047 -1.1370 -0.2717  0.3007
 8111SOL    HW235796   1.930   2.189   0.096  0.4916 -0.7404 -0.1008
 8112SOL     OW35797   1.503   2.520  17.539  0.4240  0.4161 -0.4218
 8112SOL    HW135798   1.492   2.600  17.486 -1.2987  1.0551  0.9208
 8112SOL    HW235799   1.491   2.569  17.620  1.4638  1.4417 -0.8808
 8113SOL     OW35800   2.220   4.533   9.117  0.4285  0.1218  0.0579
 8113SOL    HW135801   2.174   4.472   9.174 -1.8136 -0.1538 -2.0610
 8113SOL    HW235802   2.163   4.608   9.099  1.4850  1.5188  2.6125
 8114SOL     OW35803   0.830   4.200   7.953 -0.1982  0.2937  0.1099
 8114SOL    HW135804   0.925   4.192   7.954 -0.2530 -0.4780 -0.7701
 8114SOL    HW235805   0.817   4.127   7.893  3.1323  1.7677 -2.3993
 8115SOL     OW35806   1.570   3.707   4.270  0.0421 -0.0105  0.8989
 8115SOL    HW135807   1.505   3.750   4.215 -0.1258 -0.7968  0.4787
 8115SOL    HW235808   1.644   3.767   4.261  1.0798 -1.5402 -0.7800
 8116SOL     OW35809   3.470   0.402   7.202  0.2036  0.1997 -0.0461
 8116SOL    HW135810   3.387   0.371   7.239  1.1335 -2.2613 -0.0485
 8116SOL    HW235811   3.494   0.476   7.258 -1.7527  1.1183 -0.4339
 8117SOL     OW35812   0.215   1.087  10.452 -0.3284 -0.0868 -0.0295
 8117SOL    HW135813   0.197   1.009  10.400  2.7845 -1.6666  1.2425
 8117SOL    HW235814   0.220   1.052  10.540 -1.1782 -1.4567 -0.5324
 8118SOL     OW35815   3.134   3.806   9.979  0.2635 -0.2051 -0.0888
 8118SOL    HW135816   3.206   3.775  10.035  1.8685 -0.9774 -2.5990
 8118SOL    HW235817   3.128   3.740   9.910  1.7647  0.3561 -0.7699
 8119SOL     OW35818   1.137   0.248  16.664 -0.3558  0.6092 -0.2799
 8119SOL    HW135819   1.218   0.251  16.714 -0.4207  2.2778 -0.2781
 8119SOL    HW235820   1.168   0.198  16.588 -0.0518 -0.3864  0.5143
 8120SOL     OW35821   1.980   4.337  11.579 -0.3760  0.4375 -0.4811
 8120SOL    HW135822   2.010   4.256  11.620 -0.3921  0.9225  0.4800
 8120SOL    HW235823   1.886   4.325  11.568 -0.7707  0.4956  2.7836
 8121SOL     OW35824   1.713   0.957   4.525 -0.0705  0.2270 -0.1488
 8121SOL    HW135825   1.736   0.867   4.500  0.1510  0.0943  0.5378
 8121SOL    HW235826   1.627   0.939   4.564  0.5771 -1.4535  0.5027
 8122SOL     OW35827   1.714   3.048   7.121 -0.1383 -0.2580 -0.0931
 8122SOL    HW135828   1.793   3.028   7.071 -0.9047  0.9106 -1.7609
 8122SOL    HW235829   1.737   3.022   7.210  0.9663 -0.1984 -0.3569
 8123SOL     OW35830   0.600   2.221   7.799  0.1559  0.6511 -0.2947
 8123SOL    HW135831   0.653   2.163   7.743 -0.4846 -1.3206  1.1299
 8123SOL    HW235832   0.565   2.277   7.730  3.3791  0.6501 -1.9402
 8124SOL     OW35833   0.053   1.830   2.313 -0.1475  0.1154 -0.3435
 8124SOL    HW135834   0.027   1.903   2.257 -2.1362 -1.3177 -1.2772
 8124SOL    HW235835   0.148   1.842   2.308 -0.1597  0.1633 -0.4508
 8125SOL     OW35836   2.306   2.994   3.074 -0.2587 -0.3034  0.4411
 8125SOL    HW135837   2.281   2.966   3.162  1.1365 -0.5413  0.7535
 8125SOL    HW235838   2.396   3.024   3.074 -0.5180  0.4790  1.0019
 8126SOL     OW35839   1.783   0.817   2.573  0.2702 -0.4779  0.2233
 8126SOL    HW135840   1.697   0.774   2.577 -0.2275  0.2421 -2.9582
 8126SOL    HW235841   1.808   0.793   2.484 -1.6823  0.6297 -0.6392
 8127SOL     OW35842   1.166   0.571  11.602 -0.3557 -0.2701  0.3957
 8127SOL    HW135843   1.143   0.556  11.694 -1.0752  1.2091  0.4538
 8127SOL    HW235844   1.195   0.662  11.596 -1.1838 -0.2427 -3.2506
 8128SOL     OW35845   1.933   2.031  16.979  0.0068 -0.3000  0.1817
 8128SOL    HW135846   1.935   2.125  16.992 -1.1851 -0.0311 -1.5642
 8128SOL    HW235847   2.017   1.999  16.947  0.4549  0.5784  0.4951
 8129SOL     OW35848   2.829   3.040   0.869 -0.1006 -0.4189 -0.2884
 8129SOL    HW135849   2.804   3.000   0.952  3.8845 -0.6562  0.7979
 8129SOL    HW235850   2.863   3.124   0.899 -1.4361 -0.7829  2.2572
 8130SOL     OW35851   4.630   0.196   3.887 -0.2241  0.7060 -0.2241
 8130SOL    HW135852   4.662   0.164   3.803 -1.3124  2.2207 -1.2097
 8130SOL    HW235853   4.552   0.246   3.865  0.2726  1.0436 -1.2394
 8131SOL     OW35854   3.007   1.798  15.647 -0.1202 -0.0243  0.2910
 8131SOL    HW135855   2.968   1.775  15.732 -1.2517 -0.2178 -0.2924
 8131SOL    HW235856   3.099   1.772  15.658  0.2628  0.8965 -0.8397
 8132SOL     OW35857   3.381   1.137  15.276 -0.0465  0.0016  0.3104
 8132SOL    HW135858   3.371   1.042  15.285  0.5848 -0.1921 -1.0025
 8132SOL    HW235859   3.475   1.154  15.281  0.2176 -1.1577 -0.7450
 8133SOL     OW35860   3.889   2.147  11.284 -0.1185  0.0075 -0.0386
 8133SOL    HW135861   3.863   2.216  11.346  1.2440 -0.2265  0.8204
 8133SOL    HW235862   3.807   2.118  11.246  0.0488  0.2189 -0.5629
 8134SOL     OW35863   3.227   4.133  11.194 -0.2711  0.2503  0.1406
 8134SOL    HW135864   3.243   4.043  11.166  1.0290  1.2268 -2.1994
 8134SOL    HW235865   3.169   4.160  11.123 -0.2067  0.6467  0.2360
 8135SOL     OW35866   2.256   3.039   9.354 -0.8120  0.1676  0.5134
 8135SOL    HW135867   2.190   2.998   9.411  0.2886  2.0679  3.1738
 8135SOL    HW235868   2.210   3.121   9.336 -1.5756  0.1021  2.1485
 8136SOL     OW35869   1.015   3.800   8.349 -0.8076 -0.7384  0.1977
 8136SOL    HW135870   0.928   3.839   8.355 -1.3314 -1.8393 -0.2615
 8136SOL    HW235871   1.023   3.758   8.435  3.2245 -1.4924 -0.5268
 8137SOL     OW35872   4.616   3.043   6.745  0.3910 -0.0165 -0.0209
 8137SOL    HW135873   4.638   2.965   6.796 -0.2505 -0.7617 -0.8868
 8137SOL    HW235874   4.684   3.039   6.678  1.4382  0.9006  0.9846
 8138SOL     OW35875   0.610   0.587   3.189 -0.8763 -0.5415  0.1138
 8138SOL    HW135876   0.542   0.525   3.213  0.1595 -1.8914 -0.4182
 8138SOL    HW235877   0.655   0.601   3.272 -1.5800  0.6916  0.2815
 8139SOL     OW35878   4.399   0.728   9.139  0.2641 -0.2007  0.2923
 8139SOL    HW135879   4.432   0.642   9.113 -0.3901 -0.1924 -0.5462
 8139SOL    HW235880   4.377   0.768   9.055  3.3891 -2.0408 -1.4108
 8140SOL     OW35881   3.430   2.457  14.585  0.5536  0.3606  0.1887
 8140SOL    HW135882   3.450   2.547  14.558 -0.0677  0.4493  0.0262
 8140SOL    HW235883   3.394   2.484  14.670  0.5450  0.8708  0.0248
 8141SOL     OW35884   4.062   3.567   3.688 -0.4615 -0.4403 -0.2663
 8141SOL    HW135885   4.125   3.625   3.646 -0.9080  0.8010  0.7854
 8141SOL    HW235886   4.077   3.586   3.781  0.5725  1.5352 -0.8355
 8142SOL     OW35887   1.330   0.110   4.437  0.3684  0.6773  0.5796
 8142SOL    HW135888   1.342   0.193   4.390 -0.1078  0.3682 -0.0885
 8142SOL    HW235889   1.406   0.059   4.409 -0.1277 -0.8120  1.9376
 8143SOL     OW35890   1.957   2.701  13.422 -0.4827  0.4824 -0.3808
 8143SOL    HW135891   2.012   2.777  13.402 -0.8239  1.0985  0.9512
 8143SOL    HW235892   1.977   2.642  13.350 -0.3594 -0.7429  0.6472
 8144SOL     OW35893   1.099   4.539   9.117 -0.2599 -0.5119  0.0800
 8144SOL    HW135894   1.061   4.551   9.030  2.3994 -1.1578 -1.1591
 8144SOL    HW235895   1.158   4.463   9.119 -1.2708 -1.3408 -1.5409
 8145SOL     OW35896   2.970   1.662   1.235  0.3423  0.6008  0.1075
 8145SOL    HW135897   2.979   1.745   1.189 -0.4398 -0.2391 -1.5699
 8145SOL    HW235898   2.890   1.683   1.283  1.5707  3.5564  0.8709
 8146SOL     OW35899   3.062   2.657   9.645 -0.1844 -0.0219 -0.1515
 8146SOL    HW135900   3.099   2.735   9.686 -2.2539  0.8733  0.0078
 8146SOL    HW235901   3.134   2.602   9.615 -0.5353  0.4533 -1.8441
 8147SOL     OW35902   4.374   3.824  10.371 -0.4923 -0.3836  0.5966
 8147SOL    HW135903   4.459   3.836  10.328 -1.0280 -1.3439 -0.7104
 8147SOL    HW235904   4.377   3.748  10.429 -0.0163 -0.2220  0.7863
 8148SOL     OW35905   0.787   4.555  14.841  0.2354  0.5981  0.4082
 8148SOL    HW135906   0.818   4.472  14.877  0.6121 -0.1883 -1.7427
 8148SOL    HW235907   0.792   4.616  14.915  1.6786  1.7051 -0.5962
 8149SOL     OW35908   4.599   4.118  14.851 -0.4185  0.2246 -0.4439
 8149SOL    HW135909   4.619   4.089  14.762 -1.3864 -0.8344 -0.3219
 8149SOL    HW235910   4.667   4.081  14.908 -0.1954 -0.1014 -0.9276
 8150SOL     OW35911   2.801   0.678   2.955  0.0853  0.2821  0.0528
 8150SOL    HW135912   2.823   0.679   3.048 -0.6577  1.2732  0.2247
 8150SOL    HW235913   2.878   0.631   2.925 -0.1506 -1.3483  2.0049
 8151SOL     OW35914   0.771   2.008   8.448 -0.4683 -0.4395 -0.6368
 8151SOL    HW135915   0.741   2.067   8.517  1.4917  0.8819 -0.8998
 8151SOL    HW235916   0.694   2.008   8.392 -1.3096 -1.2822  0.5348
 8152SOL     OW35917   0.825   1.103   2.741  0.3568  0.1181  0.0070
 8152SOL    HW135918   0.819   1.184   2.792  0.7458  1.6450 -2.3764
 8152SOL    HW235919   0.892   1.146   2.688  1.1834  1.0082  1.7974
 8153SOL     OW35920   3.490   1.542  11.495  0.4676  0.2117 -0.0491
 8153SOL    HW135921   3.530   1.508  11.576  1.6730 -1.0367 -1.1621
 8153SOL    HW235922   3.561   1.592  11.456  1.6791 -1.5998 -0.1586
 8154SOL     OW35923   4.637   0.545  17.303 -0.2409 -0.0300 -0.2329
 8154SOL    HW135924   4.679   0.630  17.286 -3.2370  1.4349 -0.2752
 8154SOL    HW235925   4.610   0.545  17.395  0.6106  0.2124  0.0168
 8155SOL     OW35926   0.170   1.786   4.616  0.2291 -1.0137 -0.1077
 8155SOL    HW135927   0.089   1.771   4.566  0.0486 -1.6727  0.3797
 8155SOL    HW235928   0.152   1.867   4.662 -2.2135 -1.1893 -0.7282
 8156SOL     OW35929   0.855   1.628   1.607 -0.0679 -0.1876 -0.1674
 8156SOL    HW135930   0.810   1.558   1.559  1.0865  0.3544 -2.0441
 8156SOL    HW235931   0.942   1.623   1.567  1.1110 -0.5717  2.4629
 8157SOL     OW35932   2.732   0.661  11.018 -0.0492  0.4033 -0.4847
 8157SOL    HW135933   2.804   0.598  11.026 -1.3586 -1.3286 -2.5628
 8157SOL    HW235934   2.783   0.740  10.997  1.0294 -0.2728 -0.4107
 8158SOL     OW35935   2.750   3.004   6.916 -0.0337  0.2419 -0.5073
 8158SOL    HW135936   2.750   3.010   6.820 -0.2924  0.8117 -0.4717
 8158SOL    HW235937   2.661   3.036   6.929 -0.2326 -0.7917  0.6306
 8159SOL     OW35938   3.396   1.926  14.586 -0.4022  0.0788  0.0739
 8159SOL    HW135939   3.320   1.907  14.640 -0.8209  0.2740 -0.4502
 8159SOL    HW235940   3.376   2.019  14.574  1.4529  0.0724 -3.1652
 8160SOL     OW35941   3.253   4.296   4.579  0.5508 -0.1738  0.2237
 8160SOL    HW135942   3.188   4.263   4.642  2.3873 -1.9944  1.1730
 8160SOL    HW235943   3.219   4.384   4.566 -1.0281 -0.6223  1.2519
 8161SOL     OW35944   0.828   0.715   0.544 -0.4453  0.8838  0.3718
 8161SOL    HW135945   0.796   0.626   0.525 -1.2796  1.7328 -2.2085
 8161SOL    HW235946   0.881   0.707   0.623  1.5735  0.5689 -1.0119
 8162SOL     OW35947   2.363   2.803   7.889  0.2052 -0.2294 -0.4558
 8162SOL    HW135948   2.292   2.815   7.826 -0.0642 -0.9939 -0.2989
 8162SOL    HW235949   2.436   2.858   7.860 -1.7417  0.4425 -4.0867
 8163SOL     OW35950   3.657   2.763  11.912 -0.5584 -0.3201  0.6755
 8163SOL    HW135951   3.627   2.851  11.932 -1.6647  0.2615 -3.5899
 8163SOL    HW235952   3.699   2.748  11.997  2.4569 -0.6239 -0.8309
 8164SOL     OW35953   3.138   3.590   8.527  0.1109 -0.0937 -0.4546
 8164SOL    HW135954   3.063   3.638   8.492  0.7450  2.0966  1.1507
 8164SOL    HW235955   3.206   3.656   8.512 -0.1018  0.3469  0.5329
 8165SOL     OW35956   1.160   2.436   7.885 -0.6477 -0.6859 -0.8197
 8165SOL    HW135957   1.160   2.340   7.887  1.1792 -0.6863 -0.4559
 8165SOL    HW235958   1.065   2.450   7.885 -0.5376  0.0683 -0.5409
 8166SOL     OW35959   2.997   0.064   5.369  0.0654  0.3739  0.1525
 8166SOL    HW135960   2.981   0.071   5.463 -0.6678 -0.8043  0.1127
 8166SOL    HW235961   2.971   4.696   5.355 -0.0423  0.2718  1.0243
 8167SOL     OW35962   1.181   3.030   8.585 -0.3351 -0.0330 -0.2805
 8167SOL    HW135963   1.122   2.955   8.573 -0.0515 -0.0526 -1.5461
 8167SOL    HW235964   1.220   3.007   8.669 -1.9199  0.7458  0.6746
 8168SOL     OW35965   3.398   3.060   6.593 -0.1426 -0.2199 -0.6102
 8168SOL    HW135966   3.337   3.003   6.641  1.2402 -0.0286  1.3513
 8168SOL    HW235967   3.445   3.082   6.673 -1.3824  1.3622 -0.3039
 8169SOL     OW35968   1.442   3.117   7.100 -0.4876  0.2985  0.4690
 8169SOL    HW135969   1.521   3.063   7.108  0.3449  1.2018 -1.7687
 8169SOL    HW235970   1.470   3.179   7.033  0.0558 -0.7788 -0.2872
 8170SOL     OW35971   2.345   2.327   5.764 -0.6860  0.2897  0.5830
 8170SOL    HW135972   2.277   2.351   5.701  0.2876 -2.9629 -1.7308
 8170SOL    HW235973   2.364   2.416   5.793  2.1554  0.4063 -1.6141
 8171SOL     OW35974   4.234   0.250  16.570  0.1424  0.7444  0.0537
 8171SOL    HW135975   4.174   0.175  16.565  0.3415  0.6126 -0.2967
 8171SOL    HW235976   4.310   0.205  16.534 -0.2027  1.6002 -1.7144
 8172SOL     OW35977   1.513   3.772  11.162  0.3476 -0.1030 -0.0119
 8172SOL    HW135978   1.553   3.718  11.094 -1.5672 -0.4516 -0.8779
 8172SOL    HW235979   1.434   3.724  11.189 -0.8493  1.2479 -1.0993
 8173SOL     OW35980   1.313   2.608  15.737 -0.2294 -0.4492 -0.2516
 8173SOL    HW135981   1.331   2.587  15.645  0.2252 -0.2974 -0.1982
 8173SOL    HW235982   1.220   2.630  15.729 -0.0256  0.8517  0.9566
 8174SOL     OW35983   4.174   4.336  15.889 -0.0592 -1.1545  0.3979
 8174SOL    HW135984   4.100   4.306  15.942 -0.6710  0.3983  0.4098
 8174SOL    HW235985   4.240   4.354  15.956 -0.9355 -0.3339  1.0320
 8175SOL     OW35986   1.808   1.161   4.717  0.0368 -0.2051 -0.6097
 8175SOL    HW135987   1.777   1.247   4.688 -2.0065 -0.8450 -0.3797
 8175SOL    HW235988   1.774   1.100   4.651 -1.2738  0.1689 -0.2893
 8176SOL     OW35989   4.069   3.584  14.177  0.8457 -0.3568 -0.0487
 8176SOL    HW135990   4.103   3.652  14.119  0.6852  0.4975  0.8781
 8176SOL    HW235991   4.040   3.520  14.111  1.1310 -1.3312  0.7775
 8177SOL     OW35992   3.357   4.689  17.382 -0.2376  0.5295 -0.3669
 8177SOL    HW135993   3.330   4.600  17.406  0.3568  0.5537  0.3723
 8177SOL    HW235994   3.426   4.683  17.315  1.9540 -2.9856  2.2176
 8178SOL     OW35995   0.982   2.576   5.339  0.2228 -0.0860  0.0913
 8178SOL    HW135996   0.964   2.498   5.287 -0.8993 -0.7503  1.4924
 8178SOL    HW235997   0.955   2.649   5.283  0.8109 -1.6970 -2.2877
 8179SOL     OW35998   1.345   3.624   9.681  0.3051  0.0090  0.1087
 8179SOL    HW135999   1.349   3.719   9.689  1.5948 -0.0858  0.5643
 8179SOL    HW236000   1.306   3.587   9.761 -0.6770  2.4066  0.7423
 8180SOL     OW36001   2.404   3.880   5.270 -0.6507 -0.0334  0.1094
 8180SOL    HW136002   2.393   3.935   5.193 -2.8320  0.3845  0.7147
 8180SOL    HW236003   2.440   3.800   5.231  3.0441  1.4266  0.5063
 8181SOL     OW36004   0.022   2.223   7.535  0.1653  0.1672  0.2589
 8181SOL    HW136005   4.687   2.281   7.585  1.6540  1.1292  0.8605
 8181SOL    HW236006   4.698   2.140   7.546  0.6062  0.0162  0.9695
 8182SOL     OW36007   2.659   0.679   5.392  0.2709  0.9675  0.3740
 8182SOL    HW136008   2.678   0.634   5.474 -3.4844 -1.1082  0.0789
 8182SOL    HW236009   2.749   0.707   5.374 -0.3768  1.7729 -1.6152
 8183SOL     OW36010   1.674   4.433  13.491 -0.1023  0.6426 -0.2262
 8183SOL    HW136011   1.638   4.399  13.573  0.5974  0.1797 -0.1164
 8183SOL    HW236012   1.656   4.526  13.508 -2.6869 -0.1891  1.6159
 8184SOL     OW36013   0.254   1.128   1.831 -0.2498 -0.1967 -0.2591
 8184SOL    HW136014   0.275   1.053   1.776 -0.8072  1.5459 -2.8719
 8184SOL    HW236015   0.292   1.201   1.783 -0.1748  0.7802  1.2888
 8185SOL     OW36016   2.297   3.466   9.174  0.3206  0.1687  0.5215
 8185SOL    HW136017   2.307   3.486   9.081  1.7000 -1.7014  0.2695
 8185SOL    HW236018   2.338   3.543   9.213 -0.7082 -0.0935  2.1036
 8186SOL     OW36019   3.314   3.816   5.853  0.1154  0.0368 -0.1095
 8186SOL    HW136020   3.402   3.781   5.868 -0.8033 -3.7219 -3.4408
 8186SOL    HW236021   3.332   3.901   5.893 -0.0803  0.3685 -0.7299
 8187SOL     OW36022   4.695   2.882   2.061  0.7652 -0.6169 -0.4559
 8187SOL    HW136023   0.016   2.968   2.065 -0.0988 -0.1486 -0.9698
 8187SOL    HW236024   0.045   2.820   2.065 -0.1891 -1.6266  0.8134
 8188SOL     OW36025   1.660   1.197   5.666  0.1644  0.2058 -0.1794
 8188SOL    HW136026   1.578   1.243   5.652 -0.4421 -0.0489  2.4637
 8188SOL    HW236027   1.638   1.139   5.740 -0.1236  1.8257  0.9921
 8189SOL     OW36028   3.318   0.191   5.015 -0.1658  0.8211 -0.4964
 8189SOL    HW136029   3.288   0.100   5.019 -1.8193  1.4174  0.9828
 8189SOL    HW236030   3.410   0.181   4.993  0.3908  1.0286  1.7516
 8190SOL     OW36031   2.152   3.479   3.340 -0.2003 -0.4160  0.3727
 8190SOL    HW136032   2.091   3.551   3.327  1.2308  1.0130  1.5547
 8190SOL    HW236033   2.161   3.459   3.433  1.1102  0.5965  0.4626
 8191SOL     OW36034   2.955   4.299   8.129 -0.2399 -0.5791 -0.1174
 8191SOL    HW136035   3.037   4.286   8.082  0.9420  2.5865  1.0896
 8191SOL    HW236036   2.949   4.235   8.200 -0.0252  2.5401  2.7045
 8192SOL     OW36037   2.306   3.266   6.707  0.2506 -0.1475 -0.4396
 8192SOL    HW136038   2.354   3.222   6.777 -0.4665 -1.6487 -0.8857
 8192SOL    HW236039   2.274   3.195   6.651  1.6774 -2.8481  2.1628
 8193SOL     OW36040   3.816   2.783   4.939 -0.1930  1.0053  0.7143
 8193SOL    HW136041   3.790   2.761   4.850  2.5828  1.8525 -0.2888
 8193SOL    HW236042   3.908   2.808   4.932 -0.4419  1.2650 -1.4300
 8194SOL     OW36043   1.972   3.198  14.811  0.0877  0.2007 -0.1419
 8194SOL    HW136044   1.949   3.288  14.836 -1.6392 -0.5324  0.8174
 8194SOL    HW236045   2.065   3.206  14.790  0.5198 -0.6296  1.4688
 8195SOL     OW36046   2.813   3.587   7.087  0.1184 -0.3753  0.1059
 8195SOL    HW136047   2.734   3.632   7.058  0.3393  0.1308  0.2809
 8195SOL    HW236048   2.855   3.579   7.001 -1.5201 -0.9898 -0.6365
 8196SOL     OW36049   3.125   4.515   6.725 -0.2063  0.0831 -0.0829
 8196SOL    HW136050   3.057   4.532   6.790  0.3476 -0.0561  0.5347
 8196SOL    HW236051   3.165   4.601   6.738 -0.8877  0.5380 -1.0280
 8197SOL     OW36052   1.384   2.880  15.166 -0.3299 -0.6377  0.1802
 8197SOL    HW136053   1.303   2.854  15.209 -1.0145 -0.3878 -0.9436
 8197SOL    HW236054   1.439   2.803  15.181  0.9240  0.0858 -0.7289
 8198SOL     OW36055   4.632   0.178   4.385  0.1195  0.0451  0.0183
 8198SOL    HW136056   4.539   0.180   4.405  0.4181 -0.1765  1.3842
 8198SOL    HW236057   4.628   0.156   4.292 -1.8132 -0.6469  0.2531
 8199SOL     OW36058   3.989   1.202   7.941  0.3509 -0.1101 -0.4714
 8199SOL    HW136059   3.998   1.162   7.855  0.6031  2.5957 -1.7014
 8199SOL    HW236060   3.980   1.128   8.001 -0.1405 -1.3595 -2.0965
 8200SOL     OW36061   1.014   4.482   8.003 -0.1158 -0.7153  0.1806
 8200SOL    HW136062   0.988   4.572   8.019 -1.1414 -1.1070  0.7539
 8200SOL    HW236063   0.958   4.428   8.060 -1.7258 -1.9531 -2.6137
 8201SOL     OW36064   2.027   2.748   9.207 -0.6496  0.6371  0.1950
 8201SOL    HW136065   2.115   2.751   9.168 -0.7882 -2.2546 -0.3567
 8201SOL    HW236066   1.982   2.827   9.175 -0.1853  1.2829  1.1287
 8202SOL     OW36067   0.040   2.564   7.391 -0.1929  0.5020 -0.4789
 8202SOL    HW136068   4.714   2.591   7.468  0.8790  0.0677  0.3511
 8202SOL    HW236069   0.088   2.642   7.364  2.1297 -0.7628 -0.0902
 8203SOL     OW36070   4.631   1.790   3.389  0.1490 -0.1105 -0.2604
 8203SOL    HW136071   4.535   1.787   3.391  0.1684 -1.4984 -1.0467
 8203SOL    HW236072   4.639   1.859   3.323  1.7635  2.2196  2.3962
 8204SOL     OW36073   4.272   3.243   7.953 -0.0278 -0.1481 -0.5346
 8204SOL    HW136074   4.245   3.314   7.894 -0.0437 -1.7403 -2.4535
 8204SOL    HW236075   4.284   3.285   8.038  2.9116 -0.8257 -0.6034
 8205SOL     OW36076   3.937   0.828  14.177  0.0361  1.0312  0.1162
 8205SOL    HW136077   3.953   0.735  14.189 -0.3030  1.0411  0.6570
 8205SOL    HW236078   3.955   0.840  14.084  2.6598 -0.0909  0.4646
 8206SOL     OW36079   2.752   2.898   1.948  0.1277 -0.6458 -0.0824
 8206SOL    HW136080   2.774   2.986   1.978 -0.6744  0.1191 -1.7859
 8206SOL    HW236081   2.695   2.915   1.873 -2.0658 -0.4391  1.6123
 8207SOL     OW36082   3.796   4.647   2.167  0.4622 -0.6382 -0.0888
 8207SOL    HW136083   3.804   4.552   2.154  3.0556 -0.5772  1.1860
 8207SOL    HW236084   3.874   4.681   2.210 -0.2433  3.1543 -1.8649
 8208SOL     OW36085   1.930   1.732   4.238 -0.2908 -0.0957 -0.5499
 8208SOL    HW136086   1.952   1.681   4.160 -0.1166 -0.5572 -0.1998
 8208SOL    HW236087   1.883   1.811   4.215  0.2087  0.4677  0.3718
 8209SOL     OW36088   0.184   0.204   1.407  0.2022  0.3092 -0.6026
 8209SOL    HW136089   0.090   0.214   1.394 -0.2029 -0.7462  1.4930
 8209SOL    HW236090   0.220   0.219   1.320 -1.1392  2.3486 -0.8048
 8210SOL     OW36091   0.365   1.394   0.421 -0.3465  0.0979  0.2878
 8210SOL    HW136092   0.352   1.406   0.516 -1.4536  1.5960 -0.0341
 8210SOL    HW236093   0.380   1.485   0.395 -1.3447  0.0061 -0.6134
 8211SOL     OW36094   3.741   0.550   6.216 -0.6903  0.1354  0.2249
 8211SOL    HW136095   3.715   0.628   6.264  1.2620 -0.2742  1.9472
 8211SOL    HW236096   3.763   0.577   6.127  0.5335 -0.7064  0.2707
 8212SOL     OW36097   0.073   2.107  13.455  0.6589 -0.1456  0.3617
 8212SOL    HW136098   0.122   2.115  13.536  1.5733 -1.3031 -0.0742
 8212SOL    HW236099   0.038   2.196  13.448  1.3903  0.1604  0.6575
 8213SOL     OW36100   4.502   0.196   7.261 -0.2363 -1.0130  0.3580
 8213SOL    HW136101   4.450   0.185   7.340 -1.4523  2.2639  0.0071
 8213SOL    HW236102   4.476   0.286   7.239  1.7470 -0.0458  1.9819
 8214SOL     OW36103   4.303   1.647   3.980  0.2472  0.2138  1.2140
 8214SOL    HW136104   4.258   1.731   3.993 -3.1612 -1.3730 -0.1008
 8214SOL    HW236105   4.337   1.636   4.069  0.4723  3.0647  1.4761
 8215SOL     OW36106   4.106   3.428  13.698 -0.0051 -0.7020 -0.1336
 8215SOL    HW136107   4.112   3.498  13.634 -0.4189 -0.7482 -0.2234
 8215SOL    HW236108   4.174   3.371  13.662  0.3802 -0.8086  0.7628
 8216SOL     OW36109   0.674   0.110   0.821 -0.1174 -0.1537  0.2169
 8216SOL    HW136110   0.650   0.018   0.813  1.7555 -0.5290 -1.0167
 8216SOL    HW236111   0.598   0.140   0.770 -0.2248  0.5933  0.8229
 8217SOL     OW36112   2.356   3.871  15.587 -0.5251  0.2359 -0.0905
 8217SOL    HW136113   2.435   3.834  15.547 -0.9158  0.4958 -1.1042
 8217SOL    HW236114   2.295   3.842  15.520  0.6182  0.7410 -1.3611
 8218SOL     OW36115   0.356   1.620   4.090  0.7512  0.1080  0.1012
 8218SOL    HW136116   0.264   1.643   4.081  0.7958 -1.0231 -3.0786
 8218SOL    HW236117   0.362   1.620   4.186 -2.0867  1.0090  0.2778
 8219SOL     OW36118   4.086   2.399  12.813 -0.7167  0.1780  0.2560
 8219SOL    HW136119   4.068   2.375  12.722 -0.5071 -1.3959  0.6170
 8219SOL    HW236120   3.999   2.385  12.849 -0.9484  1.1638  0.0551
 8220SOL     OW36121   1.333   0.546   2.819  0.0612 -0.3824 -0.3074
 8220SOL    HW136122   1.296   0.618   2.769 -1.7226 -2.1812 -1.6053
 8220SOL    HW236123   1.271   0.532   2.891 -0.5578  1.2487 -0.5318
 8221SOL     OW36124   3.717   0.136  11.981 -0.2731 -0.2206  0.0555
 8221SOL    HW136125   3.690   0.060  12.033  2.7703 -0.4976  1.2337
 8221SOL    HW236126   3.807   0.109  11.963  0.5059  2.7741 -0.6138
 8222SOL     OW36127   4.655   1.469   7.841  0.1300  0.2676 -0.4905
 8222SOL    HW136128   4.577   1.414   7.844  0.3773 -0.0358  0.4403
 8222SOL    HW236129   4.709   1.417   7.781 -2.2549 -0.9994 -1.5691
 8223SOL     OW36130   2.736   4.383  14.360 -0.5519  0.0420 -0.0412
 8223SOL    HW136131   2.673   4.360  14.428  0.7201  0.9344  1.4415
 8223SOL    HW236132   2.766   4.305  14.312 -0.1619  0.5261 -0.5880
 8224SOL     OW36133   1.977   1.333   7.364 -0.4401  0.5201 -0.6884
 8224SOL    HW136134   2.027   1.393   7.308  0.0239  0.8735  0.1104
 8224SOL    HW236135   1.944   1.398   7.426  0.6623 -1.3162  1.8032
 8225SOL     OW36136   4.415   4.101   5.264  0.4671 -0.5795 -0.5570
 8225SOL    HW136137   4.331   4.136   5.294  0.2280 -0.0344 -1.8832
 8225SOL    HW236138   4.459   4.125   5.346 -1.6926  1.2813  0.0421
 8226SOL     OW36139   0.775   3.738  14.020  0.1093 -0.3728  0.2403
 8226SOL    HW136140   0.694   3.779  14.049  1.1574  0.6625  1.6935
 8226SOL    HW236141   0.800   3.813  13.965 -1.3840 -0.6523 -0.8292
 8227SOL     OW36142   3.630   3.546   2.500 -0.1925  0.1125 -0.3146
 8227SOL    HW136143   3.550   3.521   2.453  0.8628 -0.5618 -1.7728
 8227SOL    HW236144   3.625   3.481   2.570 -1.2005  0.3952 -0.1272
 8228SOL     OW36145   0.516   0.636   8.586  0.0158 -0.2287 -0.1335
 8228SOL    HW136146   0.560   0.616   8.668 -1.3944 -0.5566  0.5408
 8228SOL    HW236147   0.528   0.731   8.587  2.5057 -0.5744  1.6321
 8229SOL     OW36148   0.550   0.702  13.447  0.0596  0.1995  0.0604
 8229SOL    HW136149   0.473   0.758  13.461 -1.3911 -1.4960 -1.0321
 8229SOL    HW236150   0.610   0.725  13.517 -0.2481 -1.0991  0.7639
 8230SOL     OW36151   0.510   1.466   1.978  0.0204 -0.5611 -0.0278
 8230SOL    HW136152   0.586   1.415   2.005 -0.8470 -2.1219 -0.4922
 8230SOL    HW236153   0.490   1.515   2.058 -2.1321 -0.2344 -0.7744
 8231SOL     OW36154   0.110   2.685   3.023  0.0148 -0.3413 -0.2081
 8231SOL    HW136155   0.092   2.668   2.930  0.5760  0.6452 -0.4998
 8231SOL    HW236156   0.188   2.632   3.038 -0.5710 -0.8192  1.1798
 8232SOL     OW36157   4.001   4.171   8.738  0.2877 -0.2336  0.0458
 8232SOL    HW136158   3.947   4.098   8.768 -1.1640  1.0067  0.4262
 8232SOL    HW236159   4.091   4.137   8.742 -0.0553 -1.0396  0.8444
 8233SOL     OW36160   1.848   3.328   2.242  0.0290  0.1058 -0.5748
 8233SOL    HW136161   1.753   3.321   2.242  0.0974 -0.7719 -0.9907
 8233SOL    HW236162   1.851   3.424   2.236  1.9427  0.1047  0.2490
 8234SOL     OW36163   4.070   1.955   4.091 -0.7984  0.6950  0.5615
 8234SOL    HW136164   4.153   2.000   4.075 -0.3487  0.8662  3.3959
 8234SOL    HW236165   4.028   1.973   4.007  0.8404 -0.3907 -0.5001
 8235SOL     OW36166   4.185   1.644   7.592  0.6977  0.1028  0.1485
 8235SOL    HW136167   4.133   1.596   7.656 -1.1013 -2.3332 -3.0972
 8235SOL    HW236168   4.139   1.726   7.579 -0.0534 -0.1806  1.0134
 8236SOL     OW36169   3.546   4.597   8.762  0.7322 -0.2332  0.1551
 8236SOL    HW136170   3.594   4.653   8.701 -0.3862 -2.1044 -2.4447
 8236SOL    HW236171   3.623   4.542   8.774  1.4224  0.5614 -0.5994
 8237SOL     OW36172   4.540   3.305   3.770 -0.2709 -0.0080 -0.6871
 8237SOL    HW136173   4.521   3.388   3.726  0.1987 -0.4261 -1.7025
 8237SOL    HW236174   4.480   3.311   3.844  0.6625  1.1403 -0.0209
 8238SOL     OW36175   3.121   4.066   0.784 -0.0984  0.1695  0.3327
 8238SOL    HW136176   3.209   4.072   0.822 -0.0655 -0.6479  0.3948
 8238SOL    HW236177   3.143   4.077   0.692  0.6248  2.9553  0.8365
 8239SOL     OW36178   0.743   2.217   2.576  0.0282  0.3423 -0.1645
 8239SOL    HW136179   0.661   2.210   2.626  0.6760  1.1292  1.0047
 8239SOL    HW236180   0.773   2.306   2.594  0.9337 -0.1313  0.6231
 8240SOL     OW36181   2.399   2.897  10.525 -0.1679 -0.7050  0.4808
 8240SOL    HW136182   2.376   2.976  10.477  3.2346  0.4867  0.7837
 8240SOL    HW236183   2.326   2.838  10.506  0.0958 -1.1855  0.9433
 8241SOL     OW36184   3.269   2.388   6.261 -0.1278 -0.0005  0.3455
 8241SOL    HW136185   3.186   2.422   6.229 -0.6825 -1.7403 -0.0789
 8241SOL    HW236186   3.251   2.343   6.343 -0.8882 -3.0436 -1.4807
 8242SOL     OW36187   3.169   0.530  16.631  0.5970  0.0369 -0.1314
 8242SOL    HW136188   3.233   0.519  16.561  0.2129 -0.3324 -0.4199
 8242SOL    HW236189   3.198   0.607  16.680  0.6765 -0.0559 -0.0300
 8243SOL     OW36190   3.575   0.162   6.711  0.1763 -0.2291 -0.6345
 8243SOL    HW136191   3.642   0.225   6.740 -0.2778  0.1085 -0.3088
 8243SOL    HW236192   3.577   0.092   6.777  1.5936  0.2059 -0.2224
 8244SOL     OW36193   3.179   3.798   1.034  0.4613 -0.1982 -0.2668
 8244SOL    HW136194   3.186   3.723   1.092  0.2339 -1.3026 -1.6619
 8244SOL    HW236195   3.263   3.842   1.048 -0.4736  2.0780 -1.6074
 8245SOL     OW36196   0.556   0.055  15.057  0.1016 -0.8377  0.3830
 8245SOL    HW136197   0.551   4.687  15.088  1.3813 -1.1274 -0.2343
 8245SOL    HW236198   0.651   0.058  15.046  0.1772 -0.1073  1.2869
 8246SOL     OW36199   2.082   1.546   8.350  0.1550 -0.3156  0.2927
 8246SOL    HW136200   1.991   1.572   8.334  0.5307  0.8101 -0.0061
 8246SOL    HW236201   2.105   1.508   8.266 -3.1071  0.7927 -1.0788
 8247SOL     OW36202   2.177   4.553   7.407 -0.3754 -0.0975  0.4388
 8247SOL    HW136203   2.083   4.550   7.390 -0.5943  3.5012  0.9704
 8247SOL    HW236204   2.211   4.560   7.318  0.7915  1.4446  0.9997
 8248SOL     OW36205   2.688   2.774   5.836  0.1019 -0.0359  0.0908
 8248SOL    HW136206   2.690   2.826   5.916  0.5083 -0.1141  0.1337
 8248SOL    HW236207   2.758   2.827   5.796  1.7597 -2.0983  0.2607
 8249SOL     OW36208   2.323   2.285   1.376 -0.3030  0.2603 -0.1897
 8249SOL    HW136209   2.280   2.292   1.462 -0.3264 -1.3967 -0.0739
 8249SOL    HW236210   2.269   2.222   1.329  1.2623 -1.8896  0.8830
 8250SOL     OW36211   1.596   3.377   5.019  0.3491  0.3183 -0.2845
 8250SOL    HW136212   1.629   3.324   4.946  0.5783 -0.9099  0.7133
 8250SOL    HW236213   1.536   3.308   5.048 -1.2735  1.8803  0.0708
 8251SOL     OW36214   4.196   0.547   8.170  0.8652  0.1301 -0.1354
 8251SOL    HW136215   4.170   0.497   8.247 -0.8746  2.4670  0.8262
 8251SOL    HW236216   4.288   0.563   8.189  1.1225 -0.8590 -0.6091
 8252SOL     OW36217   4.217   3.896   6.539  0.2162  0.4691  0.5703
 8252SOL    HW136218   4.242   3.986   6.520  0.1389  0.4053  0.1619
 8252SOL    HW236219   4.264   3.879   6.621 -0.6254  0.2272  1.0080
 8253SOL     OW36220   2.613   1.054   6.228 -0.4085 -0.0678  0.1354
 8253SOL    HW136221   2.525   1.017   6.223  0.5609 -2.3017 -0.4821
 8253SOL    HW236222   2.593   1.136   6.183  1.5857  0.0951 -0.4804
 8254SOL     OW36223   4.289   4.631  12.297  0.3847  0.1420  0.0696
 8254SOL    HW136224   4.204   4.647  12.337  1.2318  0.3671  1.7825
 8254SOL    HW236225   4.347   4.683  12.352  1.1831 -0.2942 -0.3590
 8255SOL     OW36226   3.156   3.240   4.340 -0.0164  0.0075  0.1473
 8255SOL    HW136227   3.221   3.299   4.302 -0.0664  0.1914  0.3504
 8255SOL    HW236228   3.204   3.227   4.422 -0.2107 -0.9017  0.1163
 8256SOL     OW36229   1.275   3.216   1.978 -0.4087 -0.5078 -0.0876
 8256SOL    HW136230   1.362   3.255   1.967 -0.2728 -0.8644 -0.2910
 8256SOL    HW236231   1.237   3.293   1.936 -0.2183 -0.4606 -0.1757
 8257SOL     OW36232   1.825   0.983   1.899 -0.1190 -0.2639 -0.5417
 8257SOL    HW136233   1.769   0.958   1.972 -0.7469  0.0662 -0.9130
 8257SOL    HW236234   1.815   1.078   1.905  2.0526  0.0889 -2.2930
 8258SOL     OW36235   4.713   0.083   5.543  0.1791  0.1181 -0.2321
 8258SOL    HW136236   0.062   0.115   5.487  0.9687  0.1475  0.7957
 8258SOL    HW236237   4.662   0.023   5.490  0.2547  0.2135 -0.4139
 8259SOL     OW36238   1.311   4.591   2.864  0.2990  0.3836 -0.2891
 8259SOL    HW136239   1.346   4.512   2.905 -1.8598  0.5451  1.8244
 8259SOL    HW236240   1.331   4.659   2.928 -1.2977  1.1919 -0.6657
 8260SOL     OW36241   1.648   1.431   2.553 -0.2313 -0.2424 -0.7915
 8260SOL    HW136242   1.603   1.349   2.571  1.3508 -0.8049  0.6304
 8260SOL    HW236243   1.737   1.400   2.536 -0.2037 -1.6469  1.8406
 8261SOL     OW36244   3.648   2.952  15.077 -0.0048  1.0320  0.1957
 8261SOL    HW136245   3.707   2.905  15.136  0.2458  0.2205 -0.7137
 8261SOL    HW236246   3.611   2.892  15.012 -0.9112  1.9556 -0.1431
 8262SOL     OW36247   3.086   4.219  10.270  0.6627 -0.1267 -0.3591
 8262SOL    HW136248   3.053   4.162  10.201  2.0793  0.2493 -1.3623
 8262SOL    HW236249   3.151   4.263  10.214 -0.5580  1.4720 -0.4932
 8263SOL     OW36250   0.451   0.437  13.469 -0.0132  0.3024  0.0586
 8263SOL    HW136251   0.511   0.503  13.504 -0.7993 -0.7423  3.3385
 8263SOL    HW236252   0.430   0.484  13.389  1.6945  0.5995 -0.2039
 8264SOL     OW36253   3.827   2.684  14.953  0.5485  0.2241  0.8053
 8264SOL    HW136254   3.909   2.637  14.969  0.9594  1.0606  1.1592
 8264SOL    HW236255   3.868   2.748  14.895  0.2063 -1.8925 -1.8041
 8265SOL     OW36256   2.495   2.589   8.733  0.6668 -0.3174  0.0727
 8265SOL    HW136257   2.461   2.633   8.655  1.7904  0.1955 -0.1280
 8265SOL    HW236258   2.435   2.607   8.806  0.5693 -3.2902  0.7501
 8266SOL     OW36259   2.430   0.383   8.509  0.0668  0.3865 -0.6279
 8266SOL    HW136260   2.388   0.456   8.464  0.1790  1.2560  0.6903
 8266SOL    HW236261   2.463   0.327   8.438 -0.4756 -1.6562  0.7329
 8267SOL     OW36262   3.976   4.664  17.404  0.1574  0.6944 -0.3829
 8267SOL    HW136263   3.954   4.685  17.314 -1.1996 -0.4219 -0.3086
 8267SOL    HW236264   3.940   0.010  17.461  3.3672  0.5508  1.8588
 8268SOL     OW36265   0.983   4.692   3.377 -0.1921  0.6261 -0.0441
 8268SOL    HW136266   0.974   4.691   3.472  3.1475  0.6156  0.2503
 8268SOL    HW236267   0.892   4.688   3.348 -0.2845  0.1233  0.3299
 8269SOL     OW36268   2.641   2.998   1.333 -0.3555 -0.0372  0.3941
 8269SOL    HW136269   2.565   3.044   1.295  0.4906  0.2006 -1.0051
 8269SOL    HW236270   2.608   2.989   1.423  4.6808  0.8048  2.2936
 8270SOL     OW36271   0.263   3.658   2.024 -0.2527  0.2058  0.2109
 8270SOL    HW136272   0.194   3.717   2.053  0.4991  0.3435  1.6954
 8270SOL    HW236273   0.250   3.677   1.931  1.6452 -0.9111 -0.2942
 8271SOL     OW36274   1.571   1.719   3.329 -0.3518 -0.1352 -0.0827
 8271SOL    HW136275   1.519   1.644   3.357  1.2392 -0.2603  2.5149
 8271SOL    HW236276   1.603   1.688   3.244  0.2215 -0.2068  0.1591
 8272SOL     OW36277   1.219   0.545  13.991 -0.5775 -0.5371 -0.2892
 8272SOL    HW136278   1.124   0.548  13.997 -0.5963 -0.4335 -0.6661
 8272SOL    HW236279   1.259   0.486  14.055  0.7848 -0.2583 -0.8846
 8273SOL     OW36280   3.851   4.388   2.111  0.0678  0.1445 -0.1037
 8273SOL    HW136281   3.845   4.370   2.017  0.9259  0.2979 -0.1969
 8273SOL    HW236282   3.916   4.326   2.143  1.8602  2.2823  0.4285
 8274SOL     OW36283   2.182   1.633   4.604 -0.8555  0.0908  0.3081
 8274SOL    HW136284   2.153   1.724   4.609  1.1894  0.6700  1.6098
 8274SOL    HW236285   2.173   1.618   4.510 -1.1247  2.8386 -0.1103
 8275SOL     OW36286   1.418   3.872   4.544  0.2610 -0.1103  0.5111
 8275SOL    HW136287   1.358   3.902   4.612  0.2119 -0.3689  0.5823
 8275SOL    HW236288   1.503   3.872   4.589  0.6701  3.1181 -0.2839
 8276SOL     OW36289   3.273   0.049   7.924  0.0511 -0.2426  0.0299
 8276SOL    HW136290   3.340   0.085   7.982  1.0272 -1.1606 -0.5279
 8276SOL    HW236291   3.312   4.691   7.890  0.3028 -0.0558 -0.1178
 8277SOL     OW36292   0.290   3.348   8.023 -0.2695 -0.3819  0.8261
 8277SOL    HW136293   0.248   3.276   7.976 -1.3052 -1.2461  3.0790
 8277SOL    HW236294   0.360   3.295   8.062  0.0515 -1.1081 -0.7450
 8278SOL     OW36295   0.588   3.158  12.636  0.2433  0.4695  0.5494
 8278SOL    HW136296   0.493   3.165  12.629  0.2441  2.5213  2.8392
 8278SOL    HW236297   0.605   3.073  12.594 -0.9968 -0.2823  1.5544
 8279SOL     OW36298   3.747   3.858   6.413 -0.1063  0.5511 -0.6375
 8279SOL    HW136299   3.778   3.945   6.391 -0.3795  0.7674 -0.1812
 8279SOL    HW236300   3.760   3.804   6.335  0.1842 -0.2515 -0.0338
 8280SOL     OW36301   1.404   1.694   5.876 -0.7538  0.3106  0.3396
 8280SOL    HW136302   1.482   1.735   5.913 -0.5930 -0.1817  0.5442
 8280SOL    HW236303   1.371   1.648   5.954 -0.2958  0.4349  0.6062
 8281SOL     OW36304   4.628   1.371   4.744  0.3086 -0.2723 -0.3006
 8281SOL    HW136305   4.671   1.333   4.820 -0.5111 -0.1753  0.2039
 8281SOL    HW236306   4.699   1.431   4.722 -0.7464  0.9955 -0.2688
 8282SOL     OW36307   1.019   3.434   0.581 -0.4408  0.3876  0.0205
 8282SOL    HW136308   1.051   3.444   0.671 -0.3186 -2.7210  0.3286
 8282SOL    HW236309   1.012   3.524   0.550 -0.8720  0.3194 -0.0860
 8283SOL     OW36310   0.548   1.057  10.437  0.6200  0.5746 -0.0814
 8283SOL    HW136311   0.490   1.056  10.514  0.9761 -0.2783  0.1754
 8283SOL    HW236312   0.629   1.012  10.460  0.5421  0.4924  0.0343
 8284SOL     OW36313   3.965   0.952  17.311  0.5018  0.3795  0.3588
 8284SOL    HW136314   4.034   0.952  17.244 -1.1212  1.8182 -1.3365
 8284SOL    HW236315   3.997   1.007  17.382  2.2007 -1.2339  0.8447
 8285SOL     OW36316   1.846   0.799   6.353 -0.1710  0.4108 -0.4844
 8285SOL    HW136317   1.843   0.894   6.347  2.6311  0.5788  0.6576
 8285SOL    HW236318   1.788   0.774   6.425 -1.5718 -0.2089 -1.8377
 8286SOL     OW36319   1.702   4.686   2.875 -0.4493 -0.7645  1.0163
 8286SOL    HW136320   1.682   0.054   2.900  0.2897 -0.4337  0.4130
 8286SOL    HW236321   1.782   4.670   2.925  1.3355  5.1349  0.1643
 8287SOL     OW36322   3.773   3.960   4.622  0.1744  0.5995  0.1989
 8287SOL    HW136323   3.849   3.959   4.564  0.9266 -2.9922  1.2595
 8287SOL    HW236324   3.707   3.938   4.557 -0.4052  0.9084  0.6802
 8288SOL     OW36325   0.417   1.370   2.734 -0.3675  0.2662 -0.0623
 8288SOL    HW136326   0.425   1.463   2.714  0.0108  0.3782  0.6253
 8288SOL    HW236327   0.481   1.339   2.671 -0.2720  1.5418 -0.6033
 8289SOL     OW36328   3.700   3.907   1.203 -0.3722 -0.3613 -0.4474
 8289SOL    HW136329   3.765   3.940   1.265 -2.5762  1.3478  0.9209
 8289SOL    HW236330   3.703   3.813   1.224  2.5728 -0.3465 -0.7011
 8290SOL     OW36331   1.090   2.541   7.506  0.5251  0.0984  0.0967
 8290SOL    HW136332   1.034   2.492   7.567 -1.2616  0.1631 -1.4871
 8290SOL    HW236333   1.025   2.599   7.466  0.1299 -0.6956 -0.4036
 8291SOL     OW36334   4.330   4.048  15.990  0.5559  0.2287 -0.5239
 8291SOL    HW136335   4.281   4.118  15.946 -0.0326  0.0117 -0.2143
 8291SOL    HW236336   4.335   4.069  16.083 -1.0005  0.7366 -0.5432
 8292SOL     OW36337   3.648   2.412   7.844  0.5406  0.2841 -0.7004
 8292SOL    HW136338   3.651   2.497   7.888 -0.9493 -1.6545  3.1513
 8292SOL    HW236339   3.698   2.362   7.909  0.6429  1.0885 -0.1573
 8293SOL     OW36340   0.906   1.660   4.753  0.4584 -0.0306  0.0104
 8293SOL    HW136341   0.930   1.573   4.785 -0.6349  0.0431  1.0378
 8293SOL    HW236342   0.992   1.692   4.725  0.8053  0.4350  1.5953
 8294SOL     OW36343   2.292   2.402   0.794  0.4767  0.5488  0.2880
 8294SOL    HW136344   2.208   2.397   0.747  0.0798  0.9733  0.9492
 8294SOL    HW236345   2.315   2.309   0.796 -0.4169  0.3233  0.0085
 8295SOL     OW36346   0.135   3.876   3.249  0.1420 -0.1701  0.6358
 8295SOL    HW136347   0.185   3.806   3.207 -0.2611  0.6767 -1.2184
 8295SOL    HW236348   0.098   3.916   3.171 -1.2976  0.3676  1.5769
 8296SOL     OW36349   2.730   0.045   7.528  0.0008  0.4535 -0.6611
 8296SOL    HW136350   2.766   0.015   7.611 -1.6330  0.7751  0.1474
 8296SOL    HW236351   2.718   4.687   7.477  3.1995 -1.0516  1.0271
 8297SOL     OW36352   3.530   4.129   7.798 -0.2729  0.2049  0.5025
 8297SOL    HW136353   3.491   4.146   7.884  0.2212  1.4608  0.4805
 8297SOL    HW236354   3.479   4.192   7.748 -1.3312 -1.8080 -0.9066
 8298SOL     OW36355   0.414   0.592   7.447  0.3660 -0.1219 -0.1237
 8298SOL    HW136356   0.327   0.571   7.414  0.6825 -1.8702  0.1237
 8298SOL    HW236357   0.463   0.521   7.404 -1.0481 -0.7132 -0.7353
 8299SOL     OW36358   3.773   0.329   6.795  0.0252  0.4001 -0.5379
 8299SOL    HW136359   3.818   0.264   6.849  0.2942  3.0528  2.4452
 8299SOL    HW236360   3.822   0.317   6.714  0.0474 -1.7942 -0.1848
 8300SOL     OW36361   4.484   3.186  11.789  0.0543 -0.8820 -0.2063
 8300SOL    HW136362   4.472   3.242  11.866  1.6353 -0.8746  0.0254
 8300SOL    HW236363   4.390   3.177  11.770  0.1897 -0.0238 -1.2680
 8301SOL     OW36364   4.228   0.615  17.518 -0.3985 -0.0188 -0.0143
 8301SOL    HW136365   4.193   0.661  17.594 -0.8316 -2.6122  1.3717
 8301SOL    HW236366   4.316   0.650  17.532 -0.4968 -0.9075  2.6850
 8302SOL     OW36367   3.615   4.351   4.587  0.8640 -0.3698  0.0849
 8302SOL    HW136368   3.697   4.320   4.625 -0.1512 -0.4166  2.2692
 8302SOL    HW236369   3.605   4.290   4.514  1.2037 -0.4605  0.1130
 8303SOL     OW36370   1.930   3.725   7.546 -0.6307  0.4218  0.4291
 8303SOL    HW136371   1.971   3.723   7.632 -0.3490  1.2440  0.3146
 8303SOL    HW236372   1.859   3.787   7.565 -1.0351  0.9601 -2.8297
 8304SOL     OW36373   2.790   0.697   7.658 -0.0305  0.6280 -0.3413
 8304SOL    HW136374   2.825   0.615   7.624 -0.0483  0.3901  0.2197
 8304SOL    HW236375   2.787   0.746   7.575  1.0787  2.0548  0.4625
 8305SOL     OW36376   2.754   3.644   0.113 -0.2028 -0.3049  0.0378
 8305SOL    HW136377   2.827   3.585   0.092  1.5545  2.3447 -1.2314
 8305SOL    HW236378   2.715   3.669   0.030  0.9543  2.9603  0.4665
 8306SOL     OW36379   1.351   3.210   4.772  0.1816  0.1608 -0.4250
 8306SOL    HW136380   1.291   3.276   4.808  0.7243  0.4225 -0.0064
 8306SOL    HW236381   1.316   3.192   4.684  0.7240 -2.1378 -0.1526
 8307SOL     OW36382   3.957   3.563   3.054 -0.0114  0.0624 -0.3913
 8307SOL    HW136383   3.990   3.482   3.015  1.2873  0.1925  0.4520
 8307SOL    HW236384   3.967   3.622   2.980  1.5911  0.0036 -0.2219
 8308SOL     OW36385   1.755   1.800   2.378  0.0804  0.6591  0.7410
 8308SOL    HW136386   1.673   1.756   2.402 -0.9952  0.6150 -2.9331
 8308SOL    HW236387   1.789   1.806   2.467 -0.2434 -0.2637  0.9295
 8309SOL     OW36388   2.184   3.902   2.667 -0.2662 -0.5391  0.2493
 8309SOL    HW136389   2.220   3.863   2.587 -2.3410 -0.7706 -0.5760
 8309SOL    HW236390   2.129   3.830   2.699 -1.2936  0.3189  0.4393
 8310SOL     OW36391   2.416   2.610   4.932 -0.2613 -0.4570 -0.5827
 8310SOL    HW136392   2.342   2.653   4.890 -0.6498 -0.1630  0.3844
 8310SOL    HW236393   2.472   2.688   4.929  0.0788 -0.5978  1.5816
 8311SOL     OW36394   4.558   0.820   4.505  0.3508  0.3553 -0.3324
 8311SOL    HW136395   4.648   0.788   4.510 -0.2331 -1.1515  0.7989
 8311SOL    HW236396   4.516   0.744   4.546  0.6925  1.1828  1.5392
 8312SOL     OW36397   0.475   0.192   5.519  0.6562  0.0975  0.0942
 8312SOL    HW136398   0.504   0.224   5.434 -0.3369 -2.4858 -1.2388
 8312SOL    HW236399   0.556   0.164   5.562 -0.1748 -0.6862  1.1439
 8313SOL     OW36400   2.923   1.221   6.451  0.7453  0.1451 -0.0889
 8313SOL    HW136401   2.890   1.310   6.457 -2.2573 -1.0620  1.6208
 8313SOL    HW236402   2.856   1.169   6.496  0.1028  1.2922  0.2624
 8314SOL     OW36403   3.530   3.605  13.365  0.3213 -0.0581  0.1832
 8314SOL    HW136404   3.542   3.653  13.283 -1.7211  1.0238  0.5173
 8314SOL    HW236405   3.435   3.594  13.363  0.3925 -0.7925  0.9677
 8315SOL     OW36406   2.661   4.092   6.698 -0.8220  0.2622 -0.1029
 8315SOL    HW136407   2.642   4.014   6.750 -1.3599  0.5365  0.1142
 8315SOL    HW236408   2.755   4.080   6.688 -0.2995  2.6619  1.9439
 8316SOL     OW36409   2.812   3.484   4.670 -0.3339  0.0287 -0.0447
 8316SOL    HW136410   2.782   3.542   4.741  0.5533  1.4042 -0.7893
 8316SOL    HW236411   2.877   3.546   4.637  0.5444 -0.0785  1.4981
 8317SOL     OW36412   4.624   4.407  14.674 -0.3612  0.1167  0.2157
 8317SOL    HW136413   4.700   4.359  14.642 -0.3318  2.6974 -3.6440
 8317SOL    HW236414   4.663   4.451  14.749  0.5883  1.5707 -1.1086
 8318SOL     OW36415   1.505   2.709  16.990 -0.4569 -0.5356 -0.2665
 8318SOL    HW136416   1.530   2.801  16.982 -3.1481  0.2636  0.7658
 8318SOL    HW236417   1.490   2.706  17.085  1.0192 -2.0236 -0.0805
 8319SOL     OW36418   3.019   0.373  16.930 -0.6731  0.0284 -0.2872
 8319SOL    HW136419   3.044   0.295  16.880 -2.4051  1.1123 -2.8399
 8319SOL    HW236420   3.104   0.415  16.937 -0.8353  0.2247  0.4657
 8320SOL     OW36421   1.319   4.453   6.398  0.2499 -0.1955  0.3691
 8320SOL    HW136422   1.323   4.364   6.434 -0.9462 -0.9496 -1.3907
 8320SOL    HW236423   1.393   4.450   6.337  0.2690  0.3185  0.3610
 8321SOL     OW36424   0.890   0.787   2.538 -0.1505  0.2249  0.1525
 8321SOL    HW136425   0.920   0.771   2.448  1.0198 -2.8545  1.0814
 8321SOL    HW236426   0.808   0.834   2.524 -2.1464 -3.2793  0.0941
 8322SOL     OW36427   1.032   2.828  16.566  0.7127  0.9234  0.3386
 8322SOL    HW136428   1.031   2.810  16.472 -0.7980 -0.4140  0.5982
 8322SOL    HW236429   0.952   2.881  16.572 -0.8539 -1.6324  1.9849
 8323SOL     OW36430   0.794   3.135   3.815 -0.1942  0.2119 -0.2120
 8323SOL    HW136431   0.761   3.052   3.781  1.5364 -0.0413 -1.2628
 8323SOL    HW236432   0.826   3.105   3.901  1.9159 -0.6712 -1.3128
 8324SOL     OW36433   3.399   3.841   1.184  0.4990 -0.1945  0.0572
 8324SOL    HW136434   3.490   3.868   1.168  0.1418  1.0847  0.2464
 8324SOL    HW236435   3.386   3.851   1.279  0.1024 -1.8327  0.1858
 8325SOL     OW36436   0.658   3.205   5.266  0.0289  0.0440 -0.1342
 8325SOL    HW136437   0.629   3.118   5.292  3.2212 -1.0007 -0.2069
 8325SOL    HW236438   0.692   3.247   5.345 -3.6981 -0.4856  1.7906
 8326SOL     OW36439   0.838   0.338   3.806 -0.1934  0.0861 -0.3240
 8326SOL    HW136440   0.866   0.248   3.823  0.5320  0.1489 -1.2251
 8326SOL    HW236441   0.789   0.350   3.888 -0.8225 -0.1791 -0.6533
 8327SOL     OW36442   1.372   2.706  16.566  0.0085  0.2803  0.0171
 8327SOL    HW136443   1.306   2.658  16.515 -1.0068  0.4751  1.1482
 8327SOL    HW236444   1.354   2.667  16.652 -1.6722 -2.0690 -1.3982
 8328SOL     OW36445   0.230   3.584   7.287 -0.8898  0.2427 -0.8459
 8328SOL    HW136446   0.156   3.534   7.253  0.4771 -1.4766 -1.2905
 8328SOL    HW236447   0.211   3.663   7.237 -1.8065  1.3410  1.2352
 8329SOL     OW36448   2.470   0.128   7.140 -0.0881 -0.0332  0.0967
 8329SOL    HW136449   2.466   0.033   7.123  0.1899  0.0370 -0.3608
 8329SOL    HW236450   2.439   0.132   7.230 -1.4011 -1.6112 -0.2789
 8330SOL     OW36451   0.186   3.592   3.195 -0.1784 -0.4238 -0.1360
 8330SOL    HW136452   0.125   3.527   3.162 -0.3444 -1.1734  1.6492
 8330SOL    HW236453   0.248   3.600   3.122 -1.0737 -0.5030 -0.8958
 8331SOL     OW36454   0.775   3.252   4.860  0.0282  0.6749 -0.2405
 8331SOL    HW136455   0.780   3.334   4.909  0.4712 -0.2607  1.2764
 8331SOL    HW236456   0.680   3.245   4.848 -0.0063  0.5587  0.0916
 8332SOL     OW36457   3.997   1.907   6.542  0.2397 -0.1115 -0.2653
 8332SOL    HW136458   4.073   1.856   6.514  2.2040 -0.0442  5.1175
 8332SOL    HW236459   3.941   1.834   6.570 -2.6502  2.5318  0.8584
 8333SOL     OW36460   4.271   4.630   5.845 -1.0096  0.3939 -0.1155
 8333SOL    HW136461   4.306   4.673   5.767  0.9229  0.2591  0.6753
 8333SOL    HW236462   4.351   4.619   5.898 -1.7965 -0.7202  0.8476
 8334SOL     OW36463   1.974   0.736   8.446  0.0992  0.8478 -0.4855
 8334SOL    HW136464   1.970   0.720   8.352 -2.2353  0.6585 -0.3637
 8334SOL    HW236465   1.884   0.757   8.473  0.7319  0.9622  1.5232
 8335SOL     OW36466   3.091   3.862   5.984 -0.6432 -0.2579 -0.1700
 8335SOL    HW136467   3.128   3.878   6.071 -0.7371 -0.2383 -0.1334
 8335SOL    HW236468   3.166   3.839   5.930  1.3265 -0.3576  2.5617
 8336SOL     OW36469   0.130   4.693   4.831  0.5415 -0.0435  0.1053
 8336SOL    HW136470   0.125   4.691   4.736 -1.0063  0.0837  0.1844
 8336SOL    HW236471   0.156   0.061   4.850  0.3333 -0.0182  0.2655
 8337SOL     OW36472   0.523   4.529   4.121  0.1032 -0.1175 -0.0679
 8337SOL    HW136473   0.543   4.557   4.211 -0.9940  0.7013 -0.0905
 8337SOL    HW236474   0.435   4.494   4.136  0.0916  0.1540  0.5150
 8338SOL     OW36475   3.387   1.746   7.933 -0.0450  0.0947 -0.1242
 8338SOL    HW136476   3.460   1.800   7.900 -1.9315  1.7229 -1.6321
 8338SOL    HW236477   3.353   1.705   7.854 -1.6369  0.2619  0.4795
 8339SOL     OW36478   3.330   0.276   1.398  0.3050 -0.5338  0.0548
 8339SOL    HW136479   3.355   0.337   1.328 -0.8725 -1.4833 -1.1945
 8339SOL    HW236480   3.355   0.328   1.474 -2.4172 -2.2494  2.1169
 8340SOL     OW36481   3.012   0.590   0.305  0.0973  0.2046 -0.2549
 8340SOL    HW136482   3.102   0.616   0.284  0.9741 -1.7639  1.1030
 8340SOL    HW236483   2.989   0.548   0.222  0.8909  2.6647 -1.7350
 8341SOL     OW36484   0.133   0.122  16.051  0.3694 -0.9036  0.1934
 8341SOL    HW136485   0.076   0.176  15.996  0.9073 -0.1165  0.3905
 8341SOL    HW236486   0.210   0.120  15.994  0.5394  1.2514  0.3437
 8342SOL     OW36487   3.294   0.004   5.619  0.4948 -0.4246  0.6199
 8342SOL    HW136488   3.202   0.030   5.617 -0.1513 -2.7221  0.5960
 8342SOL    HW236489   3.301   4.668   5.695  4.7511 -4.1581 -2.6477
 8343SOL     OW36490   1.481   4.010   4.310  0.2249  0.2004 -0.5352
 8343SOL    HW136491   1.433   3.963   4.378  1.4506 -1.1579 -0.5946
 8343SOL    HW236492   1.510   4.082   4.366 -0.1008 -0.8013  0.9162
 8344SOL     OW36493   4.555   0.594   7.414 -0.0872  0.4367 -0.2812
 8344SOL    HW136494   4.561   0.687   7.438  2.0881 -0.0625  1.0955
 8344SOL    HW236495   4.597   0.599   7.328 -0.7157 -2.4700 -0.7616
 8345SOL     OW36496   2.092   3.132   2.991 -0.0290  0.2733 -0.0983
 8345SOL    HW136497   2.175   3.106   3.031  0.6170 -0.1348 -1.6759
 8345SOL    HW236498   2.068   3.190   3.063  0.3969 -0.1353  0.3689
 8346SOL     OW36499   3.981   1.448  10.965  0.3378  0.6367  0.6568
 8346SOL    HW136500   4.052   1.384  10.956  0.5749  1.1535 -1.0607
 8346SOL    HW236501   3.950   1.416  11.050 -0.0518 -0.2278  0.1831
 8347SOL     OW36502   0.567   3.813   4.401 -0.2195 -0.1029 -0.1283
 8347SOL    HW136503   0.644   3.860   4.369 -0.8006 -0.4079 -1.9832
 8347SOL    HW236504   0.586   3.724   4.371  0.2608 -0.6850  1.8913
 8348SOL     OW36505   1.948   1.792   4.653  0.0602 -0.1575 -0.1333
 8348SOL    HW136506   1.914   1.725   4.594 -0.3664 -0.3608  0.3446
 8348SOL    HW236507   1.929   1.747   4.735 -0.2480  1.5981  0.7326
 8349SOL     OW36508   0.530   2.937  15.115 -0.3885  0.1128  0.2542
 8349SOL    HW136509   0.479   2.962  15.039 -1.0053 -1.2985  0.1950
 8349SOL    HW236510   0.612   2.983  15.099 -0.5065 -0.4066 -1.7650
 8350SOL     OW36511   0.780   3.232   8.055 -0.3419  0.0395 -0.5002
 8350SOL    HW136512   0.856   3.287   8.033  0.2530  0.1829  1.9359
 8350SOL    HW236513   0.807   3.195   8.139 -0.1802 -2.7191 -1.7649
 8351SOL     OW36514   2.733   1.674  16.618 -0.0252  0.0613 -0.1309
 8351SOL    HW136515   2.766   1.669  16.528  1.8656  0.2674  0.5472
 8351SOL    HW236516   2.659   1.613  16.617 -0.3829  0.4649  1.7107
 8352SOL     OW36517   1.856   2.924   5.835 -0.5491  0.1624  0.2779
 8352SOL    HW136518   1.790   2.909   5.902 -2.4802  3.2218 -0.9508
 8352SOL    HW236519   1.888   2.834   5.826 -0.8569  0.3559 -2.7850
 8353SOL     OW36520   1.019   0.541  13.052  0.2087 -0.1111 -0.5198
 8353SOL    HW136521   1.000   0.470  12.990 -0.4815  1.8739 -2.5881
 8353SOL    HW236522   1.111   0.551  13.028  0.4267  0.6237  0.6285
 8354SOL     OW36523   3.967   3.129   5.386 -0.1065  0.3640  0.2675
 8354SOL    HW136524   3.902   3.190   5.351  0.7485  0.0162 -1.9053
 8354SOL    HW236525   3.914   3.050   5.378 -2.1535  1.9055 -1.6051
 8355SOL     OW36526   2.621   1.893  15.081 -0.2706  0.1099  0.2270
 8355SOL    HW136527   2.648   1.983  15.068  0.2657  0.1170  1.4505
 8355SOL    HW236528   2.649   1.882  15.171  0.6033  0.7694  0.0356
 8356SOL     OW36529   0.871   0.573   8.799  0.1097 -0.1369  0.0752
 8356SOL    HW136530   0.924   0.605   8.725  0.7238  0.4893  0.7926
 8356SOL    HW236531   0.898   0.632   8.870 -1.8533  0.0450  0.6599
 8357SOL     OW36532   0.019   0.138  11.195 -0.3844  0.0503 -0.0837
 8357SOL    HW136533   4.702   0.203  11.137  1.1996  0.6050 -0.5370
 8357SOL    HW236534   0.108   0.172  11.185 -0.1629 -0.4819  0.0502
 8358SOL     OW36535   0.977   0.267  14.898 -0.0373 -0.0256  0.1916
 8358SOL    HW136536   0.918   0.266  14.823 -1.8581 -0.8533  1.6339
 8358SOL    HW236537   1.054   0.238  14.850  0.0158 -0.2309  0.3971
 8359SOL     OW36538   0.064   4.588  15.793  0.5248 -0.2200 -0.8389
 8359SOL    HW136539   0.102   4.651  15.854 -1.3921 -0.3004  0.4487
 8359SOL    HW236540   4.693   4.590  15.815  0.9194 -0.5994  0.9405
 8360SOL     OW36541   0.697   2.786   6.557 -0.1094 -0.2077  0.1020
 8360SOL    HW136542   0.663   2.761   6.643  0.9699 -0.0823  0.5717
 8360SOL    HW236543   0.649   2.864   6.533 -0.3741  0.6732  3.4313
 8361SOL     OW36544   1.736   0.900   3.337 -0.5221  0.4642  0.2965
 8361SOL    HW136545   1.786   0.820   3.326  1.2873  1.6874 -0.4380
 8361SOL    HW236546   1.776   0.937   3.416 -0.9214 -1.1282  1.2410
 8362SOL     OW36547   0.554   0.264   8.424 -0.0123 -0.2885  0.7565
 8362SOL    HW136548   0.490   0.331   8.403  0.4676  0.2338  0.9734
 8362SOL    HW236549   0.524   0.226   8.507  2.2538 -0.9914  1.2431
 8363SOL     OW36550   1.510   0.616   2.257 -0.0146  0.7872 -0.3775
 8363SOL    HW136551   1.539   0.525   2.254  0.0318  0.8339 -1.3139
 8363SOL    HW236552   1.507   0.640   2.164 -0.0801 -0.3235 -0.6611
 8364SOL     OW36553   2.239   3.603   6.594 -0.1998 -0.4258 -0.2584
 8364SOL    HW136554   2.179   3.578   6.524 -0.8777  0.0317  0.1597
 8364SOL    HW236555   2.229   3.523   6.645  1.0939 -0.9642 -0.8551
 8365SOL     OW36556   1.071   1.112   5.767  0.1098 -0.1116  0.9073
 8365SOL    HW136557   1.120   1.101   5.849  0.5208  1.6175  0.8875
 8365SOL    HW236558   1.139   1.107   5.700  0.1377  0.4106  0.8989
 8366SOL     OW36559   1.397   0.295  16.556  0.4099  0.1171  0.0263
 8366SOL    HW136560   1.395   0.205  16.589  0.7757 -0.8958 -2.6865
 8366SOL    HW236561   1.384   0.271  16.464  1.4575 -0.3958  0.0138
 8367SOL     OW36562   0.817   3.498  12.824 -0.3052 -0.1037 -0.2978
 8367SOL    HW136563   0.804   3.584  12.864  0.3403 -0.2084  0.1297
 8367SOL    HW236564   0.764   3.512  12.746  0.0005  2.4404 -0.0370
 8368SOL     OW36565   1.827   3.244   6.461 -0.1128  0.1203 -0.2949
 8368SOL    HW136566   1.888   3.273   6.392  0.0953 -2.4505 -1.2157
 8368SOL    HW236567   1.789   3.328   6.485 -0.9138 -0.2583 -0.2583
 8369SOL     OW36568   0.685   0.941   9.047 -0.3433  0.5022 -0.7904
 8369SOL    HW136569   0.684   1.008   8.979  2.7072  0.2819 -1.0845
 8369SOL    HW236570   0.733   0.989   9.115 -1.3684  3.9119 -2.4854
 8370SOL     OW36571   4.710   0.691   8.279 -0.1041  0.0899  0.4836
 8370SOL    HW136572   0.078   0.667   8.258 -0.6799  0.3747 -2.3993
 8370SOL    HW236573   4.669   0.606   8.295  1.3951 -0.8886 -0.8107
 8371SOL     OW36574   1.776   3.339   7.479  0.1911  0.1534  0.0538
 8371SOL    HW136575   1.803   3.395   7.552  1.6148  0.3003 -0.5799
 8371SOL    HW236576   1.786   3.254   7.523  1.4332 -0.4534 -1.3760
 8372SOL     OW36577   0.871   0.948  17.470  0.5757  0.0307  0.6540
 8372SOL    HW136578   0.792   0.945  17.416  1.1604  1.7857 -0.2697
 8372SOL    HW236579   0.839   0.946  17.560  0.0325 -0.6134  0.4480
 8373SOL     OW36580   1.854   1.971   2.885 -0.1896 -0.0767  0.8671
 8373SOL    HW136581   1.937   1.994   2.926  1.5653 -2.4474 -1.3583
 8373SOL    HW236582   1.794   2.032   2.928 -0.3472 -0.2903  0.9575
 8374SOL     OW36583   1.297   0.429  16.227 -0.5080 -0.0217 -0.4374
 8374SOL    HW136584   1.217   0.437  16.278 -1.0330 -3.6510 -0.7086
 8374SOL    HW236585   1.273   0.479  16.149 -2.6882  0.3166  0.4619
 8375SOL     OW36586   4.191   2.631   6.824  0.2705  0.3587  0.3965
 8375SOL    HW136587   4.245   2.578   6.882 -0.3542 -0.7836 -0.0664
 8375SOL    HW236588   4.256   2.678   6.771  1.1912 -1.3855 -0.0180
 8376SOL     OW36589   3.723   3.283   9.282 -0.5301 -0.4944 -0.2996
 8376SOL    HW136590   3.703   3.265   9.374 -0.2663  0.5371 -0.0390
 8376SOL    HW236591   3.733   3.193   9.251 -1.1259 -1.2237  1.6072
 8377SOL     OW36592   4.425   2.696   7.709 -0.4738 -0.0235  0.7540
 8377SOL    HW136593   4.519   2.676   7.710 -0.6089 -0.6416  1.8388
 8377SOL    HW236594   4.393   2.638   7.640  2.1655 -0.7800  0.1867
 8378SOL     OW36595   2.768   0.908   5.515  0.6404  0.3262 -0.2318
 8378SOL    HW136596   2.769   0.990   5.467 -2.4141  1.7518  2.1548
 8378SOL    HW236597   2.691   0.870   5.474 -0.0003  1.1501  0.2065
 8379SOL     OW36598   4.543   0.063   4.124  0.0707 -0.6740  0.7842
 8379SOL    HW136599   4.572   4.695   4.123 -0.4623 -0.8277 -1.3368
 8379SOL    HW236600   4.567   0.105   4.041  1.1136 -0.6534  1.0991
 8380SOL     OW36601   4.492   0.446   1.874 -0.3404  0.4229  0.1873
 8380SOL    HW136602   4.568   0.454   1.816  1.6936 -1.1722  2.6382
 8380SOL    HW236603   4.427   0.510   1.847  0.7603  0.6730 -1.8668
 8381SOL     OW36604   4.253   1.931   2.652  0.0325 -0.0347 -0.4635
 8381SOL    HW136605   4.176   1.909   2.600  0.8499 -0.1670 -1.6018
 8381SOL    HW236606   4.237   1.863   2.719  2.1119 -0.2558 -0.1718
 8382SOL     OW36607   0.600   4.210   4.925  0.0200  0.3536  0.5061
 8382SOL    HW136608   0.657   4.286   4.915 -0.4163  0.4558 -1.2468
 8382SOL    HW236609   0.544   4.231   4.850 -1.6563 -0.4745  1.5233
 8383SOL     OW36610   4.080   3.290   5.941  0.5090 -0.2218  0.2085
 8383SOL    HW136611   4.081   3.194   5.938 -1.7304 -0.1722 -1.6314
 8383SOL    HW236612   4.073   3.305   6.035 -1.3546  0.7849 -0.1081
 8384SOL     OW36613   0.302   3.153  12.620  0.1439 -0.4567  0.2755
 8384SOL    HW136614   0.291   3.159  12.525  0.6025  1.6943  0.3502
 8384SOL    HW236615   0.213   3.133  12.649 -0.4211  3.5119  1.2589
 8385SOL     OW36616   2.206   0.446   7.068  0.5769 -0.1069 -0.3843
 8385SOL    HW136617   2.195   0.442   6.973 -0.1785  0.7292 -0.3383
 8385SOL    HW236618   2.175   0.359   7.096 -0.4476  0.7437  1.1373
 8386SOL     OW36619   1.695   1.297  14.402 -0.4735  0.2566  0.5980
 8386SOL    HW136620   1.780   1.253  14.406 -0.4742 -0.1327 -3.1700
 8386SOL    HW236621   1.632   1.244  14.450 -1.1512  0.8961  0.4235
 8387SOL     OW36622   1.403   4.162   4.964  0.1641 -0.0786  0.1523
 8387SOL    HW136623   1.422   4.254   4.944 -0.8033 -0.2085 -1.3822
 8387SOL    HW236624   1.363   4.177   5.050 -3.4838 -1.7951 -1.2599
 8388SOL     OW36625   4.427   2.759   6.746  0.0681 -0.5237 -0.3545
 8388SOL    HW136626   4.439   2.722   6.658 -1.3128 -0.4678 -0.5552
 8388SOL    HW236627   4.511   2.742   6.789  0.1446 -0.8410 -0.6360
 8389SOL     OW36628   2.642   4.111   9.105  0.3707 -0.4341  0.3006
 8389SOL    HW136629   2.631   4.189   9.159 -1.3554  0.4267 -1.3138
 8389SOL    HW236630   2.737   4.100   9.109  0.4019 -0.8921 -1.3799
 8390SOL     OW36631   3.907   0.088  17.144 -0.0441 -0.1822  0.7074
 8390SOL    HW136632   3.916   0.181  17.124 -0.1808 -0.1383  0.8532
 8390SOL    HW236633   3.979   0.047  17.096 -0.3737  0.1529 -0.0814
 8391SOL     OW36634   1.338   2.276   4.430 -0.1509 -0.3308 -0.1728
 8391SOL    HW136635   1.418   2.329   4.431 -0.3559 -0.0228 -0.2400
 8391SOL    HW236636   1.341   2.237   4.342 -0.8850 -3.1550  1.0672
 8392SOL     OW36637   2.372   4.351   4.667  0.6008 -0.1609 -0.3772
 8392SOL    HW136638   2.346   4.367   4.576  2.3253 -0.6687 -0.9551
 8392SOL    HW236639   2.337   4.265   4.687  0.4432 -0.3850 -1.5982
 8393SOL     OW36640   1.569   3.128   8.096 -0.3485  0.5675 -0.4136
 8393SOL    HW136641   1.557   3.185   8.020  0.4512  0.2161 -0.7942
 8393SOL    HW236642   1.550   3.040   8.062 -0.3126  0.2471  0.3944
 8394SOL     OW36643   4.286   4.220  17.393  0.0685 -0.3595 -0.1750
 8394SOL    HW136644   4.294   4.214  17.488 -1.4018  0.4041 -0.0090
 8394SOL    HW236645   4.254   4.310  17.394 -1.0009 -0.7538  1.0325
 8395SOL     OW36646   3.715   0.384  12.059  0.1501  0.1728 -0.0468
 8395SOL    HW136647   3.736   0.294  12.036  0.9791 -0.1576  2.0140
 8395SOL    HW236648   3.619   0.379  12.052  0.0343 -0.9776  2.4370
 8396SOL     OW36649   0.025   0.886   1.961  0.3797  0.2868  0.9129
 8396SOL    HW136650   0.052   0.958   1.903  0.3410  0.2367  0.8337
 8396SOL    HW236651   4.656   0.867   1.943  0.0846  2.0221  0.5080
 8397SOL     OW36652   1.735   0.655  13.778 -0.2386  0.5084 -0.5645
 8397SOL    HW136653   1.656   0.705  13.757 -0.1096  1.4814  1.2468
 8397SOL    HW236654   1.806   0.718  13.765  0.3003  0.0083 -0.0283
 8398SOL     OW36655   3.150   4.040   8.944  0.2161 -0.1038 -0.3083
 8398SOL    HW136656   3.230   4.053   8.994 -0.7429  1.6742  0.7594
 8398SOL    HW236657   3.169   3.958   8.898  1.0911 -1.2882  2.2145
 8399SOL     OW36658   1.286   1.250   2.809  0.3344 -0.2275 -0.8422
 8399SOL    HW136659   1.240   1.266   2.891  1.7910  1.5318 -0.3591
 8399SOL    HW236660   1.366   1.209   2.843  1.2872  2.5586  0.2647
 8400SOL     OW36661   1.067   3.609  11.128 -0.0015 -0.6086 -0.5164
 8400SOL    HW136662   1.130   3.604  11.056  0.1984  0.2146 -0.4051
 8400SOL    HW236663   1.030   3.521  11.133 -0.7682 -0.1461  2.2272
 8401SOL     OW36664   1.249   4.597   2.289 -0.4282  0.0975 -0.4161
 8401SOL    HW136665   1.247   4.559   2.201  1.8083  0.8771 -0.8198
 8401SOL    HW236666   1.191   4.538   2.337  0.2036 -0.5713 -0.4749
 8402SOL     OW36667   2.311   0.851   7.730  0.3980  0.9577  0.1370
 8402SOL    HW136668   2.291   0.871   7.639  1.0602  0.3467 -0.1351
 8402SOL    HW236669   2.406   0.863   7.732  0.5165  0.0566 -0.3624
 8403SOL     OW36670   3.625   1.762   5.202  0.2423 -0.3373  0.6311
 8403SOL    HW136671   3.621   1.805   5.288  1.8905  3.2515 -1.0575
 8403SOL    HW236672   3.687   1.693   5.223  0.0744 -1.1889 -1.6904
 8404SOL     OW36673   3.985   2.835  13.613 -0.0965  0.0877  0.3597
 8404SOL    HW136674   3.963   2.753  13.657  2.0310 -0.3647  0.5781
 8404SOL    HW236675   4.019   2.800  13.531 -0.5671  0.7643 -0.1189
 8405SOL     OW36676   4.563   3.096   7.891 -0.9296 -0.0841  0.0461
 8405SOL    HW136677   4.616   3.120   7.966 -1.3913  1.1031 -0.0189
 8405SOL    HW236678   4.506   3.170   7.871 -0.2959  0.7335  1.3133
 8406SOL     OW36679   3.571   3.913   2.700  0.1457  0.5468 -0.3822
 8406SOL    HW136680   3.644   3.966   2.669  0.9383  0.0240  0.5769
 8406SOL    HW236681   3.500   3.952   2.649 -1.7732  1.5561  3.0566
 8407SOL     OW36682   4.421   1.156   7.631 -0.0748 -0.2482 -0.0005
 8407SOL    HW136683   4.355   1.186   7.567  0.7273 -0.5381 -0.9631
 8407SOL    HW236684   4.422   1.223   7.699 -1.8315 -3.0339  2.7555
 8408SOL     OW36685   2.771   3.214  11.442 -0.1532  0.1905 -0.1735
 8408SOL    HW136686   2.725   3.256  11.514  0.7301  0.9730 -0.0597
 8408SOL    HW236687   2.698   3.199  11.382 -1.1598  0.8326  0.8953
 8409SOL     OW36688   4.047   2.203   9.228  0.9326  0.1292  0.9233
 8409SOL    HW136689   4.007   2.218   9.142  0.8827  0.3200  0.9805
 8409SOL    HW236690   3.969   2.224   9.279 -0.6717 -1.2194 -0.9906
 8410SOL     OW36691   1.399   0.597   1.762 -0.2641 -0.7274 -0.4987
 8410SOL    HW136692   1.344   0.663   1.804  0.0120  0.2350 -1.6181
 8410SOL    HW236693   1.486   0.619   1.796  0.2952 -1.3996 -1.4893
 8411SOL     OW36694   2.713   0.271   8.187  0.0698 -0.7826 -0.1469
 8411SOL    HW136695   2.689   0.356   8.224  0.3793 -0.9258  0.3922
 8411SOL    HW236696   2.662   0.213   8.244 -0.4587 -1.1238 -0.9655
 8412SOL     OW36697   1.360   3.989   1.619 -0.4248 -0.0542 -0.3659
 8412SOL    HW136698   1.449   3.957   1.632  0.4715  3.0103  1.0388
 8412SOL    HW236699   1.347   3.956   1.530  0.9768 -0.9953 -0.2113
 8413SOL     OW36700   4.229   1.223  10.343  0.2878 -0.2043 -0.3384
 8413SOL    HW136701   4.271   1.202  10.259  0.0954 -1.1965 -0.1854
 8413SOL    HW236702   4.300   1.258  10.398  1.7000 -0.2969 -2.1044
 8414SOL     OW36703   2.534   0.171  13.342  0.4550  0.0703  0.0944
 8414SOL    HW136704   2.587   0.236  13.387  1.8096 -1.3342  0.5105
 8414SOL    HW236705   2.452   0.215  13.319 -1.4021 -3.1849  0.5331
 8415SOL     OW36706   4.457   4.610   2.002 -0.0036 -0.5466  0.2420
 8415SOL    HW136707   4.363   4.622   2.012 -0.4525 -1.0765 -3.4320
 8415SOL    HW236708   4.474   4.586   1.911  0.5261  0.7008  0.0092
 8416SOL     OW36709   2.965   2.789   5.500  0.6039  0.0315 -0.2364
 8416SOL    HW136710   2.926   2.851   5.562 -0.7391 -1.3919  0.3324
 8416SOL    HW236711   3.055   2.784   5.531  0.9022  2.0704 -0.7571
 8417SOL     OW36712   0.943   2.735   8.029 -0.5793  0.0519 -0.5505
 8417SOL    HW136713   0.900   2.780   7.956 -1.8664 -1.1987 -0.5481
 8417SOL    HW236714   0.953   2.653   7.981 -0.5307  0.1417 -0.6929
 8418SOL     OW36715   0.529   3.187   3.521  0.1593  0.3452 -0.0828
 8418SOL    HW136716   0.595   3.215   3.458 -0.8301  0.0647 -1.2443
 8418SOL    HW236717   0.497   3.264   3.567  0.1006 -0.7924  1.7963
 8419SOL     OW36718   4.151   1.238   2.575  0.0473 -0.1040  0.3524
 8419SOL    HW136719   4.223   1.288   2.538 -0.5695  1.3208  1.0841
 8419SOL    HW236720   4.207   1.161   2.587  0.8736  0.5161  0.4208
 8420SOL     OW36721   3.285   1.269   7.891 -0.0017 -0.2094  0.0571
 8420SOL    HW136722   3.252   1.199   7.947 -1.2607 -0.5301 -1.0842
 8420SOL    HW236723   3.265   1.351   7.937  0.1527  0.6108 -1.3233
 8421SOL     OW36724   1.869   0.816  13.432  0.1924 -0.5457 -0.2596
 8421SOL    HW136725   1.949   0.814  13.379  0.0393 -2.1824 -0.4070
 8421SOL    HW236726   1.902   0.794  13.519  0.8840  1.1238 -0.0905
 8422SOL     OW36727   3.977   2.993  14.985  0.2175  0.3707  0.2993
 8422SOL    HW136728   4.063   2.985  14.944 -0.7494 -1.2815 -1.4062
 8422SOL    HW236729   3.929   3.023  14.908  0.8803  1.4957  0.3231
 8423SOL     OW36730   0.952   3.507   8.892 -0.2382  0.4565 -0.2525
 8423SOL    HW136731   1.028   3.461   8.929 -0.4384 -1.2473 -1.9521
 8423SOL    HW236732   0.881   3.477   8.948 -1.0526  1.2364 -0.8678
 8424SOL     OW36733   1.888   3.751   3.831 -0.1126 -0.3776 -0.2212
 8424SOL    HW136734   1.848   3.665   3.833  2.1215 -1.4292 -0.8786
 8424SOL    HW236735   1.874   3.789   3.918 -1.9550 -1.1289 -0.1948
 8425SOL     OW36736   3.792   1.559   5.272  0.3096 -0.4843  0.2267
 8425SOL    HW136737   3.777   1.514   5.355 -2.2472 -0.7918 -0.3977
 8425SOL    HW236738   3.866   1.614   5.295  0.0080  0.0293 -0.0319
 8426SOL     OW36739   2.046   4.501   5.024 -0.4059 -0.3591 -0.6326
 8426SOL    HW136740   2.111   4.484   4.956 -0.5413  1.8402 -1.2912
 8426SOL    HW236741   2.053   4.594   5.045 -0.6655 -0.9308  2.0882
 8427SOL     OW36742   2.170   2.421   9.450 -0.4698  0.1061 -0.7958
 8427SOL    HW136743   2.111   2.496   9.458 -0.0944  0.5371 -2.0855
 8427SOL    HW236744   2.124   2.372   9.382 -0.9466  0.1784 -0.5323
 8428SOL     OW36745   1.594   1.395   5.343  0.6241  0.1569 -0.5008
 8428SOL    HW136746   1.642   1.313   5.353 -2.7102 -1.9815 -1.7296
 8428SOL    HW236747   1.566   1.370   5.254 -4.6080 -0.9552  1.4291
 8429SOL     OW36748   4.177   2.040   9.895 -0.6925  0.3494  0.1143
 8429SOL    HW136749   4.181   1.975   9.825 -0.5077  0.1107  0.3456
 8429SOL    HW236750   4.247   2.009   9.952  1.7726  2.6631 -1.6543
 8430SOL     OW36751   2.752   1.794   3.657 -0.1599 -0.0155  0.2359
 8430SOL    HW136752   2.793   1.708   3.653 -2.3907 -0.9770 -1.7896
 8430SOL    HW236753   2.817   1.850   3.615 -0.9462  1.0475  0.4210
 8431SOL     OW36754   1.874   3.805  15.230  0.3726 -0.1103 -0.2009
 8431SOL    HW136755   1.885   3.714  15.259 -4.0044  0.1075  2.0905
 8431SOL    HW236756   1.856   3.782  15.138 -1.7114 -2.9039  0.8863
 8432SOL     OW36757   1.210   0.044   8.424  0.5741 -0.6276 -0.3035
 8432SOL    HW136758   1.282   0.075   8.479 -0.2159 -0.1102  0.4550
 8432SOL    HW236759   1.197   0.113   8.359 -1.0061 -0.7106 -0.0769
 8433SOL     OW36760   2.384   0.658   7.978  0.1323  0.0686  0.6663
 8433SOL    HW136761   2.366   0.651   7.885 -0.8747  1.4078  0.7665
 8433SOL    HW236762   2.296   0.669   8.016 -0.0081 -1.0728  0.6812
 8434SOL     OW36763   1.403   3.098   2.400 -0.0227  0.0523  0.2578
 8434SOL    HW136764   1.360   3.176   2.435 -0.9218 -1.2967  2.1322
 8434SOL    HW236765   1.486   3.091   2.447  0.3241 -0.7178 -0.4678
 8435SOL     OW36766   2.651   0.696   6.586 -0.4773 -0.3135  0.4669
 8435SOL    HW136767   2.743   0.710   6.560 -1.4777  1.6218 -2.0107
 8435SOL    HW236768   2.658   0.639   6.663  0.8976 -0.5513  0.1775
 8436SOL     OW36769   2.895   4.706  17.546  0.3076 -0.3381 -0.1074
 8436SOL    HW136770   2.835   0.045  17.588  1.3948 -0.4374  1.5718
 8436SOL    HW236771   2.835   4.632  17.542  0.8956 -0.7933 -0.5797
 8437SOL     OW36772   1.435   1.648   9.472 -0.8185  0.1422  0.2903
 8437SOL    HW136773   1.360   1.686   9.517 -0.4665 -0.7187  1.5872
 8437SOL    HW236774   1.503   1.653   9.539 -1.1560 -2.7954  0.8272
 8438SOL     OW36775   0.522   1.585   5.803 -0.0268  0.6274 -0.5237
 8438SOL    HW136776   0.516   1.569   5.709  1.5275  1.6633 -0.8138
 8438SOL    HW236777   0.596   1.647   5.804 -0.4320  1.1409 -2.2746
 8439SOL     OW36778   0.190   1.603  17.147 -0.1970 -0.4457 -0.2317
 8439SOL    HW136779   0.175   1.599  17.241 -0.3826 -2.2463 -0.3325
 8439SOL    HW236780   0.208   1.696  17.137 -1.4233 -0.0989  0.7626
 8440SOL     OW36781   3.420   2.748   7.472  0.0008  0.4271 -0.0790
 8440SOL    HW136782   3.326   2.747   7.493 -0.0581  0.6877 -0.3204
 8440SOL    HW236783   3.451   2.839   7.471 -3.5992  1.6839  0.2052
 8441SOL     OW36784   2.958   1.356   5.947  0.4317 -0.2506 -0.0432
 8441SOL    HW136785   2.965   1.293   5.875  1.1657 -1.3429  1.0003
 8441SOL    HW236786   2.983   1.308   6.026 -0.9777 -2.3988 -0.8927
 8442SOL     OW36787   3.471   3.998   1.916  0.6027 -1.2774  0.5570
 8442SOL    HW136788   3.491   3.919   1.867  1.6510  0.6035 -2.0353
 8442SOL    HW236789   3.399   3.989   1.978  0.0209  2.9462  0.5403
 8443SOL     OW36790   3.823   0.739   1.251  0.7211  0.2071  0.4729
 8443SOL    HW136791   3.759   0.672   1.277 -0.8058  0.7040 -2.0026
 8443SOL    HW236792   3.829   0.719   1.157 -0.1607  1.4315  0.1532
 8444SOL     OW36793   0.767   3.174   6.355  0.2727  0.1458 -0.8502
 8444SOL    HW136794   0.820   3.123   6.293  1.5099  0.1176  0.2396
 8444SOL    HW236795   0.728   3.109   6.413  0.1498  0.2928 -0.7688
 8445SOL     OW36796   4.614   3.189   7.004  0.0860 -0.0853 -0.0292
 8445SOL    HW136797   4.606   3.140   6.922  0.4683  1.2311 -0.8422
 8445SOL    HW236798   4.524   3.183   7.038 -0.4042  0.5178 -1.2451
 8446SOL     OW36799   1.361   2.462   5.531  0.5004 -0.4805  0.2073
 8446SOL    HW136800   1.333   2.526   5.465 -1.4292 -1.9719 -0.4273
 8446SOL    HW236801   1.302   2.388   5.516  0.1625 -0.1074 -0.3118
 8447SOL     OW36802   0.811   2.883   7.171  0.0969 -0.2858 -0.6718
 8447SOL    HW136803   0.781   2.913   7.257 -1.1039 -0.4838 -1.0231
 8447SOL    HW236804   0.727   2.899   7.129 -0.6560  1.6106  1.5501
 8448SOL     OW36805   2.702   1.245  15.322 -0.1003 -0.0784 -0.0619
 8448SOL    HW136806   2.747   1.286  15.396  1.0935 -1.5176  0.0070
 8448SOL    HW236807   2.774   1.237  15.260 -0.8307 -0.8038 -0.8159
 8449SOL     OW36808   2.488   3.008   5.411 -0.5379 -0.1226 -0.1840
 8449SOL    HW136809   2.577   3.040   5.428  0.8455 -2.3312 -3.1747
 8449SOL    HW236810   2.474   2.968   5.496  1.9993  0.8332  0.6735
 8450SOL     OW36811   0.509   2.794   5.739 -0.2385  0.7021 -0.1408
 8450SOL    HW136812   0.459   2.865   5.778  1.7299  2.4078 -0.7253
 8450SOL    HW236813   0.435   2.761   5.689 -0.5503  1.6040 -0.2689
 8451SOL     OW36814   0.326   3.248   6.837  0.7098  0.1782 -0.7257
 8451SOL    HW136815   0.268   3.191   6.887 -1.3654  2.7081 -0.2227
 8451SOL    HW236816   0.357   3.300   6.911  2.0479 -1.5201 -0.0835
 8452SOL     OW36817   2.598   1.898   5.221 -0.2158 -0.0730 -0.2261
 8452SOL    HW136818   2.609   1.803   5.233  1.8658 -0.2148 -3.2758
 8452SOL    HW236819   2.688   1.929   5.217 -0.1645 -0.0369  1.0946
 8453SOL     OW36820   0.501   1.315   8.785 -0.7860  0.7648  0.1292
 8453SOL    HW136821   0.497   1.362   8.702 -0.0864  1.6249  0.5916
 8453SOL    HW236822   0.521   1.383   8.850  0.3577 -0.7712  1.4010
 8454SOL     OW36823   0.164   0.124   8.486  0.4159  0.2874  0.4298
 8454SOL    HW136824   0.185   0.210   8.522  0.5637 -0.3852  1.9792
 8454SOL    HW236825   0.206   0.069   8.552  1.2555 -1.1132 -1.2663
 8455SOL     OW36826   0.825   3.487   7.761 -0.0913 -0.0551 -0.2476
 8455SOL    HW136827   0.886   3.419   7.732 -0.6825 -1.3341  1.5441
 8455SOL    HW236828   0.812   3.531   7.676 -3.5497 -1.6154 -0.5427
 8456SOL     OW36829   0.669   2.271   6.416 -0.0508  0.5942 -0.0365
 8456SOL    HW136830   0.690   2.264   6.323  1.3687  0.0740  0.3218
 8456SOL    HW236831   0.654   2.365   6.422 -0.5554  0.5281 -0.3137
 8457SOL     OW36832   3.051   2.311  11.966  0.1114  0.0490 -0.9699
 8457SOL    HW136833   2.967   2.279  11.936  0.0630  1.8869 -2.7475
 8457SOL    HW236834   3.065   2.376  11.898 -0.6277  1.8099  0.5757
 8458SOL     OW36835   3.057   3.458   8.286 -0.4140 -0.8234 -0.6587
 8458SOL    HW136836   2.980   3.505   8.318 -0.9938 -0.6505 -2.3367
 8458SOL    HW236837   3.116   3.468   8.361  0.5102 -1.6098 -1.2868
 8459SOL     OW36838   1.985   0.954   4.182  0.1700 -0.3396  0.8632
 8459SOL    HW136839   1.919   0.908   4.129 -0.5565  2.4924 -0.6742
 8459SOL    HW236840   1.945   1.011   4.247  0.3599 -2.0328  2.4703
 8460SOL     OW36841   3.274   1.813  15.603 -0.0279 -0.8806  0.3337
 8460SOL    HW136842   3.350   1.870  15.615  0.5264 -1.2038 -1.5252
 8460SOL    HW236843   3.319   1.729  15.611  1.0424 -0.1062  2.2657
 8461SOL     OW36844   3.001   2.761  13.819  0.3123 -0.1105  0.5815
 8461SOL    HW136845   3.015   2.672  13.852 -1.3182 -0.5740  0.0222
 8461SOL    HW236846   2.955   2.749  13.736  0.6919 -0.6500  0.4519
 8462SOL     OW36847   4.218   1.570  14.800 -0.1283 -0.1419 -0.0617
 8462SOL    HW136848   4.313   1.580  14.802  0.1038 -2.3882  0.4593
 8462SOL    HW236849   4.192   1.613  14.881  2.6663  0.5426  0.4740
 8463SOL     OW36850   3.046   0.322   7.279 -0.3886  0.6163  0.1100
 8463SOL    HW136851   2.977   0.262   7.308 -0.9336  1.7539  1.1943
 8463SOL    HW236852   2.989   0.393   7.251 -0.5136  0.2865 -0.4630
 8464SOL     OW36853   2.261   3.415   2.432 -0.5352  0.2340 -0.4361
 8464SOL    HW136854   2.167   3.424   2.450 -0.4100 -1.1338  0.8312
 8464SOL    HW236855   2.263   3.475   2.357 -0.7712 -0.1292 -0.7340
 8465SOL     OW36856   0.229   1.072   6.929  0.1704  0.3313 -0.4618
 8465SOL    HW136857   0.212   1.163   6.954 -0.3282 -0.1841  1.0911
 8465SOL    HW236858   0.146   1.025   6.940  0.5973 -0.5774 -1.1208
 8466SOL     OW36859   0.960   3.465  12.484 -0.3316 -0.3196  0.1211
 8466SOL    HW136860   0.885   3.449  12.426  0.2196 -1.4217 -0.2930
 8466SOL    HW236861   1.035   3.468  12.425 -1.4340  0.9056 -1.2359
 8467SOL     OW36862   2.080   0.869   1.891 -0.3425  0.0303 -0.8227
 8467SOL    HW136863   2.007   0.931   1.891  1.3649  2.0424  2.9701
 8467SOL    HW236864   2.045   0.802   1.951  1.8331  0.9643  1.4868
 8468SOL     OW36865   2.182   3.606   8.364  0.2894  0.4956 -0.6747
 8468SOL    HW136866   2.099   3.558   8.365  0.3595  0.3834 -0.2263
 8468SOL    HW236867   2.237   3.532   8.391  0.3662  0.8096  0.0021
 8469SOL     OW36868   1.509   0.611   1.506 -0.1164 -0.0130  0.7741
 8469SOL    HW136869   1.572   0.539   1.513 -0.5082 -0.4947 -0.5922
 8469SOL    HW236870   1.461   0.600   1.588  0.6775  2.1095  1.5033
 8470SOL     OW36871   4.635   0.660   3.123  0.0101  0.0379 -0.3926
 8470SOL    HW136872   4.615   0.643   3.215 -0.9321  1.3287 -0.3553
 8470SOL    HW236873   4.678   0.745   3.131  2.5810 -1.1343 -1.9180
 8471SOL     OW36874   4.002   1.193   5.153 -0.0043  0.0067 -0.2466
 8471SOL    HW136875   3.906   1.195   5.149 -0.0050 -1.8928 -1.0295
 8471SOL    HW236876   4.018   1.214   5.245  0.5342  0.0758 -0.3560
 8472SOL     OW36877   0.779   2.758   1.478 -0.3030  0.0543  0.2308
 8472SOL    HW136878   0.769   2.847   1.512  0.4804  0.0957  0.3410
 8472SOL    HW236879   0.872   2.773   1.464 -0.6909  0.2504 -2.1717
 8473SOL     OW36880   1.108   2.041  16.060 -0.4447  0.1196  0.0459
 8473SOL    HW136881   1.090   2.133  16.082 -0.5608 -0.3971  2.1254
 8473SOL    HW236882   1.028   1.999  16.030 -1.3627  0.6679  1.7333
 8474SOL     OW36883   3.199   3.461   4.928  0.2959  0.0196 -0.3115
 8474SOL    HW136884   3.168   3.382   4.883 -0.4786  1.6137 -2.6322
 8474SOL    HW236885   3.157   3.520   4.865 -0.4156 -2.9348 -2.6297
 8475SOL     OW36886   0.065   2.770   5.144  0.1369  0.9858 -0.1708
 8475SOL    HW136887   0.065   2.828   5.220  0.0825  0.0720  0.5227
 8475SOL    HW236888   4.692   2.770   5.133  0.1174  1.7832 -0.0170
 8476SOL     OW36889   4.313   2.496   7.206 -0.2501 -0.4568 -0.0323
 8476SOL    HW136890   4.302   2.456   7.120 -2.6450 -2.3751  1.1853
 8476SOL    HW236891   4.271   2.436   7.267  1.9496  0.2953  2.2050
 8477SOL     OW36892   2.034   2.080   6.350 -0.1280  0.3943 -0.0011
 8477SOL    HW136893   1.960   2.029   6.317  1.5429 -0.0213 -3.1842
 8477SOL    HW236894   2.102   2.064   6.284 -0.1942 -0.5992  0.1764
 8478SOL     OW36895   3.382   1.188   2.056  0.5256 -0.0238 -0.3060
 8478SOL    HW136896   3.468   1.220   2.083  0.5704 -1.1241  0.9116
 8478SOL    HW236897   3.372   1.110   2.111  1.0126  2.1278  2.8707
 8479SOL     OW36898   3.132   2.163   9.846  0.1087 -0.1775  0.3289
 8479SOL    HW136899   3.043   2.137   9.869  0.0642 -0.3922 -0.0875
 8479SOL    HW236900   3.174   2.134   9.927  1.5991  1.2033  0.0667
 8480SOL     OW36901   3.463   1.480   6.529 -0.1901  0.2774 -0.3602
 8480SOL    HW136902   3.553   1.477   6.498  0.7279  1.1059  2.1655
 8480SOL    HW236903   3.423   1.506   6.447 -0.6188  0.2924 -0.1468
 8481SOL     OW36904   3.710   4.649   7.806 -0.2594  0.4406  0.9850
 8481SOL    HW136905   3.714   4.669   7.899  3.0858 -1.3384  1.2101
 8481SOL    HW236906   3.781   4.708   7.781 -1.7784  1.8987  0.1124
 8482SOL     OW36907   3.269   2.607   8.690 -0.3483  0.2986  0.5281
 8482SOL    HW136908   3.241   2.624   8.780  0.1667 -1.5212  1.0340
 8482SOL    HW236909   3.277   2.511   8.689  2.5443  0.5299 -0.5630
 8483SOL     OW36910   0.709   3.901   6.303 -0.4525 -0.5706 -0.1935
 8483SOL    HW136911   0.774   3.949   6.252 -1.6855 -1.7020 -2.8017
 8483SOL    HW236912   0.737   3.924   6.392 -1.0393  0.8702 -0.3831
 8484SOL     OW36913   0.311   0.118   1.140  0.2852  0.2030  0.1920
 8484SOL    HW136914   0.368   0.086   1.210 -0.7346 -0.7138  0.6186
 8484SOL    HW236915   0.325   0.048   1.077 -1.0263 -1.1176  1.3512
 8485SOL     OW36916   3.807   1.939   7.172 -0.2775  0.0619  0.2871
 8485SOL    HW136917   3.819   1.857   7.123  1.7500  0.0882  0.7650
 8485SOL    HW236918   3.716   1.957   7.145 -0.0739 -1.7944 -1.7056
 8486SOL     OW36919   3.480   0.511  12.437 -0.1980  0.2798  0.1614
 8486SOL    HW136920   3.520   0.587  12.479  1.5811  0.9817 -2.7799
 8486SOL    HW236921   3.551   0.447  12.444  1.0754  1.5628 -0.9212
 8487SOL     OW36922   1.261   1.365   5.879 -0.0291 -0.3072 -0.2574
 8487SOL    HW136923   1.269   1.278   5.841  0.5123 -0.6684  0.7205
 8487SOL    HW236924   1.201   1.347   5.951  0.5441 -1.1149  0.0115
 8488SOL     OW36925   0.491   2.903   3.037 -0.1735 -0.3907 -0.0074
 8488SOL    HW136926   0.539   2.837   3.088  0.8976  0.7440  0.4348
 8488SOL    HW236927   0.450   2.850   2.968  0.8797 -2.0765  0.6615
 8489SOL     OW36928   4.588   3.152   5.503 -0.0371 -0.0698 -0.2290
 8489SOL    HW136929   4.535   3.187   5.575 -2.3661  1.1103 -2.5078
 8489SOL    HW236930   4.513   3.118   5.454 -1.6357  0.6913  1.6429
 8490SOL     OW36931   0.753   1.504   3.585  0.7376  0.3985  0.4240
 8490SOL    HW136932   0.681   1.555   3.621  0.7248  0.6210  0.0796
 8490SOL    HW236933   0.748   1.522   3.491 -0.6352  0.9142  0.6007
 8491SOL     OW36934   3.522   2.272   4.767 -0.1248 -0.2433 -0.3577
 8491SOL    HW136935   3.520   2.259   4.672  0.0219 -1.6888 -0.1613
 8491SOL    HW236936   3.587   2.342   4.774 -0.8289  0.3392  0.3809
 8492SOL     OW36937   1.428   0.694   5.864  0.3017  0.2651  0.3362
 8492SOL    HW136938   1.506   0.685   5.810 -1.1919 -1.4311 -1.5467
 8492SOL    HW236939   1.423   0.614   5.916 -0.9980  1.8753  2.7267
 8493SOL     OW36940   0.031   0.403   9.695 -0.0377 -0.0702  0.4847
 8493SOL    HW136941   0.114   0.355   9.700 -1.5173 -2.5970  0.7880
 8493SOL    HW236942   0.042   0.488   9.737  0.4847 -0.8628  1.9551
 8494SOL     OW36943   2.469   1.429  15.290  0.5330 -0.2502  0.0941
 8494SOL    HW136944   2.485   1.512  15.246  1.4402 -0.6873 -0.4012
 8494SOL    HW236945   2.556   1.389  15.288  0.0506 -1.2921 -0.1953
 8495SOL     OW36946   2.113   4.611  13.970 -0.0309  0.3130  0.0883
 8495SOL    HW136947   2.029   4.649  13.994  0.9430  1.9346  0.9620
 8495SOL    HW236948   2.118   4.534  14.027  0.0908 -1.2352 -2.0218
 8496SOL     OW36949   1.524   4.558   8.385  0.5367  0.0618 -0.3516
 8496SOL    HW136950   1.476   4.565   8.468  0.2397  3.3863 -0.8162
 8496SOL    HW236951   1.606   4.607   8.393  0.9545 -0.8257  0.8083
 8497SOL     OW36952   1.385   1.792   1.468  0.3830 -0.2285 -0.8099
 8497SOL    HW136953   1.301   1.763   1.502  1.8908 -0.3856  2.7837
 8497SOL    HW236954   1.409   1.732   1.397 -2.2495 -0.9012 -1.1122
 8498SOL     OW36955   0.941   2.171   4.202 -0.3766 -1.0006  0.0101
 8498SOL    HW136956   0.925   2.187   4.295  0.6487 -1.9632  0.3508
 8498SOL    HW236957   0.864   2.117   4.184 -0.3179 -0.8403 -0.7092
 8499SOL     OW36958   0.300   4.397   5.621  0.3294  0.1657 -0.2612
 8499SOL    HW136959   0.321   4.490   5.615  0.5948  0.1546  0.5023
 8499SOL    HW236960   0.313   4.373   5.713 -2.0921  0.3834  0.1143
 8500SOL     OW36961   1.403   4.005   3.422  0.7934 -0.0616  0.2856
 8500SOL    HW136962   1.445   4.033   3.504 -0.8245  1.1512  0.7002
 8500SOL    HW236963   1.334   4.071   3.419  0.5075 -0.3929 -0.3974
 8501SOL     OW36964   0.803   0.270  15.891  0.0702  0.5908 -0.3108
 8501SOL    HW136965   0.726   0.220  15.862  1.0026 -0.8179 -0.3746
 8501SOL    HW236966   0.843   0.287  15.806  0.4613 -0.5980 -0.3716
 8502SOL     OW36967   3.417   1.665  13.693 -0.2350 -0.5785  0.0152
 8502SOL    HW136968   3.506   1.671  13.728  0.6274  0.3769 -2.3797
 8502SOL    HW236969   3.441   1.625  13.610 -2.0606  0.1861 -0.8696
 8503SOL     OW36970   1.127   2.910   5.575 -0.7127  0.1908 -0.1462
 8503SOL    HW136971   1.153   2.824   5.608 -1.6971 -1.0480 -2.6606
 8503SOL    HW236972   1.125   2.955   5.660  2.1652 -3.4163  1.8167
 8504SOL     OW36973   2.490   2.448  10.405 -0.2449  0.6501  0.4018
 8504SOL    HW136974   2.405   2.471  10.368 -0.0283  1.3082  0.3222
 8504SOL    HW236975   2.525   2.526  10.447  0.2916  0.2077  0.7644
 8505SOL     OW36976   0.266   3.452  10.367 -0.1636  0.1284  0.1138
 8505SOL    HW136977   0.323   3.421  10.297  0.4416 -1.2480  1.2335
 8505SOL    HW236978   0.309   3.538  10.372  0.0476  0.0387 -0.1854
 8506SOL     OW36979   3.621   3.043   7.699  0.3978 -0.1379  0.0629
 8506SOL    HW136980   3.562   3.014   7.630 -0.6610 -0.5346  1.1148
 8506SOL    HW236981   3.695   3.060   7.641  0.6373  0.5765  0.5749
 8507SOL     OW36982   1.359   1.461   1.464  0.5347  0.1902  0.5435
 8507SOL    HW136983   1.433   1.451   1.523  1.8593  1.2351 -0.9459
 8507SOL    HW236984   1.366   1.387   1.404  1.9079  0.4176  0.4301
 8508SOL     OW36985   1.786   2.618   3.440 -0.0276  0.2280 -0.2019
 8508SOL    HW136986   1.748   2.688   3.492  1.3748  0.6809  0.2247
 8508SOL    HW236987   1.717   2.608   3.374 -0.8926  1.0631  0.5909
 8509SOL     OW36988   3.466   1.497   2.173 -0.0638 -0.3841  0.7356
 8509SOL    HW136989   3.437   1.498   2.081  0.3160 -1.7886  0.5995
 8509SOL    HW236990   3.390   1.460   2.219 -0.6423  0.8722  0.7886
 8510SOL     OW36991   3.710   2.071   5.912 -0.5196  0.6636 -0.4470
 8510SOL    HW136992   3.749   1.985   5.895 -0.0867  0.5173  1.2553
 8510SOL    HW236993   3.620   2.056   5.939  0.6861 -2.7557  1.7421
 8511SOL     OW36994   1.853   2.087   0.979 -0.5014  0.0627 -0.1243
 8511SOL    HW136995   1.887   2.176   0.993  1.5843 -0.7386 -0.0735
 8511SOL    HW236996   1.813   2.076   1.065  0.4859 -2.0593  0.0788
 8512SOL     OW36997   1.516   0.843   5.554 -0.3033 -0.0838  0.1148
 8512SOL    HW136998   1.575   0.769   5.544 -1.2360 -0.8541  0.3430
 8512SOL    HW236999   1.564   0.905   5.609 -0.6877 -2.1370  2.7754
 8513SOL     OW37000   0.597   1.014   3.446  0.5726  0.2054  0.1200
 8513SOL    HW137001   0.586   1.109   3.436  2.0726  0.1700 -1.9178
 8513SOL    HW237002   0.617   0.977   3.360 -0.7765  1.1634 -0.6089
 8514SOL     OW37003   2.621   1.524   2.128 -0.1585 -0.1268 -0.2989
 8514SOL    HW137004   2.617   1.620   2.131  2.1877 -0.0614  0.3001
 8514SOL    HW237005   2.692   1.508   2.066 -0.0210  0.6345 -0.3356
 8515SOL     OW37006   2.912   0.943   8.572 -0.0113  0.3312 -0.2076
 8515SOL    HW137007   2.962   1.012   8.529  2.1379 -0.9023  0.3286
 8515SOL    HW237008   2.852   0.987   8.632 -0.1096 -1.7714  1.2393
 8516SOL     OW37009   2.736   0.291   9.184 -0.2750  0.0517  0.3958
 8516SOL    HW137010   2.671   0.234   9.224 -0.3217 -1.0099 -1.1819
 8516SOL    HW237011   2.814   0.249   9.222  0.5350  0.0716 -1.2514
 8517SOL     OW37012   4.196   3.593   2.265 -1.0628 -0.1152  0.2602
 8517SOL    HW137013   4.175   3.561   2.353  4.3577 -2.3379  0.7468
 8517SOL    HW237014   4.258   3.665   2.276 -1.3807  0.2586 -0.4213
 8518SOL     OW37015   1.749   3.092   3.081  0.2768 -0.0654  0.3045
 8518SOL    HW137016   1.671   3.043   3.054  0.2201 -0.5503  1.3489
 8518SOL    HW237017   1.804   3.090   3.002  1.0071 -1.0808  0.8458
 8519SOL     OW37018   2.067   2.196   3.726  0.2461  0.5531  0.2363
 8519SOL    HW137019   2.049   2.190   3.632 -2.2878  0.4927  0.7238
 8519SOL    HW237020   2.103   2.284   3.732  0.8030  0.5305 -3.0964
 8520SOL     OW37021   2.119   1.223  17.032 -0.1478 -0.6193 -0.0022
 8520SOL    HW137022   2.160   1.303  17.063  0.1366 -1.0743  0.7787
 8520SOL    HW237023   2.031   1.245  17.061  0.1275  3.2606 -2.0848
 8521SOL     OW37024   1.479   3.791   9.122  0.0845 -0.3859 -0.3029
 8521SOL    HW137025   1.560   3.798   9.073 -0.5308 -0.3032 -1.3019
 8521SOL    HW237026   1.506   3.779   9.213 -0.3682  1.3558  0.0616
 8522SOL     OW37027   3.385   1.276   6.886  0.3017  0.5776 -0.9339
 8522SOL    HW137028   3.322   1.331   6.841  0.0966 -0.8388 -2.3991
 8522SOL    HW237029   3.442   1.264   6.810  1.8888  0.9369  0.2083
 8523SOL     OW37030   3.613   2.193  17.165 -0.1160  0.4024  0.1366
 8523SOL    HW137031   3.599   2.100  17.144  0.6065  0.7250 -1.7365
 8523SOL    HW237032   3.617   2.234  17.079  1.2114 -1.0471 -0.5031
 8524SOL     OW37033   3.362   3.900   8.732 -0.4439 -0.1089  0.2461
 8524SOL    HW137034   3.339   3.834   8.667  0.2897  0.5656 -0.7094
 8524SOL    HW237035   3.455   3.911   8.712 -0.4995  0.2544  0.1930
 8525SOL     OW37036   0.868   0.200  17.570 -0.0456  0.4377 -0.6821
 8525SOL    HW137037   0.773   0.209  17.569 -0.1019  0.1672  1.4073
 8525SOL    HW237038   0.897   0.291  17.579 -0.5020  0.4315  0.9191
 8526SOL     OW37039   3.747   2.452   2.739 -0.0834  0.4960 -0.8130
 8526SOL    HW137040   3.664   2.462   2.694  1.4423 -0.3240 -3.7998
 8526SOL    HW237041   3.762   2.361   2.766 -2.0817  0.5315  0.4360
 8527SOL     OW37042   2.751   3.067   5.245  0.3020 -0.3606 -0.0912
 8527SOL    HW137043   2.768   2.973   5.251 -3.9365 -1.0248  0.8490
 8527SOL    HW237044   2.822   3.099   5.301  0.0665  1.7073 -0.9906
 8528SOL     OW37045   4.278   3.937  14.369 -0.1571 -0.2029 -0.1442
 8528SOL    HW137046   4.204   3.965  14.316 -1.5944  1.8415  2.9266
 8528SOL    HW237047   4.245   3.946  14.459 -0.7563  3.2262 -0.7233
 8529SOL     OW37048   1.012   2.161   2.704 -0.3566  0.3797 -0.0461
 8529SOL    HW137049   0.937   2.165   2.644 -0.6288 -0.0010  0.2682
 8529SOL    HW237050   1.086   2.155   2.643  1.2848  0.9736  1.9066
 8530SOL     OW37051   2.291   3.243   3.777  0.5212  0.6626  0.5057
 8530SOL    HW137052   2.351   3.266   3.848  1.5801 -2.3482  0.5877
 8530SOL    HW237053   2.205   3.247   3.817  0.7888 -2.5549  1.3888
 8531SOL     OW37054   1.169   4.037   6.302  0.2328 -0.1329 -0.3597
 8531SOL    HW137055   1.159   3.942   6.295  1.3630 -0.2333 -0.5807
 8531SOL    HW237056   1.103   4.057   6.369 -1.2921 -2.6552 -1.0937
 8532SOL     OW37057   1.104   4.186   7.956 -0.1858 -0.0364 -0.2106
 8532SOL    HW137058   1.158   4.171   8.034  1.7705  2.1661 -1.1347
 8532SOL    HW237059   1.127   4.107   7.907  0.2186 -0.2329  0.2997
 8533SOL     OW37060   0.762   3.415  12.307  0.4681  0.2151 -0.3039
 8533SOL    HW137061   0.774   3.462  12.225 -2.3783  1.8796  0.2214
 8533SOL    HW237062   0.763   3.324  12.278  0.6515 -0.5613  2.0883
 8534SOL     OW37063   1.853   3.170   7.966  0.3756 -0.0696  0.4989
 8534SOL    HW137064   1.819   3.086   7.995 -1.7849  0.3938 -0.6734
 8534SOL    HW237065   1.849   3.152   7.872 -1.8163 -0.4279  0.6761
 8535SOL     OW37066   3.197   4.047   2.797  0.0207  0.1213 -0.0011
 8535SOL    HW137067   3.147   4.117   2.839 -0.7225 -1.0952  1.1515
 8535SOL    HW237068   3.270   4.026   2.855 -1.0259  4.2848  2.7576
 8536SOL     OW37069   1.588   2.292   1.218 -0.0791 -0.1925 -0.8366
 8536SOL    HW137070   1.569   2.340   1.299 -1.7112  0.0972 -1.3900
 8536SOL    HW237071   1.500   2.266   1.191 -0.2110  0.8810 -1.4484
 8537SOL     OW37072   2.250   4.267   5.318 -0.5894  0.3385 -0.1310
 8537SOL    HW137073   2.198   4.217   5.256  0.8826  0.7134 -1.6888
 8537SOL    HW237074   2.278   4.340   5.262  0.4372 -0.4216 -0.6181
 8538SOL     OW37075   3.950   1.494  13.769  0.7679 -0.6851  0.0136
 8538SOL    HW137076   3.873   1.515  13.716  0.2400 -1.5301  0.4522
 8538SOL    HW237077   3.995   1.578  13.758  0.0625 -0.2109  0.7317
 8539SOL     OW37078   2.074   3.189   3.947 -0.4458  0.4823  0.4224
 8539SOL    HW137079   1.999   3.205   3.890 -0.0579  0.0813 -0.2029
 8539SOL    HW237080   2.052   3.101   3.976  2.2015 -1.5079 -3.6395
 8540SOL     OW37081   4.164   1.442   8.848 -0.2848  0.1834 -1.1133
 8540SOL    HW137082   4.156   1.535   8.872  1.2836  0.4938 -1.8060
 8540SOL    HW237083   4.245   1.445   8.797 -0.4079 -2.1311 -1.4292
 8541SOL     OW37084   2.129   4.029   9.399  0.4663  0.3881 -0.2470
 8541SOL    HW137085   2.061   4.097   9.400  1.2860  1.2130 -1.0019
 8541SOL    HW237086   2.182   4.059   9.473  1.0371 -0.6987 -0.2146
 8542SOL     OW37087   4.631   1.784   9.204 -0.1931  0.0629 -0.1738
 8542SOL    HW137088   4.630   1.786   9.109  1.0602  1.2520 -0.1521
 8542SOL    HW237089   4.539   1.781   9.231 -0.2186  1.2074 -0.1286
 8543SOL     OW37090   2.954   2.902  17.428  0.3088  0.0906  0.4125
 8543SOL    HW137091   2.876   2.904  17.483  1.1069  0.9867  1.4982
 8543SOL    HW237092   3.009   2.891  17.506 -1.3596  0.5018  1.6349
 8544SOL     OW37093   3.291   0.729  10.566  0.0199  0.2528 -0.0372
 8544SOL    HW137094   3.286   0.656  10.504  1.0918  0.5402 -0.4575
 8544SOL    HW237095   3.223   0.788  10.536  0.6548  1.2077  0.3999
 8545SOL     OW37096   1.970   3.074   4.970  0.2571  0.2840  0.3576
 8545SOL    HW137097   1.944   3.116   4.888  1.0848 -0.6764 -0.3903
 8545SOL    HW237098   1.942   2.982   4.970  1.9712 -0.2462  0.6814
 8546SOL     OW37099   1.061   1.023   5.042  0.0387 -0.0931 -0.1182
 8546SOL    HW137100   1.054   0.955   4.974  1.8892 -1.0385  0.6390
 8546SOL    HW237101   1.097   0.960   5.104 -0.4433  1.1154  1.3956
 8547SOL     OW37102   2.487   3.871   9.084  0.9216 -0.4112 -0.0871
 8547SOL    HW137103   2.400   3.908   9.077  2.5159  3.0035 -1.5851
 8547SOL    HW237104   2.530   3.954   9.107 -0.3715 -0.1431  1.3514
 8548SOL     OW37105   2.681   1.598   7.268  0.1428  0.4435 -0.1622
 8548SOL    HW137106   2.718   1.566   7.350 -0.5218  2.4726  0.9320
 8548SOL    HW237107   2.649   1.683   7.298 -0.3439  0.2002  0.0032
 8549SOL     OW37108   2.012   2.414   6.030 -0.0892 -0.0222 -0.1793
 8549SOL    HW137109   1.964   2.486   6.069  0.0335 -0.0562  0.0326
 8549SOL    HW237110   2.097   2.455   6.012  0.4013 -1.0764 -0.2635
 8550SOL     OW37111   2.913   0.900   6.390  0.0159 -0.7976  0.1190
 8550SOL    HW137112   2.976   0.883   6.461 -1.7305  2.0435  2.3273
 8550SOL    HW237113   2.837   0.925   6.442 -0.1090  0.9365 -0.9108
 8551SOL     OW37114   4.647   2.318   7.297  0.1695  0.0004 -0.1137
 8551SOL    HW137115   4.673   2.409   7.310 -2.7768  0.5447  2.1517
 8551SOL    HW237116   4.686   2.270   7.370 -0.3850  1.6643  1.2815
 8552SOL     OW37117   3.085   3.326  16.281 -0.1526  0.3817  0.3670
 8552SOL    HW137118   3.150   3.331  16.351  1.3292 -2.0430 -0.8488
 8552SOL    HW237119   3.032   3.249  16.297 -0.6937  0.5915 -0.4155
 8553SOL     OW37120   0.519   0.805   1.784  0.5864 -0.1092  0.1837
 8553SOL    HW137121   0.457   0.764   1.844  0.4331  0.1450  0.2008
 8553SOL    HW237122   0.463   0.859   1.727 -2.9751 -1.5694  2.2926
 8554SOL     OW37123   1.460   2.673   6.604  0.6089  0.5890  0.3393
 8554SOL    HW137124   1.498   2.589   6.631 -0.2590 -0.9911 -3.2928
 8554SOL    HW237125   1.368   2.659   6.624  0.8346 -1.4621 -0.0420
 8555SOL     OW37126   1.146   4.439   9.935  0.0310 -0.3440 -0.7339
 8555SOL    HW137127   1.179   4.528   9.950  0.9254 -0.7322 -0.4035
 8555SOL    HW237128   1.183   4.392  10.010 -0.9168 -0.8841 -0.6061
 8556SOL     OW37129   1.393   2.303   6.460  0.1940 -0.1971 -0.1146
 8556SOL    HW137130   1.464   2.291   6.398  1.0443  2.8079  0.2582
 8556SOL    HW237131   1.438   2.315   6.544  0.5998 -0.5985 -0.2771
 8557SOL     OW37132   4.290   1.272   1.888 -0.4544 -0.4149 -0.4235
 8557SOL    HW137133   4.367   1.329   1.879 -0.1779 -1.0795 -2.2865
 8557SOL    HW237134   4.321   1.209   1.953 -0.1942  0.9057  0.7394
 8558SOL     OW37135   4.708   4.358   7.133  0.8016 -0.5753  0.6153
 8558SOL    HW137136   4.709   4.267   7.102  3.1549 -0.4666  0.3755
 8558SOL    HW237137   0.046   4.342   7.206 -1.2157 -2.5970  1.8407
 8559SOL     OW37138   0.004   1.859  14.709 -0.5827 -0.5122  0.1701
 8559SOL    HW137139   0.005   1.863  14.614 -2.2936 -1.8403  0.1003
 8559SOL    HW237140   4.636   1.837  14.732 -0.0636 -0.6784  2.0373
 8560SOL     OW37141   0.040   3.503   0.916  0.2011 -0.1008  0.6500
 8560SOL    HW137142   0.013   3.591   0.889  2.6173  0.7431  0.9562
 8560SOL    HW237143   0.051   3.449   0.837  2.7242 -0.0337  0.9561
 8561SOL     OW37144   4.298   1.993   7.889  0.9497 -0.4602 -0.3436
 8561SOL    HW137145   4.338   1.930   7.949  0.3667 -0.2560  0.2558
 8561SOL    HW237146   4.319   2.074   7.935 -2.4703 -0.4698  1.2003
 8562SOL     OW37147   2.085   2.775  13.694 -0.4138 -0.0810 -0.0105
 8562SOL    HW137148   2.020   2.712  13.663 -1.8157  0.8069  1.1374
 8562SOL    HW237149   2.170   2.731  13.680 -0.6172 -0.5380  0.1759
 8563SOL     OW37150   0.019   3.086  17.607  0.0848 -0.0024 -0.1344
 8563SOL    HW137151   0.069   3.074  17.526 -1.0067  0.8687 -0.9365
 8563SOL    HW237152   0.067   3.153  17.654 -2.6452  0.1980  2.3110
 8564SOL     OW37153   2.629   1.220  16.660 -0.4819  0.0671 -0.0102
 8564SOL    HW137154   2.592   1.144  16.705 -1.4646 -0.2261 -1.3281
 8564SOL    HW237155   2.633   1.185  16.571  0.7172  0.5648 -0.1619
 8565SOL     OW37156   2.403   0.219  14.152  0.3287  0.0933  0.6585
 8565SOL    HW137157   2.461   0.258  14.217  0.4560  1.0137 -0.0021
 8565SOL    HW237158   2.365   0.146  14.201  1.8709 -1.1754 -0.0542
 8566SOL     OW37159   4.012   2.800   2.680 -0.7619 -0.2993  0.0656
 8566SOL    HW137160   4.055   2.861   2.619 -1.8985  0.8390  0.3909
 8566SOL    HW237161   3.976   2.860   2.745  0.8245  0.1853  0.5133
 8567SOL     OW37162   4.276   3.848   9.497  0.9022 -0.5462 -0.3689
 8567SOL    HW137163   4.316   3.910   9.558 -0.4628 -0.5303  0.5012
 8567SOL    HW237164   4.324   3.860   9.415  0.7502  0.1558 -0.3556
 8568SOL     OW37165   1.774   3.908  11.917  0.2106  0.0300  0.3396
 8568SOL    HW137166   1.720   3.914  11.995 -2.4029 -0.4367 -1.4039
 8568SOL    HW237167   1.862   3.938  11.941  0.5454  0.1286 -1.0038
 8569SOL     OW37168   0.389   1.625   7.210 -0.2485 -0.5078  0.2183
 8569SOL    HW137169   0.345   1.635   7.294 -0.1147 -1.6760  0.4186
 8569SOL    HW237170   0.400   1.709   7.164 -0.4747 -1.5575 -1.7657
 8570SOL     OW37171   3.724   1.404   6.447 -0.3731  0.3333 -0.3019
 8570SOL    HW137172   3.812   1.430   6.475 -1.4288  0.1852  3.1646
 8570SOL    HW237173   3.733   1.309   6.459  0.0005  0.3430 -0.4914
 8571SOL     OW37174   3.794   0.109  16.533  0.7090  0.5090 -0.0530
 8571SOL    HW137175   3.703   0.127  16.511  0.7235  0.4988 -0.1208
 8571SOL    HW237176   3.820   0.194  16.570  1.7356 -0.1580  0.7508
 8572SOL     OW37177   2.098   1.839  15.525 -0.9854 -0.2319  0.1089
 8572SOL    HW137178   2.138   1.859  15.440 -0.3628 -0.8064  0.2696
 8572SOL    HW237179   2.007   1.847  15.497 -0.5915 -1.6634 -1.5599
 8573SOL     OW37180   0.391   2.319   0.487  0.1448 -0.0282 -0.2695
 8573SOL    HW137181   0.304   2.278   0.485  1.2085 -2.2022 -1.1686
 8573SOL    HW237182   0.419   2.304   0.577  0.5943  0.4499 -0.3330
 8574SOL     OW37183   0.759   0.711   2.152  0.1586 -0.0207  0.0168
 8574SOL    HW137184   0.747   0.747   2.064 -0.8832  0.4858  0.3700
 8574SOL    HW237185   0.669   0.718   2.184 -0.2806 -0.8108 -1.0494
 8575SOL     OW37186   3.943   4.540   5.473  0.4004 -0.0204 -0.3598
 8575SOL    HW137187   3.995   4.476   5.521 -3.0126 -1.7475  0.9837
 8575SOL    HW237188   3.922   4.603   5.541 -1.8142  1.1505 -2.1445
 8576SOL     OW37189   4.605   0.110  10.895  0.0995 -0.3876  0.3211
 8576SOL    HW137190   4.622   0.029  10.845 -1.1576 -1.3205  1.4128
 8576SOL    HW237191   4.673   0.163  10.853 -0.0928  1.6947  2.6551
 8577SOL     OW37192   0.244   2.284  13.878  0.2876  0.0899 -0.1264
 8577SOL    HW137193   0.226   2.231  13.801  1.0618 -0.9622  0.4131
 8577SOL    HW237194   0.303   2.345  13.833  0.0970  1.0587  0.9611
 8578SOL     OW37195   1.883   0.370   3.748 -0.2362  0.3786  0.4245
 8578SOL    HW137196   1.909   0.279   3.763 -2.6223 -0.4279 -0.3045
 8578SOL    HW237197   1.854   0.353   3.658  0.9229 -0.4920  0.2141
 8579SOL     OW37198   0.993   0.734  17.619 -0.5070 -0.5156 -0.1648
 8579SOL    HW137199   0.975   0.817  17.574 -0.1328 -0.2697  0.1367
 8579SOL    HW237200   1.088   0.732  17.627 -0.3161  0.4360 -2.1120
 8580SOL     OW37201   0.920   4.685   7.087  0.4582  0.2711 -0.2981
 8580SOL    HW137202   0.870   0.014   7.024 -0.6131  1.6264  1.6913
 8580SOL    HW237203   0.897   4.593   7.075 -1.4336  0.9456 -1.8480
 8581SOL     OW37204   3.706   3.444   4.826 -0.7417 -0.0234  0.0057
 8581SOL    HW137205   3.682   3.351   4.822  0.5984 -0.3397 -0.6385
 8581SOL    HW237206   3.628   3.479   4.784 -1.2775  0.1510  1.1753
 8582SOL     OW37207   0.968   4.578   5.251  0.4267  0.3993 -0.1798
 8582SOL    HW137208   1.063   4.570   5.247  0.2588 -1.4023 -0.2744
 8582SOL    HW237209   0.959   4.673   5.255  0.4095  0.4140 -0.5993
 8583SOL     OW37210   3.801   3.374   4.191  0.1616 -0.2443  0.1246
 8583SOL    HW137211   3.762   3.451   4.232  0.1252 -0.0672 -0.2356
 8583SOL    HW237212   3.783   3.399   4.100  0.1704 -2.1400 -0.3908
 8584SOL     OW37213   0.138   1.017  17.211  0.4516  0.0732 -0.3472
 8584SOL    HW137214   0.090   1.061  17.281  0.1219  0.2211 -0.6704
 8584SOL    HW237215   0.164   1.086  17.150  2.5219  1.1116  1.6872
 8585SOL     OW37216   4.306   2.489   7.541 -0.1279  0.3022  0.1869
 8585SOL    HW137217   4.277   2.412   7.590 -3.0089  0.0660 -1.8787
 8585SOL    HW237218   4.237   2.505   7.476  0.1571 -2.8077 -0.8804
 8586SOL     OW37219   0.408   1.311   5.537 -0.5452  0.1465 -0.1774
 8586SOL    HW137220   0.343   1.303   5.468 -1.2202 -3.6168  0.8691
 8586SOL    HW237221   0.461   1.231   5.536 -2.1065 -0.8645 -1.6125
 8587SOL     OW37222   0.215   2.412   7.593  0.1609  0.5642  0.0009
 8587SOL    HW137223   0.144   2.369   7.545 -1.1560  2.5633  0.1618
 8587SOL    HW237224   0.232   2.493   7.545  1.5897  0.8938  1.0692
 8588SOL     OW37225   3.179   3.351   8.667 -0.5390  0.0575  0.3704
 8588SOL    HW137226   3.136   3.355   8.753 -0.3376 -0.0266  0.4744
 8588SOL    HW237227   3.167   3.437   8.626  0.6222 -0.0606 -0.1994
 8589SOL     OW37228   1.486   3.011   3.052  0.1601 -0.2689 -0.3079
 8589SOL    HW137229   1.497   3.064   2.973 -3.4045 -0.9931 -1.2894
 8589SOL    HW237230   1.441   2.944   3.001 -3.4117  2.3664 -0.6700
 8590SOL     OW37231   3.120   3.125   0.670  0.2539 -0.2403 -0.1726
 8590SOL    HW137232   3.043   3.176   0.697 -0.8954 -1.2749 -1.5485
 8590SOL    HW237233   3.177   3.107   0.745 -1.5661 -3.6038  0.3677
 8591SOL     OW37234   1.267   3.649   2.520  0.5130  0.1933 -0.1401
 8591SOL    HW137235   1.320   3.583   2.476  0.2916  0.3118 -0.5895
 8591SOL    HW237236   1.190   3.633   2.465  1.0527  0.2841 -0.9125
 8592SOL     OW37237   3.138   0.339  13.359  0.3265 -0.0234 -0.1311
 8592SOL    HW137238   3.181   0.331  13.274 -0.0760  1.3424 -0.4648
 8592SOL    HW237239   3.056   0.290  13.356  0.1576  0.1605  1.2990
 8593SOL     OW37240   0.339   4.659   5.668  0.1825  0.4086  0.7782
 8593SOL    HW137241   0.265   4.717   5.683 -0.7778 -0.6921  0.2696
 8593SOL    HW237242   0.415   4.715   5.654  0.3041  0.5021  1.8197
 8594SOL     OW37243   2.648   2.497   2.366  0.4199 -0.1806  0.1026
 8594SOL    HW137244   2.607   2.436   2.428  0.7285 -0.3571  0.1313
 8594SOL    HW237245   2.568   2.542   2.338  1.0793  1.0064  0.1470
 8595SOL     OW37246   4.214   3.031   0.179  0.0898  0.6039 -0.4049
 8595SOL    HW137247   4.201   3.122   0.205  3.0080 -0.1436  3.6126
 8595SOL    HW237248   4.222   2.992   0.266  0.0337 -0.2003 -0.7570
 8596SOL     OW37249   1.262   0.840  17.601  0.3651  0.2821 -0.0742
 8596SOL    HW137250   1.280   0.912  17.662  0.7946 -0.4708  0.6821
 8596SOL    HW237251   1.339   0.837  17.545 -0.0035 -1.0577 -0.5079
 8597SOL     OW37252   2.476   1.883   7.789  0.0447  0.3246 -0.0048
 8597SOL    HW137253   2.550   1.892   7.849  0.6415  1.0600 -0.8445
 8597SOL    HW237254   2.434   1.808   7.831 -0.5628  0.4521 -0.3882
 8598SOL     OW37255   2.738   2.629   8.854 -0.7377  0.0579 -0.2748
 8598SOL    HW137256   2.742   2.590   8.941  1.5883 -1.0189 -0.8596
 8598SOL    HW237257   2.651   2.620   8.816 -1.1448 -2.6262  1.3166
 8599SOL     OW37258   0.329   3.612  10.932 -0.1521  0.3327  0.0289
 8599SOL    HW137259   0.381   3.533  10.947 -0.6768  0.4617  2.4722
 8599SOL    HW237260   0.334   3.647  11.020 -1.2332  0.6038 -0.0233
 8600SOL     OW37261   3.706   2.672  13.465  0.0166 -0.5641  0.1497
 8600SOL    HW137262   3.797   2.649  13.482 -0.2794 -0.2636  2.0631
 8600SOL    HW237263   3.682   2.729  13.538 -2.0397 -0.4113 -0.6415
 8601SOL     OW37264   1.625   4.395   0.216 -0.3916 -0.1587 -0.1654
 8601SOL    HW137265   1.646   4.331   0.148  0.5350 -0.1478  0.1182
 8601SOL    HW237266   1.710   4.400   0.259 -1.0555  0.1282  1.1161
 8602SOL     OW37267   1.635   4.556  10.008 -0.4950 -0.1980 -0.5723
 8602SOL    HW137268   1.593   4.470  10.013  0.9801 -0.9887 -1.7226
 8602SOL    HW237269   1.580   4.602   9.945  0.5402  1.8152 -0.0074
 8603SOL     OW37270   2.612   0.144   4.584  0.0696 -0.8092 -0.0121
 8603SOL    HW137271   2.652   0.059   4.605  0.2401 -0.7750 -0.1988
 8603SOL    HW237272   2.575   0.170   4.668  0.4326 -1.8207  0.4656
 8604SOL     OW37273   1.628   4.344  17.407  0.1892  0.0034 -0.2389
 8604SOL    HW137274   1.589   4.427  17.381 -1.6729  0.3398  3.7032
 8604SOL    HW237275   1.632   4.307  17.319 -4.5296 -0.9205 -0.0146
 8605SOL     OW37276   3.841   2.578   7.751  0.0082  0.3380 -0.1965
 8605SOL    HW137277   3.835   2.565   7.846  1.1723  1.2098 -0.0015
 8605SOL    HW237278   3.813   2.670   7.753 -3.0906 -0.5484 -2.6252
 8606SOL     OW37279   3.647   4.641   4.512 -0.2011 -0.1396 -0.0405
 8606SOL    HW137280   3.628   4.550   4.536  0.7043  0.3608  2.6063
 8606SOL    HW237281   3.689   4.635   4.426 -2.1845 -0.9690 -0.9472
 8607SOL     OW37282   1.246   4.260  15.905 -0.1952 -0.4568 -0.4879
 8607SOL    HW137283   1.269   4.212  15.984 -0.0565 -1.7464 -1.3227
 8607SOL    HW237284   1.151   4.257  15.913 -0.2091 -1.2961 -1.0482
 8608SOL     OW37285   0.721   3.558   5.052  0.1759 -0.0408 -0.1598
 8608SOL    HW137286   0.732   3.535   5.144  0.9217  2.3592  0.3456
 8608SOL    HW237287   0.626   3.570   5.052  0.0856 -0.9061  2.8585
 8609SOL     OW37288   1.937   3.586   2.759 -0.4828  0.1113  0.2374
 8609SOL    HW137289   1.902   3.634   2.834 -1.1326 -0.9272  0.6080
 8609SOL    HW237290   1.933   3.492   2.778  0.2261 -0.2046 -1.1903
 8610SOL     OW37291   4.145   0.856  13.897  0.7411  0.3905 -0.1218
 8610SOL    HW137292   4.113   0.842  13.807 -0.3941  0.5197  0.2612
 8610SOL    HW237293   4.134   0.765  13.926 -3.0117  1.7160  2.5528
 8611SOL     OW37294   0.891   1.740   9.547  0.4697 -0.5110  0.1883
 8611SOL    HW137295   0.929   1.676   9.486 -1.1291 -1.6016  0.3405
 8611SOL    HW237296   0.930   1.711   9.629 -2.6021  1.1566  2.2347
 8612SOL     OW37297   0.735   3.720   3.994 -0.0716 -0.7707  0.2546
 8612SOL    HW137298   0.727   3.683   4.081 -0.0635  0.7420  0.8907
 8612SOL    HW237299   0.698   3.648   3.943 -0.8855 -0.9218  1.0533
 8613SOL     OW37300   0.363   3.234  15.153 -0.4881 -0.5780  0.3941
 8613SOL    HW137301   0.360   3.309  15.213  0.8867 -0.0365 -0.2130
 8613SOL    HW237302   0.457   3.220  15.163  0.0430  2.4651 -0.4281
 8614SOL     OW37303   0.548   4.068   5.145 -0.3639 -0.0459  0.1525
 8614SOL    HW137304   0.617   4.003   5.132  0.3830  1.0392 -1.2448
 8614SOL    HW237305   0.555   4.115   5.062  0.1033 -0.9047 -0.2922
 8615SOL     OW37306   4.183   3.763   4.648 -0.4570  0.3655  0.2747
 8615SOL    HW137307   4.097   3.770   4.690 -0.5405 -1.7996  0.4502
 8615SOL    HW237308   4.204   3.854   4.669  2.3482 -0.7179  2.1866
 8616SOL     OW37309   4.231   0.908   2.451  0.3196 -0.6262 -0.0171
 8616SOL    HW137310   4.233   0.957   2.369 -1.1667  0.0748  0.3733
 8616SOL    HW237311   4.261   0.826   2.412  1.2165 -0.5531  0.5125
 8617SOL     OW37312   3.273   1.222  12.828 -0.5176  0.0050  0.5292
 8617SOL    HW137313   3.261   1.251  12.738 -1.8693 -2.0828  0.0216
 8617SOL    HW237314   3.266   1.128  12.812 -0.3386  0.3533 -1.6295
 8618SOL     OW37315   0.568   3.164  13.962  0.4798  0.4898 -0.1185
 8618SOL    HW137316   0.546   3.181  14.054 -2.8916 -2.3679 -0.3969
 8618SOL    HW237317   0.502   3.206  13.907  2.1628  0.0086 -2.4991
 8619SOL     OW37318   2.471   4.244   7.705 -0.3637  0.6626 -0.0153
 8619SOL    HW137319   2.496   4.286   7.788 -3.4960  1.0970  0.7161
 8619SOL    HW237320   2.383   4.212   7.724 -1.4023  3.0346 -0.8855
 8620SOL     OW37321   1.917   4.148   3.292 -0.0819 -0.4769 -0.0043
 8620SOL    HW137322   1.982   4.138   3.223  1.9243  0.8900  1.7060
 8620SOL    HW237323   1.875   4.227   3.259 -0.1688 -0.0161  1.2095
 8621SOL     OW37324   2.583   1.093  11.872 -0.1758 -0.2581 -0.4011
 8621SOL    HW137325   2.623   1.113  11.787  0.6879  1.5562  0.4210
 8621SOL    HW237326   2.600   1.179  11.911  0.5568  0.5873 -2.5656
 8622SOL     OW37327   4.558   2.507  12.287  0.2876 -0.1784 -0.0325
 8622SOL    HW137328   4.606   2.445  12.232  1.6928  0.4982  0.4226
 8622SOL    HW237329   4.631   2.552  12.330  1.4581 -0.0867 -2.0810
 8623SOL     OW37330   0.926   4.518   1.354  0.0661 -0.0127 -0.4218
 8623SOL    HW137331   0.850   4.490   1.303  0.1029 -1.5415  0.3503
 8623SOL    HW237332   0.951   4.596   1.304  0.9670 -0.2366 -0.3253
 8624SOL     OW37333   2.625   3.321   0.762  0.5769 -0.1578 -0.1154
 8624SOL    HW137334   2.685   3.364   0.701  0.4230 -0.3882 -0.4346
 8624SOL    HW237335   2.574   3.269   0.700 -0.7272  0.6064  0.3322
 8625SOL     OW37336   0.999   1.646   7.181  0.1695  0.4105 -0.0899
 8625SOL    HW137337   1.035   1.679   7.263  1.4336  2.7066 -1.5656
 8625SOL    HW237338   0.908   1.671   7.200  0.0038  1.1525 -1.8655
 8626SOL     OW37339   2.510   0.881   2.851 -0.5755  1.1806 -0.1220
 8626SOL    HW137340   2.595   0.851   2.885 -0.9792  1.3873  1.0768
 8626SOL    HW237341   2.527   0.857   2.760 -2.2277  0.4986 -0.2402
 8627SOL     OW37342   3.307   3.946  10.701 -0.9244  0.2353 -0.2065
 8627SOL    HW137343   3.376   3.992  10.749  1.2246 -1.7872 -1.3939
 8627SOL    HW237344   3.233   4.006  10.690  0.0953  1.5505  0.0342
 8628SOL     OW37345   4.357   4.654   9.696  0.1534 -0.3566 -0.2673
 8628SOL    HW137346   4.431   4.594   9.692 -0.0272 -0.5384 -0.8862
 8628SOL    HW237347   4.281   4.596   9.696 -1.5008  1.8039  0.7532
 8629SOL     OW37348   4.128   2.982  14.088  0.2810  0.1351 -0.0563
 8629SOL    HW137349   4.073   2.934  14.151 -0.3171  1.8830  0.7349
 8629SOL    HW237350   4.182   3.037  14.144  0.6596  0.4126 -0.6992
 8630SOL     OW37351   3.107   0.363   6.705 -0.0631 -0.5290 -0.0133
 8630SOL    HW137352   3.191   0.328   6.676  1.4403  1.1601  2.3438
 8630SOL    HW237353   3.066   0.286   6.744 -0.9367 -0.6711 -1.2131
 8631SOL     OW37354   2.842   1.329   6.902 -0.2376 -0.3067  0.3671
 8631SOL    HW137355   2.748   1.320   6.920 -0.5913  1.6453 -0.4026
 8631SOL    HW237356   2.841   1.275   6.823  0.8305 -0.3767  0.4072
 8632SOL     OW37357   4.440   3.376  14.873 -0.6475 -0.4335  0.3211
 8632SOL    HW137358   4.483   3.461  14.865 -0.3812 -0.6525 -0.5394
 8632SOL    HW237359   4.349   3.405  14.879 -0.4383  0.4157 -0.7509
 8633SOL     OW37360   0.408   2.805  10.769 -0.0371 -0.0959  0.0037
 8633SOL    HW137361   0.320   2.837  10.750 -0.0988 -0.1534  0.1918
 8633SOL    HW237362   0.387   2.712  10.781 -0.7782 -0.0099 -0.7073
 8634SOL     OW37363   0.302   2.991  13.346  0.3741  0.2081 -0.5650
 8634SOL    HW137364   0.245   3.047  13.294  0.1327  2.9608  2.6768
 8634SOL    HW237365   0.358   2.975  13.270 -0.7648  0.9918 -1.5660
 8635SOL     OW37366   2.897   3.856   8.929  0.3098 -0.3422 -0.1965
 8635SOL    HW137367   2.808   3.884   8.909  0.8297  0.2893 -1.6254
 8635SOL    HW237368   2.947   3.898   8.859  1.6988  2.2658  2.3624
 8636SOL     OW37369   2.273   0.584   8.397  0.4343  0.3819  0.4116
 8636SOL    HW137370   2.223   0.514   8.355  1.0046  0.8129 -0.9629
 8636SOL    HW237371   2.209   0.612   8.462 -0.4229  0.1891 -0.3531
 8637SOL     OW37372   3.940   2.347   3.968  0.3270 -0.3870  0.4783
 8637SOL    HW137373   3.888   2.294   3.908  2.4013 -2.2654  0.3681
 8637SOL    HW237374   4.026   2.313   3.945  0.5076 -0.1019  0.7328
 8638SOL     OW37375   1.127   1.435  10.888 -0.4606  0.4435 -0.2456
 8638SOL    HW137376   1.034   1.454  10.899  0.5674  3.8379  2.5066
 8638SOL    HW237377   1.126   1.436  10.793  3.0622  2.2814 -0.2420
 8639SOL     OW37378   0.386   1.089   1.167 -0.4718 -0.2184 -0.3894
 8639SOL    HW137379   0.309   1.043   1.200  0.3685 -1.2394  0.1654
 8639SOL    HW237380   0.351   1.139   1.094 -0.5987  0.9793  0.4953
 8640SOL     OW37381   1.957   1.178  14.441 -0.4397  0.0248  0.0353
 8640SOL    HW137382   2.042   1.187  14.485  0.2742 -0.9182 -1.1734
 8640SOL    HW237383   1.991   1.178  14.352 -1.7278 -0.6758 -0.4502
 8641SOL     OW37384   1.915   1.704  13.620  1.1348 -0.7403 -0.5763
 8641SOL    HW137385   1.831   1.750  13.616  0.9382 -0.9947  0.4777
 8641SOL    HW237386   1.890   1.640  13.553 -3.2337 -0.1327  0.4498
 8642SOL     OW37387   3.619   0.045   4.008  0.1493 -0.1915  0.5771
 8642SOL    HW137388   3.639   0.134   4.038 -1.3870  1.0846 -2.1597
 8642SOL    HW237389   3.596   0.068   3.918 -2.4865 -1.3778  0.9312
 8643SOL     OW37390   2.162   1.668   0.324  0.1301 -0.2241  0.5042
 8643SOL    HW137391   2.207   1.753   0.324 -0.3144  0.0200  1.5322
 8643SOL    HW237392   2.236   1.608   0.317 -0.7536 -1.2851  0.2771
 8644SOL     OW37393   4.114   4.051   3.050 -0.4344 -0.6547  0.6919
 8644SOL    HW137394   4.132   3.986   3.119  0.0844  1.2284  2.3365
 8644SOL    HW237395   4.123   4.000   2.970  0.2322 -2.5659  1.9669
 8645SOL     OW37396   1.805   4.315   1.151  0.0432  0.3596  0.1213
 8645SOL    HW137397   1.723   4.363   1.137 -0.6778 -0.9577 -0.1357
 8645SOL    HW237398   1.827   4.307   1.058  0.9917 -1.0896  0.4837
 8646SOL     OW37399   4.381   3.132   7.137  0.9464  0.4779  0.2345
 8646SOL    HW137400   4.325   3.069   7.184 -0.5526  0.5706 -1.4117
 8646SOL    HW237401   4.315   3.193   7.103  0.8206  0.4125  0.3628
 8647SOL     OW37402   4.603   0.256   1.524 -0.1258  0.1289 -0.2082
 8647SOL    HW137403   4.513   0.239   1.553 -0.3657  1.1560 -0.3441
 8647SOL    HW237404   4.600   0.348   1.498 -0.7201 -0.4288 -2.0878
 8648SOL     OW37405   4.696   3.542   7.541 -0.6511 -0.4563 -0.3126
 8648SOL    HW137406   4.709   3.625   7.494 -0.3657 -1.2038 -1.5475
 8648SOL    HW237407   4.608   3.550   7.577 -0.4817  1.9966 -0.4604
 8649SOL     OW37408   0.479   2.496   6.948 -0.5029  0.3244  0.1329
 8649SOL    HW137409   0.493   2.401   6.945 -1.1312  0.1994  1.1196
 8649SOL    HW237410   0.423   2.502   7.026 -2.3181  1.9958 -1.2842
 8650SOL     OW37411   2.705   2.875  14.758 -0.3421 -0.3146 -0.6006
 8650SOL    HW137412   2.769   2.805  14.773 -2.3719 -1.6564  1.9492
 8650SOL    HW237413   2.747   2.952  14.796  0.4209 -0.3601 -1.3461
 8651SOL     OW37414   2.300   2.581   5.612  0.4048  0.2732 -0.1121
 8651SOL    HW137415   2.319   2.582   5.518  0.1439 -0.6429 -0.1702
 8651SOL    HW237416   2.391   2.576   5.642  0.2189 -1.6009  0.1229
 8652SOL     OW37417   4.218   3.149   4.116  0.1062  0.2404 -0.3155
 8652SOL    HW137418   4.268   3.124   4.194  0.0492  1.4921  0.1145
 8652SOL    HW237419   4.132   3.163   4.156 -0.2361 -0.3906 -0.8224
 8653SOL     OW37420   1.347   1.477   8.281  0.2044  0.3119 -0.2099
 8653SOL    HW137421   1.303   1.392   8.276  2.0054 -0.5288 -1.6210
 8653SOL    HW237422   1.408   1.486   8.208 -2.1668 -0.3177 -2.2639
 8654SOL     OW37423   3.656   4.260   5.863 -0.2742 -0.3587  0.5129
 8654SOL    HW137424   3.590   4.297   5.922  2.7641 -0.0799  3.7571
 8654SOL    HW237425   3.726   4.283   5.924 -0.2328 -0.2790  0.4353
 8655SOL     OW37426   2.855   1.452   4.061 -0.1912  0.4514  0.2659
 8655SOL    HW137427   2.915   1.402   4.115  0.6080  0.4551 -0.6090
 8655SOL    HW237428   2.818   1.514   4.124 -0.7830 -0.2816  0.6433
 8656SOL     OW37429   1.047   3.064   9.034 -0.1089  0.5474 -0.0320
 8656SOL    HW137430   0.967   3.034   8.991 -0.2210 -0.3614  0.8163
 8656SOL    HW237431   1.028   3.019   9.116 -2.2273  0.7477 -0.4117
 8657SOL     OW37432   0.646   3.525  10.712 -0.2045  0.3816 -0.4459
 8657SOL    HW137433   0.718   3.474  10.749  0.1907  2.2763  1.4558
 8657SOL    HW237434   0.608   3.473  10.643 -1.6488 -0.1921  0.7963
 8658SOL     OW37435   1.013   3.308   7.364 -0.1287  0.4140  0.4641
 8658SOL    HW137436   1.095   3.276   7.327 -0.7703  0.7137 -1.1878
 8658SOL    HW237437   0.956   3.295   7.289 -0.5331 -1.6085  1.1434
 8659SOL     OW37438   4.216   3.520   5.520  0.2221 -0.1173  0.4487
 8659SOL    HW137439   4.224   3.469   5.601  1.9086  0.2130  0.4783
 8659SOL    HW237440   4.296   3.515   5.468 -0.8137 -2.5759 -0.9190
 8660SOL     OW37441   1.487   4.033   6.904  0.3065 -0.2802 -0.0976
 8660SOL    HW137442   1.532   3.954   6.934  0.0215 -0.9497 -1.3879
 8660SOL    HW237443   1.395   4.006   6.913 -0.1126  1.8154  1.9410
 8661SOL     OW37444   2.427   0.952   5.472  0.3006 -0.2954  0.0130
 8661SOL    HW137445   2.413   1.042   5.442 -0.2295 -0.2149  0.5218
 8661SOL    HW237446   2.343   0.912   5.451 -0.2857  1.8659 -1.8063
 8662SOL     OW37447   1.028   4.191   6.879  0.1711  0.2778 -0.0444
 8662SOL    HW137448   0.965   4.121   6.893  0.9947 -0.3482  0.5196
 8662SOL    HW237449   1.109   4.144   6.901 -0.1307  0.1772  0.8397
 8663SOL     OW37450   2.137   0.315  14.060  0.1543  0.4037 -0.3897
 8663SOL    HW137451   2.150   0.408  14.042  2.0068 -0.1735 -2.0564
 8663SOL    HW237452   2.225   0.286  14.085 -0.0178  0.2170 -0.0145
 8664SOL     OW37453   3.153   3.577  16.076 -0.6048  0.5594  1.0055
 8664SOL    HW137454   3.132   3.623  15.994 -0.6678 -2.9576 -0.9679
 8664SOL    HW237455   3.091   3.620  16.135  0.2215 -0.8695  2.9189
 8665SOL     OW37456   2.820   1.238   3.794  0.2107 -0.0843 -0.3326
 8665SOL    HW137457   2.791   1.187   3.718 -1.6167 -0.7113  0.8014
 8665SOL    HW237458   2.847   1.167   3.852  2.5923  0.6570 -0.5378
 8666SOL     OW37459   1.928   3.232   3.664  0.3771 -0.3897 -0.2232
 8666SOL    HW137460   1.939   3.326   3.651  1.5527 -0.5413 -0.2884
 8666SOL    HW237461   1.853   3.224   3.605 -0.9096 -0.9080  1.4730
 8667SOL     OW37462   3.905   3.900   3.288  0.2372 -0.2033  0.4487
 8667SOL    HW137463   3.909   3.879   3.381 -0.4559 -2.8818 -0.1364
 8667SOL    HW237464   3.999   3.900   3.273  0.8438 -1.8139  4.0727
 8668SOL     OW37465   3.407   1.874  11.603  0.0580  0.2431 -0.3940
 8668SOL    HW137466   3.338   1.874  11.537 -1.1270 -0.7958  0.8444
 8668SOL    HW237467   3.433   1.966  11.601 -0.5656  0.4572  2.1773
 8669SOL     OW37468   4.176   0.517  15.470  0.4086 -0.6721  0.0939
 8669SOL    HW137469   4.171   0.494  15.562  2.7266 -1.6465 -0.0300
 8669SOL    HW237470   4.269   0.541  15.470  0.3675 -0.5356  0.9641
 8670SOL     OW37471   3.724   0.630   5.460 -0.1046  0.2495  0.0731
 8670SOL    HW137472   3.670   0.708   5.445 -2.2055 -0.9136  1.6552
 8670SOL    HW237473   3.744   0.598   5.372 -0.6982 -0.3066  0.1476
 8671SOL     OW37474   2.950   3.502   9.053  0.2206 -0.6662  0.2671
 8671SOL    HW137475   2.988   3.529   8.969 -0.7467 -3.6326 -1.1418
 8671SOL    HW237476   3.028   3.506   9.109 -0.2798  1.8979  0.7959
 8672SOL     OW37477   1.610   3.104   9.068 -0.0739  0.4108 -0.5420
 8672SOL    HW137478   1.582   3.187   9.108 -1.4915 -1.0052  1.3955
 8672SOL    HW237479   1.703   3.119   9.052  0.4417  0.7950  2.8294
 8673SOL     OW37480   4.359   0.706   2.286 -0.1563 -0.1249 -0.2933
 8673SOL    HW137481   4.420   0.641   2.321 -0.6854  1.2401  3.1045
 8673SOL    HW237482   4.273   0.666   2.276 -1.3653  2.0303  1.5125
 8674SOL     OW37483   3.278   2.041   4.509  0.3528  0.5553  0.0244
 8674SOL    HW137484   3.227   1.971   4.549  0.7423  0.1892 -0.1133
 8674SOL    HW237485   3.281   2.001   4.422  1.6648  0.0859  0.2849
 8675SOL     OW37486   2.084   4.670  13.704 -0.5875 -0.4469  0.2378
 8675SOL    HW137487   2.020   4.608  13.670  1.1492 -0.5323 -2.8156
 8675SOL    HW237488   2.111   4.632  13.788  0.1226 -1.6691 -0.5583
 8676SOL     OW37489   2.590   3.489   8.370 -0.3174  0.3088  0.1919
 8676SOL    HW137490   2.636   3.562   8.328  1.4591 -0.9274 -0.0478
 8676SOL    HW237491   2.656   3.419   8.366 -2.1190 -1.3434 -0.3965
 8677SOL     OW37492   2.352   0.542   5.003  0.2418 -0.4568 -0.0415
 8677SOL    HW137493   2.422   0.585   4.954  0.8834 -0.4086  0.9240
 8677SOL    HW237494   2.400   0.478   5.055  0.2156 -1.6565 -1.5109
 8678SOL     OW37495   1.037   1.553   9.050 -0.0622 -0.6545 -0.2903
 8678SOL    HW137496   1.064   1.626   9.105 -0.3824 -0.6599 -0.1236
 8678SOL    HW237497   1.121   1.507   9.045 -0.0689 -0.5960 -0.9207
 8679SOL     OW37498   1.571   1.902  16.672  0.5438  0.2106  0.1511
 8679SOL    HW137499   1.656   1.939  16.696 -0.1623  2.2609 -0.4926
 8679SOL    HW237500   1.587   1.810  16.693  4.5201 -0.0421 -3.8806
 8680SOL     OW37501   3.943   0.605   4.493 -0.1498 -0.4177  0.4718
 8680SOL    HW137502   3.975   0.664   4.425  1.0423 -0.8982  0.6241
 8680SOL    HW237503   3.855   0.582   4.464 -0.7773  1.3448  0.9625
 8681SOL     OW37504   0.172   4.313   2.074 -0.0372 -0.2192  0.1311
 8681SOL    HW137505   0.112   4.375   2.115  0.7621  1.1362 -0.7563
 8681SOL    HW237506   0.203   4.367   2.002  0.5703 -1.0552 -0.2396
 8682SOL     OW37507   1.382   2.209   7.590 -0.1908 -0.0529 -0.4557
 8682SOL    HW137508   1.404   2.215   7.684  2.5481  0.6090 -1.1337
 8682SOL    HW237509   1.415   2.294   7.560  0.3440 -0.9591 -2.3764
 8683SOL     OW37510   2.161   0.978  17.179  0.2215  0.7289 -0.2420
 8683SOL    HW137511   2.148   1.065  17.140 -0.8940  0.3864 -0.6447
 8683SOL    HW237512   2.256   0.970  17.178  0.1053 -0.7967  1.8754
 8684SOL     OW37513   1.777   4.683   8.115 -0.1473 -0.2374  0.5200
 8684SOL    HW137514   1.690   4.689   8.076 -0.1905 -0.2617  0.6138
 8684SOL    HW237515   1.804   4.595   8.090 -1.6920 -1.1104  2.0098
 8685SOL     OW37516   1.443   0.939   4.560  0.7923 -0.1664 -0.2519
 8685SOL    HW137517   1.461   1.033   4.560  2.5817 -0.5125 -0.7394
 8685SOL    HW237518   1.353   0.959   4.532  0.5871 -0.6697  0.0462
 8686SOL     OW37519   1.528   3.915   5.684 -0.1607  0.1798  0.5637
 8686SOL    HW137520   1.620   3.897   5.665 -0.3603 -1.2894  1.0025
 8686SOL    HW237521   1.483   3.855   5.624 -0.4636 -2.1898  3.1599
 8687SOL     OW37522   1.128   1.988   9.727 -0.3805  0.1539 -0.0242
 8687SOL    HW137523   1.092   2.026   9.807  0.7647  1.2160 -0.0112
 8687SOL    HW237524   1.052   1.992   9.669 -0.5289 -2.6901  0.0006
 8688SOL     OW37525   4.105   1.209  15.901 -0.3128 -0.4115  0.6422
 8688SOL    HW137526   4.016   1.174  15.910 -0.5493  0.0853  0.2645
 8688SOL    HW237527   4.111   1.252  15.987  0.7514  2.1379 -0.6972
 8689SOL     OW37528   0.182   4.495  15.228  0.4588  0.3323 -0.0275
 8689SOL    HW137529   0.108   4.539  15.271 -0.7758 -1.3596 -0.4300
 8689SOL    HW237530   0.224   4.445  15.298  1.1520  2.0180  0.7666
 8690SOL     OW37531   1.030   2.252   4.783 -0.1290  0.1264  0.0436
 8690SOL    HW137532   1.105   2.270   4.839 -0.7903  0.1251  0.9302
 8690SOL    HW237533   1.060   2.274   4.694 -0.1260  2.4147  0.6105
 8691SOL     OW37534   0.097   2.838  16.379  0.3184  0.0666 -0.8003
 8691SOL    HW137535   0.170   2.900  16.380 -0.2189  0.7023 -0.9528
 8691SOL    HW237536   0.105   2.810  16.287  2.3233 -1.7607 -0.0587
 8692SOL     OW37537   3.333   2.459   7.389  0.4452  0.0546  0.0416
 8692SOL    HW137538   3.421   2.482   7.416  0.3535 -0.4911  0.8098
 8692SOL    HW237539   3.282   2.499   7.460 -1.6889 -0.1219 -1.3669
 8693SOL     OW37540   2.132   2.808  15.439 -0.4120  0.3454  0.7251
 8693SOL    HW137541   2.218   2.815  15.480  0.3941 -0.8477 -0.7512
 8693SOL    HW237542   2.102   2.895  15.466  1.4664  0.2393  3.0608
 8694SOL     OW37543   4.382   3.011   8.456 -0.2078 -0.0024  0.1129
 8694SOL    HW137544   4.406   2.931   8.503  0.1952  0.2512  0.3363
 8694SOL    HW237545   4.291   3.014   8.486 -0.3143  0.1119 -0.2238
 8695SOL     OW37546   1.010   1.086   1.166  0.2036 -0.2174 -0.5197
 8695SOL    HW137547   1.086   1.077   1.109  0.4727 -2.7183  0.2540
 8695SOL    HW237548   0.958   1.160   1.134  0.0197 -0.9685 -1.9728
 8696SOL     OW37549   0.695   0.062   5.611  0.4192  0.1533  0.6235
 8696SOL    HW137550   0.737   0.042   5.694 -1.3739  1.3422  1.8038
 8696SOL    HW237551   0.676   4.695   5.585 -0.5367  0.6222 -0.3278
 8697SOL     OW37552   4.209   2.317   2.600  0.3898  0.2180  0.2061
 8697SOL    HW137553   4.247   2.298   2.685  0.8286 -1.0495 -0.2827
 8697SOL    HW237554   4.205   2.413   2.604 -0.4230  0.1753  0.4548
 8698SOL     OW37555   0.704   2.879   3.531 -0.4072 -0.1794  0.0517
 8698SOL    HW137556   0.636   2.944   3.514 -0.5367  0.2309  2.0663
 8698SOL    HW237557   0.658   2.822   3.593 -0.7679  0.6286  0.5250
 8699SOL     OW37558   4.194   2.688   2.893 -0.2318 -0.6587 -0.3904
 8699SOL    HW137559   4.129   2.618   2.887  2.0427 -2.9428  1.9066
 8699SOL    HW237560   4.154   2.731   2.817  0.6864 -2.9375 -2.1903
 8700SOL     OW37561   4.497   1.123  14.175  0.2824 -0.7386  0.2567
 8700SOL    HW137562   4.446   1.080  14.106  1.0702 -0.1040 -0.7147
 8700SOL    HW237563   4.438   1.110  14.249  1.4658  0.9242  1.4750
 8701SOL     OW37564   2.597   3.515   7.519 -0.2511  0.0804 -0.1032
 8701SOL    HW137565   2.578   3.564   7.439  1.8877 -0.2704 -0.8350
 8701SOL    HW237566   2.512   3.472   7.530  0.2241 -1.1255 -1.1712
 8702SOL     OW37567   4.456   3.488   5.395  0.4403  0.0882  0.3356
 8702SOL    HW137568   4.440   3.403   5.353 -1.2812  1.2835 -1.3843
 8702SOL    HW237569   4.526   3.529   5.345 -0.0399  0.5041  0.0111
 8703SOL     OW37570   3.115   3.384  12.907  0.4096  0.1837  0.2603
 8703SOL    HW137571   3.207   3.378  12.935  0.7066 -0.4093 -0.8515
 8703SOL    HW237572   3.097   3.470  12.946 -0.5828 -0.1329  0.4772
 8704SOL     OW37573   3.693   2.559   5.094  0.2979  0.0851 -0.3378
 8704SOL    HW137574   3.692   2.504   5.172  1.4403 -0.1517 -0.4822
 8704SOL    HW237575   3.786   2.577   5.077  0.6234 -0.2759  1.1094
 8705SOL     OW37576   1.402   1.595  17.354 -0.0643  0.2054  0.2218
 8705SOL    HW137577   1.383   1.522  17.295  0.4630  0.4890 -0.2992
 8705SOL    HW237578   1.402   1.666  17.290 -1.4384 -0.3055 -0.3426
 8706SOL     OW37579   0.284   1.293   6.558  0.3945  0.6181 -0.7385
 8706SOL    HW137580   0.239   1.253   6.484  0.6234 -1.9597  0.5418
 8706SOL    HW237581   0.267   1.382   6.528  1.0553  0.9647 -0.1054
 8707SOL     OW37582   3.718   1.484   5.962 -0.2013 -0.1132  0.9552
 8707SOL    HW137583   3.674   1.565   5.988  0.8035  0.2987  1.3639
 8707SOL    HW237584   3.804   1.478   6.004  0.4884 -3.3454 -0.9784
 8708SOL     OW37585   4.569   4.075   5.534  0.4490  0.2994  0.4032
 8708SOL    HW137586   4.621   4.031   5.601  1.3783 -0.9185 -1.1120
 8708SOL    HW237587   4.510   4.002   5.516  0.8817 -0.2919  1.3633
 8709SOL     OW37588   1.191   2.187   8.963 -0.1538 -0.2154  0.3829
 8709SOL    HW137589   1.135   2.195   9.041 -0.3075 -0.0686  0.2560
 8709SOL    HW237590   1.278   2.216   8.991 -0.3302  0.1279  0.5791
 8710SOL     OW37591   1.684   2.661   4.620 -0.2690 -0.2821 -0.3357
 8710SOL    HW137592   1.741   2.627   4.551 -0.2984 -0.1041 -0.4475
 8710SOL    HW237593   1.716   2.619   4.699 -0.0320  0.6152  0.0491
 8711SOL     OW37594   0.223   3.084  12.930  0.6327  0.0643  0.0380
 8711SOL    HW137595   0.173   3.069  12.849 -0.7835  1.1760  0.7110
 8711SOL    HW237596   0.238   3.178  12.921 -2.5488  0.6046  0.2746
 8712SOL     OW37597   2.578   0.367   8.834 -0.0167  0.5923  0.4041
 8712SOL    HW137598   2.566   0.275   8.855 -0.1252  0.0377 -2.0404
 8712SOL    HW237599   2.634   0.412   8.897 -0.1520  0.7668  0.4015
 8713SOL     OW37600   0.183   2.710   2.043  0.1652  0.1448 -0.1685
 8713SOL    HW137601   0.218   2.636   2.093 -0.6758 -0.0301  0.1485
 8713SOL    HW237602   0.170   2.661   1.962 -2.6890  0.6502  0.0087
 8714SOL     OW37603   1.943   0.415  17.600 -0.3529 -0.1306  0.2778
 8714SOL    HW137604   1.978   0.497  17.565  0.9035 -0.1877  1.4084
 8714SOL    HW237605   2.014   0.351  17.604  0.1608  0.5461  1.8386
 8715SOL     OW37606   3.132   4.505   3.267 -0.0625 -0.5299 -0.5384
 8715SOL    HW137607   3.209   4.469   3.223  1.0665 -0.2772  1.2188
 8715SOL    HW237608   3.058   4.459   3.228 -1.6826  1.7122 -0.1299
 8716SOL     OW37609   1.189   4.491   4.312 -0.3949 -0.0015  0.2237
 8716SOL    HW137610   1.130   4.534   4.374  1.1135  0.4750  1.3468
 8716SOL    HW237611   1.267   4.532   4.351  0.3054  0.2415 -1.4280
 8717SOL     OW37612   3.100   1.882   8.964 -0.0975 -0.0645  0.4299
 8717SOL    HW137613   3.020   1.841   8.997  1.2035 -0.3385  3.2492
 8717SOL    HW237614   3.157   1.806   8.964  0.1595  0.1285 -0.0421
 8718SOL     OW37615   0.358   1.344   0.904 -0.4238 -0.3317  0.2144
 8718SOL    HW137616   0.338   1.306   0.819  0.0436  1.2956 -0.6242
 8718SOL    HW237617   0.275   1.384   0.931 -1.0577 -1.5150  0.0329
 8719SOL     OW37618   2.257   0.442   9.287 -0.2252 -0.5808  0.1827
 8719SOL    HW137619   2.269   0.434   9.382 -0.8879  0.5060  0.3551
 8719SOL    HW237620   2.339   0.412   9.247 -0.0133  0.4956 -0.2035
 8720SOL     OW37621   2.064   2.224   5.635 -0.3522  0.7377  0.0795
 8720SOL    HW137622   2.002   2.163   5.595 -0.2746  1.5380 -1.2634
 8720SOL    HW237623   2.001   2.260   5.697  0.1428  0.6223  0.6451
 8721SOL     OW37624   1.043   0.011   5.630  0.0087  0.0483  0.4110
 8721SOL    HW137625   0.958   4.694   5.616 -0.0495 -0.4831  2.1796
 8721SOL    HW237626   1.110   4.672   5.601 -1.2343 -0.0504 -2.2358
 8722SOL     OW37627   0.758   0.659   7.560 -0.1448  0.2367  0.6695
 8722SOL    HW137628   0.702   0.603   7.506 -0.1734  0.4089  0.5160
 8722SOL    HW237629   0.794   0.602   7.627 -0.0106 -1.3170 -0.7221
 8723SOL     OW37630   0.121   1.504   5.134  0.4326 -0.8649  0.4881
 8723SOL    HW137631   0.177   1.558   5.190 -1.6903  0.3402  1.4391
 8723SOL    HW237632   0.032   1.530   5.159  1.0941  1.6520  0.1380
 8724SOL     OW37633   3.654   1.238  13.342  0.2448 -0.0244  0.2479
 8724SOL    HW137634   3.563   1.223  13.317  0.3046 -0.5442  0.3526
 8724SOL    HW237635   3.696   1.157  13.315 -0.4069 -0.6739  1.2006
 8725SOL     OW37636   4.364   0.259   4.477  0.3639 -0.1994  0.0725
 8725SOL    HW137637   4.295   0.321   4.501  2.1630  1.2643  1.3786
 8725SOL    HW237638   4.429   0.286   4.541 -0.6831 -0.4134  1.2350
 8726SOL     OW37639   3.594   4.119   3.052  0.2709  0.1558  0.1133
 8726SOL    HW137640   3.544   4.046   3.016  1.2301 -1.2557  1.6682
 8726SOL    HW237641   3.584   4.175   2.975 -1.0513  0.0665  0.2296
 8727SOL     OW37642   4.114   0.971  10.317 -0.2406  0.7740 -0.7713
 8727SOL    HW137643   4.141   1.061  10.336 -0.1597  0.5641  0.0904
 8727SOL    HW237644   4.197   0.925  10.303  0.1851  1.6910 -1.2910
 8728SOL     OW37645   4.348   4.473   4.767  0.4478  0.2831  0.2846
 8728SOL    HW137646   4.256   4.484   4.742  0.5944  2.4016  0.6827
 8728SOL    HW237647   4.367   4.558   4.808 -0.9206  1.2691 -1.1106
 8729SOL     OW37648   0.494   1.032  15.251  0.0223 -0.3320 -0.8593
 8729SOL    HW137649   0.567   1.090  15.272 -1.7030  0.9922  1.4960
 8729SOL    HW237650   0.535   0.952  15.217  0.6590  0.7067 -2.4880
 8730SOL     OW37651   4.706   2.357  13.438  0.3061  0.1297 -0.1587
 8730SOL    HW137652   4.614   2.344  13.414 -0.2626  0.8862  1.6385
 8730SOL    HW237653   4.714   2.432  13.379  3.7878 -0.1672 -0.0601
 8731SOL     OW37654   4.418   3.887   6.748 -0.1276  0.4732  0.0013
 8731SOL    HW137655   4.454   3.801   6.770 -0.9115  0.0207 -0.4613
 8731SOL    HW237656   4.470   3.945   6.803 -0.5681 -1.5015  2.4782
 8732SOL     OW37657   3.849   0.824   3.048 -0.1776  0.4766 -0.5980
 8732SOL    HW137658   3.925   0.872   3.082  0.4411 -1.4625  0.7341
 8732SOL    HW237659   3.852   0.857   2.958 -3.4355  0.8030 -0.5885
 8733SOL     OW37660   1.674   0.939   9.523 -0.5063  0.3185 -0.8681
 8733SOL    HW137661   1.644   1.030   9.531 -0.5615  0.2321 -0.1005
 8733SOL    HW237662   1.732   0.960   9.450  0.7778 -1.7567 -0.4332
 8734SOL     OW37663   2.464   1.660   3.978 -0.5637 -0.3258  0.7486
 8734SOL    HW137664   2.381   1.707   3.972 -0.5365 -0.7252 -2.4706
 8734SOL    HW237665   2.447   1.610   4.057 -3.0157  0.9167  0.9962
 8735SOL     OW37666   1.922   1.984   3.292  0.7956 -0.2447  0.0696
 8735SOL    HW137667   1.898   1.909   3.345 -1.3967 -0.8432 -1.7714
 8735SOL    HW237668   1.846   1.993   3.234 -0.5615  0.7651  2.0174
 8736SOL     OW37669   1.369   4.476  15.530  0.1115  0.1628  0.9107
 8736SOL    HW137670   1.434   4.497  15.462  0.8577 -3.9292  0.4071
 8736SOL    HW237671   1.415   4.414  15.587  1.5799  0.0825 -0.3473
 8737SOL     OW37672   3.981   0.593   9.358  0.3104  0.5411 -0.0774
 8737SOL    HW137673   3.968   0.635   9.443 -2.2517  0.5919 -0.4882
 8737SOL    HW237674   4.065   0.632   9.333  1.1059 -0.7770  0.5057
 8738SOL     OW37675   4.256   4.498   9.086 -0.0300  0.2122 -0.1041
 8738SOL    HW137676   4.260   4.593   9.073 -3.1256  0.4684  0.9599
 8738SOL    HW237677   4.208   4.500   9.169 -1.0817  0.0613 -0.7135
 8739SOL     OW37678   3.338   4.605   8.537  0.1989  0.4279  0.2610
 8739SOL    HW137679   3.388   4.629   8.615  3.4092  0.4969 -1.8535
 8739SOL    HW237680   3.273   4.675   8.526 -0.8157 -0.7180 -0.9888
 8740SOL     OW37681   0.704   4.302   6.409 -0.3536 -0.3343 -0.2116
 8740SOL    HW137682   0.788   4.344   6.428 -0.0042 -1.2881  0.3423
 8740SOL    HW237683   0.668   4.334   6.492 -1.4142  1.7663 -1.4886
 8741SOL     OW37684   3.724   1.990   7.946  0.2512 -0.7090 -0.3630
 8741SOL    HW137685   3.820   1.985   7.943  0.2976 -1.9919  3.0400
 8741SOL    HW237686   3.695   1.925   7.882 -0.0240  1.0633 -2.0277
 8742SOL     OW37687   3.384   4.097   9.063 -0.1499 -0.1730  0.1302
 8742SOL    HW137688   3.467   4.091   9.015  0.0398  0.8425  0.3332
 8742SOL    HW237689   3.407   4.052   9.145  1.7724 -0.7814 -0.7459
 8743SOL     OW37690   1.269   2.223   8.116  0.3780  0.8001  0.2694
 8743SOL    HW137691   1.338   2.211   8.182  0.8042  0.0300 -0.3125
 8743SOL    HW237692   1.202   2.261   8.173  0.4178  1.9208 -0.4334
 8744SOL     OW37693   0.583   3.252   6.693  0.1932 -0.1078  0.4056
 8744SOL    HW137694   0.585   3.338   6.652 -0.1891  0.5500  1.7408
 8744SOL    HW237695   0.496   3.245   6.733  0.7528  0.0401  1.6560
 8745SOL     OW37696   0.699   1.544   8.023  0.3228 -0.5045 -0.3408
 8745SOL    HW137697   0.669   1.454   8.014 -0.5398 -0.3026  0.5025
 8745SOL    HW237698   0.650   1.570   8.101  1.8941  0.1620  0.4414
 8746SOL     OW37699   1.945   0.650   3.843 -0.4738  0.0566 -0.4704
 8746SOL    HW137700   1.984   0.647   3.930 -1.1518 -0.5442 -0.1936
 8746SOL    HW237701   1.947   0.558   3.816  0.9014 -0.5518  1.7347
 8747SOL     OW37702   4.584   1.032   5.917  0.1088  0.7876 -0.0593
 8747SOL    HW137703   4.571   1.019   6.011 -2.5089 -0.4128 -0.5825
 8747SOL    HW237704   4.644   0.962   5.891 -0.4587  0.5015 -0.5978
 8748SOL     OW37705   3.491   3.450  15.930  0.4873  0.1084  0.1790
 8748SOL    HW137706   3.559   3.515  15.944 -1.8517  1.9413  3.1861
 8748SOL    HW237707   3.529   3.388  15.867  0.9063  0.4895  0.0572
 8749SOL     OW37708   0.428   2.447  13.772  0.7512  0.3134 -0.7872
 8749SOL    HW137709   0.467   2.492  13.847  0.9402  1.0524 -1.3362
 8749SOL    HW237710   0.408   2.520  13.714  1.8541  0.2771 -1.2156
 8750SOL     OW37711   4.188   4.643   6.502  0.2290 -0.2667 -0.3280
 8750SOL    HW137712   4.102   4.630   6.542  0.0617  0.8096 -0.3219
 8750SOL    HW237713   4.201   0.012   6.528  1.2237 -1.1646  2.3666
 8751SOL     OW37714   2.418   0.191  11.678  0.3526  0.4169 -0.2804
 8751SOL    HW137715   2.350   0.139  11.635  0.2967  1.2056 -1.1449
 8751SOL    HW237716   2.445   0.254  11.611 -0.0935  1.1875  0.2727
 8752SOL     OW37717   1.128   1.559   6.774  0.1295  0.2340 -0.4790
 8752SOL    HW137718   1.221   1.546   6.755  0.1873 -0.8970  0.6238
 8752SOL    HW237719   1.093   1.474   6.747 -1.1608  0.8930 -0.9044
 8753SOL     OW37720   2.718   3.360   2.844 -0.2934 -0.2448 -0.0330
 8753SOL    HW137721   2.771   3.292   2.802  1.9075  0.5606  1.4603
 8753SOL    HW237722   2.630   3.339   2.814  0.0859 -1.4774 -0.2979
 8754SOL     OW37723   0.858   2.163   7.122 -0.3009 -0.5371 -0.0926
 8754SOL    HW137724   0.950   2.141   7.133  0.4088  1.5301 -2.0644
 8754SOL    HW237725   0.821   2.079   7.150  0.1438  0.0829  2.3564
 8755SOL     OW37726   0.533   0.050   1.345  0.2721 -0.4201 -0.1592
 8755SOL    HW137727   0.574   0.081   1.427  0.8434 -1.6111 -0.0010
 8755SOL    HW237728   0.541   4.678   1.354 -2.6006 -0.5695  0.7470
 8756SOL     OW37729   1.063   2.051   8.359 -0.0080  0.3010  0.7142
 8756SOL    HW137730   0.979   2.049   8.405 -0.5052 -2.2486 -0.2589
 8756SOL    HW237731   1.028   2.050   8.270  1.8919 -1.1952 -0.0360
 8757SOL     OW37732   0.089   2.920   4.435  0.1019  0.0980 -1.0217
 8757SOL    HW137733   0.093   3.014   4.451  0.6847  0.5451 -3.7359
 8757SOL    HW237734   0.051   2.892   4.518  0.1617  2.2288 -0.2761
 8758SOL     OW37735   3.674   1.822   3.020  0.0054 -0.2204  0.0226
 8758SOL    HW137736   3.581   1.825   3.043  0.4182  0.7335  1.5948
 8758SOL    HW237737   3.693   1.742   3.069 -1.5824 -1.1469 -0.8701
 8759SOL     OW37738   2.085   4.138   3.085 -0.1984 -0.4263 -0.0365
 8759SOL    HW137739   2.106   4.098   3.001 -1.0141  1.5824 -1.1758
 8759SOL    HW237740   2.104   4.229   3.063 -1.6293 -0.2262 -0.4401
 8760SOL     OW37741   4.213   2.592   4.977 -0.2762  0.5713  0.1521
 8760SOL    HW137742   4.267   2.513   4.972  0.9906  1.3643  1.4814
 8760SOL    HW237743   4.191   2.594   5.070 -2.9992  1.5725 -0.5080
 8761SOL     OW37744   1.838   3.209  14.086  0.2617 -0.7685  0.2358
 8761SOL    HW137745   1.820   3.296  14.050 -0.2128 -0.9087  0.1309
 8761SOL    HW237746   1.815   3.224  14.177 -1.2188  1.0534 -0.4388
 8762SOL     OW37747   0.507   3.257   4.884  0.0691 -0.8312 -0.2186
 8762SOL    HW137748   0.475   3.301   4.963 -0.4440 -0.8173 -0.4338
 8762SOL    HW237749   0.474   3.168   4.900 -0.5967 -0.7468 -1.1100
 8763SOL     OW37750   3.371   2.430  17.056  0.3597  0.0266 -0.2922
 8763SOL    HW137751   3.376   2.497  17.124  0.1628 -0.9072  0.6336
 8763SOL    HW237752   3.311   2.477  16.998  0.3789  1.0289  0.5015
 8764SOL     OW37753   0.691   3.961   7.337  0.1683  0.2367  0.1962
 8764SOL    HW137754   0.605   3.978   7.300  0.5106  0.8570 -0.3215
 8764SOL    HW237755   0.670   3.932   7.426  0.6715 -0.2679  0.1559
 8765SOL     OW37756   2.472   4.535   6.521 -0.1809  0.5324  0.1853
 8765SOL    HW137757   2.470   4.440   6.528  0.0733  0.5577  0.6182
 8765SOL    HW237758   2.508   4.542   6.610  2.2984 -0.3750 -0.7445
 8766SOL     OW37759   2.741   3.340   5.956  0.4369 -0.5310 -0.2596
 8766SOL    HW137760   2.725   3.325   5.863  0.7531 -0.2410 -0.3595
 8766SOL    HW237761   2.786   3.257   5.964 -0.8681 -1.2503 -0.3228
 8767SOL     OW37762   3.747   0.082   0.447  0.1714 -0.3935  0.4734
 8767SOL    HW137763   3.812   0.130   0.396 -0.6744  1.7627  1.4299
 8767SOL    HW237764   3.679   0.057   0.385 -0.2558  0.9717  0.3910
 8768SOL     OW37765   1.066   0.483   8.424 -0.0448 -0.1279 -0.3765
 8768SOL    HW137766   1.080   0.498   8.518 -1.9726 -0.4106 -0.0294
 8768SOL    HW237767   0.996   0.547   8.411  2.1042  2.5221  1.1248
 8769SOL     OW37768   1.922   4.350   8.344 -0.2544 -0.6398  0.2077
 8769SOL    HW137769   1.877   4.331   8.262  0.6376  1.1736 -0.6993
 8769SOL    HW237770   2.004   4.381   8.305 -0.5761 -0.6779 -0.4940
 8770SOL     OW37771   2.359   0.112   2.387 -0.1244  0.1876 -0.4557
 8770SOL    HW137772   2.318   0.112   2.474  0.4836  0.7632 -0.1695
 8770SOL    HW237773   2.379   0.205   2.381 -1.2975  0.4344 -0.6491
 8771SOL     OW37774   0.307   2.747   4.166  0.1378 -0.0884  0.1369
 8771SOL    HW137775   0.289   2.670   4.220  1.4473  1.2892  2.5440
 8771SOL    HW237776   0.242   2.729   4.098 -1.1619  0.3965  1.2758
 8772SOL     OW37777   0.591   2.909   2.609  0.0079 -0.2279  0.0648
 8772SOL    HW137778   0.595   2.992   2.656 -0.6713  0.8464 -1.7585
 8772SOL    HW237779   0.635   2.915   2.524  1.0665 -0.6657  0.5778
 8773SOL     OW37780   1.770   2.634   4.357 -0.8959  0.2184 -0.1756
 8773SOL    HW137781   1.792   2.662   4.268 -2.4179 -0.0613 -0.6252
 8773SOL    HW237782   1.803   2.706   4.411 -1.7296  0.2909  0.2355
 8774SOL     OW37783   2.155   0.801  13.387 -0.2064  0.2858  0.3578
 8774SOL    HW137784   2.198   0.885  13.402  1.1737 -0.4731  0.7168
 8774SOL    HW237785   2.223   0.777  13.324 -2.2511 -1.3417 -1.2185
 8775SOL     OW37786   3.308   2.425   5.267 -0.2289  0.5548 -0.4017
 8775SOL    HW137787   3.373   2.469   5.212  0.3735  0.7449  0.4674
 8775SOL    HW237788   3.250   2.499   5.288  0.0359  1.0100 -1.2687
 8776SOL     OW37789   3.155   2.772   7.513 -0.0945  0.1213  0.0132
 8776SOL    HW137790   3.089   2.807   7.452 -0.3572 -1.2969 -0.5240
 8776SOL    HW237791   3.135   2.679   7.517 -1.0909  0.3335 -0.0447
 8777SOL     OW37792   0.236   0.530   5.937  0.3345  0.2168 -0.1615
 8777SOL    HW137793   0.262   0.473   5.864 -0.7963  1.2167 -1.3573
 8777SOL    HW237794   0.148   0.502   5.960  0.5830 -0.9063 -0.5768
 8778SOL     OW37795   4.357   0.876  10.256  0.9633  0.4939 -0.1460
 8778SOL    HW137796   4.368   0.962  10.216 -0.3896  0.8649  0.2584
 8778SOL    HW237797   4.334   0.828  10.177 -0.4009 -1.2353  1.2876
 8779SOL     OW37798   3.665   1.078  10.216  0.1181 -0.2394  0.1129
 8779SOL    HW137799   3.707   1.049  10.135 -2.1026  1.8780 -1.8092
 8779SOL    HW237800   3.573   1.054  10.204  0.1854 -0.7313  0.6204
 8780SOL     OW37801   0.692   3.634   6.345 -0.4553 -0.1966  0.1241
 8780SOL    HW137802   0.718   3.725   6.359 -0.1385 -0.4252  1.0392
 8780SOL    HW237803   0.617   3.645   6.288  0.4010  1.4824 -0.6937
 8781SOL     OW37804   3.648   4.458   8.316 -0.5328 -0.2467 -0.0463
 8781SOL    HW137805   3.665   4.433   8.407  3.6489  0.1419 -0.7421
 8781SOL    HW237806   3.739   4.454   8.285 -0.2979 -1.6688  0.7997
 8782SOL     OW37807   1.174   4.421   1.442  0.5851 -0.6433 -0.2383
 8782SOL    HW137808   1.089   4.450   1.408  1.6113  0.5066 -1.8364
 8782SOL    HW237809   1.193   4.494   1.501  0.4460 -0.8963  0.1181
 8783SOL     OW37810   2.696   3.373   8.992 -0.2436  0.6487  0.2986
 8783SOL    HW137811   2.634   3.445   9.003 -3.1388 -1.6848 -0.7640
 8783SOL    HW237812   2.772   3.406   9.040  0.1172 -0.6175  0.5916
 8784SOL     OW37813   0.922   3.568  14.572  0.2804  0.0210  0.1905
 8784SOL    HW137814   0.948   3.614  14.652  0.9430 -2.8716  1.6720
 8784SOL    HW237815   0.960   3.628  14.509  0.1985  0.7974  0.8869
 8785SOL     OW37816   0.278   2.060   9.120 -0.5167  0.6608  0.6052
 8785SOL    HW137817   0.191   2.087   9.089 -0.4328  1.0549  0.7183
 8785SOL    HW237818   0.323   2.102   9.047 -1.5528  0.7780  0.0301
 8786SOL     OW37819   4.653   2.378   6.705  0.1078 -0.8305 -0.2225
 8786SOL    HW137820   4.560   2.399   6.699 -0.1963 -1.9581  0.7102
 8786SOL    HW237821   4.693   2.461   6.677  0.3129 -0.9898 -0.4010
 8787SOL     OW37822   3.925   3.286   6.257  0.4359  0.2734 -0.5041
 8787SOL    HW137823   3.885   3.349   6.197  2.3128 -0.1098 -2.1446
 8787SOL    HW237824   3.894   3.324   6.340  2.2914 -0.4932  0.5269
 8788SOL     OW37825   0.604   2.464   3.454  0.1334  0.3649 -0.1479
 8788SOL    HW137826   0.582   2.374   3.474 -2.2427  1.4424  2.1023
 8788SOL    HW237827   0.685   2.464   3.403 -1.3664 -2.4140 -2.4740
 8789SOL     OW37828   1.131   0.136   7.395 -0.7037  0.7721 -0.3967
 8789SOL    HW137829   1.136   0.211   7.336  1.1640  0.5491 -0.5046
 8789SOL    HW237830   1.221   0.103   7.392 -0.9637 -0.0391  0.7843
 8790SOL     OW37831   0.569   4.259   1.913  0.3516  0.8436  0.2725
 8790SOL    HW137832   0.585   4.302   1.829  1.3062  0.2611  0.1489
 8790SOL    HW237833   0.645   4.200   1.912  0.2148  0.6477  1.6045
 8791SOL     OW37834   0.674   1.823   1.241  0.2160  0.6329 -0.1064
 8791SOL    HW137835   0.712   1.788   1.160 -0.1166  0.3482 -0.1368
 8791SOL    HW237836   0.610   1.754   1.259 -0.2825  0.3158 -2.9512
 8792SOL     OW37837   3.880   4.704  15.556  1.0784 -0.7113 -0.2544
 8792SOL    HW137838   3.799   0.031  15.541  0.4542 -1.8690 -0.7521
 8792SOL    HW237839   3.930   0.058  15.583 -0.1276 -0.4576  1.2623
 8793SOL     OW37840   1.641   1.077  13.960 -0.3536 -0.4194  0.3479
 8793SOL    HW137841   1.634   1.152  14.019  0.7528 -0.1270  0.0909
 8793SOL    HW237842   1.683   1.020  14.025  3.2688  3.1557  1.1388
 8794SOL     OW37843   0.133   2.608  16.525  1.0158 -0.1654 -0.3739
 8794SOL    HW137844   0.073   2.552  16.476  2.1974  0.5773 -2.6917
 8794SOL    HW237845   0.111   2.691  16.483  2.2752  1.1502  1.5585
 8795SOL     OW37846   1.531   0.194   8.390  0.0435  0.2722  0.3025
 8795SOL    HW137847   1.491   0.120   8.344 -0.6204  1.3091 -0.7782
 8795SOL    HW237848   1.482   0.192   8.471  1.8463 -1.4539  1.3707
 8796SOL     OW37849   0.262   1.579   2.390  1.2761 -0.0542 -0.0598
 8796SOL    HW137850   0.256   1.484   2.399  0.9584 -0.1202 -0.9839
 8796SOL    HW237851   0.173   1.611   2.373  1.6808 -0.3214 -2.6623
 8797SOL     OW37852   4.371   1.885   3.348  0.4025  0.1799 -0.1571
 8797SOL    HW137853   4.279   1.876   3.325 -0.0138  0.4245  1.3544
 8797SOL    HW237854   4.411   1.947   3.287  1.5335  0.1745  0.5725
 8798SOL     OW37855   3.988   3.315  11.689  0.0619 -0.2929 -0.1788
 8798SOL    HW137856   3.893   3.309  11.682 -0.1015 -0.3682  1.9005
 8798SOL    HW237857   4.015   3.297  11.599  0.4779 -0.2473 -0.0653
 8799SOL     OW37858   1.657   0.136   4.545 -0.1492 -0.5159 -0.4918
 8799SOL    HW137859   1.591   0.190   4.589 -0.4235  0.8144 -2.5841
 8799SOL    HW237860   1.682   0.087   4.624 -2.2367  3.1152  2.4591
 8800SOL     OW37861   1.463   2.750   7.237  0.5420  0.2749 -0.2481
 8800SOL    HW137862   1.484   2.665   7.277  1.5637  1.3134  1.3940
 8800SOL    HW237863   1.395   2.773   7.300  0.1871  0.1132 -0.5734
 8801SOL     OW37864   3.121   3.006   5.735 -0.4592  0.3607 -0.0784
 8801SOL    HW137865   3.209   2.968   5.727  0.7780  3.3954 -0.7182
 8801SOL    HW237866   3.121   3.050   5.650 -3.0820 -0.0925 -0.3212
 8802SOL     OW37867   4.496   2.330  15.388 -0.3674 -0.3895  0.0481
 8802SOL    HW137868   4.571   2.281  15.424 -0.9004 -0.0038  1.6835
 8802SOL    HW237869   4.506   2.316  15.294  1.0594  2.1924 -0.1770
 8803SOL     OW37870   1.460   1.179   6.751 -0.7307  0.1790 -0.3378
 8803SOL    HW137871   1.437   1.136   6.833  1.8983 -1.5904 -0.5192
 8803SOL    HW237872   1.555   1.175   6.765 -0.6680  1.1977 -0.4268
 8804SOL     OW37873   1.860   1.597   4.486  0.2591  0.5075  0.5723
 8804SOL    HW137874   1.789   1.536   4.470 -0.8367  2.1897 -0.9182
 8804SOL    HW237875   1.859   1.633   4.398  1.6947 -1.8241 -0.3811
 8805SOL     OW37876   0.042   1.814   4.283  0.0114  0.9316 -0.3635
 8805SOL    HW137877   0.020   1.795   4.374  0.2453  1.1909 -0.2537
 8805SOL    HW237878   0.111   1.879   4.292  0.6556  0.1453  0.2815
 8806SOL     OW37879   4.641   0.277   7.717  0.5885 -0.3241 -0.5139
 8806SOL    HW137880   4.574   0.216   7.747  1.2865 -0.5609  0.5499
 8806SOL    HW237881   4.661   0.239   7.631 -0.3307 -0.1616 -0.8019
 8807SOL     OW37882   4.112   4.115  16.849  0.1224  0.6437 -0.1956
 8807SOL    HW137883   4.165   4.036  16.844 -2.9197 -1.2870 -1.6745
 8807SOL    HW237884   4.027   4.076  16.863  0.7073 -0.1648  1.0463
 8808SOL     OW37885   3.011   1.389   1.325 -0.5151 -0.1772 -0.0988
 8808SOL    HW137886   2.924   1.371   1.288  0.9177 -2.0077 -2.5836
 8808SOL    HW237887   3.023   1.480   1.297  0.6288  0.0633  1.2168
 8809SOL     OW37888   1.649   4.533  15.874  0.2302  0.6394  0.1433
 8809SOL    HW137889   1.600   4.511  15.794 -2.5964 -0.6215  2.2217
 8809SOL    HW237890   1.732   4.486  15.865 -0.6833 -0.7219 -1.2821
 8810SOL     OW37891   1.753   4.164   7.510  0.2811  0.1758  0.4421
 8810SOL    HW137892   1.703   4.244   7.493  1.5445  0.5199 -1.6001
 8810SOL    HW237893   1.804   4.157   7.430  3.0536 -0.5886  2.2492
 8811SOL     OW37894   0.888   1.637   5.637 -0.3396 -0.3089  0.7172
 8811SOL    HW137895   0.853   1.558   5.678  0.3781  0.1009  2.1390
 8811SOL    HW237896   0.860   1.631   5.546  2.4344  2.3646 -0.3530
 8812SOL     OW37897   3.590   4.397   1.254  0.4300  0.0066 -0.0869
 8812SOL    HW137898   3.678   4.424   1.228 -0.1343  1.0897 -0.8950
 8812SOL    HW237899   3.603   4.338   1.328  0.4300  0.9904  0.7110
 8813SOL     OW37900   2.745   3.023   6.570 -0.4910  0.5045 -0.2554
 8813SOL    HW137901   2.783   3.108   6.591  0.1365  0.2840 -0.5064
 8813SOL    HW237902   2.658   3.034   6.609  0.1110  1.0238  0.9625
 8814SOL     OW37903   4.614   0.613  16.397  0.2992  0.2287 -0.4377
 8814SOL    HW137904   4.574   0.662  16.325  1.2623 -1.6398 -2.2231
 8814SOL    HW237905   4.558   0.639  16.470  1.5647  0.7662  0.3375
 8815SOL     OW37906   0.440   3.652   7.644 -0.6223 -0.0238 -0.1799
 8815SOL    HW137907   0.347   3.643   7.665 -0.1920  0.7086  2.1282
 8815SOL    HW237908   0.471   3.597   7.716  1.6696  0.9333 -0.4518
 8816SOL     OW37909   1.382   1.346   8.014 -0.2642  0.4263  0.0709
 8816SOL    HW137910   1.384   1.291   8.093  0.9557 -0.5883 -0.6658
 8816SOL    HW237911   1.447   1.297   7.965 -1.0124 -0.4891  0.0028
 8817SOL     OW37912   3.893   2.999   4.715 -0.6152  0.1912 -0.0424
 8817SOL    HW137913   3.968   2.939   4.714 -1.6788 -1.1468 -0.0054
 8817SOL    HW237914   3.858   2.988   4.627 -0.8860 -0.7773  0.1854
 8818SOL     OW37915   1.293   2.244   3.775 -0.1588  0.1433  0.1648
 8818SOL    HW137916   1.289   2.184   3.701  2.2236 -0.0288  0.1897
 8818SOL    HW237917   1.377   2.226   3.816 -1.2803 -0.6705  2.1067
 8819SOL     OW37918   3.280   0.353   8.679  0.0322 -0.1053 -0.1565
 8819SOL    HW137919   3.348   0.345   8.746 -0.4592 -0.8647  0.2592
 8819SOL    HW237920   3.305   0.441   8.649  0.1316  0.4146  1.4368
 8820SOL     OW37921   3.555   3.989  13.062 -0.0390  0.7591  0.2531
 8820SOL    HW137922   3.634   4.019  13.016 -0.5367 -0.5732 -1.4504
 8820SOL    HW237923   3.559   3.898  13.033 -1.5735  0.0863  2.0897
 8821SOL     OW37924   1.242   3.766   4.979  0.4732 -0.2363 -0.0948
 8821SOL    HW137925   1.174   3.760   5.046 -0.4760  0.2087 -1.0332
 8821SOL    HW237926   1.305   3.708   5.022  1.1960  0.1517 -0.6246
 8822SOL     OW37927   3.126   2.990   4.174 -0.2794  0.0055  0.2685
 8822SOL    HW137928   3.092   3.063   4.225 -2.6885 -0.0128 -1.3162
 8822SOL    HW237929   3.148   3.038   4.094  0.1138  0.6857  0.7901
 8823SOL     OW37930   2.211   2.052  10.844  0.3182 -0.1083 -0.4915
 8823SOL    HW137931   2.192   2.132  10.794 -0.3638 -0.8778 -1.4608
 8823SOL    HW237932   2.301   2.026  10.822 -0.6994 -2.7618 -1.5128
 8824SOL     OW37933   2.668   3.867   0.938  0.3431  0.2299 -0.0460
 8824SOL    HW137934   2.763   3.880   0.941  0.3149  0.1634  1.2456
 8824SOL    HW237935   2.663   3.821   1.022 -0.8618  0.6323  0.1097
 8825SOL     OW37936   0.018   2.202   1.837  0.4300 -0.5236 -0.5082
 8825SOL    HW137937   4.646   2.186   1.837  0.7429 -2.3930 -0.1866
 8825SOL    HW237938   0.041   2.158   1.919 -0.4260  0.5786  0.3116
 8826SOL     OW37939   1.418   1.774   1.978 -0.1882 -0.3798 -0.9302
 8826SOL    HW137940   1.446   1.855   1.937  0.8413 -0.5454 -0.5454
 8826SOL    HW237941   1.364   1.810   2.049 -0.7498 -2.8914 -0.0699
 8827SOL     OW37942   3.699   2.842   9.604 -0.1373  0.0753 -0.3297
 8827SOL    HW137943   3.616   2.883   9.579  0.4931  1.0393 -0.8630
 8827SOL    HW237944   3.666   2.806   9.686  1.8189  0.8303  0.7920
 8828SOL     OW37945   0.594   2.864  13.907 -0.6237 -0.5191  0.2672
 8828SOL    HW137946   0.555   2.951  13.901  0.8364  0.0595 -0.6268
 8828SOL    HW237947   0.585   2.826  13.820  2.9514  1.2292 -0.8585
 8829SOL     OW37948   0.841   2.457   3.258  0.1620  0.0894  0.2711
 8829SOL    HW137949   0.867   2.486   3.170 -0.0949 -1.6517 -0.3713
 8829SOL    HW237950   0.918   2.473   3.312  0.4136  2.5527 -0.8047
 8830SOL     OW37951   0.739   0.969   4.844  0.3933 -0.2789  0.5137
 8830SOL    HW137952   0.654   0.968   4.800  0.4923 -2.0597  0.3484
 8830SOL    HW237953   0.716   1.021   4.920 -0.9393 -1.6544  1.0557
 8831SOL     OW37954   0.922   0.366  15.175  0.4785  0.5149 -0.4049
 8831SOL    HW137955   0.991   0.329  15.120  0.0431 -0.0127 -0.6019
 8831SOL    HW237956   0.976   0.441  15.198  0.2285  0.5575  0.0522
 8832SOL     OW37957   3.689   0.991   9.268  0.1188  0.2929 -0.0312
 8832SOL    HW137958   3.694   1.010   9.174 -0.4560 -4.0090 -0.9164
 8832SOL    HW237959   3.777   0.962   9.291 -0.2378 -0.6723  0.0943
 8833SOL     OW37960   2.469   3.082  14.349  0.1665 -0.5787  0.3524
 8833SOL    HW137961   2.385   3.129  14.355 -1.6294 -3.5254 -1.7495
 8833SOL    HW237962   2.507   3.119  14.269 -2.3731 -0.3864 -0.7628
 8834SOL     OW37963   0.930   3.701   3.326 -0.3427 -0.5210 -0.0066
 8834SOL    HW137964   0.945   3.641   3.398 -1.0018 -0.9452 -0.2180
 8834SOL    HW237965   0.918   3.778   3.382 -1.3971 -0.7426  0.0782
 8835SOL     OW37966   3.648   1.083  15.294  0.5095  0.1389 -0.1536
 8835SOL    HW137967   3.656   1.027  15.371  1.1289  1.1568  0.5306
 8835SOL    HW237968   3.655   1.014  15.228  1.1877 -1.4150  1.5560
 8836SOL     OW37969   3.007   2.804   2.849  0.1026 -0.6024 -0.4013
 8836SOL    HW137970   2.956   2.752   2.786  0.3077 -1.0940 -0.1583
 8836SOL    HW237971   3.081   2.825   2.792 -0.5244 -2.3741 -1.8745
 8837SOL     OW37972   0.885   4.581   7.713 -0.0985  0.3774  0.9371
 8837SOL    HW137973   0.825   4.545   7.779 -0.3228  0.2167  0.6481
 8837SOL    HW237974   0.966   4.536   7.734 -1.0449 -1.6749  0.1821
 8838SOL     OW37975   0.218   1.879   6.425 -0.4701 -0.4440 -0.1504
 8838SOL    HW137976   0.219   1.962   6.472 -0.2258 -0.6178  0.1507
 8838SOL    HW237977   0.302   1.889   6.380 -0.1346  1.3634  0.8856
 8839SOL     OW37978   2.470   2.945   6.645 -0.1129  0.2018 -0.4812
 8839SOL    HW137979   2.454   2.968   6.736 -0.4994  1.3208 -0.8291
 8839SOL    HW237980   2.457   2.851   6.650 -0.7467  0.2568 -1.0200
 8840SOL     OW37981   1.309   3.256   5.124 -0.2472  0.3570  0.0953
 8840SOL    HW137982   1.221   3.237   5.158 -0.5545  1.3439 -0.1417
 8840SOL    HW237983   1.278   3.309   5.050 -1.2922  1.1496  1.0983
 8841SOL     OW37984   4.089   0.867   5.635 -0.3829 -0.5260 -0.5124
 8841SOL    HW137985   4.086   0.920   5.714  3.5957 -0.9961 -0.0712
 8841SOL    HW237986   4.020   0.914   5.588 -1.2454 -0.4222  0.8556
 8842SOL     OW37987   2.848   1.476   8.979 -0.0636 -0.1606  0.7102
 8842SOL    HW137988   2.773   1.440   9.026 -0.0150  0.1168  1.0028
 8842SOL    HW237989   2.927   1.455   9.029 -0.0033  1.8584  1.4576
 8843SOL     OW37990   1.237   1.851   6.695 -0.1459 -1.2636  0.0442
 8843SOL    HW137991   1.266   1.919   6.634 -0.7987  0.1735  1.3518
 8843SOL    HW237992   1.319   1.828   6.738  0.7885  1.9188 -0.0508
 8844SOL     OW37993   1.625   3.986   4.980  0.1977 -0.0300 -0.0728
 8844SOL    HW137994   1.536   4.021   4.979  0.0919 -0.3144 -0.6080
 8844SOL    HW237995   1.664   4.051   4.922 -0.0654 -0.3929 -0.6541
 8845SOL     OW37996   3.259   4.343   3.836 -0.5441  0.4379 -0.1078
 8845SOL    HW137997   3.260   4.392   3.918 -0.9588  1.6595 -0.8345
 8845SOL    HW237998   3.167   4.345   3.811 -0.2600 -0.8261 -1.2879
 8846SOL     OW37999   2.844   4.382   6.283  0.2026  0.6874  0.3746
 8846SOL    HW138000   2.925   4.428   6.261  1.7834 -1.9366  0.6880
 8846SOL    HW238001   2.812   4.420   6.364  0.4004  0.0509  0.7548
 8847SOL     OW38002   3.433   1.741   3.842  0.2130 -0.4676  0.0070
 8847SOL    HW138003   3.430   1.821   3.893 -0.0502  1.8015 -3.5398
 8847SOL    HW238004   3.428   1.686   3.920  0.0191  0.3854  0.5856
 8848SOL     OW38005   3.951   2.076   6.760 -0.1346 -0.3071 -0.1184
 8848SOL    HW138006   3.879   2.014   6.772 -1.4970  1.3125  0.1251
 8848SOL    HW238007   4.016   2.020   6.717 -0.4061 -0.0891 -0.8036
 8849SOL     OW38008   2.872   2.363  11.596 -0.4860 -0.4661  0.1896
 8849SOL    HW138009   2.803   2.323  11.542  0.6045 -0.5618 -1.1311
 8849SOL    HW238010   2.828   2.339  11.677 -0.7949  0.7402  0.3825
 8850SOL     OW38011   1.569   2.373  16.174  0.7904 -0.0654 -0.1196
 8850SOL    HW138012   1.589   2.465  16.157  1.9667 -0.4732 -0.9907
 8850SOL    HW238013   1.476   2.372  16.194  0.1833 -1.4285 -3.0824
 8851SOL     OW38014   3.928   4.506   9.818 -0.2183  0.0474 -0.1680
 8851SOL    HW138015   3.899   4.591   9.785 -0.7808 -0.7477 -1.6836
 8851SOL    HW238016   3.976   4.536   9.895  0.9992  1.3883 -1.4400
 8852SOL     OW38017   3.943   1.066   9.486 -0.5320  0.2484 -0.7410
 8852SOL    HW138018   3.883   1.138   9.467 -0.0629  0.9176  0.3095
 8852SOL    HW238019   4.012   1.063   9.421 -1.3137 -1.9074 -1.4819
 8853SOL     OW38020   2.290   2.980   3.367 -0.5361 -0.0280 -0.5391
 8853SOL    HW138021   2.322   3.070   3.368 -1.5560  0.3286 -0.1696
 8853SOL    HW238022   2.252   2.987   3.454 -1.8935  0.3753 -1.1618
 8854SOL     OW38023   2.908   4.615  13.295 -0.1146 -0.1810 -0.1572
 8854SOL    HW138024   2.919   4.541  13.236  0.9035  0.3811 -0.6693
 8854SOL    HW238025   2.815   4.602  13.313 -0.7328  1.2738 -2.3339
 8855SOL     OW38026   4.540   0.986   2.755  0.3854 -0.6023 -0.1623
 8855SOL    HW138027   4.536   0.891   2.763  1.0465 -0.4086  2.5617
 8855SOL    HW238028   4.451   1.012   2.731  1.0973  1.9493 -0.1077
 8856SOL     OW38029   4.204   3.056   3.807  0.5704 -0.2272 -0.2491
 8856SOL    HW138030   4.113   3.062   3.837  0.5572  0.2263 -0.3794
 8856SOL    HW238031   4.248   3.079   3.889 -0.0578  1.5423 -0.3876
 8857SOL     OW38032   2.792   4.026   7.243 -0.5198  0.4724 -0.2297
 8857SOL    HW138033   2.847   4.099   7.271  0.0334  0.7202 -2.0225
 8857SOL    HW238034   2.831   4.022   7.156 -0.5433 -1.9889 -0.1398
 8858SOL     OW38035   2.329   1.735   6.755 -0.0462 -0.2809  0.1652
 8858SOL    HW138036   2.416   1.697   6.756 -0.0156 -0.2122  0.1185
 8858SOL    HW238037   2.339   1.795   6.681 -2.1415 -2.7875 -2.1317
 8859SOL     OW38038   2.025   4.212   5.108 -0.2789  0.2029  0.0697
 8859SOL    HW138039   2.036   4.306   5.091 -1.5643  0.6366  1.6276
 8859SOL    HW238040   1.931   4.227   5.123 -0.6845 -0.3178 -2.0316
 8860SOL     OW38041   3.303   2.215  17.235  0.6848 -0.1477 -0.1951
 8860SOL    HW138042   3.343   2.196  17.151  0.2894  0.1657 -0.4537
 8860SOL    HW238043   3.369   2.271  17.277 -0.4482  1.2102 -0.2199
 8861SOL     OW38044   1.577   4.063  15.177 -0.3961 -0.0967  0.2697
 8861SOL    HW138045   1.670   4.080  15.192 -0.4574  1.8344 -1.5233
 8861SOL    HW238046   1.551   4.147  15.138 -0.5579 -0.4311 -0.3544
 8862SOL     OW38047   2.411   4.139   2.072 -0.0444 -0.0795 -0.3955
 8862SOL    HW138048   2.472   4.105   2.138 -2.2233 -1.5269  0.8708
 8862SOL    HW238049   2.399   4.229   2.103 -0.6367 -1.1503  2.5084
 8863SOL     OW38050   4.589   3.014  16.316 -0.3438  0.5237 -0.0857
 8863SOL    HW138051   4.658   2.969  16.365  1.1350  3.5971  0.5833
 8863SOL    HW238052   4.574   2.951  16.245  0.1858  1.7939 -1.3280
 8864SOL     OW38053   0.049   3.462  10.837 -0.1750 -0.1774  0.0972
 8864SOL    HW138054   0.088   3.410  10.767  0.3454  0.4552 -0.0789
 8864SOL    HW238055   0.132   3.499  10.867 -1.0881  2.0479 -0.1101
 8865SOL     OW38056   4.484   1.838  15.108 -0.9152  0.0405  0.0998
 8865SOL    HW138057   4.510   1.905  15.170 -0.7628  0.1123 -0.0426
 8865SOL    HW238058   4.449   1.771  15.168  2.6425 -1.7698  0.1683
 8866SOL     OW38059   1.630   3.264   7.793  0.2674  0.5152 -0.0284
 8866SOL    HW138060   1.679   3.311   7.860 -1.5004  0.6632  1.1842
 8866SOL    HW238061   1.610   3.339   7.736 -1.3106 -0.9127 -1.3995
 8867SOL     OW38062   2.629   3.554  16.224 -0.1569 -0.2870  0.2522
 8867SOL    HW138063   2.680   3.559  16.144  0.0247 -2.7603  0.2255
 8867SOL    HW238064   2.562   3.617  16.198  0.4783 -1.3640 -3.8875
 8868SOL     OW38065   0.509   0.482   2.752  0.4434  0.1670  0.3210
 8868SOL    HW138066   0.532   0.418   2.819 -0.6063 -0.1403  0.3966
 8868SOL    HW238067   0.534   0.562   2.798  0.8739  0.7136 -0.8643
 8869SOL     OW38068   3.797   0.942  13.006 -0.0856 -0.5560 -0.2863
 8869SOL    HW138069   3.762   0.853  13.018  1.2025 -0.9053  0.8531
 8869SOL    HW238070   3.846   0.957  13.087 -0.0728 -1.4130 -0.1354
 8870SOL     OW38071   2.306   2.366   8.234 -0.1370 -0.6656  0.0863
 8870SOL    HW138072   2.303   2.302   8.305 -0.0419 -0.5047  0.2361
 8870SOL    HW238073   2.377   2.324   8.185 -0.5549  2.2732 -3.0722
 8871SOL     OW38074   3.650   0.083   1.024  0.2008 -0.6187 -1.0040
 8871SOL    HW138075   3.570   0.111   0.981  0.3714 -1.1489 -1.6532
 8871SOL    HW238076   3.636   0.105   1.116 -1.3474 -2.4128 -0.8128
 8872SOL     OW38077   3.998   2.885  11.074  0.2694  0.1836 -0.1085
 8872SOL    HW138078   3.940   2.822  11.117  3.0201 -1.3306  1.3772
 8872SOL    HW238079   4.035   2.840  10.998 -1.5698 -1.4816 -0.0130
 8873SOL     OW38080   1.318   2.304  16.343 -0.1302  0.4606  0.2319
 8873SOL    HW138081   1.373   2.248  16.398  0.8352 -0.9291 -2.1271
 8873SOL    HW238082   1.275   2.371  16.394  0.1033  1.3384 -0.7239
 8874SOL     OW38083   3.475   3.482   1.321 -0.1898  0.0455 -0.1460
 8874SOL    HW138084   3.424   3.438   1.254 -0.8891  0.4456  0.1248
 8874SOL    HW238085   3.459   3.577   1.320 -2.5733 -0.3530  0.6550
 8875SOL     OW38086   2.091   0.199  16.798 -0.0475  0.1369 -0.1648
 8875SOL    HW138087   2.182   0.216  16.825  0.2597 -0.0188 -1.0795
 8875SOL    HW238088   2.064   0.172  16.885  0.6932  1.3663  0.4545
 8876SOL     OW38089   3.527   4.621   3.488 -0.2788  0.5907  0.6516
 8876SOL    HW138090   3.529   4.613   3.392 -3.4095 -1.0942  0.7443
 8876SOL    HW238091   3.475   4.545   3.513 -0.1530  0.5947  0.9157
 8877SOL     OW38092   2.706   1.708  13.245  0.2219 -0.4363 -0.0856
 8877SOL    HW138093   2.665   1.747  13.322  0.3326 -0.8916  0.2044
 8877SOL    HW238094   2.729   1.781  13.187  0.3428 -1.2776 -1.0929
 8878SOL     OW38095   1.005   3.253  13.007  0.0211  0.4763 -0.0563
 8878SOL    HW138096   1.070   3.234  13.075 -0.1735  0.4318  0.1186
 8878SOL    HW238097   1.020   3.346  12.991  1.1476  0.3680  0.3218
 8879SOL     OW38098   1.731   3.742   8.214 -0.7527  0.2629 -0.4957
 8879SOL    HW138099   1.647   3.696   8.209 -0.7605  0.3849 -1.4633
 8879SOL    HW238100   1.695   3.830   8.222 -1.7365 -0.2499  0.6760
 8880SOL     OW38101   1.316   3.699   5.855  0.4499 -0.2280 -0.6779
 8880SOL    HW138102   1.403   3.668   5.880  0.3694 -0.0203 -0.1356
 8880SOL    HW238103   1.303   3.647   5.776  3.5653  0.1396 -1.4105
 8881SOL     OW38104   1.074   4.595   4.550  0.3557  0.1148  0.4800
 8881SOL    HW138105   1.100   4.687   4.550  5.1451 -1.2557 -0.8896
 8881SOL    HW238106   1.020   4.580   4.628 -1.2327 -0.4185 -0.7213
 8882SOL     OW38107   3.367   0.692  16.781 -0.0703 -0.1701  0.0837
 8882SOL    HW138108   3.355   0.783  16.809  0.1496 -0.3194  0.6608
 8882SOL    HW238109   3.453   0.708  16.742 -0.6317 -0.5631 -1.3302
 8883SOL     OW38110   1.941   0.675   2.742 -0.7952  0.3315  0.0465
 8883SOL    HW138111   1.904   0.723   2.668 -0.6598  1.1267  0.4933
 8883SOL    HW238112   2.032   0.660   2.717 -1.1978  0.1900 -1.3182
 8884SOL     OW38113   2.099   2.338   5.086 -0.2059  0.3522 -0.4500
 8884SOL    HW138114   2.187   2.375   5.094  1.0451 -2.3463 -1.5431
 8884SOL    HW238115   2.067   2.347   5.176  0.6683  0.8723 -0.1861
 8885SOL     OW38116   4.351   4.187  11.755  0.4587  0.5158 -0.5801
 8885SOL    HW138117   4.432   4.137  11.761  1.0942  1.7859  1.0041
 8885SOL    HW238118   4.283   4.126  11.785  1.0102  0.6173  0.8485
 8886SOL     OW38119   2.226   3.739  11.453  0.0875 -0.5128  0.5473
 8886SOL    HW138120   2.309   3.729  11.500  0.4322 -1.9471 -0.3875
 8886SOL    HW238121   2.254   3.685  11.380 -0.2031 -0.2587  0.2497
 8887SOL     OW38122   2.994   4.015   9.348  0.4545  0.2906  0.7028
 8887SOL    HW138123   2.972   3.984   9.435  2.8296 -2.5025  0.2983
 8887SOL    HW238124   2.962   4.104   9.362  1.5874  0.8966 -0.4937
 8888SOL     OW38125   3.775   2.978   4.478  0.0145 -0.2141  0.3246
 8888SOL    HW138126   3.691   2.989   4.435  0.6793 -0.6126 -1.0780
 8888SOL    HW238127   3.824   2.932   4.410 -0.1837 -1.2775  0.9021
 8889SOL     OW38128   2.871   2.644  12.798 -0.1791  0.6468  0.4014
 8889SOL    HW138129   2.846   2.616  12.886 -3.3515 -0.3798 -0.8036
 8889SOL    HW238130   2.887   2.738  12.804  1.3511  0.4694 -0.8132
 8890SOL     OW38131   2.816   1.717   4.212  0.5485 -0.3010  0.0217
 8890SOL    HW138132   2.735   1.691   4.255  0.2030  0.3396 -0.2443
 8890SOL    HW238133   2.787   1.777   4.143 -2.1086 -1.0386  0.5071
 8891SOL     OW38134   1.046   3.810   0.225  0.3356  0.0701 -0.0320
 8891SOL    HW138135   1.129   3.795   0.180 -0.6349 -2.3622 -1.0140
 8891SOL    HW238136   0.984   3.748   0.187 -0.6920 -0.1526  1.9809
 8892SOL     OW38137   2.364   1.143   9.927 -0.0332  0.0563 -0.2731
 8892SOL    HW138138   2.371   1.168   9.835 -2.3361 -1.1480 -0.7971
 8892SOL    HW238139   2.364   1.047   9.919  1.0939 -0.0417  0.9391
 8893SOL     OW38140   1.509   4.345   8.238 -0.6708  0.1110 -0.0306
 8893SOL    HW138141   1.520   4.411   8.306 -0.5099 -0.4657  0.5057
 8893SOL    HW238142   1.443   4.392   8.187 -1.6910 -2.2528 -0.8798
 8894SOL     OW38143   1.680   4.595   3.650 -0.0439  0.1313 -0.6739
 8894SOL    HW138144   1.615   4.657   3.686 -0.7693 -0.3140 -1.2086
 8894SOL    HW238145   1.627   4.519   3.627 -0.9210  0.2987  0.7176
 8895SOL     OW38146   4.450   0.077   3.539  0.2161 -0.0831  0.2137
 8895SOL    HW138147   4.472   0.020   3.466 -1.3758 -0.6096  0.1423
 8895SOL    HW238148   4.419   0.156   3.496  0.3555 -1.2225 -1.9576
 8896SOL     OW38149   4.215   1.358   6.013 -0.2189 -0.2714  0.1324
 8896SOL    HW138150   4.159   1.312   5.950  0.6728 -1.6927  0.4021
 8896SOL    HW238151   4.303   1.336   5.984 -0.2493 -0.0666 -0.1274
 8897SOL     OW38152   2.472   1.377   7.702 -0.4410 -0.8430  0.3300
 8897SOL    HW138153   2.397   1.396   7.759  1.1811  1.7037  1.6069
 8897SOL    HW238154   2.536   1.342   7.764 -0.2614  0.0996  0.6755
 8898SOL     OW38155   2.812   2.725   7.807 -0.0529  0.7033  0.5614
 8898SOL    HW138156   2.793   2.815   7.832 -0.2014  0.9237 -0.3449
 8898SOL    HW238157   2.904   2.734   7.782 -0.0947  1.2616  0.6053
 8899SOL     OW38158   3.274   3.034   8.277 -0.3219 -0.3824  0.3783
 8899SOL    HW138159   3.282   3.117   8.325  2.3182 -0.3020 -0.2542
 8899SOL    HW238160   3.290   3.071   8.190 -2.2183  0.2672  0.2977
 8900SOL     OW38161   2.936   3.853   3.661  0.4448 -0.2396  0.2758
 8900SOL    HW138162   3.030   3.833   3.662  0.3718 -0.5921 -0.8437
 8900SOL    HW238163   2.930   3.916   3.589  0.4990 -1.1202 -0.4931
 8901SOL     OW38164   1.644   0.460   8.583  0.5134  0.3236 -0.3370
 8901SOL    HW138165   1.704   0.408   8.529  1.5720  0.9476  0.2358
 8901SOL    HW238166   1.596   0.389   8.626  0.1640  1.6075  1.3960
 8902SOL     OW38167   3.732   0.027   9.535  0.0820 -0.1132 -0.1988
 8902SOL    HW138168   3.745   0.042   9.441  1.6073  0.0200  0.0254
 8902SOL    HW238169   3.671   4.677   9.528  1.9216 -1.6094 -0.8181
 8903SOL     OW38170   1.764   4.480   7.093  0.3038  0.3574 -0.6866
 8903SOL    HW138171   1.704   4.407   7.081  0.2694  0.1962  0.4586
 8903SOL    HW238172   1.830   4.430   7.141 -0.5284 -0.3390 -0.2672
 8904SOL     OW38173   1.681   0.403  10.845  0.5425  0.3166 -0.0196
 8904SOL    HW138174   1.672   0.407  10.940 -0.0354  1.1962 -0.1101
 8904SOL    HW238175   1.774   0.383  10.831 -0.0101 -3.1586  1.3067
 8905SOL     OW38176   0.567   2.076   5.725  0.5947 -0.0134  0.3046
 8905SOL    HW138177   0.503   2.005   5.721 -0.8715  1.4132 -1.8167
 8905SOL    HW238178   0.594   2.089   5.634  1.1078 -0.9725  0.3206
 8906SOL     OW38179   3.554   3.662  13.105  0.3273  0.0862  0.0963
 8906SOL    HW138180   3.571   3.612  13.025  0.5161  0.5630 -0.1563
 8906SOL    HW238181   3.472   3.699  13.073  0.1530 -0.2962  0.0924
 8907SOL     OW38182   3.301   3.363   1.985 -0.0856 -0.2560  0.0760
 8907SOL    HW138183   3.233   3.425   1.957 -0.5807 -1.2425 -0.9448
 8907SOL    HW238184   3.246   3.285   2.000 -1.4024  1.0759  2.1292
 8908SOL     OW38185   1.482   3.517  12.937 -0.0914 -0.1609  0.6111
 8908SOL    HW138186   1.453   3.479  12.854  0.6002 -1.5970  1.0296
 8908SOL    HW238187   1.564   3.467  12.946 -0.8439 -0.7894  3.8919
 8909SOL     OW38188   0.204   4.208   4.729  0.1658  0.4426  0.0063
 8909SOL    HW138189   0.285   4.258   4.722 -0.1186  0.9026 -0.0221
 8909SOL    HW238190   0.143   4.279   4.751 -1.9753 -1.2444 -0.4709
 8910SOL     OW38191   1.818   4.100  15.307 -0.4947 -0.7510 -0.0128
 8910SOL    HW138192   1.838   4.155  15.382 -1.2405 -0.8036  0.2211
 8910SOL    HW238193   1.879   4.028  15.325  0.7792 -0.4909 -3.2379
 8911SOL     OW38194   4.701   2.639  13.421 -0.6871 -0.5904 -0.3860
 8911SOL    HW138195   0.058   2.638  13.368  0.9321  0.4441  2.0013
 8911SOL    HW238196   4.644   2.690  13.364 -1.3097  1.2964  1.9677
 8912SOL     OW38197   0.506   2.945  12.323 -0.2282 -0.6508  0.0789
 8912SOL    HW138198   0.544   2.902  12.246 -1.3406  0.6993 -1.2082
 8912SOL    HW238199   0.489   3.032  12.287 -1.4189 -0.7150  0.4915
 8913SOL     OW38200   0.596   3.530   6.790 -0.0858  0.0719  0.1387
 8913SOL    HW138201   0.669   3.548   6.850 -0.4872  1.0242  0.3450
 8913SOL    HW238202   0.585   3.435   6.790  1.0964 -0.0681 -0.3839
 8914SOL     OW38203   2.514   1.674   3.604  0.2227  0.0931 -0.0778
 8914SOL    HW138204   2.439   1.733   3.608  0.3239  0.2690 -0.7194
 8914SOL    HW238205   2.579   1.738   3.633 -2.2913  2.7188 -0.3244
 8915SOL     OW38206   0.216   0.320   9.085 -0.3916 -0.4092 -0.6580
 8915SOL    HW138207   0.186   0.353   9.169 -0.9005 -1.1295 -0.5543
 8915SOL    HW238208   0.297   0.276   9.113 -1.4526 -1.8349  0.1612
 8916SOL     OW38209   0.622   3.546  11.802 -0.1578 -0.2308 -0.2936
 8916SOL    HW138210   0.640   3.457  11.831 -1.7475 -1.4503 -3.0123
 8916SOL    HW238211   0.565   3.585  11.868  3.1604  1.2276  1.7078
 8917SOL     OW38212   1.376   2.658   0.666  0.3213  0.8469  0.4540
 8917SOL    HW138213   1.304   2.614   0.710  0.8022 -0.7919 -0.4012
 8917SOL    HW238214   1.374   2.747   0.701 -0.0768  1.2896 -0.6777
 8918SOL     OW38215   4.511   2.138  14.524 -0.0996 -0.4260 -0.5944
 8918SOL    HW138216   4.484   2.065  14.469  0.1951  0.7753 -2.3350
 8918SOL    HW238217   4.430   2.182  14.550  0.5363  1.0504 -1.0887
 8919SOL     OW38218   2.033   1.107  10.919 -0.5844  0.0181 -0.3045
 8919SOL    HW138219   2.053   1.070  11.005 -2.0939  0.9813  0.4546
 8919SOL    HW238220   2.033   1.025  10.869 -0.1343  0.5902 -1.2615
 8920SOL     OW38221   0.016   2.659  12.431 -0.2760 -0.2723 -0.3460
 8920SOL    HW138222   4.715   2.710  12.508  1.3840  1.7616 -1.1902
 8920SOL    HW238223   0.102   2.624  12.455  0.4122  0.9042 -1.0890
 8921SOL     OW38224   4.171   3.257   6.659  0.3368 -0.1823  0.4049
 8921SOL    HW138225   4.096   3.204   6.631  0.8819 -1.1763  0.8006
 8921SOL    HW238226   4.230   3.190   6.693  0.5753  0.2131  0.7729
 8922SOL     OW38227   0.647   2.607   7.936 -0.1765 -0.3215 -0.3423
 8922SOL    HW138228   0.574   2.548   7.918 -0.6417 -0.1914  1.1288
 8922SOL    HW238229   0.618   2.686   7.891  1.5105  0.6198  0.2200
 8923SOL     OW38230   3.843   1.037   6.142  0.2848  0.6415 -0.0759
 8923SOL    HW138231   3.880   1.078   6.220  0.0490 -0.1296  0.4422
 8923SOL    HW238232   3.754   1.024   6.175  0.1207  1.4569 -0.1929
 8924SOL     OW38233   3.185   2.652  12.852 -0.2932 -0.1195 -0.0234
 8924SOL    HW138234   3.156   2.611  12.933 -0.8918  1.9618  0.8177
 8924SOL    HW238235   3.255   2.711  12.880 -1.1612 -0.2467  2.3658
 8925SOL     OW38236   3.732   0.376  15.330 -0.3367 -0.6499  0.7465
 8925SOL    HW138237   3.664   0.428  15.286  0.5976 -0.4672 -0.4837
 8925SOL    HW238238   3.810   0.431  15.319 -1.9921  1.5617  0.0074
 8926SOL     OW38239   3.665   3.590  10.684  0.1208  0.1594 -0.5022
 8926SOL    HW138240   3.659   3.673  10.732  0.6647  1.3417 -2.4792
 8926SOL    HW238241   3.585   3.599  10.633  0.6463  0.1895 -1.3192
 8927SOL     OW38242   3.859   1.728   9.624  0.2774  0.1959  0.2208
 8927SOL    HW138243   3.936   1.672   9.631 -0.7403 -1.2136  0.2456
 8927SOL    HW238244   3.809   1.680   9.690  0.3873 -1.2627 -0.7525
 8928SOL     OW38245   2.499   4.126  14.851  0.2057  0.1680 -0.7250
 8928SOL    HW138246   2.476   4.049  14.799 -3.0139 -0.6577  1.9363
 8928SOL    HW238247   2.580   4.152  14.807  0.1203 -0.6311 -1.3490
 8929SOL     OW38248   1.734   1.085  13.010 -0.4754  0.4666  0.0335
 8929SOL    HW138249   1.779   1.085  13.094 -2.9580 -1.3016  1.3554
 8929SOL    HW238250   1.776   1.008  12.972 -0.8139  0.2323  0.1328
 8930SOL     OW38251   4.379   3.218   5.662  0.3353 -0.3682  0.0597
 8930SOL    HW138252   4.327   3.283   5.708  0.0462  2.2815 -4.0807
 8930SOL    HW238253   4.314   3.168   5.612  0.0686  1.4187 -1.3698
 8931SOL     OW38254   1.001   0.751  12.745  0.0988 -0.1521  0.5314
 8931SOL    HW138255   0.909   0.748  12.770 -0.1550  0.7515 -0.2980
 8931SOL    HW238256   1.008   0.660  12.714  0.9958 -0.2951  1.1766
 8932SOL     OW38257   0.080   2.604   5.758  0.0167 -0.2643  0.0100
 8932SOL    HW138258   0.043   2.536   5.814 -1.1016  1.1845  1.0428
 8932SOL    HW238259   0.173   2.611   5.780 -0.1007  1.5110 -0.0560
 8933SOL     OW38260   0.852   1.126  11.356 -0.0252 -0.1966 -0.3495
 8933SOL    HW138261   0.829   1.079  11.275  0.5564  3.5002 -2.6729
 8933SOL    HW238262   0.905   1.201  11.328 -1.9929  2.2258  2.4517
 8934SOL     OW38263   1.597   3.599   2.214 -0.3592  0.2108 -0.2606
 8934SOL    HW138264   1.690   3.616   2.206  0.1997 -2.6974  0.1558
 8934SOL    HW238265   1.599   3.557   2.300  0.2604  3.4259  1.2870
 8935SOL     OW38266   1.162   2.329   0.694  0.2086 -0.3731  0.0443
 8935SOL    HW138267   1.137   2.404   0.640  1.2499 -0.0647 -0.0127
 8935SOL    HW238268   1.186   2.365   0.780  1.5479 -0.9805 -0.0721
 8936SOL     OW38269   0.523   0.317   4.905 -0.1311  0.3223  0.6755
 8936SOL    HW138270   0.506   0.411   4.919  0.4049  0.7051 -1.3016
 8936SOL    HW238271   0.487   0.300   4.819 -1.3390 -0.9071  1.4283
 8937SOL     OW38272   1.811   2.012  14.336 -0.2429 -0.2020 -0.0287
 8937SOL    HW138273   1.831   2.098  14.299  0.0857 -1.7175 -3.3797
 8937SOL    HW238274   1.849   1.961  14.265 -1.0077  0.2914 -0.7969
 8938SOL     OW38275   2.557   1.138  12.266  0.1224  1.0155 -0.0014
 8938SOL    HW138276   2.633   1.112  12.318 -0.9248 -2.1179 -0.0206
 8938SOL    HW238277   2.610   1.195  12.211  1.3930 -0.4368 -0.2800
 8939SOL     OW38278   1.221   3.151  13.176 -0.6363 -0.1035 -0.6612
 8939SOL    HW138279   1.285   3.151  13.248 -0.0802  1.3522 -1.1703
 8939SOL    HW238280   1.158   3.091  13.216  0.5060 -0.5808  0.4400
 8940SOL     OW38281   4.351   2.861  11.714 -0.0058  0.4322 -0.0187
 8940SOL    HW138282   4.274   2.808  11.737  1.3340 -1.5444 -0.1424
 8940SOL    HW238283   4.328   2.942  11.761  0.2571  0.3872  0.1881
 8941SOL     OW38284   3.216   4.550  10.674 -0.1319  0.1163  0.5244
 8941SOL    HW138285   3.185   4.572  10.586  1.7623 -1.9025 -0.6656
 8941SOL    HW238286   3.248   4.460  10.662  0.8984  0.6093 -0.4620
 8942SOL     OW38287   1.343   0.970   8.139  0.6324 -0.3476 -0.6721
 8942SOL    HW138288   1.277   0.916   8.183 -0.0471  0.6506 -0.4614
 8942SOL    HW238289   1.297   0.986   8.056 -1.3465  0.6281  0.6002
 8943SOL     OW38290   1.502   0.788  11.478  0.0679  0.1144 -0.5294
 8943SOL    HW138291   1.542   0.716  11.527  2.1280 -0.2800 -2.8188
 8943SOL    HW238292   1.423   0.788  11.532  1.5168  1.7969  1.6161
 8944SOL     OW38293   2.898   1.188  12.868  0.0369 -0.1287  0.0578
 8944SOL    HW138294   2.810   1.223  12.882 -0.5400 -1.1206 -1.0598
 8944SOL    HW238295   2.947   1.222  12.943 -0.5209  0.0899  0.3236
 8945SOL     OW38296   2.338   1.518   6.269  0.2425  0.4766  0.1407
 8945SOL    HW138297   2.401   1.530   6.340 -3.0437  3.4115  2.5006
 8945SOL    HW238298   2.328   1.424   6.253  0.4365  0.5703 -0.5522
 8946SOL     OW38299   2.975   1.132   1.001  0.4083  0.3238 -0.1689
 8946SOL    HW138300   3.060   1.099   1.028  0.4173  0.3744 -0.1355
 8946SOL    HW238301   2.931   1.136   1.086  0.1553 -1.3991 -0.2246
 8947SOL     OW38302   4.378   3.177   7.644 -0.1749 -0.2625  0.0292
 8947SOL    HW138303   4.431   3.254   7.666  1.0850 -0.9015 -0.7734
 8947SOL    HW238304   4.455   3.120   7.637 -0.0554  0.2076 -2.2256
 8948SOL     OW38305   1.793   2.368   3.001  0.1546  0.8001  0.1466
 8948SOL    HW138306   1.786   2.382   2.907 -0.8136  1.5112  0.3239
 8948SOL    HW238307   1.701   2.382   3.025 -0.1597  0.5828 -0.9405
 8949SOL     OW38308   4.365   2.075   8.596  1.0646  0.1348  0.1561
 8949SOL    HW138309   4.370   2.169   8.577  0.6867  0.3524  1.1257
 8949SOL    HW238310   4.402   2.071   8.684 -0.4915 -1.5888  0.7456
 8950SOL     OW38311   4.531   0.480  17.056  0.0381  0.1928  0.2393
 8950SOL    HW138312   4.572   0.487  17.142  1.3382 -1.1538 -0.2606
 8950SOL    HW238313   4.448   0.525  17.073 -0.9801 -1.5392 -0.1238
 8951SOL     OW38314   4.075   1.695   9.329 -0.0221  0.0069  0.3816
 8951SOL    HW138315   3.981   1.681   9.335 -0.2157  1.3483  0.4458
 8951SOL    HW238316   4.077   1.780   9.285 -0.1638  0.3089  0.9590
 8952SOL     OW38317   3.981   0.852   3.512 -0.4463 -0.1769  0.4483
 8952SOL    HW138318   4.056   0.897   3.550 -0.4381  0.1150  0.0828
 8952SOL    HW238319   4.023   0.766   3.518 -1.0641 -0.3334  2.5219
 8953SOL     OW38320   3.155   4.683   6.430  0.5509  0.4243 -0.0604
 8953SOL    HW138321   3.130   4.710   6.518  2.9074  0.8803  0.4729
 8953SOL    HW238322   3.231   4.624   6.437  0.2759 -0.1593 -1.7992
 8954SOL     OW38323   0.530   3.654   3.413 -0.1651  0.8266 -0.6549
 8954SOL    HW138324   0.563   3.655   3.503 -1.7058  3.3239 -0.1155
 8954SOL    HW238325   0.507   3.746   3.405  0.3780  1.0722  0.6411
 8955SOL     OW38326   4.283   0.678   2.638 -0.0475 -0.4685  0.5700
 8955SOL    HW138327   4.274   0.745   2.571 -0.4102 -1.6652 -0.5821
 8955SOL    HW238328   4.263   0.727   2.718  0.6847  0.5511  0.1314
 8956SOL     OW38329   4.255   1.111   7.325  0.2558 -0.0537 -0.0689
 8956SOL    HW138330   4.189   1.107   7.256  0.4653  0.3855 -0.2982
 8956SOL    HW238331   4.299   1.028   7.307 -0.5997 -0.2180 -1.4018
 8957SOL     OW38332   4.425   2.373   8.563  0.4181  1.0397  0.0931
 8957SOL    HW138333   4.464   2.445   8.514 -1.5216  3.3325  1.9017
 8957SOL    HW238334   4.497   2.311   8.549 -0.2273  0.2791  0.1266
 8958SOL     OW38335   0.920   1.679  13.279  0.4048 -0.3195 -0.2504
 8958SOL    HW138336   0.925   1.773  13.297  3.5614 -0.7423  1.0510
 8958SOL    HW238337   0.981   1.670  13.205  0.1052 -1.2023 -0.3815
 8959SOL     OW38338   4.418   3.495   3.580  0.3236 -0.4885 -0.1522
 8959SOL    HW138339   4.345   3.543   3.541  0.6312  0.8513  0.9255
 8959SOL    HW238340   4.424   3.415   3.529 -0.0385 -0.0092 -0.9514
 8960SOL     OW38341   0.447   3.605   4.795  0.1360 -0.1747 -0.4544
 8960SOL    HW138342   0.362   3.644   4.813  0.0300 -0.0902 -1.1373
 8960SOL    HW238343   0.487   3.592   4.881 -0.8760 -0.5270 -0.0381
 8961SOL     OW38344   3.423   0.982   3.535 -0.0998 -0.3251 -0.1592
 8961SOL    HW138345   3.331   1.008   3.541 -0.2223 -0.4794 -1.4012
 8961SOL    HW238346   3.427   0.946   3.446 -1.2040  0.8055 -0.6766
 8962SOL     OW38347   0.932   1.985   4.810 -0.2054  0.3644 -0.5118
 8962SOL    HW138348   0.988   1.921   4.765 -0.9652 -2.2504  2.2679
 8962SOL    HW238349   0.977   2.070   4.809  0.7538 -0.1422 -0.7974
 8963SOL     OW38350   1.889   4.416   6.771  0.8255  0.1035 -0.4219
 8963SOL    HW138351   1.890   4.369   6.687  2.1374 -2.2788  0.9178
 8963SOL    HW238352   1.861   4.503   6.742  0.0614  0.8361  2.5171
 8964SOL     OW38353   2.008   4.355   8.819  0.0787  0.0708  0.1817
 8964SOL    HW138354   1.984   4.296   8.748  0.0584 -0.7629  0.8954
 8964SOL    HW238355   1.951   4.324   8.889 -0.8970  0.3811 -0.4816
 8965SOL     OW38356   4.433   0.354   3.803 -0.6163 -0.1033  0.5184
 8965SOL    HW138357   4.354   0.335   3.752 -0.4869  2.3717 -0.5748
 8965SOL    HW238358   4.437   0.448   3.819 -0.9252  0.2570 -1.5201
 8966SOL     OW38359   2.046   4.337   4.694  0.5695 -0.0433 -0.2652
 8966SOL    HW138360   2.036   4.285   4.614 -0.6246  0.0024 -0.1429
 8966SOL    HW238361   2.028   4.424   4.659  0.3288 -0.1148 -0.3198
 8967SOL     OW38362   1.655   4.407   7.772 -0.3505  0.4205 -0.0260
 8967SOL    HW138363   1.651   4.443   7.861 -0.6802  0.8457 -0.2123
 8967SOL    HW238364   1.572   4.358   7.769 -0.2763  0.2158  1.1263
 8968SOL     OW38365   3.896   2.860   8.738 -0.3248  0.0876  0.0801
 8968SOL    HW138366   3.841   2.850   8.815  0.0222 -0.8207  0.1998
 8968SOL    HW238367   3.891   2.771   8.703  2.6506  0.2039 -0.6153
 8969SOL     OW38368   2.742   2.610   4.840  0.3827  0.0696 -0.0137
 8969SOL    HW138369   2.822   2.658   4.860  1.1644 -0.6957 -1.2665
 8969SOL    HW238370   2.680   2.650   4.901 -0.5064 -2.7041  0.9294
 8970SOL     OW38371   3.011   2.802   2.237  0.5258  0.0442 -0.0576
 8970SOL    HW138372   2.939   2.754   2.278 -0.5924  1.8618  0.1288
 8970SOL    HW238373   3.022   2.875   2.298  1.5614 -0.3572  0.2359
 8971SOL     OW38374   3.424   1.239  14.956  0.6689  0.1926  0.3234
 8971SOL    HW138375   3.451   1.166  15.012 -0.5695 -0.1522  0.4559
 8971SOL    HW238376   3.480   1.314  14.978  1.9270 -1.3584  2.3763
 8972SOL     OW38377   4.029   2.340  13.170 -0.3240 -0.1631  0.0700
 8972SOL    HW138378   4.095   2.353  13.238 -0.5269  2.2747 -0.1915
 8972SOL    HW238379   3.946   2.353  13.217 -1.6217  3.4865 -3.2351
 8973SOL     OW38380   1.983   1.614  12.096 -0.0080 -0.1569  0.2519
 8973SOL    HW138381   2.037   1.564  12.157 -0.6964 -0.0445  0.9445
 8973SOL    HW238382   1.929   1.663  12.158 -2.7227 -0.6267 -1.7317
 8974SOL     OW38383   2.221   1.591   7.840  0.1383 -0.4282  0.2894
 8974SOL    HW138384   2.176   1.675   7.849  1.3191  0.1649  0.6797
 8974SOL    HW238385   2.226   1.599   7.744  1.1663 -0.9195  0.2990
 8975SOL     OW38386   1.046   3.365   3.118 -0.2110  0.1132 -0.7808
 8975SOL    HW138387   1.014   3.429   3.181 -1.6989 -1.0906 -0.2958
 8975SOL    HW238388   0.976   3.365   3.053 -1.4422 -1.0766  0.5310
 8976SOL     OW38389   0.584   1.088   5.531  0.6348  0.5281 -0.0129
 8976SOL    HW138390   0.669   1.076   5.574  0.3516 -1.1662  0.0672
 8976SOL    HW238391   0.582   1.027   5.458  2.6210  0.3170  0.1062
 8977SOL     OW38392   1.869   0.375   7.513 -0.5317  0.6146  0.0189
 8977SOL    HW138393   1.899   0.461   7.486 -0.9062  0.6513 -0.2819
 8977SOL    HW238394   1.776   0.390   7.498 -1.1099 -1.9115  0.9423
 8978SOL     OW38395   4.042   2.793   3.827 -0.4105 -0.4707 -0.1321
 8978SOL    HW138396   4.042   2.882   3.861 -1.5250 -1.2200  1.8432
 8978SOL    HW238397   3.961   2.749   3.854 -0.6430 -1.0995 -1.8242
 8979SOL     OW38398   0.509   4.069   2.436  0.1396  0.8478 -0.6227
 8979SOL    HW138399   0.580   4.108   2.384  0.6675 -0.3466 -0.8128
 8979SOL    HW238400   0.438   4.132   2.428 -0.7122 -0.1842 -1.1029
 8980SOL     OW38401   1.093   0.670   4.182  0.6167  0.0035  0.0823
 8980SOL    HW138402   1.121   0.580   4.200  2.8018  0.8405  0.8764
 8980SOL    HW238403   1.109   0.674   4.088 -1.4483 -1.7681 -0.3222
 8981SOL     OW38404   4.628   3.940   0.433 -0.0850  0.1079  0.2439
 8981SOL    HW138405   4.617   4.019   0.379 -1.7811  1.0037  1.8942
 8981SOL    HW238406   4.637   3.871   0.368 -0.1596  0.4883 -0.1722
 8982SOL     OW38407   4.693   0.774  12.772  0.1376  0.2153  0.0788
 8982SOL    HW138408   0.001   0.839  12.709  0.4752  0.2298  0.2587
 8982SOL    HW238409   4.636   0.828  12.826 -0.8767  0.3329 -1.1107
 8983SOL     OW38410   2.757   3.734   5.265  0.1862 -0.0345 -0.0374
 8983SOL    HW138411   2.802   3.789   5.330 -0.4160 -0.9115  1.1241
 8983SOL    HW238412   2.738   3.798   5.197  0.2294  1.7964  1.6571
 8984SOL     OW38413   0.323   1.189  11.741 -0.1561 -0.2277  0.5090
 8984SOL    HW138414   0.361   1.223  11.660 -0.0164  0.8806  1.0515
 8984SOL    HW238415   0.334   1.100  11.705  0.1384 -0.4531  1.1639
 8985SOL     OW38416   1.305   0.729  13.802 -0.5805 -0.1743 -0.1229
 8985SOL    HW138417   1.393   0.757  13.825 -0.7925 -0.5962  1.1911
 8985SOL    HW238418   1.289   0.653  13.858 -0.1063  1.6453  2.4798
 8986SOL     OW38419   1.466   1.480   4.690  0.1661  0.5103  0.3169
 8986SOL    HW138420   1.443   1.561   4.645  0.0262  0.3917  0.1724
 8986SOL    HW238421   1.417   1.499   4.770 -1.1065  0.3953 -0.4266
 8987SOL     OW38422   4.325   3.050   6.707 -0.6064 -0.2380 -0.5142
 8987SOL    HW138423   4.273   2.990   6.760 -0.2170  1.0509  1.3539
 8987SOL    HW238424   4.405   2.997   6.710  0.3778  1.3109  0.7574
 8988SOL     OW38425   4.140   1.807  16.565  0.2994  0.2608  0.1572
 8988SOL    HW138426   4.158   1.817  16.471  0.8135  0.4638  0.2760
 8988SOL    HW238427   4.139   1.898  16.596  2.1182  0.0826  0.7530
 8989SOL     OW38428   0.355   3.183  15.540 -0.1130  0.3313 -0.3228
 8989SOL    HW138429   0.279   3.219  15.495 -0.6219 -0.8514 -0.4190
 8989SOL    HW238430   0.358   3.098  15.496  0.0822 -0.2782  0.8569
 8990SOL     OW38431   1.317   3.276   5.997  0.0744  0.1410  0.2359
 8990SOL    HW138432   1.358   3.361   5.984  0.2108 -0.0410 -0.5288
 8990SOL    HW238433   1.226   3.304   6.011 -0.6507 -1.5146 -1.0752
 8991SOL     OW38434   1.874   2.668   0.371 -0.0399 -0.4320  0.1136
 8991SOL    HW138435   1.911   2.582   0.353 -0.2182 -0.4523 -0.1561
 8991SOL    HW238436   1.796   2.651   0.318  0.2283  0.7192 -0.6477
 8992SOL     OW38437   4.363   2.425   5.628  0.5091  0.1259 -0.7300
 8992SOL    HW138438   4.395   2.514   5.616 -0.3333  0.4428 -0.6212
 8992SOL    HW238439   4.436   2.372   5.660 -0.3408 -1.8664 -2.0405
 8993SOL     OW38440   0.081   4.190  15.896  0.5451 -0.1050 -0.3185
 8993SOL    HW138441   0.136   4.265  15.874 -1.1645  0.5752 -2.2266
 8993SOL    HW238442   0.001   4.233  15.927  0.4687 -2.5918  3.0218
 8994SOL     OW38443   1.091   0.782   2.690  0.0580  0.1661 -0.5065
 8994SOL    HW138444   1.011   0.795   2.640 -0.9272  0.4033  1.1318
 8994SOL    HW238445   1.113   0.698   2.650 -0.1727 -0.1465  0.0175
 8995SOL     OW38446   1.567   4.484   5.187 -0.2586  0.6368  0.5314
 8995SOL    HW138447   1.531   4.554   5.243  0.1064  1.2719 -0.0202
 8995SOL    HW238448   1.521   4.498   5.104 -0.5876  2.8435  1.0824
 8996SOL     OW38449   0.438   1.062   6.259 -0.5203 -0.6259 -0.0098
 8996SOL    HW138450   0.459   1.154   6.276 -3.9303  0.4594 -1.6506
 8996SOL    HW238451   0.430   1.058   6.164  0.5658 -0.3207 -0.1097
 8997SOL     OW38452   4.546   0.006   2.771 -0.0016 -0.6459 -0.1221
 8997SOL    HW138453   4.491   4.721   2.849  0.3372  3.7937  0.5517
 8997SOL    HW238454   4.525   0.098   2.751  1.3252 -0.0868  1.0995
 8998SOL     OW38455   0.505   1.892   6.297  0.2967  0.3696  0.1236
 8998SOL    HW138456   0.572   1.900   6.230  1.1737 -0.2106  0.9389
 8998SOL    HW238457   0.463   1.808   6.279  0.6914  0.0618  0.6400
 8999SOL     OW38458   1.170   3.969   5.841  0.2196 -0.1293 -0.1228
 8999SOL    HW138459   1.091   3.949   5.891 -0.0250 -1.2902 -0.9628
 8999SOL    HW238460   1.218   3.891   5.868  2.2687  0.0594 -3.1650
 9000SOL     OW38461   2.395   0.859  14.415 -1.0301 -0.1713  0.1844
 9000SOL    HW138462   2.412   0.837  14.507 -0.7381  1.1844  0.4523
 9000SOL    HW238463   2.469   0.911  14.385 -0.9262 -0.6223 -0.3316
 9001SOL     OW38464   1.629   3.198   4.775  0.2789  0.5864 -0.4942
 9001SOL    HW138465   1.534   3.204   4.783  0.4088  0.6675  0.9508
 9001SOL    HW238466   1.628   3.110   4.812 -0.0990  0.1508 -1.5479
 9002SOL     OW38467   1.346   2.152   1.214  0.2462  0.3041  0.2652
 9002SOL    HW138468   1.331   2.063   1.181  1.6315  0.1539  0.0455
 9002SOL    HW238469   1.306   2.144   1.300  0.2238 -1.8330  0.0549
 9003SOL     OW38470   1.316   0.781  16.798  0.2819  0.3516  0.1155
 9003SOL    HW138471   1.352   0.735  16.723  0.7379  3.1201 -1.3958
 9003SOL    HW238472   1.252   0.719  16.834  1.1693 -0.4117  0.3676
 9004SOL     OW38473   1.622   0.495   7.486  0.5234 -0.2695  0.5690
 9004SOL    HW138474   1.541   0.510   7.535 -0.2080  0.8258 -0.9958
 9004SOL    HW238475   1.664   0.580   7.478  0.5308 -0.2655  0.6482
 9005SOL     OW38476   4.350   4.538   8.773 -0.0899  0.2643  0.4298
 9005SOL    HW138477   4.355   4.467   8.837  0.8546 -0.6988 -0.7132
 9005SOL    HW238478   4.432   4.583   8.793  0.0643  0.7872 -1.3873
 9006SOL     OW38479   2.966   4.705   4.711 -0.0571 -0.1120  0.5099
 9006SOL    HW138480   2.877   4.670   4.705  1.4848 -3.9648  0.0140
 9006SOL    HW238481   2.944   0.073   4.733 -0.4799 -0.0591 -0.1235
 9007SOL     OW38482   2.083   1.006  11.703  0.0278  0.6048  0.2857
 9007SOL    HW138483   2.043   1.085  11.739 -2.9260 -0.6281 -0.2590
 9007SOL    HW238484   2.008   0.946  11.698 -0.3775  1.1090  0.3332
 9008SOL     OW38485   0.136   3.080   6.974  0.5077  0.2418 -0.2355
 9008SOL    HW138486   0.044   3.100   6.988  0.9217  1.7014  0.3775
 9008SOL    HW238487   0.176   3.127   7.047  0.9436 -1.2617  0.5054
 9009SOL     OW38488   0.155   0.488  14.287  0.3516 -0.2300  0.0441
 9009SOL    HW138489   0.115   0.555  14.232  1.0310 -0.9609 -1.3450
 9009SOL    HW238490   0.216   0.538  14.340 -0.6809  1.1489 -0.0675
 9010SOL     OW38491   0.134   0.168   7.254 -0.2362 -0.2267 -0.0833
 9010SOL    HW138492   0.179   0.173   7.170 -0.2915 -0.2320 -0.1136
 9010SOL    HW238493   0.164   0.081   7.282 -0.9016 -0.9840 -1.7459
 9011SOL     OW38494   1.606   4.045   3.241 -0.2895 -0.5899  0.3438
 9011SOL    HW138495   1.535   4.020   3.300 -0.1120  1.7550  1.5766
 9011SOL    HW238496   1.556   4.081   3.168 -0.7809 -4.2002 -1.0952
 9012SOL     OW38497   4.065   4.707   3.180 -0.2889  0.5439  0.3493
 9012SOL    HW138498   4.066   0.053   3.113  0.5023 -0.2982 -0.5144
 9012SOL    HW238499   3.985   4.665   3.150  0.8028  1.1933 -3.5059
 9013SOL     OW38500   3.720   2.352  12.471  0.3115  0.1489  0.2976
 9013SOL    HW138501   3.658   2.314  12.409 -2.3114  2.5953  1.4151
 9013SOL    HW238502   3.664   2.410  12.523 -1.4583 -1.9596  0.8045
 9014SOL     OW38503   0.560   4.351   3.371 -0.2912 -0.2791  0.5069
 9014SOL    HW138504   0.526   4.371   3.284 -0.7433 -0.1816  0.7103
 9014SOL    HW238505   0.528   4.262   3.359  0.7846 -0.7165  0.8654
 9015SOL     OW38506   2.526   2.452   1.255 -0.3453 -0.1132  0.1275
 9015SOL    HW138507   2.464   2.381   1.272 -2.7959  1.7634 -0.8369
 9015SOL    HW238508   2.584   2.390   1.212 -1.2160 -0.0477 -1.1323
 9016SOL     OW38509   1.795   4.054   1.224 -0.4788  0.0962 -0.4971
 9016SOL    HW138510   1.703   4.051   1.247 -0.1259  2.1919  1.1729
 9016SOL    HW238511   1.808   4.146   1.199  0.2973 -0.3686 -1.8460
 9017SOL     OW38512   0.549   3.100   9.196 -0.7440  0.1341  0.1683
 9017SOL    HW138513   0.482   3.160   9.166 -0.6358  1.0977  1.8502
 9017SOL    HW238514   0.521   3.091   9.287 -2.4932  0.5213 -0.3321
 9018SOL     OW38515   2.152   4.142   2.829 -0.3863 -0.0641  0.3494
 9018SOL    HW138516   2.108   4.204   2.772 -0.5947 -1.2994 -0.8444
 9018SOL    HW238517   2.143   4.060   2.779 -1.1825  0.4680 -0.3736
 9019SOL     OW38518   4.080   0.053   6.123  0.4888 -0.1059 -0.1513
 9019SOL    HW138519   4.018   0.080   6.055  0.1065 -0.2369  0.1468
 9019SOL    HW238520   4.160   0.073   6.074 -0.4607  2.2937 -0.7171
 9020SOL     OW38521   2.195   2.925   7.648 -0.4487  0.0138 -0.2983
 9020SOL    HW138522   2.121   2.887   7.600  1.1648  0.0524 -2.7986
 9020SOL    HW238523   2.170   3.015   7.667  0.0050  0.3162 -1.1573
 9021SOL     OW38524   3.779   2.276   8.061  0.1633  0.4493  0.0540
 9021SOL    HW138525   3.743   2.188   8.047 -0.0844  0.4497  0.7165
 9021SOL    HW238526   3.763   2.292   8.154 -1.0740 -0.2890 -0.0255
 9022SOL     OW38527   1.630   3.211   5.459 -0.0472  0.2478 -0.5122
 9022SOL    HW138528   1.654   3.302   5.475  2.2888 -0.5033  0.2704
 9022SOL    HW238529   1.649   3.174   5.546  0.3705 -1.2291 -1.2220
 9023SOL     OW38530   0.853   1.336   8.980 -0.2384 -0.7136 -0.0270
 9023SOL    HW138531   0.922   1.399   8.960  0.1228 -1.3674 -0.8024
 9023SOL    HW238532   0.782   1.396   9.004  1.2404  1.9809 -2.3429
 9024SOL     OW38533   2.774   3.453   8.095  0.1603  0.5253  1.0805
 9024SOL    HW138534   2.759   3.547   8.108 -0.6407  0.6300 -0.6021
 9024SOL    HW238535   2.708   3.426   8.031  3.3764 -0.5405 -1.8051
 9025SOL     OW38536   0.604   0.716   6.237 -1.2204 -0.1325 -0.1499
 9025SOL    HW138537   0.579   0.774   6.309  0.7159 -0.5499  0.8527
 9025SOL    HW238538   0.517   0.687   6.208 -0.8051 -1.2380 -0.2633
 9026SOL     OW38539   3.546   3.964   4.040  0.3875  0.3393 -0.0232
 9026SOL    HW138540   3.633   3.978   4.004  0.1753  0.3065 -0.5570
 9026SOL    HW238541   3.493   4.014   3.977 -0.8794 -1.1822 -0.1747
 9027SOL     OW38542   4.061   2.980   3.068 -0.5469  0.3903 -0.4776
 9027SOL    HW138543   4.000   3.054   3.066 -0.8600  0.1746  1.0167
 9027SOL    HW238544   4.001   2.906   3.080  2.6801 -2.6987 -3.5381
 9028SOL     OW38545   2.356   3.905   7.260 -0.2261 -0.0829  0.5517
 9028SOL    HW138546   2.269   3.884   7.226  0.1415 -1.6898  0.6089
 9028SOL    HW238547   2.331   3.945   7.343 -2.4230  0.3265 -0.3100
 9029SOL     OW38548   1.774   1.738   0.528  0.2806  0.1221 -0.0601
 9029SOL    HW138549   1.831   1.661   0.534 -0.3404 -0.1630  2.1949
 9029SOL    HW238550   1.723   1.709   0.452  0.1654 -1.1241  0.4888
 9030SOL     OW38551   1.982   0.834  15.747 -0.0417 -0.1493  0.4616
 9030SOL    HW138552   2.070   0.866  15.762 -0.2970  0.6860  0.1877
 9030SOL    HW238553   1.939   0.908  15.705 -0.5591  0.5224  2.2063
 9031SOL     OW38554   0.787   2.262   4.902 -0.1550  0.1557 -0.4209
 9031SOL    HW138555   0.877   2.259   4.871  0.2078 -2.0465  0.9207
 9031SOL    HW238556   0.760   2.346   4.864  0.6707  0.3285 -0.6294
 9032SOL     OW38557   3.703   0.393  17.638  0.0541  0.3476 -0.0619
 9032SOL    HW138558   3.742   0.386  17.551 -1.2596  0.8515 -0.6998
 9032SOL    HW238559   3.608   0.385  17.626 -0.1058  1.8577  0.1436
 9033SOL     OW38560   2.084   2.171   1.304  0.1337  0.5482 -0.0113
 9033SOL    HW138561   2.015   2.230   1.273 -0.2274  0.7304  1.1651
 9033SOL    HW238562   2.110   2.127   1.223 -0.1180  1.3516 -0.5264
 9034SOL     OW38563   2.811   0.288  13.132  0.2101 -0.3036  0.2721
 9034SOL    HW138564   2.788   0.219  13.070  0.1971 -0.0046 -0.0504
 9034SOL    HW238565   2.820   0.243  13.216 -1.5080 -0.1125  0.5502
 9035SOL     OW38566   1.225   4.026   6.986 -0.4454  0.2017 -0.0138
 9035SOL    HW138567   1.185   4.013   7.072  0.5478 -0.8622  0.2793
 9035SOL    HW238568   1.263   3.939   6.971  1.9510  1.6712 -2.4075
 9036SOL     OW38569   4.519   0.102   0.310  0.5242 -0.3042 -0.0506
 9036SOL    HW138570   4.501   0.070   0.221 -0.2790  0.9211 -0.3301
 9036SOL    HW238571   4.511   0.195   0.291  1.0970 -0.7545 -2.5061
 9037SOL     OW38572   0.187   3.022   2.742  0.1236 -0.4289 -0.1499
 9037SOL    HW138573   0.222   2.979   2.664  0.1156  0.4706 -0.6529
 9037SOL    HW238574   0.098   3.043   2.714  0.1815  0.6373  0.4587
 9038SOL     OW38575   1.428   0.998   1.984 -0.6765 -0.0708  0.3268
 9038SOL    HW138576   1.465   1.058   1.919  0.8593 -2.2387 -0.8156
 9038SOL    HW238577   1.409   1.053   2.060  0.9430  0.5050  0.3254
 9039SOL     OW38578   1.653   1.921   0.895  0.1163 -0.2176  0.8024
 9039SOL    HW138579   1.735   1.971   0.903  0.4034 -0.3258 -1.3746
 9039SOL    HW238580   1.594   1.996   0.888 -1.9641 -2.2151 -2.7790
 9040SOL     OW38581   3.449   3.235   4.804  0.1234  0.1218 -0.3975
 9040SOL    HW138582   3.420   3.145   4.792 -0.9332  0.4572 -0.3608
 9040SOL    HW238583   3.533   3.222   4.847 -0.4381  0.3506  0.7558
 9041SOL     OW38584   3.905   4.400   8.189  0.2930 -0.3203  0.0104
 9041SOL    HW138585   3.955   4.478   8.164 -0.1636 -0.2314 -0.6209
 9041SOL    HW238586   3.959   4.377   8.265  1.8470 -0.0937 -1.0224
 9042SOL     OW38587   0.026   1.228   6.358  0.5197  0.0586 -0.0208
 9042SOL    HW138588   0.024   1.167   6.432  0.0366 -1.0849 -0.9816
 9042SOL    HW238589   0.028   1.312   6.405 -1.4689  0.4910 -0.7423
 9043SOL     OW38590   4.022   1.247   3.062  0.0773 -0.1412  0.5856
 9043SOL    HW138591   3.956   1.233   3.130 -2.4356  2.2923 -1.3841
 9043SOL    HW238592   4.068   1.320   3.104  0.2721 -0.8262  1.5859
 9044SOL     OW38593   0.433   4.120   8.171  0.2590  0.4575 -0.2046
 9044SOL    HW138594   0.520   4.149   8.200 -0.2626 -0.2354  2.0357
 9044SOL    HW238595   0.438   4.139   8.077 -0.2001  0.7294 -0.1760
 9045SOL     OW38596   3.399   2.061   8.524 -0.0486  0.2700  0.1166
 9045SOL    HW138597   3.384   1.998   8.594  2.5511 -0.1354  0.3087
 9045SOL    HW238598   3.343   2.022   8.458 -0.5264  0.0956  0.6212
 9046SOL     OW38599   4.683   1.081   4.311 -0.2222  0.0650 -0.3073
 9046SOL    HW138600   0.020   1.008   4.295 -0.7636 -0.2164 -1.0774
 9046SOL    HW238601   4.688   1.099   4.404  1.6451  1.8508 -0.7628
 9047SOL     OW38602   2.539   3.566   3.503 -0.0384  0.1134 -0.0775
 9047SOL    HW138603   2.533   3.602   3.592  2.8032  0.0588  0.1305
 9047SOL    HW238604   2.478   3.494   3.517  2.0480 -2.1351 -2.6605
 9048SOL     OW38605   4.106   0.327   1.942 -0.4949  0.8282 -0.5456
 9048SOL    HW138606   4.037   0.261   1.943 -0.6372  0.9764 -0.6593
 9048SOL    HW238607   4.127   0.336   1.849 -0.6016  1.0979 -0.5427
 9049SOL     OW38608   3.506   0.457   6.918 -0.0300 -0.4105  0.2612
 9049SOL    HW138609   3.527   0.466   7.011 -3.1768  1.1773  0.7719
 9049SOL    HW238610   3.576   0.398   6.889  0.0027 -0.7330  0.9859
 9050SOL     OW38611   0.401   4.037   7.346  0.3712  0.0195  0.1765
 9050SOL    HW138612   0.368   4.072   7.429 -2.0216 -0.1373 -0.6916
 9050SOL    HW238613   0.396   3.944   7.369 -1.4801 -0.0851 -0.5691
 9051SOL     OW38614   3.113   1.274   1.981  0.5138 -0.3710  0.1287
 9051SOL    HW138615   3.107   1.309   2.070 -2.6281  0.2198 -0.3228
 9051SOL    HW238616   3.196   1.229   1.998 -0.5938 -1.7903  1.7361
 9052SOL     OW38617   3.030   4.670   8.024  0.2773 -0.2190 -0.7149
 9052SOL    HW138618   3.100   0.001   7.986 -1.6110  2.4461 -0.4847
 9052SOL    HW238619   2.998   0.000   8.098 -0.2119 -1.3693 -0.1037
 9053SOL     OW38620   2.046   3.851  16.408 -0.4182  0.3688  0.1503
 9053SOL    HW138621   2.119   3.840  16.469  0.1670 -0.5554 -0.7120
 9053SOL    HW238622   1.984   3.791  16.449 -0.2795  0.8943  1.1271
 9054SOL     OW38623   4.535   2.446   3.217 -0.0745 -0.1280 -0.0695
 9054SOL    HW138624   4.476   2.517   3.190  1.3962  0.7565 -0.9458
 9054SOL    HW238625   4.617   2.486   3.186 -0.2840 -1.5579 -2.4655
 9055SOL     OW38626   2.609   0.808   8.808 -0.0229  0.2267 -0.3570
 9055SOL    HW138627   2.571   0.895   8.818  0.7643  0.7988 -2.4404
 9055SOL    HW238628   2.647   0.796   8.896  0.3826 -0.6533 -0.6477
 9056SOL     OW38629   0.670   0.358   1.680 -0.2847 -0.2100  0.3137
 9056SOL    HW138630   0.620   0.435   1.655  0.5065  0.6079  1.2691
 9056SOL    HW238631   0.749   0.403   1.711  0.4050 -0.8557 -0.5049
 9057SOL     OW38632   1.557   1.431   7.314 -0.7790  0.5173  0.1824
 9057SOL    HW138633   1.617   1.483   7.367  0.8509 -0.8861 -0.3108
 9057SOL    HW238634   1.538   1.346   7.353 -0.9526  2.1217  3.5976
 9058SOL     OW38635   4.581   0.557   6.956  0.1464  0.5278  0.1512
 9058SOL    HW138636   4.599   0.578   6.864  1.8936  2.4964  0.9493
 9058SOL    HW238637   4.538   0.471   6.957 -0.9612  1.0838  0.3062
 9059SOL     OW38638   0.252   4.024   1.078  0.6076 -0.3772 -0.1321
 9059SOL    HW138639   0.306   3.991   1.150  0.2907 -1.3682 -0.3537
 9059SOL    HW238640   0.309   3.992   1.008  0.1133 -1.6350  0.0580
 9060SOL     OW38641   0.878   0.770   3.193 -0.0196  0.5228 -0.3191
 9060SOL    HW138642   0.862   0.826   3.117 -0.9437  1.5043  0.5999
 9060SOL    HW238643   0.970   0.747   3.182  0.0197  0.5632 -0.0878
 9061SOL     OW38644   1.395   3.579   5.113 -0.2622 -0.0697  0.6667
 9061SOL    HW138645   1.431   3.520   5.047  0.0046  1.3940 -0.4888
 9061SOL    HW238646   1.470   3.609   5.164  1.3214 -0.0947 -1.7027
 9062SOL     OW38647   3.502   0.648   2.579  0.1652  0.2078 -0.3405
 9062SOL    HW138648   3.585   0.600   2.574  0.5545  0.9698 -1.1330
 9062SOL    HW238649   3.459   0.598   2.510  0.9619 -1.3475  0.2664
 9063SOL     OW38650   1.329   2.044   6.489  0.2718  0.0319 -0.2642
 9063SOL    HW138651   1.235   2.061   6.483  0.3855  0.5907 -0.4948
 9063SOL    HW238652   1.371   2.129   6.472  2.0135 -0.6160  0.7589
 9064SOL     OW38653   2.321   3.571   9.795 -0.0637 -0.1951 -0.2105
 9064SOL    HW138654   2.276   3.591   9.877  1.9948 -0.6322  1.0352
 9064SOL    HW238655   2.320   3.658   9.756  3.4227 -0.7536 -1.5827
 9065SOL     OW38656   4.174   2.320   6.728 -0.2269 -0.0528 -0.2114
 9065SOL    HW138657   4.082   2.347   6.729 -0.0242  0.6191  0.7282
 9065SOL    HW238658   4.173   2.236   6.683  1.7058 -0.0038 -0.3775
 9066SOL     OW38659   3.866   3.190   3.069 -0.1226  0.2839 -0.3065
 9066SOL    HW138660   3.817   3.139   3.005  1.8636 -1.0646 -0.7643
 9066SOL    HW238661   3.920   3.237   3.006  2.2911 -1.6791  0.2587
 9067SOL     OW38662   1.293   2.060   4.819 -0.1293 -0.3060  0.0179
 9067SOL    HW138663   1.352   2.132   4.841  0.8007 -0.7549 -0.9479
 9067SOL    HW238664   1.273   2.012   4.899 -2.0624 -0.2135 -0.4215
 9068SOL     OW38665   2.925   0.255   0.727 -0.6448  0.1347  0.0001
 9068SOL    HW138666   2.917   0.296   0.641  0.0454 -0.2840 -0.2699
 9068SOL    HW238667   2.834   0.252   0.755 -0.4552 -0.8008  0.5327
 9069SOL     OW38668   4.246   0.191   6.584 -0.2863 -0.8068  0.0090
 9069SOL    HW138669   4.301   0.266   6.561 -1.6812  1.6344  4.6210
 9069SOL    HW238670   4.164   0.228   6.552 -0.9326 -1.5480  0.8238
 9070SOL     OW38671   2.847   4.072  12.870 -0.5748 -0.5534 -0.3904
 9070SOL    HW138672   2.926   4.083  12.922 -1.4916  2.4062  0.3286
 9070SOL    HW238673   2.783   4.125  12.917  0.5382 -0.0174  0.5051
 9071SOL     OW38674   0.076   3.584  11.540 -1.1420  0.0506  0.3495
 9071SOL    HW138675   0.130   3.563  11.464 -3.0545  1.2775 -1.3509
 9071SOL    HW238676   0.048   3.496  11.566  1.4464 -0.6467  0.7778
 9072SOL     OW38677   3.475   0.712  14.130  0.1482 -0.3329 -0.0094
 9072SOL    HW138678   3.555   0.741  14.085 -0.7593  0.7911 -0.8643
 9072SOL    HW238679   3.449   0.659  14.054 -0.5128  1.8867 -1.3112
 9073SOL     OW38680   1.642   4.475   6.785  0.0431 -0.1490 -0.6330
 9073SOL    HW138681   1.650   4.434   6.698  2.3040 -0.0023 -0.4977
 9073SOL    HW238682   1.711   4.425   6.829 -1.3388 -1.9259 -0.4797
 9074SOL     OW38683   4.606   3.378   7.996 -0.3056  0.0412  0.1053
 9074SOL    HW138684   4.644   3.309   8.051  2.4864  1.7377  0.2876
 9074SOL    HW238685   4.564   3.436   8.059  1.6493  1.7976 -0.2203
 9075SOL     OW38686   2.196   2.212   3.221  0.2165  0.5298  0.1365
 9075SOL    HW138687   2.146   2.209   3.139  0.4777  1.4980 -0.0596
 9075SOL    HW238688   2.120   2.206   3.280 -0.6449 -1.4375 -1.1837
 9076SOL     OW38689   3.439   2.855  13.592  0.2498 -0.0397  0.3359
 9076SOL    HW138690   3.373   2.810  13.644  0.3545 -1.1055 -0.4437
 9076SOL    HW238691   3.517   2.848  13.647  0.3908 -1.0303  0.0031
 9077SOL     OW38692   3.134   3.568   2.212 -0.3313  0.4864 -0.3036
 9077SOL    HW138693   3.132   3.548   2.119  1.0640 -0.3203 -0.1513
 9077SOL    HW238694   3.126   3.482   2.252  3.1955 -0.8081 -2.4302
 9078SOL     OW38695   0.266   0.149   3.335 -0.8981  0.4493 -0.0925
 9078SOL    HW138696   0.205   0.108   3.275  0.3957  0.8866 -1.7054
 9078SOL    HW238697   0.290   0.231   3.291  1.7043 -0.9900 -1.3610
 9079SOL     OW38698   1.659   2.848   1.133 -0.0893 -0.6296 -0.0548
 9079SOL    HW138699   1.570   2.833   1.101  0.3719 -0.1051 -1.5793
 9079SOL    HW238700   1.635   2.861   1.225 -3.6961 -3.2332 -0.6050
 9080SOL     OW38701   1.471   2.287   6.927 -0.4677  0.0595  0.5105
 9080SOL    HW138702   1.540   2.312   6.988 -0.0604  1.8024 -0.6648
 9080SOL    HW238703   1.410   2.257   6.994 -2.3961  0.0385 -1.2412
 9081SOL     OW38704   3.111   1.399   3.629  0.1442  0.6811  0.3206
 9081SOL    HW138705   3.141   1.489   3.643  0.4708  0.3905  1.4234
 9081SOL    HW238706   3.176   1.347   3.675 -0.6767 -0.3109  0.3511
 9082SOL     OW38707   3.840   3.400  15.943  0.5449 -0.6495 -0.2557
 9082SOL    HW138708   3.923   3.397  15.991 -0.8719  2.1406  2.4134
 9082SOL    HW238709   3.795   3.324  15.980 -2.2365  0.8892 -0.5168
 9083SOL     OW38710   3.239   2.870   6.718  0.5223  0.3130 -0.4433
 9083SOL    HW138711   3.144   2.875   6.708  0.6058  1.5678 -0.6467
 9083SOL    HW238712   3.255   2.878   6.812 -0.9367 -0.1727 -0.1446
 9084SOL     OW38713   4.284   1.056   8.702  0.2368  0.0764 -0.0205
 9084SOL    HW138714   4.321   1.068   8.790  0.6703 -1.0017 -0.0586
 9084SOL    HW238715   4.359   1.071   8.645 -0.0458 -0.4231 -0.5219
 9085SOL     OW38716   0.588   3.554   8.108  0.6192 -0.2804  0.3027
 9085SOL    HW138717   0.550   3.593   8.187 -0.4674 -0.0138 -0.3413
 9085SOL    HW238718   0.670   3.603   8.102  0.0445  0.4717 -1.4337
 9086SOL     OW38719   2.100   0.256   5.680  0.3433  0.1744  0.0165
 9086SOL    HW138720   2.011   0.265   5.648  0.1794  0.0736  0.4354
 9086SOL    HW238721   2.093   0.168   5.718 -2.2270 -0.1340 -1.2358
 9087SOL     OW38722   0.397   2.529   1.732  0.3752 -0.1202 -0.0115
 9087SOL    HW138723   0.461   2.548   1.663  0.1164 -1.2989 -0.5881
 9087SOL    HW238724   0.374   2.442   1.700 -0.5008  0.1414 -0.0747
 9088SOL     OW38725   2.530   2.178   5.114 -0.7445 -0.2999 -0.3490
 9088SOL    HW138726   2.594   2.201   5.046  1.0392 -1.0954  1.0897
 9088SOL    HW238727   2.569   2.101   5.155  3.0946  1.9372  0.2028
 9089SOL     OW38728   2.279   3.895   6.270 -0.3424 -0.2534 -0.2541
 9089SOL    HW138729   2.192   3.858   6.256  0.1784 -1.9569  0.9509
 9089SOL    HW238730   2.319   3.812   6.296  0.5508  0.9273  2.1345
 9090SOL     OW38731   2.392   4.016  13.334 -0.1118  0.1847 -0.2801
 9090SOL    HW138732   2.416   4.090  13.390 -0.0740  0.8093 -1.1300
 9090SOL    HW238733   2.451   3.945  13.362  0.3921  0.2555 -1.1761
 9091SOL     OW38734   0.274   3.465   2.952  0.1208 -0.2350  0.0332
 9091SOL    HW138735   0.192   3.427   2.985  1.0689 -2.7018 -0.4465
 9091SOL    HW238736   0.325   3.388   2.926 -1.2707 -0.7338 -1.2152
 9092SOL     OW38737   0.138   0.513  16.615  0.1594 -0.3686 -0.0341
 9092SOL    HW138738   0.105   0.509  16.705  1.3903 -2.7698  0.3096
 9092SOL    HW238739   0.093   0.595  16.594 -0.7888 -0.7228  0.6149
 9093SOL     OW38740   1.728   4.269   5.800 -0.2489 -0.1566  0.9534
 9093SOL    HW138741   1.813   4.258   5.844  0.3148 -0.0341 -0.1033
 9093SOL    HW238742   1.716   4.187   5.753 -1.0470  0.2268  0.4993
 9094SOL     OW38743   0.641   4.111  10.512  0.0021 -0.0925  0.2149
 9094SOL    HW138744   0.696   4.188  10.521  0.5058 -0.1902 -2.1474
 9094SOL    HW238745   0.680   4.077  10.432  0.6260  1.4122 -0.1103
 9095SOL     OW38746   0.307   1.562   4.942  0.0647  0.4738  0.2845
 9095SOL    HW138747   0.243   1.529   5.006 -0.4911 -1.5782 -1.3347
 9095SOL    HW238748   0.290   1.656   4.941  0.6310  0.6028  1.9617
 9096SOL     OW38749   2.290   4.072   6.482  0.0511  0.0978  0.4436
 9096SOL    HW138750   2.200   4.098   6.466  0.4516 -0.2461 -2.4242
 9096SOL    HW238751   2.304   4.010   6.410 -3.7446 -2.2610  1.8074
 9097SOL     OW38752   4.214   2.821  16.131  0.3548  0.0443  0.2069
 9097SOL    HW138753   4.194   2.745  16.186  1.2884 -1.4453 -1.5192
 9097SOL    HW238754   4.249   2.782  16.051  0.9235 -1.5256  1.2142
 9098SOL     OW38755   2.102   4.111   4.127  0.2301  0.4678  0.1457
 9098SOL    HW138756   2.097   4.018   4.104 -1.2846  0.9602 -1.4792
 9098SOL    HW238757   2.095   4.116   4.223 -0.2727  0.1113  0.1299
 9099SOL     OW38758   4.602   0.946   7.695  0.2607  0.0137  0.1709
 9099SOL    HW138759   4.593   0.935   7.790 -3.0185  0.5882 -0.0681
 9099SOL    HW238760   4.548   1.024   7.687  0.2331 -0.0933 -0.6102
 9100SOL     OW38761   1.257   2.776  12.140  0.2774 -0.1509 -0.3452
 9100SOL    HW138762   1.308   2.730  12.073  1.2160 -1.8267  1.5092
 9100SOL    HW238763   1.173   2.792  12.097  1.5641 -1.1767 -3.2607
 9101SOL     OW38764   0.532   1.793   7.569 -0.4373 -0.6351  0.0242
 9101SOL    HW138765   0.585   1.715   7.581  0.3056  0.0246  1.0412
 9101SOL    HW238766   0.560   1.834   7.487 -0.1565 -2.1477 -0.6256
 9102SOL     OW38767   0.640   1.391   4.800 -0.4819 -0.2242 -0.1805
 9102SOL    HW138768   0.655   1.372   4.707  0.6012  1.5818 -0.3616
 9102SOL    HW238769   0.728   1.365   4.827  0.4001  2.7561 -0.1728
 9103SOL     OW38770   4.111   1.068  16.187 -0.3160  0.8607 -0.2696
 9103SOL    HW138771   4.110   1.151  16.236 -0.8306  1.6144 -1.5574
 9103SOL    HW238772   4.030   1.085  16.139  0.8686  0.4711 -2.3643
 9104SOL     OW38773   3.465   4.492  17.147 -0.0700 -0.2175 -0.3969
 9104SOL    HW138774   3.407   4.458  17.079  2.0753 -0.8682 -1.9305
 9104SOL    HW238775   3.423   4.577  17.153  2.0948  0.7202  1.3871
 9105SOL     OW38776   4.427   4.510   7.793  0.0213  0.3380  0.3612
 9105SOL    HW138777   4.487   4.573   7.753 -0.3458  1.3247  1.3558
 9105SOL    HW238778   4.402   4.564   7.869  0.3931 -0.3671  0.9824
 9106SOL     OW38779   2.509   0.373   7.024 -0.1388 -0.1420  0.3049
 9106SOL    HW138780   2.490   0.286   7.060 -1.3590 -0.8380 -2.0449
 9106SOL    HW238781   2.424   0.416   7.040 -1.3856 -1.8519 -1.7505
 9107SOL     OW38782   2.251   2.608   1.013  0.2295  0.3387 -0.4249
 9107SOL    HW138783   2.290   2.533   0.969  1.3586  0.7478 -0.1080
 9107SOL    HW238784   2.265   2.582   1.104  0.6987 -3.3095 -1.5366
 9108SOL     OW38785   3.364   3.628  11.245  0.5958 -0.4327  0.3436
 9108SOL    HW138786   3.344   3.567  11.174  1.6881  0.4978 -0.7719
 9108SOL    HW238787   3.453   3.599  11.265  1.9031  0.6630 -3.9903
 9109SOL     OW38788   3.799   3.335   8.642 -0.6940  0.4063 -0.0545
 9109SOL    HW138789   3.828   3.421   8.674  0.9068 -1.1149  2.5708
 9109SOL    HW238790   3.801   3.290   8.726 -1.8950  1.5342  0.5787
 9110SOL     OW38791   2.507   0.824  15.248 -0.3867 -0.1061  0.0272
 9110SOL    HW138792   2.545   0.755  15.193  1.4770  0.1644  0.9598
 9110SOL    HW238793   2.490   0.761  15.318  1.7569  0.0054  0.6752
 9111SOL     OW38794   0.546   1.731   8.783 -0.9198  0.0936 -0.1021
 9111SOL    HW138795   0.615   1.729   8.716 -0.0108 -2.9808  0.9329
 9111SOL    HW238796   0.580   1.665   8.843  1.5885  1.0815 -0.4601
 9112SOL     OW38797   0.998   0.300   2.335  0.1900 -0.3100  0.1840
 9112SOL    HW138798   1.021   0.376   2.282 -0.7906 -0.9496 -1.1659
 9112SOL    HW238799   1.071   0.243   2.311 -0.6503 -0.3338 -2.2639
 9113SOL     OW38800   1.461   2.712   6.343 -0.5258  0.7333 -0.4596
 9113SOL    HW138801   1.395   2.781   6.345  1.0685  2.2205  1.0829
 9113SOL    HW238802   1.469   2.700   6.438 -4.9354 -0.6594 -0.2875
 9114SOL     OW38803   0.173   0.832   7.379 -0.0080 -0.2550 -0.5081
 9114SOL    HW138804   0.165   0.917   7.422  0.1698  1.3066 -3.5939
 9114SOL    HW238805   0.082   0.803   7.386  0.7811 -2.5318  0.2960
 9115SOL     OW38806   3.125   4.277   7.096 -0.3271 -0.4837 -0.1665
 9115SOL    HW138807   3.197   4.307   7.040 -0.7846  0.7798 -0.0861
 9115SOL    HW238808   3.129   4.353   7.155 -0.4871  0.0033 -0.7830
 9116SOL     OW38809   0.631   1.330  10.568  0.2219 -0.5781 -0.1852
 9116SOL    HW138810   0.573   1.263  10.533  0.8011 -2.4731  2.4723
 9116SOL    HW238811   0.714   1.297  10.533 -1.1432 -0.2767 -3.6792
 9117SOL     OW38812   4.353   1.066   0.559 -0.0320 -0.7863  0.0768
 9117SOL    HW138813   4.293   1.061   0.484  1.1091 -0.7367 -0.8589
 9117SOL    HW238814   4.386   0.976   0.566  1.8466  0.0126  1.3832
 9118SOL     OW38815   2.178   4.182   6.094  0.3976  0.2748  0.1907
 9118SOL    HW138816   2.245   4.114   6.092 -1.4591 -1.5226 -0.8677
 9118SOL    HW238817   2.192   4.216   6.182 -1.1689 -1.4854  1.1183
 9119SOL     OW38818   4.122   2.358   5.895 -0.4155 -0.1662 -0.0564
 9119SOL    HW138819   4.174   2.353   5.814  0.6337 -2.6610  0.7792
 9119SOL    HW238820   4.131   2.274   5.940 -2.0738  0.1770  0.8983
 9120SOL     OW38821   3.443   0.915   2.595  0.0527  0.8583 -0.2902
 9120SOL    HW138822   3.443   0.820   2.600 -0.3106  0.7094 -3.5151
 9120SOL    HW238823   3.376   0.936   2.660  0.6873  1.1685  0.2731
 9121SOL     OW38824   4.214   3.874   9.106  0.8595 -0.2493 -0.2429
 9121SOL    HW138825   4.288   3.885   9.165  0.5817  1.0791 -0.1488
 9121SOL    HW238826   4.145   3.923   9.152  0.2498 -3.9058  2.7842
 9122SOL     OW38827   2.792   2.287   8.888  0.3778 -1.1305 -0.1368
 9122SOL    HW138828   2.726   2.260   8.951 -0.4182  1.0366 -0.0337
 9122SOL    HW238829   2.861   2.226   8.913  0.3108 -0.6680  1.2121
 9123SOL     OW38830   1.174   2.553   0.060  0.2469 -0.0934 -0.7923
 9123SOL    HW138831   1.232   2.595   0.124  0.2238 -0.3499 -0.6047
 9123SOL    HW238832   1.087   2.578   0.091  0.7503 -0.2310  0.7252
 9124SOL     OW38833   1.044   1.907   5.850  0.0156 -0.2670 -0.3834
 9124SOL    HW138834   1.033   1.959   5.929 -0.0117 -0.4750 -0.2490
 9124SOL    HW238835   1.062   1.818   5.882 -2.0950 -0.6684 -0.3254
 9125SOL     OW38836   4.426   4.090   8.788 -0.4036  0.2775 -0.4015
 9125SOL    HW138837   4.451   4.160   8.728  2.1166 -1.4030 -1.3464
 9125SOL    HW238838   4.442   4.134   8.871 -2.8277 -2.0725  1.3104
 9126SOL     OW38839   0.646   2.792  11.753 -0.2420  0.4154  0.0455
 9126SOL    HW138840   0.619   2.870  11.801  1.5202  1.1378 -0.1176
 9126SOL    HW238841   0.627   2.830  11.667 -0.3459  1.3740  0.4915
 9127SOL     OW38842   3.395   3.678   2.267  0.2798 -0.1327  0.3047
 9127SOL    HW138843   3.299   3.674   2.264  0.1602  3.9816 -2.2042
 9127SOL    HW238844   3.407   3.612   2.335 -0.7845 -0.6678 -0.0227
 9128SOL     OW38845   2.080   1.762   8.599  1.1454 -0.7212  0.1278
 9128SOL    HW138846   2.082   1.732   8.690  0.7025 -1.5249 -0.1238
 9128SOL    HW238847   2.010   1.711   8.557  2.1237 -2.7605  0.9786
 9129SOL     OW38848   0.715   2.133   9.401  0.1046 -0.0911 -0.3504
 9129SOL    HW138849   0.643   2.157   9.459  0.0071  0.3140 -0.6443
 9129SOL    HW238850   0.687   2.060   9.346 -0.6308 -0.1600  0.1202
 9130SOL     OW38851   1.195   3.397   4.902  0.7902 -0.3080  0.1300
 9130SOL    HW138852   1.109   3.431   4.877  1.7872  0.8785 -1.6660
 9130SOL    HW238853   1.252   3.471   4.919  1.7909 -0.6616 -1.8089
 9131SOL     OW38854   4.650   3.781   8.067  0.1314  0.2362 -0.1842
 9131SOL    HW138855   4.555   3.780   8.080  0.2642  2.1713  0.8898
 9131SOL    HW238856   4.668   3.687   8.070 -0.7547  0.0602 -0.1945
 9132SOL     OW38857   2.551   2.832   2.953 -0.5050 -0.5908 -0.2023
 9132SOL    HW138858   2.613   2.762   2.975 -1.8343 -1.7146 -0.0026
 9132SOL    HW238859   2.595   2.901   3.004  0.9939  0.5858 -3.0807
 9133SOL     OW38860   4.077   4.018  14.196 -0.3426 -0.1956 -0.4888
 9133SOL    HW138861   4.138   4.056  14.133 -0.4132  0.4510 -0.1681
 9133SOL    HW238862   4.043   3.941  14.151 -0.3309 -1.1048  1.0563
 9134SOL     OW38863   4.660   1.227  15.963 -0.1737  0.4073 -0.4969
 9134SOL    HW138864   4.598   1.235  15.890  0.1667 -0.8021 -0.9164
 9134SOL    HW238865   4.598   1.231  16.036  0.3000 -2.2338  0.0587
 9135SOL     OW38866   0.415   3.920   6.249 -0.2149  0.0011  0.0949
 9135SOL    HW138867   0.381   4.006   6.225  1.3164  0.5144 -0.1661
 9135SOL    HW238868   0.505   3.942   6.269 -0.3593  0.1642  0.5632
 9136SOL     OW38869   4.093   3.721  11.920 -0.2537 -0.0354  0.2408
 9136SOL    HW138870   4.154   3.772  11.972 -2.0361 -0.9463  3.2173
 9136SOL    HW238871   4.078   3.783  11.849 -0.8118 -2.0451 -1.4132
 9137SOL     OW38872   3.532   3.172   2.942  0.6977 -0.0969  0.2947
 9137SOL    HW138873   3.599   3.108   2.922 -1.6422 -2.6788  0.6775
 9137SOL    HW238874   3.499   3.180   2.853 -0.1079 -0.6900  0.5326
 9138SOL     OW38875   0.305   3.579  10.032  0.4258 -0.8739 -0.4731
 9138SOL    HW138876   0.290   3.636  10.108  1.4512 -2.4296  0.8953
 9138SOL    HW238877   0.398   3.596  10.016  0.2432 -0.3734 -0.9935
 9139SOL     OW38878   2.277   0.560   6.185 -0.1899  0.7029 -0.1819
 9139SOL    HW138879   2.262   0.581   6.093 -1.4519 -1.1970 -0.3999
 9139SOL    HW238880   2.190   0.583   6.219  0.5412  1.7246  1.0021
 9140SOL     OW38881   3.634   3.583   7.795  0.5036 -0.2411 -0.2510
 9140SOL    HW138882   3.637   3.491   7.818 -1.0961  0.0357  1.0491
 9140SOL    HW238883   3.563   3.589   7.732  0.5500  1.3694 -0.1730
 9141SOL     OW38884   0.158   0.970   5.281 -0.1256 -0.0864  0.3709
 9141SOL    HW138885   0.069   0.940   5.300 -0.6162  0.5430 -0.9465
 9141SOL    HW238886   0.157   0.976   5.186  0.4749 -0.7001  0.3317
 9142SOL     OW38887   2.131   2.253   1.807 -0.0786 -0.5572 -0.2346
 9142SOL    HW138888   2.143   2.197   1.730  1.6284 -0.7002  0.1338
 9142SOL    HW238889   2.146   2.335   1.760 -0.1920 -1.2348 -1.4740
 9143SOL     OW38890   1.303   0.231  11.888 -0.0426  0.3774 -0.0664
 9143SOL    HW138891   1.270   0.185  11.965  4.1126 -0.2404  1.3461
 9143SOL    HW238892   1.288   0.167  11.819 -0.8241  0.3064  0.1705
 9144SOL     OW38893   3.818   1.999   1.546  0.2840 -0.4119  0.0373
 9144SOL    HW138894   3.794   1.907   1.543 -2.6018  0.2949  0.5556
 9144SOL    HW238895   3.821   2.026   1.454 -0.9094 -0.5964 -0.0625
 9145SOL     OW38896   0.642   2.593   7.259  0.5269  0.1620 -0.2867
 9145SOL    HW138897   0.572   2.538   7.223  1.9824 -2.6367  1.0756
 9145SOL    HW238898   0.602   2.678   7.245 -1.2493 -0.5489  0.4452
 9146SOL     OW38899   4.411   3.937   7.165 -0.1219 -0.1451  0.4827
 9146SOL    HW138900   4.492   3.894   7.139 -0.6614  0.5484 -2.3886
 9146SOL    HW238901   4.354   3.864   7.187  0.3370 -0.4767  0.5749
 9147SOL     OW38902   4.212   3.995  14.644 -0.2036  0.3677  0.1528
 9147SOL    HW138903   4.261   4.062  14.693  0.5067  0.4518 -0.6634
 9147SOL    HW238904   4.122   4.024  14.654  0.0432  0.9051  0.8148
 9148SOL     OW38905   1.584   1.285  14.155  0.2858 -0.0657 -0.1572
 9148SOL    HW138906   1.620   1.307  14.241 -1.8175  0.3160  0.6457
 9148SOL    HW238907   1.498   1.327  14.161  0.0609 -0.5976  0.3025
 9149SOL     OW38908   1.082   4.069   0.069  0.5024  0.4044 -0.1256
 9149SOL    HW138909   1.070   3.977   0.092 -3.0192  1.3412  1.8276
 9149SOL    HW238910   0.992   4.083   0.039  0.0594  1.2921  1.6037
 9150SOL     OW38911   1.826   0.493   2.075 -0.0841 -0.7493  0.3252
 9150SOL    HW138912   1.864   0.436   2.008 -0.5854 -0.1573 -0.4569
 9150SOL    HW238913   1.734   0.465   2.079 -0.6450  0.9179 -1.0506
 9151SOL     OW38914   2.332   0.885   2.397  0.6125 -0.0910 -0.2643
 9151SOL    HW138915   2.301   0.975   2.384 -1.1001 -0.7658 -0.9276
 9151SOL    HW238916   2.252   0.833   2.394  0.8329 -0.4428 -0.0137
 9152SOL     OW38917   0.314   4.622   3.437  0.2235 -0.0498 -0.5056
 9152SOL    HW138918   0.361   4.568   3.372 -0.0493 -1.6829  0.6407
 9152SOL    HW238919   0.299   4.708   3.399  0.6606 -0.9821 -2.8211
 9153SOL     OW38920   3.153   4.463   5.250  0.3396 -0.0826  0.0012
 9153SOL    HW138921   3.103   4.491   5.327 -1.7656  0.9401 -1.7218
 9153SOL    HW238922   3.204   4.541   5.229 -0.7185  0.6441  0.0855
 9154SOL     OW38923   2.570   1.318   4.929  0.2349  0.3598  0.2086
 9154SOL    HW138924   2.588   1.340   5.021 -0.5502 -1.4003  0.7903
 9154SOL    HW238925   2.489   1.360   4.900 -1.0089 -2.8319 -0.9239
 9155SOL     OW38926   2.532   3.331  13.565  0.0092 -0.4359 -0.2331
 9155SOL    HW138927   2.547   3.407  13.621  3.6731 -0.9903 -0.4430
 9155SOL    HW238928   2.612   3.345  13.513  0.5364 -0.3570  0.5888
 9156SOL     OW38929   0.203   2.168   2.921 -0.0834  0.1354 -0.0980
 9156SOL    HW138930   0.216   2.128   2.834 -1.8696 -0.3874 -0.1421
 9156SOL    HW238931   0.292   2.164   2.955 -0.0578  0.1951 -0.1588
 9157SOL     OW38932   0.126   0.920   5.692  0.3569  0.4614 -0.1176
 9157SOL    HW138933   0.050   0.939   5.638  0.1501 -0.8259 -0.3002
 9157SOL    HW238934   0.158   0.842   5.646  1.1301  0.3565  0.6011
 9158SOL     OW38935   3.808   0.384   1.262  0.0198  0.3495  0.0920
 9158SOL    HW138936   3.730   0.438   1.277  0.4924  1.0721 -0.0256
 9158SOL    HW238937   3.843   0.394   1.173  0.0963 -1.9655 -0.1323
 9159SOL     OW38938   1.456   0.325  11.584  0.0472  0.3060 -0.7300
 9159SOL    HW138939   1.393   0.369  11.527  0.6114  1.5985 -0.3304
 9159SOL    HW238940   1.397   0.258  11.620  2.1346 -0.6902  0.8239
 9160SOL     OW38941   2.957   3.597   5.904 -0.2616  0.6037 -0.2710
 9160SOL    HW138942   2.970   3.511   5.943 -2.5334 -0.5119 -1.9852
 9160SOL    HW238943   3.032   3.651   5.928  0.7423 -0.2029 -1.6182
 9161SOL     OW38944   1.781   0.267   8.100  0.2115  0.1693  0.2083
 9161SOL    HW138945   1.702   0.294   8.146 -0.7377 -0.8844 -0.8297
 9161SOL    HW238946   1.773   0.172   8.104  0.2756  0.1296 -0.5349
 9162SOL     OW38947   4.236   2.599   2.553  0.3961 -0.5856 -0.1368
 9162SOL    HW138948   4.184   2.647   2.617  0.1913  1.0586 -1.5464
 9162SOL    HW238949   4.182   2.607   2.474  2.4743  2.8069 -1.1884
 9163SOL     OW38950   0.640   2.845   6.055 -0.0443  0.1637 -0.0449
 9163SOL    HW138951   0.571   2.888   6.105  1.9278 -1.1301  3.7288
 9163SOL    HW238952   0.702   2.845   6.128 -0.8183  3.3584  0.6199
 9164SOL     OW38953   2.179   3.886   1.457  0.1959  0.2195 -0.0188
 9164SOL    HW138954   2.231   3.966   1.459 -1.8563  1.6089 -1.8346
 9164SOL    HW238955   2.233   3.812   1.486  0.4817  0.3312 -0.2699
 9165SOL     OW38956   3.305   3.878   4.843  0.1950 -0.2920  0.0243
 9165SOL    HW138957   3.389   3.832   4.842  0.4458  0.1553  0.8669
 9165SOL    HW238958   3.297   3.909   4.933 -0.4522 -1.4966  0.3835
 9166SOL     OW38959   3.851   2.311  12.940  0.4567 -0.4367  0.6528
 9166SOL    HW138960   3.900   2.296  13.020  1.7075  2.5037  0.4460
 9166SOL    HW238961   3.804   2.228  12.938 -1.9471  0.9765 -2.6641
 9167SOL     OW38962   0.486   2.204  12.977 -0.1066  0.5961  0.1989
 9167SOL    HW138963   0.557   2.181  12.917 -0.8888 -2.0192  0.2788
 9167SOL    HW238964   0.432   2.255  12.916  1.2592 -2.4771 -3.6354
 9168SOL     OW38965   1.619   0.239   3.248 -0.1409  0.4827 -0.0899
 9168SOL    HW138966   1.636   0.174   3.317 -2.6717 -0.9061 -0.7746
 9168SOL    HW238967   1.542   0.285   3.283 -1.8932 -0.9844 -2.0005
 9169SOL     OW38968   3.426   2.388   3.930  0.5229  0.5781  0.5118
 9169SOL    HW138969   3.467   2.319   3.879  2.6467  0.1517  2.8218
 9169SOL    HW238970   3.338   2.362   3.902  0.2491  0.3567  1.5740
 9170SOL     OW38971   1.342   3.715   6.169  0.5590  0.1374  0.6380
 9170SOL    HW138972   1.344   3.699   6.075  1.5420 -0.0679  0.6974
 9170SOL    HW238973   1.418   3.771   6.180  0.7691  0.0104 -0.2130
 9171SOL     OW38974   4.172   1.396  12.224  0.6363 -0.1283 -0.0127
 9171SOL    HW138975   4.233   1.330  12.191  0.0326 -1.3915  1.4013
 9171SOL    HW238976   4.198   1.472  12.171  0.5865  0.5216  0.8963
 9172SOL     OW38977   3.394   4.073   5.689  0.2327 -0.1512 -0.0684
 9172SOL    HW138978   3.397   4.151   5.634 -1.6313 -0.8837 -1.1997
 9172SOL    HW238979   3.333   4.024   5.634  1.5710 -2.2717  0.3405
 9173SOL     OW38980   0.218   4.532  11.375 -0.3914  0.7749 -0.3201
 9173SOL    HW138981   0.276   4.575  11.312  2.0124 -0.7659  0.8125
 9173SOL    HW238982   0.163   4.483  11.314  0.6430 -1.9196  0.9182
 9174SOL     OW38983   1.884   4.460   2.899 -0.2934  0.0213 -0.3822
 9174SOL    HW138984   1.930   4.395   2.846  1.3706  1.2093 -0.4137
 9174SOL    HW238985   1.915   4.540   2.855  0.1029  0.8234  1.3575
 9175SOL     OW38986   1.550   2.600  12.013 -0.7866 -0.2722 -0.2875
 9175SOL    HW138987   1.550   2.588  12.108 -0.6687  1.5361 -0.0621
 9175SOL    HW238988   1.638   2.635  11.998 -0.4332 -1.2353 -0.5370
 9176SOL     OW38989   1.664   3.056  11.328  0.1349 -0.1379  0.4575
 9176SOL    HW138990   1.678   3.139  11.281 -3.4940  0.5800  0.6234
 9176SOL    HW238991   1.717   3.072  11.405  1.6471  0.5253 -0.7204
 9177SOL     OW38992   3.282   3.734   2.666  0.2500  0.8146 -0.2996
 9177SOL    HW138993   3.359   3.743   2.723  0.9429  2.9243 -1.5796
 9177SOL    HW238994   3.270   3.639   2.671  0.9897  0.7128 -0.4637
 9178SOL     OW38995   0.001   0.372   5.651  0.2280  0.1340  0.2520
 9178SOL    HW138996   0.079   0.359   5.705  1.0897 -2.4651 -1.6037
 9178SOL    HW238997   4.701   0.292   5.603 -1.0311  1.3863 -1.2521
 9179SOL     OW38998   3.040   4.082   8.307 -0.0900  0.0996  0.0834
 9179SOL    HW138999   3.008   3.992   8.318 -0.3296 -0.1102 -2.3125
 9179SOL    HW239000   3.132   4.059   8.291 -0.1406 -0.2454  0.2897
 9180SOL     OW39001   1.974   3.959  14.965  0.0567 -0.0051  0.3027
 9180SOL    HW139002   1.911   3.887  14.958  1.2222 -0.9846 -0.0432
 9180SOL    HW239003   1.912   4.027  14.990 -0.2129 -1.1162  2.6431
 9181SOL     OW39004   3.460   1.360  12.986 -0.0446 -0.1276 -0.2629
 9181SOL    HW139005   3.383   1.356  12.929 -0.6126  0.4198  0.4638
 9181SOL    HW239006   3.482   1.267  12.985 -0.1165 -0.1410 -1.3355
 9182SOL     OW39007   3.725   0.762  13.953  0.0231  0.1647 -0.4099
 9182SOL    HW139008   3.775   0.741  13.875 -1.7468  1.3937 -1.8924
 9182SOL    HW239009   3.742   0.680  13.998  0.5376 -0.1502 -1.1943
 9183SOL     OW39010   4.515   2.692   3.663  0.4929 -0.1881  0.8143
 9183SOL    HW139011   4.430   2.737   3.670  1.1382  1.3709 -1.5387
 9183SOL    HW239012   4.531   2.691   3.569  1.5794  0.8390  1.0064
 9184SOL     OW39013   3.889   1.013   5.510 -0.1980 -0.1041  0.4801
 9184SOL    HW139014   3.920   1.076   5.445  0.4674 -0.7073  0.2156
 9184SOL    HW239015   3.829   0.957   5.460  0.7431  0.8509 -1.7050
 9185SOL     OW39016   3.778   4.600   3.753 -0.0690 -0.1093 -0.0540
 9185SOL    HW139017   3.862   4.557   3.768  0.6583  0.6976 -1.7711
 9185SOL    HW239018   3.812   4.678   3.710  0.3983  0.8832  2.1095
 9186SOL     OW39019   1.060   2.714   2.927  0.4545 -0.2973  0.2355
 9186SOL    HW139020   0.972   2.681   2.943  0.8882 -0.6136  2.0234
 9186SOL    HW239021   1.106   2.694   3.009 -0.8534 -0.6531  0.8847
 9187SOL     OW39022   3.901   1.833   8.493 -0.7689 -0.2074 -0.7639
 9187SOL    HW139023   3.864   1.835   8.404 -3.3970  1.4435  0.3598
 9187SOL    HW239024   3.906   1.740   8.513 -0.3170  0.1997  0.9544
 9188SOL     OW39025   3.514   2.762   2.992  0.0233  0.0359 -0.5264
 9188SOL    HW139026   3.597   2.727   3.021  0.5057  0.6543 -1.1605
 9188SOL    HW239027   3.463   2.684   2.972 -1.8177  1.2095 -0.4903
 9189SOL     OW39028   0.829   0.203   8.381 -0.3985  0.4914 -0.5015
 9189SOL    HW139029   0.879   0.144   8.438  0.6207  0.1824 -1.6954
 9189SOL    HW239030   0.744   0.211   8.424 -0.6322 -1.9554 -0.4682
 9190SOL     OW39031   3.961   3.698   2.824  0.1758 -0.2322 -0.6694
 9190SOL    HW139032   3.889   3.710   2.761 -0.8252 -0.0926  0.5013
 9190SOL    HW239033   4.017   3.638   2.774 -2.1730 -0.0649 -3.5406
 9191SOL     OW39034   1.946   2.788   4.491  0.6000 -0.2707 -0.4843
 9191SOL    HW139035   1.945   2.884   4.500  1.2900 -0.2636 -0.4886
 9191SOL    HW239036   2.002   2.756   4.562 -0.8951  3.9467  2.6402
 9192SOL     OW39037   0.582   0.094   7.664 -0.1059 -0.3964 -0.2864
 9192SOL    HW139038   0.492   0.084   7.631 -0.3839 -0.0889  0.3694
 9192SOL    HW239039   0.613   0.159   7.602  0.0706 -1.6414 -1.5092
 9193SOL     OW39040   2.416   0.047  12.844  0.1400 -0.6123 -0.9696
 9193SOL    HW139041   2.447   0.051  12.935 -0.7190  0.1783 -0.7248
 9193SOL    HW239042   2.382   0.136  12.837  1.1282 -0.1749 -0.3458
 9194SOL     OW39043   3.608   0.630   8.819  0.0031  0.0087  0.4150
 9194SOL    HW139044   3.580   0.608   8.908  1.1505  0.9775  1.0082
 9194SOL    HW239045   3.700   0.608   8.834  0.0373 -0.9947 -1.2339
 9195SOL     OW39046   1.753   3.457   5.796 -0.7050  0.5839  0.8553
 9195SOL    HW139047   1.738   3.367   5.822 -0.7372  0.5675  0.7808
 9195SOL    HW239048   1.751   3.457   5.700  0.1325 -1.4005  0.8522
 9196SOL     OW39049   1.648   4.246   4.528  0.2514 -0.2018  0.2448
 9196SOL    HW139050   1.691   4.285   4.452 -0.1272  2.9958  1.6929
 9196SOL    HW239051   1.609   4.323   4.568  2.6297  1.7109 -1.1017
 9197SOL     OW39052   1.847   0.415   4.548  0.1771  0.6249  0.1243
 9197SOL    HW139053   1.773   0.416   4.486 -1.5423 -1.8635  2.1096
 9197SOL    HW239054   1.784   0.403   4.619  0.1067 -1.1079 -0.2258
 9198SOL     OW39055   3.274   2.032   0.723  0.2397  0.3076 -0.1492
 9198SOL    HW139056   3.335   2.014   0.652 -1.0130 -1.8174 -0.6867
 9198SOL    HW239057   3.196   2.010   0.672  0.6443 -0.8357 -0.2775
 9199SOL     OW39058   2.931   0.396  16.612  0.0903 -0.4397  0.1867
 9199SOL    HW139059   2.991   0.325  16.634  0.3449 -0.2895 -0.0277
 9199SOL    HW239060   2.991   0.470  16.626 -0.7139  0.3627 -0.5825
 9200SOL     OW39061   2.957   1.853   7.803  0.4772  0.6003  0.3969
 9200SOL    HW139062   3.001   1.901   7.873  0.9067  1.5752 -0.5510
 9200SOL    HW239063   2.868   1.879   7.829  0.7611  2.8821 -0.9422
 9201SOL     OW39064   2.736   0.742   8.449  0.5072 -0.1826 -0.0449
 9201SOL    HW139065   2.718   0.689   8.527  0.5843 -0.6969 -0.3716
 9201SOL    HW239066   2.803   0.800   8.484 -0.4551  0.1567  1.2067
 9202SOL     OW39067   4.258   0.251  16.849  0.3700  0.5909 -0.1857
 9202SOL    HW139068   4.237   0.253  16.755 -0.8853  0.8510  0.0934
 9202SOL    HW239069   4.349   0.279  16.843  0.9391 -0.9474  1.2458
 9203SOL     OW39070   1.747   3.415  13.934 -0.2157  0.2919  0.4588
 9203SOL    HW139071   1.662   3.447  13.904 -0.1619 -0.2953 -0.3212
 9203SOL    HW239072   1.802   3.467  13.875  0.8041 -0.2952  0.8932
 9204SOL     OW39073   3.778   4.457   8.756  0.1171  0.4328  0.2083
 9204SOL    HW139074   3.869   4.479   8.774  0.5959 -1.0212 -0.5082
 9204SOL    HW239075   3.788   4.388   8.691  0.4145  0.7010 -0.0282
 9205SOL     OW39076   4.087   2.091  15.879 -0.4516  0.1607  0.3012
 9205SOL    HW139077   4.086   2.182  15.851  0.9800 -0.3745 -1.4550
 9205SOL    HW239078   3.994   2.068  15.883  0.0809 -2.1786 -0.7292
 9206SOL     OW39079   0.573   2.329  17.427  0.2217  0.5581 -0.1217
 9206SOL    HW139080   0.523   2.275  17.365  1.4562  1.5506 -1.9727
 9206SOL    HW239081   0.503   2.329  17.492 -1.6479 -3.2364 -2.1203
 9207SOL     OW39082   1.688   2.262   4.704  0.3209 -0.3252  0.4217
 9207SOL    HW139083   1.614   2.234   4.757 -0.8621 -0.6733 -1.4372
 9207SOL    HW239084   1.730   2.183   4.669  0.3577 -0.0953 -0.0571
 9208SOL     OW39085   4.533   2.322   7.672  0.4375 -0.2657  0.5088
 9208SOL    HW139086   4.445   2.323   7.709  0.4124  4.5436  0.2506
 9208SOL    HW239087   4.558   2.414   7.674  0.6035 -0.3375  1.4553
 9209SOL     OW39088   0.344   3.036   4.203  0.2486 -0.2319  0.0168
 9209SOL    HW139089   0.253   3.046   4.173  0.4158  0.4051 -0.2867
 9209SOL    HW239090   0.349   2.943   4.224 -1.3886 -0.6878 -1.6174
 9210SOL     OW39091   1.710   0.247   2.688 -0.6656 -0.0634  0.0740
 9210SOL    HW139092   1.615   0.241   2.689 -0.6942  0.0233 -2.2700
 9210SOL    HW239093   1.727   0.302   2.765  2.0878 -0.9683  0.1280
 9211SOL     OW39094   0.531   1.036  14.041  0.6731 -0.2429 -0.6429
 9211SOL    HW139095   0.518   1.011  13.949  0.2574 -1.5255 -0.2307
 9211SOL    HW239096   0.562   0.956  14.083  0.6703 -0.0851 -0.3396
 9212SOL     OW39097   4.594   4.212   3.769  0.4697 -0.4711 -0.0942
 9212SOL    HW139098   4.584   4.295   3.722 -1.6846 -1.8979 -2.1693
 9212SOL    HW239099   4.634   4.159   3.700  3.1159  0.1688  0.9815
 9213SOL     OW39100   2.428   3.636   9.412 -0.0121  0.3067 -0.2232
 9213SOL    HW139101   2.493   3.704   9.393  0.5469  0.0810  0.8716
 9213SOL    HW239102   2.358   3.683   9.457 -1.0621 -2.1263  0.6753
 9214SOL     OW39103   3.860   1.119  16.076  0.2008 -0.2474 -0.4093
 9214SOL    HW139104   3.801   1.048  16.099 -1.4146  0.8284 -1.2474
 9214SOL    HW239105   3.801   1.188  16.108  2.6630  0.7148  2.1202
 9215SOL     OW39106   1.170   0.506   3.027 -0.3162 -0.2199  0.1097
 9215SOL    HW139107   1.172   0.592   3.068 -1.0376  0.3379 -1.0087
 9215SOL    HW239108   1.076   0.489   3.014  0.1605 -2.1963 -0.8562
 9216SOL     OW39109   4.186   0.516   1.297 -0.5431  0.1107  0.0515
 9216SOL    HW139110   4.278   0.541   1.289 -1.0631  1.7811 -0.6967
 9216SOL    HW239111   4.148   0.567   1.225 -2.8333 -1.1805  0.3572
 9217SOL     OW39112   2.666   3.320   5.423  0.2979  0.0404  0.0085
 9217SOL    HW139113   2.603   3.385   5.452  1.7618  1.4270  0.0856
 9217SOL    HW239114   2.707   3.291   5.504  0.1466 -1.4457 -0.4461
 9218SOL     OW39115   1.705   1.952  14.586  0.3011 -0.3854  0.1533
 9218SOL    HW139116   1.697   2.042  14.617  1.6075  0.2953 -1.4884
 9218SOL    HW239117   1.734   1.964  14.495 -1.1551  1.9252 -0.0134
 9219SOL     OW39118   4.510   4.433   9.724  0.4324 -0.6907 -0.4512
 9219SOL    HW139119   4.530   4.479   9.806  1.3733 -2.9631  0.5712
 9219SOL    HW239120   4.590   4.383   9.708  0.2471 -0.4500 -2.2224
 9220SOL     OW39121   1.094   3.717   6.308 -0.0711 -0.0429 -0.1238
 9220SOL    HW139122   1.093   3.689   6.400  1.3085 -1.4440 -0.5264
 9220SOL    HW239123   1.186   3.708   6.282  0.8268  0.7829  2.7412
 9221SOL     OW39124   1.075   4.402   2.409  0.1607  0.9679  0.5728
 9221SOL    HW139125   1.071   4.459   2.485 -0.0254  2.8482 -0.8470
 9221SOL    HW239126   0.990   4.360   2.398  1.2597 -1.6476  2.1559
 9222SOL     OW39127   1.396   2.519  15.155 -0.0979  0.6621  0.2639
 9222SOL    HW139128   1.430   2.556  15.073 -1.3740  2.1945  0.4413
 9222SOL    HW239129   1.448   2.562  15.222  1.4140 -0.6539 -0.0553
 9223SOL     OW39130   4.286   0.605   0.265 -0.1268 -0.1062  0.2364
 9223SOL    HW139131   4.231   0.632   0.191  0.9729  0.8090 -0.2533
 9223SOL    HW239132   4.216   0.584   0.326 -0.1117  1.9187  0.9376
 9224SOL     OW39133   1.476   1.082   5.218 -0.2390  0.1733  0.1740
 9224SOL    HW139134   1.489   1.137   5.141 -0.3183 -0.0364  0.0114
 9224SOL    HW239135   1.557   1.098   5.266 -0.4153 -1.3878  1.0005
 9225SOL     OW39136   3.480   4.175   3.881  0.1811  0.7321 -0.2152
 9225SOL    HW139137   3.527   4.246   3.837 -0.1980 -0.7267 -3.0094
 9225SOL    HW239138   3.390   4.205   3.871 -0.3194 -1.2811 -2.0286
 9226SOL     OW39139   1.655   0.891   3.082 -0.1653  0.3407 -0.0963
 9226SOL    HW139140   1.683   0.906   3.172 -0.9376 -1.5488  0.4383
 9226SOL    HW239141   1.729   0.931   3.036  2.2388 -0.7542  2.8459
 9227SOL     OW39142   0.916   1.259   5.006  0.0330  0.2142  0.3501
 9227SOL    HW139143   0.851   1.288   5.070  0.0656  1.1920 -0.0602
 9227SOL    HW239144   0.958   1.181   5.041  1.4386  1.4657  1.4095
 9228SOL     OW39145   0.398   1.932   5.140  0.2042  0.0280  0.2540
 9228SOL    HW139146   0.432   2.019   5.121  2.7052 -1.2748 -1.2377
 9228SOL    HW239147   0.375   1.901   5.052 -3.3024  1.0426  0.8277
 9229SOL     OW39148   2.059   4.079   3.686 -0.2117  0.5250 -0.2708
 9229SOL    HW139149   1.987   4.133   3.718  1.2070  1.2330  1.7172
 9229SOL    HW239150   2.133   4.121   3.730  0.2487 -0.1755 -0.3798
 9230SOL     OW39151   0.186   3.191  16.572 -0.0253  0.0313 -0.0777
 9230SOL    HW139152   0.133   3.113  16.586  0.0294 -0.2097 -1.1543
 9230SOL    HW239153   0.251   3.186  16.642  0.1978 -0.9249 -0.3575
 9231SOL     OW39154   2.238   3.767   5.991  0.3566 -0.9589 -0.3346
 9231SOL    HW139155   2.320   3.754   6.038  0.1954 -1.0837 -0.0877
 9231SOL    HW239156   2.184   3.701   6.034 -1.8597  0.4238 -0.9541
 9232SOL     OW39157   4.209   4.452   2.703  0.0634  0.6394  0.0934
 9232SOL    HW139158   4.205   4.358   2.687 -0.0933  0.7613 -0.6272
 9232SOL    HW239159   4.196   4.448   2.797  0.9083  0.4083  0.1983
 9233SOL     OW39160   4.385   3.717  12.029  0.9014 -0.2634  0.0244
 9233SOL    HW139161   4.475   3.750  12.031  1.0589 -0.7190  0.3927
 9233SOL    HW239162   4.334   3.786  12.071 -0.7171 -0.8262 -1.0103
 9234SOL     OW39163   1.569   0.888   3.673  0.1213 -0.0382 -0.3153
 9234SOL    HW139164   1.582   0.794   3.658  1.8456  0.0733  0.4770
 9234SOL    HW239165   1.662   0.908   3.684  0.0176  0.6063 -0.6227
 9235SOL     OW39166   2.084   3.220   0.409  0.2966  0.2227  0.2615
 9235SOL    HW139167   2.064   3.285   0.342 -3.0405 -1.3015 -0.2478
 9235SOL    HW239168   2.052   3.269   0.484  1.2749  1.9819 -0.4676
 9236SOL     OW39169   4.333   3.915   0.536 -0.2361 -0.5614 -0.0733
 9236SOL    HW139170   4.305   3.893   0.447  0.9551  3.7813 -1.5014
 9236SOL    HW239171   4.331   4.011   0.540 -0.2712 -0.6474  1.7593
 9237SOL     OW39172   0.610   0.731   4.431  0.3255 -0.1052  0.3570
 9237SOL    HW139173   0.570   0.808   4.472 -1.1160 -0.4813 -0.3312
 9237SOL    HW239174   0.653   0.764   4.353 -0.4054  0.2470  0.1033
 9238SOL     OW39175   3.471   0.860  12.895 -0.1892  0.9111 -0.0254
 9238SOL    HW139176   3.481   0.768  12.921 -4.7754  0.0846 -1.1764
 9238SOL    HW239177   3.377   0.874  12.884 -0.6252 -0.5254  1.9484
 9239SOL     OW39178   0.523   0.164   9.338 -0.2375 -0.1160 -0.2481
 9239SOL    HW139179   0.518   0.244   9.286 -0.5376  0.6166  0.8893
 9239SOL    HW239180   0.524   0.106   9.262  0.9326  0.6285 -0.8031
 9240SOL     OW39181   2.510   2.596   2.681 -0.0427 -0.0576 -0.1063
 9240SOL    HW139182   2.471   2.663   2.625 -0.2517  1.7309  2.1732
 9240SOL    HW239183   2.604   2.615   2.675 -0.1730  0.7195  0.3076
 9241SOL     OW39184   2.477   2.943   1.825  0.3284 -0.6361 -0.1653
 9241SOL    HW139185   2.393   2.921   1.865 -0.7483  2.5500 -0.6544
 9241SOL    HW239186   2.493   3.034   1.851  0.1573 -0.5227 -0.4540
 9242SOL     OW39187   3.711   3.138   8.879  0.7707  0.3270 -0.3431
 9242SOL    HW139188   3.643   3.072   8.867  0.0863  0.9226  0.2658
 9242SOL    HW239189   3.671   3.210   8.929  1.2822  0.1983  0.2516
 9243SOL     OW39190   1.167   0.211   6.390 -0.3705  0.6483 -0.2496
 9243SOL    HW139191   1.082   0.241   6.423 -0.4835  0.9470 -0.8164
 9243SOL    HW239192   1.148   0.118   6.404 -0.9342  0.4195 -2.6156
 9244SOL     OW39193   0.060   3.655  10.528  0.2474  0.5537  0.0013
 9244SOL    HW139194   0.093   3.638  10.616 -2.9046 -2.3551  0.6581
 9244SOL    HW239195   0.114   3.593  10.479  1.4318  0.5797  1.2831
 9245SOL     OW39196   3.473   0.430  15.151 -0.9032 -0.1405  0.3506
 9245SOL    HW139197   3.430   0.507  15.113  0.1851  0.4254  0.2749
 9245SOL    HW239198   3.410   0.394  15.214 -1.1925  0.8037  0.5985
 9246SOL     OW39199   2.312   2.346   8.883  0.5601 -0.1540  0.5051
 9246SOL    HW139200   2.330   2.431   8.924  2.4835  0.4473 -1.5926
 9246SOL    HW239201   2.396   2.330   8.839 -0.0316  1.2234 -1.1132
 9247SOL     OW39202   2.363   3.120  13.581  0.0563 -0.2335 -0.1825
 9247SOL    HW139203   2.348   3.109  13.675 -1.3246  0.7944 -0.2830
 9247SOL    HW239204   2.415   3.201  13.580  0.4117 -0.5071 -3.0716
 9248SOL     OW39205   3.586   2.417  11.037  0.2855  0.0198 -0.6795
 9248SOL    HW139206   3.679   2.439  11.033 -0.0372  1.6894  0.8740
 9248SOL    HW239207   3.582   2.325  11.009  1.5328 -0.0580 -0.5654
 9249SOL     OW39208   1.265   1.543   4.869 -0.1814 -0.1838 -0.4810
 9249SOL    HW139209   1.198   1.561   4.936  0.9247  2.6656 -0.1177
 9249SOL    HW239210   1.207   1.502   4.805  0.4172 -0.5865 -0.7658
 9250SOL     OW39211   2.840   3.143   2.680  0.4372 -0.0617 -0.4997
 9250SOL    HW139212   2.796   3.058   2.675  2.2119 -0.9071 -1.7211
 9250SOL    HW239213   2.932   3.122   2.664 -0.1375 -2.1426 -1.1089
 9251SOL     OW39214   1.525   1.356   6.445 -0.1488 -0.5268 -0.5583
 9251SOL    HW139215   1.442   1.322   6.479 -0.0290 -0.9139 -0.6437
 9251SOL    HW239216   1.556   1.404   6.522 -1.0656 -1.4857  0.4121
 9252SOL     OW39217   2.465   1.437   8.406 -0.2495  0.6230 -0.1892
 9252SOL    HW139218   2.412   1.398   8.336 -2.2383  0.2461  1.5363
 9252SOL    HW239219   2.400   1.499   8.437 -0.1442  1.2254 -1.1778
 9253SOL     OW39220   1.170   0.191   1.556 -0.3842 -0.2109 -0.1644
 9253SOL    HW139221   1.128   0.223   1.636  1.8209  1.2028  0.4509
 9253SOL    HW239222   1.226   0.267   1.541 -0.6783 -0.1238 -0.7979
 9254SOL     OW39223   0.341   3.693   4.478  0.3390 -0.5286 -0.5401
 9254SOL    HW139224   0.425   3.710   4.436  2.0128 -1.6428  2.3634
 9254SOL    HW239225   0.283   3.665   4.407 -0.9316 -1.0281  0.6913
 9255SOL     OW39226   1.757   2.927  17.301  0.1753  0.2024 -0.3106
 9255SOL    HW139227   1.843   2.887  17.312  0.4692  1.6669  2.7352
 9255SOL    HW239228   1.775   3.021  17.304 -0.3563  0.2710  0.8937
 9256SOL     OW39229   4.074   1.008   2.887 -0.5268 -0.8019 -1.0416
 9256SOL    HW139230   3.983   0.999   2.857 -1.2796  0.1358  0.9600
 9256SOL    HW239231   4.063   1.068   2.961 -1.5903 -0.6847 -1.2995
 9257SOL     OW39232   2.234   4.000   8.843  0.8246 -0.1207 -0.2518
 9257SOL    HW139233   2.267   4.073   8.791 -1.1112 -0.0188 -1.3470
 9257SOL    HW239234   2.220   4.035   8.931  0.7790 -1.2309  0.1896
 9258SOL     OW39235   1.995   0.747  11.121  0.0918 -0.5759  0.0208
 9258SOL    HW139236   1.909   0.763  11.162 -0.7491 -0.8246 -1.6630
 9258SOL    HW239237   2.047   0.718  11.196 -4.1008  0.4210  3.3841
 9259SOL     OW39238   3.960   3.059   6.579 -0.7764  0.1559 -0.3683
 9259SOL    HW139239   3.932   2.992   6.641  1.4594  0.6315  1.1703
 9259SOL    HW239240   3.998   3.005   6.509 -0.1970 -1.3576  1.1190
 9260SOL     OW39241   1.365   1.684   4.518  0.3127  0.3766  0.2972
 9260SOL    HW139242   1.383   1.775   4.495 -0.0296  0.5852  0.8594
 9260SOL    HW239243   1.410   1.635   4.449  1.6769  1.7779  0.1965
 9261SOL     OW39244   4.637   4.037   4.760 -0.6795 -0.4381  0.0687
 9261SOL    HW139245   4.556   4.084   4.781 -0.3732  0.3627 -0.5642
 9261SOL    HW239246   4.640   4.034   4.664  0.0898 -0.9766  0.1094
 9262SOL     OW39247   3.254   1.630   0.119 -0.0476 -0.5478 -0.3521
 9262SOL    HW139248   3.309   1.570   0.169  1.3056  0.8766 -0.1022
 9262SOL    HW239249   3.175   1.623   0.173  0.6661  3.0094  1.2082
 9263SOL     OW39250   2.983   2.295   7.010 -0.2634  0.5154 -0.0858
 9263SOL    HW139251   3.025   2.298   7.096 -2.3954 -1.7282  1.0345
 9263SOL    HW239252   2.997   2.382   6.973 -0.8184  0.5839 -0.1309
 9264SOL     OW39253   3.477   2.287   2.864  0.6264  0.5866  0.1175
 9264SOL    HW139254   3.422   2.210   2.882 -1.4272  1.3804 -2.7769
 9264SOL    HW239255   3.565   2.268   2.897 -0.3380 -0.0216  2.3579
 9265SOL     OW39256   0.770   3.933   7.851 -0.0111 -0.0174 -0.0982
 9265SOL    HW139257   0.678   3.908   7.862  0.0665 -0.5613 -0.7160
 9265SOL    HW239258   0.812   3.880   7.918 -0.6343  0.5864  0.7701
 9266SOL     OW39259   3.237   0.267   3.966  0.2610 -0.1969  0.2053
 9266SOL    HW139260   3.281   0.277   4.051 -0.4318  1.2797  0.3823
 9266SOL    HW239261   3.148   0.251   3.998 -0.6606  1.1655 -1.6946
 9267SOL     OW39262   0.988   3.065   0.242  0.4526  0.0321  0.1058
 9267SOL    HW139263   0.971   3.063   0.336  3.2259  1.1878  0.6111
 9267SOL    HW239264   1.024   3.151   0.223 -0.4454  0.7168  1.4885
 9268SOL     OW39265   2.438   4.394  13.223 -0.2323 -0.0514 -0.3659
 9268SOL    HW139266   2.415   4.433  13.138 -0.6501  1.4899  0.4573
 9268SOL    HW239267   2.466   4.306  13.198 -2.2204 -0.6585 -0.4354
 9269SOL     OW39268   4.001   4.151   1.660  0.0806 -0.4331  0.2262
 9269SOL    HW139269   3.988   4.243   1.639  1.3078  0.0449  1.6073
 9269SOL    HW239270   3.934   4.138   1.727  0.2246 -1.6003  0.1548
 9270SOL     OW39271   1.015   1.802   5.271 -0.0767  0.0739 -0.8699
 9270SOL    HW139272   1.048   1.799   5.361 -1.7474  0.5432 -0.2608
 9270SOL    HW239273   0.980   1.889   5.256  3.8173  1.5382 -1.5868
 9271SOL     OW39274   0.654   1.991   7.250  0.0272 -0.3204 -0.1898
 9271SOL    HW139275   0.583   1.952   7.198  0.9956 -1.1812 -0.8439
 9271SOL    HW239276   0.603   2.066   7.282 -0.4463 -0.9189  0.4638
 9272SOL     OW39277   1.166   0.532  10.553  0.3182 -0.5270 -0.0409
 9272SOL    HW139278   1.154   0.590  10.479  0.5139  1.3985  1.4380
 9272SOL    HW239279   1.123   0.460  10.508  1.5531 -0.1681 -1.7897
 9273SOL     OW39280   0.458   1.867   7.076 -0.2871 -0.3001 -0.2850
 9273SOL    HW139281   0.377   1.892   7.032  0.8401 -2.1637 -3.4367
 9273SOL    HW239282   0.517   1.864   7.001  0.7888 -1.1833  0.5926
 9274SOL     OW39283   3.095   2.584  12.611  0.2961  0.5947  0.2403
 9274SOL    HW139284   3.163   2.601  12.677  0.5103  0.3238  0.0933
 9274SOL    HW239285   3.021   2.613  12.664  0.3181  2.6111 -0.8421
 9275SOL     OW39286   4.523   0.429   8.716  0.0344  0.1416 -0.8640
 9275SOL    HW139287   4.616   0.413   8.697  0.0175  1.2263 -1.8708
 9275SOL    HW239288   4.479   0.367   8.659  2.9294 -1.0738 -1.7964
 9276SOL     OW39289   4.176   2.622   1.279  0.5298 -0.5851 -0.4431
 9276SOL    HW139290   4.192   2.528   1.270 -1.5459 -0.8428 -1.3529
 9276SOL    HW239291   4.172   2.653   1.188 -0.8173  2.1969  0.5634
 9277SOL     OW39292   3.432   2.078   2.124 -0.1669  0.8013  0.5893
 9277SOL    HW139293   3.477   1.999   2.094  1.5550  2.5601 -1.4229
 9277SOL    HW239294   3.433   2.110   2.034  0.0229  1.7820  0.9444
 9278SOL     OW39295   3.111   1.139   5.364 -0.6904 -0.0020  0.2254
 9278SOL    HW139296   3.145   1.051   5.343  3.2166  2.0026 -1.9206
 9278SOL    HW239297   3.165   1.176   5.433  0.8973 -1.8657 -0.0054
 9279SOL     OW39298   3.001   4.445   4.366  0.0654  0.2921 -0.1743
 9279SOL    HW139299   3.058   4.510   4.407 -0.0131  0.0269  0.3627
 9279SOL    HW239300   2.931   4.498   4.328 -0.5667 -1.4495 -1.4593
 9280SOL     OW39301   2.821   2.081   6.986 -0.5277 -0.1909  0.3641
 9280SOL    HW139302   2.905   2.126   6.993 -0.2164 -0.6538 -0.4175
 9280SOL    HW239303   2.766   2.108   7.060 -0.9745  0.6281 -0.2620
 9281SOL     OW39304   2.780   3.735  12.279  0.2426 -0.2068  0.3304
 9281SOL    HW139305   2.742   3.653  12.248 -0.6984  0.0955  0.6556
 9281SOL    HW239306   2.837   3.708  12.351 -0.3517  0.8130  1.1760
 9282SOL     OW39307   1.987   2.994  13.985  0.6641 -0.3740  0.3826
 9282SOL    HW139308   1.951   3.077  14.015 -0.3124  0.2093 -2.4252
 9282SOL    HW239309   2.059   2.979  14.047  1.3721  0.4443 -0.2385
 9283SOL     OW39310   0.282   3.211   9.106  0.6069 -0.7065 -0.0243
 9283SOL    HW139311   0.289   3.159   9.026 -1.4450  1.3151 -1.5359
 9283SOL    HW239312   0.186   3.219   9.108  0.6957 -0.0360  1.6392
 9284SOL     OW39313   2.126   1.888  13.658 -0.2190 -0.1925 -0.4784
 9284SOL    HW139314   2.091   1.936  13.583 -0.3767 -1.2678 -1.0923
 9284SOL    HW239315   2.076   1.807  13.649  0.8578 -0.8797 -0.3034
 9285SOL     OW39316   0.240   2.590   3.547 -0.1739 -0.2002  0.4492
 9285SOL    HW139317   0.288   2.607   3.628  0.2175  0.2869  0.1141
 9285SOL    HW239318   0.312   2.589   3.484 -0.9869  0.4018 -0.4904
 9286SOL     OW39319   4.378   3.573   4.577 -0.3732  0.4371 -0.3130
 9286SOL    HW139320   4.305   3.512   4.566  0.9610 -0.6763 -2.9499
 9286SOL    HW239321   4.323   3.652   4.580 -0.5285  0.3319 -0.3657
 9287SOL     OW39322   0.628   4.276   2.285 -0.2423 -0.0768  0.2757
 9287SOL    HW139323   0.562   4.251   2.221 -0.3545 -2.6234  1.3827
 9287SOL    HW239324   0.658   4.359   2.250  1.6782 -1.0577 -0.4492
 9288SOL     OW39325   0.040   0.961   2.566 -0.0951  0.1482  0.4048
 9288SOL    HW139326   0.111   0.983   2.627 -1.7040 -1.4078  2.8681
 9288SOL    HW239327   4.692   0.958   2.630 -0.1806  0.8505  0.3368
 9289SOL     OW39328   2.184   3.792   8.576 -0.9129 -0.2895 -0.0694
 9289SOL    HW139329   2.198   3.759   8.487  0.0004 -0.3081  0.0864
 9289SOL    HW239330   2.089   3.785   8.569 -0.8006  0.5702 -2.4167
 9290SOL     OW39331   3.661   2.085   4.930  0.3957  0.0288  0.0392
 9290SOL    HW139332   3.592   2.019   4.943 -0.4823  1.1601  1.1539
 9290SOL    HW239333   3.613   2.137   4.866 -1.1740  0.6534  1.6924
 9291SOL     OW39334   2.556   0.282   2.597 -0.3469  0.2301 -0.1508
 9291SOL    HW139335   2.638   0.241   2.571 -0.5565 -1.6386  2.1959
 9291SOL    HW239336   2.582   0.374   2.589  0.5830  0.2305  2.8777
 9292SOL     OW39337   1.111   2.467   9.392 -0.1138 -0.2242  0.0002
 9292SOL    HW139338   1.125   2.519   9.313 -0.3168  0.8573  0.6793
 9292SOL    HW239339   1.070   2.531   9.449 -0.2102  1.0174 -1.4645
 9293SOL     OW39340   2.662   3.689  15.005 -0.1723 -0.2993  0.4445
 9293SOL    HW139341   2.664   3.675  14.910 -0.8793  0.5065  0.3102
 9293SOL    HW239342   2.582   3.741  15.013  0.8799  0.8220  3.7774
 9294SOL     OW39343   2.798   3.682   3.810  0.1827  0.6208  0.4225
 9294SOL    HW139344   2.857   3.607   3.813 -0.2244  0.2169 -1.8859
 9294SOL    HW239345   2.850   3.742   3.757  0.7119 -1.1034 -1.0084
 9295SOL     OW39346   2.688   1.135   8.139 -0.6909 -0.1366 -0.2998
 9295SOL    HW139347   2.593   1.122   8.136 -0.3415 -2.2996 -1.4897
 9295SOL    HW239348   2.697   1.165   8.230  1.0944  1.2282 -0.9261
 9296SOL     OW39349   0.052   0.864   0.391  0.3142 -0.0122 -0.1683
 9296SOL    HW139350   0.006   0.910   0.320  1.0507 -2.8745 -2.5057
 9296SOL    HW239351   4.723   0.787   0.411 -1.2968  1.4061  1.1098
 9297SOL     OW39352   1.385   1.309   7.501 -0.5081  0.4072 -0.0530
 9297SOL    HW139353   1.329   1.361   7.443 -1.6781  1.7620  2.2751
 9297SOL    HW239354   1.318   1.271   7.559  0.3512 -1.6038 -0.3632
 9298SOL     OW39355   0.031   3.976  15.753 -0.0571  0.2855  0.0497
 9298SOL    HW139356   0.058   4.056  15.799 -1.0622  0.2639  0.6702
 9298SOL    HW239357   0.104   3.919  15.779 -1.4398 -1.7816 -0.6385
 9299SOL     OW39358   4.256   2.358  13.352  0.7233 -0.4965  0.1703
 9299SOL    HW139359   4.330   2.385  13.297  0.2079  2.9756  1.1881
 9299SOL    HW239360   4.273   2.403  13.434  0.6566 -0.5633  0.2213
 9300SOL     OW39361   2.742   4.268  14.776 -0.3057  0.2289 -0.0380
 9300SOL    HW139362   2.807   4.209  14.739 -0.8711 -0.2387 -0.2791
 9300SOL    HW239363   2.686   4.290  14.701 -0.0091 -0.9918 -0.6013
 9301SOL     OW39364   1.226   3.892   4.107  0.3769 -0.3448  0.5113
 9301SOL    HW139365   1.155   3.954   4.125 -0.6809 -1.7946  1.3141
 9301SOL    HW239366   1.178   3.809   4.112  1.3453 -0.8299  1.6765
 9302SOL     OW39367   1.136   0.860   5.486 -0.2505  0.1529  0.5350
 9302SOL    HW139368   1.116   0.782   5.537  2.7186 -0.0389  1.4141
 9302SOL    HW239369   1.211   0.907   5.522 -0.1432 -0.9613  1.7593
 9303SOL     OW39370   0.504   4.432  11.438  0.3124  0.1141  0.3019
 9303SOL    HW139371   0.527   4.378  11.514  0.1233 -1.0746 -0.4799
 9303SOL    HW239372   0.409   4.444  11.439  0.3771  0.5826  0.5349
 9304SOL     OW39373   2.805   0.035   6.269  0.4812  0.0681  0.5195
 9304SOL    HW139374   2.774   0.100   6.206  1.2458 -1.5978 -1.5571
 9304SOL    HW239375   2.832   4.694   6.203  0.2179  2.1389 -1.5754
 9305SOL     OW39376   3.610   1.123   2.781  0.1303  0.2643 -0.5991
 9305SOL    HW139377   3.593   1.099   2.690  1.3917 -2.0925 -0.2301
 9305SOL    HW239378   3.558   1.066   2.838  0.1567  0.9807  0.1431
 9306SOL     OW39379   3.881   0.082   9.263 -0.0165 -0.0333 -0.5274
 9306SOL    HW139380   3.901   0.024   9.190 -1.7065 -1.5836  0.2471
 9306SOL    HW239381   3.837   0.147   9.208 -0.4044  0.4978  0.4029
 9307SOL     OW39382   1.740   1.162   5.302 -0.8384  0.0682  0.1380
 9307SOL    HW139383   1.819   1.134   5.347 -0.1318  0.7364 -0.6816
 9307SOL    HW239384   1.777   1.151   5.214 -0.8322  1.2328 -0.0022
 9308SOL     OW39385   1.200   3.363  14.492 -0.0574 -0.2612 -0.3973
 9308SOL    HW139386   1.179   3.270  14.502 -4.4255  0.7029 -0.6156
 9308SOL    HW239387   1.130   3.400  14.438 -0.8319 -0.2730  0.5841
 9309SOL     OW39388   1.029   1.334  10.497 -0.3019 -0.0451 -0.7153
 9309SOL    HW139389   0.948   1.284  10.502  0.3376 -1.0394 -0.2294
 9309SOL    HW239390   1.085   1.260  10.473  0.6591 -0.1075  1.7410
 9310SOL     OW39391   1.141   3.106   3.350 -0.1375 -0.2076 -0.1792
 9310SOL    HW139392   1.227   3.064   3.353  0.2071  0.5474  0.3322
 9310SOL    HW239393   1.141   3.114   3.254  1.0150  1.8609  0.0128
 9311SOL     OW39394   3.430   1.091   6.011 -0.1842  0.3165  0.5161
 9311SOL    HW139395   3.366   1.037   6.057 -0.4399  0.6255  0.5227
 9311SOL    HW239396   3.369   1.130   5.948  2.0979  0.0843 -1.8557
 9312SOL     OW39397   2.366   1.929   6.553 -0.3058 -0.0102 -0.0106
 9312SOL    HW139398   2.271   1.936   6.555 -0.2799  0.3910 -0.4072
 9312SOL    HW239399   2.391   1.930   6.461 -0.6208  2.2953 -0.0639
 9313SOL     OW39400   2.038   2.059   9.818 -0.2874  0.2377  0.1879
 9313SOL    HW139401   2.083   2.015   9.890  2.9848 -0.7747 -2.4681
 9313SOL    HW239402   2.105   2.121   9.791  0.0591  0.7130  2.1343
 9314SOL     OW39403   3.187   3.062   1.402 -0.1881 -0.2187  0.1515
 9314SOL    HW139404   3.102   3.058   1.446  0.6954  1.1959  1.9794
 9314SOL    HW239405   3.216   3.149   1.428 -0.7326 -0.3391  1.1613
 9315SOL     OW39406   2.695   3.426  15.115  0.2805  0.1561 -0.3986
 9315SOL    HW139407   2.702   3.521  15.111 -2.9886  0.3323 -1.5843
 9315SOL    HW239408   2.614   3.420  15.064  0.2882 -0.2344 -0.3652
 9316SOL     OW39409   2.541   3.319   7.973 -0.6795 -0.1729 -0.4668
 9316SOL    HW139410   2.474   3.258   7.942  0.3829 -0.2836 -2.4701
 9316SOL    HW239411   2.575   3.269   8.047  0.6157  0.4416 -0.6579
 9317SOL     OW39412   3.844   2.046   1.292  0.1209 -0.0480 -0.0418
 9317SOL    HW139413   3.872   2.116   1.233 -0.1637  0.6080  0.5985
 9317SOL    HW239414   3.894   1.972   1.257 -1.8455 -1.0942 -0.6151
 9318SOL     OW39415   1.284   3.283   4.115 -0.2898 -0.2520  0.4099
 9318SOL    HW139416   1.255   3.268   4.026  1.9117  0.2921 -0.4112
 9318SOL    HW239417   1.297   3.378   4.121 -1.6795 -0.1094  1.1408
 9319SOL     OW39418   3.883   2.576   5.363 -0.2304  0.4376  0.0374
 9319SOL    HW139419   3.814   2.509   5.362  0.0333  0.1949 -1.7338
 9319SOL    HW239420   3.892   2.592   5.457 -0.0793  0.4487  0.0203
 9320SOL     OW39421   0.109   2.990   7.402 -0.6342  0.3641 -0.5487
 9320SOL    HW139422   0.019   3.016   7.380 -1.7876 -1.5284  1.8849
 9320SOL    HW239423   0.149   3.075   7.418 -0.6599  0.4776 -1.0904
 9321SOL     OW39424   4.712   3.424   4.780  0.3170  0.3522 -0.0169
 9321SOL    HW139425   4.720   3.451   4.871  1.0618  0.3211 -0.0714
 9321SOL    HW239426   0.081   3.436   4.755  0.0285 -0.8325 -1.6493
 9322SOL     OW39427   2.326   3.250   3.318 -0.1370  0.1664 -0.4983
 9322SOL    HW139428   2.403   3.284   3.274 -1.1185 -0.3329 -2.6104
 9322SOL    HW239429   2.270   3.326   3.304  0.3813  0.6897  0.2880
 9323SOL     OW39430   0.398   0.590   5.464  0.0761  0.0547  0.4380
 9323SOL    HW139431   0.383   0.685   5.461  0.8574  0.1319 -1.5611
 9323SOL    HW239432   0.491   0.582   5.486 -0.6620 -2.0753  2.7432
 9324SOL     OW39433   2.008   4.346   3.522 -0.3872  0.3246  0.1184
 9324SOL    HW139434   2.096   4.308   3.529 -1.0957 -1.4617 -0.4634
 9324SOL    HW239435   1.976   4.305   3.441  1.5441  1.9783 -1.4548
 9325SOL     OW39436   2.052   2.872   8.243 -0.2611 -0.2957  0.3324
 9325SOL    HW139437   2.042   2.813   8.168 -0.0502 -0.1175  0.1662
 9325SOL    HW239438   2.141   2.899   8.220 -1.2824  2.5665 -0.2222
 9326SOL     OW39439   3.551   2.882  12.299 -0.0462  0.0416  0.2215
 9326SOL    HW139440   3.527   2.803  12.347 -1.4889 -0.5359 -1.4552
 9326SOL    HW239441   3.481   2.933  12.342 -0.1048  0.4690 -0.3772
 9327SOL     OW39442   4.098   4.430   8.374  1.0035 -0.1016 -0.1629
 9327SOL    HW139443   4.169   4.373   8.404  2.1024  1.2289 -0.2757
 9327SOL    HW239444   4.102   4.499   8.441  0.4616  0.9627 -1.2271
 9328SOL     OW39445   2.719   2.655   6.334  0.1468  0.0113 -0.0414
 9328SOL    HW139446   2.702   2.638   6.427 -0.1848 -1.6655 -0.4061
 9328SOL    HW239447   2.769   2.576   6.310 -0.8339 -0.6632  0.1270
 9329SOL     OW39448   0.295   3.626   2.744 -0.4139  0.2280  0.1253
 9329SOL    HW139449   0.277   3.561   2.811 -0.0475  0.8274  0.8146
 9329SOL    HW239450   0.227   3.606   2.680 -1.5550  1.0308  1.1011
 9330SOL     OW39451   1.792   0.390   6.785  0.4837  0.2271 -0.0329
 9330SOL    HW139452   1.765   0.406   6.875 -1.3567  2.1126 -0.9276
 9330SOL    HW239453   1.764   0.300   6.772  0.3524 -0.0758  2.3504
 9331SOL     OW39454   0.459   0.285  16.836 -0.1828 -0.0566  0.3438
 9331SOL    HW139455   0.416   0.364  16.804  0.9637  0.3202 -0.2470
 9331SOL    HW239456   0.548   0.317  16.851 -0.4848  0.9618 -0.0520
 9332SOL     OW39457   4.257   2.226   0.603  0.0803 -0.5971 -0.0560
 9332SOL    HW139458   4.300   2.310   0.588 -1.5744 -0.5331 -4.3048
 9332SOL    HW239459   4.297   2.162   0.544  1.8239  0.5502 -0.1102
 9333SOL     OW39460   0.920   1.999   9.568 -0.2353  0.1316  0.4177
 9333SOL    HW139461   0.866   2.058   9.515  0.7794 -0.8164 -1.6571
 9333SOL    HW239462   0.885   1.910   9.557  1.3261 -0.4110 -0.1236
 9334SOL     OW39463   2.152   4.226  13.426 -0.3614  0.2407 -0.0514
 9334SOL    HW139464   2.245   4.215  13.441 -0.5314 -0.5124  0.4422
 9334SOL    HW239465   2.118   4.195  13.510 -2.3905 -0.2035 -1.0206
 9335SOL     OW39466   1.852   4.660   5.270 -0.0118  0.2850  0.4249
 9335SOL    HW139467   1.796   4.596   5.312  1.4673 -1.1299  0.2468
 9335SOL    HW239468   1.814   0.021   5.298 -0.9218  0.6894 -2.0362
 9336SOL     OW39469   1.162   1.570  13.567  0.0396 -0.7328  0.0343
 9336SOL    HW139470   1.205   1.522  13.638 -0.3576  0.9974  1.4269
 9336SOL    HW239471   1.106   1.504  13.526 -0.1939 -0.2262 -0.4527
 9337SOL     OW39472   2.688   4.536   7.404 -0.5437  0.3572  0.0525
 9337SOL    HW139473   2.597   4.554   7.381 -0.8352  0.4989  1.2938
 9337SOL    HW239474   2.680   4.454   7.454  3.2233  1.1008  1.9045
 9338SOL     OW39475   4.249   3.636   3.139 -0.2038 -0.1324  0.6043
 9338SOL    HW139476   4.318   3.574   3.162 -0.8860 -1.4625 -0.9401
 9338SOL    HW239477   4.274   3.653   3.049  1.1170  1.8322  1.3454
 9339SOL     OW39478   3.823   0.919   8.667  0.2735 -0.5003  0.9789
 9339SOL    HW139479   3.731   0.897   8.674  0.1365  0.6295  2.6206
 9339SOL    HW239480   3.825   1.006   8.705  0.7848  0.0482 -0.3047
 9340SOL     OW39481   3.704   1.217   7.611 -0.0057 -0.8608 -0.1461
 9340SOL    HW139482   3.644   1.290   7.623 -1.3482 -1.9174 -0.4637
 9340SOL    HW239483   3.657   1.155   7.667  1.7990 -2.1013 -0.0162
 9341SOL     OW39484   1.462   4.004  12.287 -0.9125 -0.1676 -0.7489
 9341SOL    HW139485   1.423   4.079  12.242  0.3787  0.0911 -1.4339
 9341SOL    HW239486   1.542   3.994  12.236 -0.2823 -2.0619  0.6334
 9342SOL     OW39487   0.773   1.611   5.359  0.3764  0.1124  0.5280
 9342SOL    HW139488   0.733   1.680   5.306  0.0032 -0.5247 -0.0367
 9342SOL    HW239489   0.837   1.583   5.294 -2.3105 -0.3335 -1.9464
 9343SOL     OW39490   0.485   3.669  11.197 -0.8428 -0.2378 -0.2457
 9343SOL    HW139491   0.540   3.640  11.124  0.3846  1.3812  0.0293
 9343SOL    HW239492   0.524   3.754  11.219  1.9209 -1.4033 -0.6022
 9344SOL     OW39493   2.944   3.485  11.491  0.1708  0.0063 -0.0479
 9344SOL    HW139494   2.953   3.567  11.443  0.2937 -0.2878 -0.5273
 9344SOL    HW239495   2.974   3.422  11.425 -1.4386 -1.1958  0.3727
 9345SOL     OW39496   0.129   0.646   2.023 -1.2260 -0.7809 -0.2969
 9345SOL    HW139497   0.091   0.733   2.027  2.8925  1.0229 -0.7043
 9345SOL    HW239498   0.118   0.633   2.117 -0.9655  1.4171  0.0148
 9346SOL     OW39499   2.520   2.948   7.251 -0.3910 -0.1628  0.3316
 9346SOL    HW139500   2.530   3.041   7.230 -0.5052 -0.6020 -1.6252
 9346SOL    HW239501   2.425   2.938   7.257 -0.3586 -0.0774  0.9372
 9347SOL     OW39502   0.703   0.908   5.927  0.4108  0.4868 -0.0011
 9347SOL    HW139503   0.621   0.876   5.889  0.3724  0.0509  0.4588
 9347SOL    HW239504   0.733   0.822   5.956  0.4837  0.9699  1.3713
 9348SOL     OW39505   3.177   2.531   6.925 -0.5342  0.0934  0.2117
 9348SOL    HW139506   3.245   2.558   6.863 -1.1074 -0.3983 -0.6266
 9348SOL    HW239507   3.181   2.607   6.984  1.6092  2.7068 -3.3224
 9349SOL     OW39508   1.609   2.401   6.040  0.2079 -0.0552 -0.0258
 9349SOL    HW139509   1.587   2.491   6.065  0.6797  0.3399 -1.0550
 9349SOL    HW239510   1.563   2.399   5.956  0.9409 -0.0729 -0.4245
 9350SOL     OW39511   3.120   0.456   5.210  0.1509 -0.3657 -0.0824
 9350SOL    HW139512   3.041   0.415   5.245 -2.2831  2.2947 -2.4390
 9350SOL    HW239513   3.186   0.397   5.245 -0.2197  0.3423  1.8126
 9351SOL     OW39514   1.534   1.015   5.824 -0.2816  0.2245  0.7503
 9351SOL    HW139515   1.563   1.042   5.911 -0.3538  0.1740  0.7908
 9351SOL    HW239516   1.484   0.935   5.843 -0.0966 -0.1935 -0.5144
 9352SOL     OW39517   3.179   2.701   5.797 -0.0033 -0.7435 -0.0733
 9352SOL    HW139518   3.095   2.658   5.813 -0.1011 -1.2531 -2.0265
 9352SOL    HW239519   3.215   2.709   5.886 -0.6530  0.1995  0.1046
 9353SOL     OW39520   1.333   4.431   3.917 -0.1447 -0.0338 -0.0808
 9353SOL    HW139521   1.334   4.386   3.832  1.7588 -0.5651  0.2243
 9353SOL    HW239522   1.344   4.356   3.976 -0.6313  1.0491  1.3812
 9354SOL     OW39523   2.290   4.486  16.136 -0.4759  0.8902 -0.0601
 9354SOL    HW139524   2.369   4.518  16.180 -0.5488  1.1099 -0.0862
 9354SOL    HW239525   2.228   4.526  16.198  0.5961  3.0509 -0.3638
 9355SOL     OW39526   4.290   1.423  15.481 -0.2296  0.1307 -0.3624
 9355SOL    HW139527   4.263   1.470  15.559 -1.6105 -0.4753 -0.4673
 9355SOL    HW239528   4.205   1.393  15.449 -0.0288 -0.7442 -0.0865
 9356SOL     OW39529   0.326   1.052   2.414  0.2504 -0.1563  0.4348
 9356SOL    HW139530   0.322   0.957   2.424  0.8528 -0.2807 -0.4896
 9356SOL    HW239531   0.300   1.074   2.503  1.1588 -2.1258  1.1821
 9357SOL     OW39532   4.013   4.462   0.974 -0.1612 -0.1837 -0.3201
 9357SOL    HW139533   4.015   4.404   0.898 -0.6280 -2.9487  1.7745
 9357SOL    HW239534   3.924   4.496   0.975  0.0638  0.4025  0.0914
 9358SOL     OW39535   4.507   2.478   9.754  0.1188  0.3804 -0.0593
 9358SOL    HW139536   4.572   2.545   9.775  1.0043 -0.5166  0.0404
 9358SOL    HW239537   4.473   2.497   9.667  2.1773 -1.8099 -1.3464
 9359SOL     OW39538   4.254   3.475  11.903  0.1756  0.4055 -0.1656
 9359SOL    HW139539   4.325   3.414  11.923  0.2821 -0.1316 -2.1676
 9359SOL    HW239540   4.293   3.555  11.937 -0.9660  1.1253 -0.5653
 9360SOL     OW39541   3.499   2.144   3.819  0.2586  0.2254 -0.2336
 9360SOL    HW139542   3.477   2.106   3.733 -1.7127 -0.4085  0.5406
 9360SOL    HW239543   3.590   2.170   3.809 -0.4850  2.5130 -1.0938
 9361SOL     OW39544   3.533   0.408   8.017 -0.1895 -0.8704 -0.5644
 9361SOL    HW139545   3.502   0.318   8.004  0.2145 -1.0482 -0.3266
 9361SOL    HW239546   3.564   0.392   8.107  2.1309  1.2554 -0.9746
 9362SOL     OW39547   0.205   3.946   7.784 -0.0671 -0.1230 -0.0604
 9362SOL    HW139548   0.134   3.953   7.848  0.1111  0.8947  0.0386
 9362SOL    HW239549   0.195   3.863   7.738 -1.3834 -1.4650  2.6513
 9363SOL     OW39550   3.118   2.748   4.695  0.0763  0.7377  0.4641
 9363SOL    HW139551   3.197   2.703   4.725 -0.6089 -0.7596 -0.0082
 9363SOL    HW239552   3.087   2.702   4.617  0.3375 -0.4801  1.0776
 9364SOL     OW39553   3.611   2.553   7.216  0.3024  0.0022 -0.4259
 9364SOL    HW139554   3.524   2.591   7.201 -0.0016 -0.1027  1.0415
 9364SOL    HW239555   3.654   2.534   7.133 -1.0872 -0.0160 -1.1385
 9365SOL     OW39556   3.033   2.069   2.941 -0.1803 -0.0137 -0.0062
 9365SOL    HW139557   3.024   2.022   2.858 -3.3892 -0.0384  0.3740
 9365SOL    HW239558   3.040   2.000   3.007 -0.1491 -0.1191 -0.1193
 9366SOL     OW39559   0.064   0.502  16.887  0.9481 -0.2973  0.0217
 9366SOL    HW139560   4.704   0.504  16.934  1.1984  2.1957  0.3765
 9366SOL    HW239561   0.129   0.508  16.957  0.5603 -1.4497  0.4747
 9367SOL     OW39562   3.647   0.293   0.679  0.1421  0.2501  0.4795
 9367SOL    HW139563   3.686   0.254   0.600  2.3599  1.3322  1.0501
 9367SOL    HW239564   3.555   0.310   0.659 -0.6642 -2.6598  1.6694
 9368SOL     OW39565   1.940   4.558  15.574 -0.3382 -0.2917 -0.5099
 9368SOL    HW139566   1.938   4.644  15.615  1.4638 -2.0200  3.1634
 9368SOL    HW239567   1.845   4.546  15.572 -0.1241 -1.8950 -0.5325
 9369SOL     OW39568   0.413   4.041  12.943  0.1608  0.2942 -0.0704
 9369SOL    HW139569   0.451   3.967  12.896  2.4819  0.9033  0.8707
 9369SOL    HW239570   0.458   4.036  13.027 -0.2126 -0.3593  0.0883
 9370SOL     OW39571   1.092   3.463   2.391  0.0741  0.0484  0.1199
 9370SOL    HW139572   1.039   3.460   2.471 -0.8679 -0.3443 -0.5181
 9370SOL    HW239573   1.093   3.371   2.364  0.6235  0.0675  0.0637
 9371SOL     OW39574   1.833   0.813   7.848 -0.0968  0.1076  0.0508
 9371SOL    HW139575   1.782   0.740   7.883 -1.2797  0.8752 -0.0811
 9371SOL    HW239576   1.919   0.771   7.838 -1.0071 -1.3920 -1.3703
 9372SOL     OW39577   1.910   2.231   7.119 -0.2072  0.0027  0.5150
 9372SOL    HW139578   1.936   2.322   7.138 -2.1481  0.7925 -0.6810
 9372SOL    HW239579   1.896   2.199   7.208  0.9988  1.3529  1.2030
 9373SOL     OW39580   0.115   2.480  12.887  0.1583 -0.1165 -0.4314
 9373SOL    HW139581   0.075   2.563  12.860 -1.6593 -1.0581 -0.6236
 9373SOL    HW239582   0.046   2.430  12.929  0.6917 -0.0857  0.4844
 9374SOL     OW39583   1.801   2.105   6.890 -0.4261 -0.6714  0.0796
 9374SOL    HW139584   1.810   2.168   6.819  0.4117  0.9308  1.6268
 9374SOL    HW239585   1.833   2.149   6.968 -0.0915 -0.3525 -0.2385
 9375SOL     OW39586   1.137   4.267   4.800 -0.0680  0.4039 -0.0956
 9375SOL    HW139587   1.051   4.228   4.816  0.2234 -0.2166 -0.0471
 9375SOL    HW239588   1.164   4.309   4.882 -2.6161  0.8996  0.4793
 9376SOL     OW39589   2.853   4.035   4.614  0.2665  0.5809  0.7605
 9376SOL    HW139590   2.814   3.954   4.581 -1.1929  1.2994  0.7078
 9376SOL    HW239591   2.807   4.100   4.561  2.2075  1.7641  0.5499
 9377SOL     OW39592   4.463   0.067  12.460  0.0809 -0.2225 -0.9127
 9377SOL    HW139593   4.490   0.147  12.506  2.9272 -0.0607 -2.8375
 9377SOL    HW239594   4.495   0.005  12.526 -1.1508  2.0848  1.8596
 9378SOL     OW39595   3.891   1.473   4.202 -0.4664 -0.5603 -0.3134
 9378SOL    HW139596   3.884   1.469   4.107 -1.2935 -1.1020 -0.2216
 9378SOL    HW239597   3.807   1.457   4.244 -0.7124  1.8768  0.1186
 9379SOL     OW39598   0.269   1.846  16.523 -0.0159  0.2460 -0.0448
 9379SOL    HW139599   0.261   1.940  16.508 -1.1350  0.3938  1.3863
 9379SOL    HW239600   0.184   1.819  16.489 -1.1058  1.4577  1.6874
 9380SOL     OW39601   1.662   1.175  11.023 -0.3674 -0.2901  0.0891
 9380SOL    HW139602   1.598   1.154  11.091 -0.0109  1.3511  0.9246
 9380SOL    HW239603   1.694   1.258  11.058  0.6495 -1.6922  2.5348
 9381SOL     OW39604   1.402   4.329   7.835  0.0803  0.2136  0.0049
 9381SOL    HW139605   1.384   4.347   7.927  0.3665  3.2529 -0.5271
 9381SOL    HW239606   1.311   4.319   7.808  0.5037 -0.3644 -1.2098
 9382SOL     OW39607   3.257   1.619   3.433  0.0687  0.1697  0.0575
 9382SOL    HW139608   3.170   1.659   3.437 -0.9532 -1.7580 -3.2938
 9382SOL    HW239609   3.267   1.607   3.338  2.5189 -2.5873  0.6779
 9383SOL     OW39610   2.581   4.416   4.810 -0.4634  0.1061  0.5051
 9383SOL    HW139611   2.524   4.438   4.884  0.9840 -0.6889  1.8511
 9383SOL    HW239612   2.524   4.371   4.748  1.2212 -0.2027 -0.8232
 9384SOL     OW39613   4.721   1.277  14.204  0.0161  0.3013 -0.4760
 9384SOL    HW139614   4.641   1.227  14.218  0.0875  0.0294 -1.0471
 9384SOL    HW239615   4.713   1.309  14.115 -1.8970 -0.2115 -0.4762
 9385SOL     OW39616   0.309   4.098   7.595 -0.0352  0.6707  0.3367
 9385SOL    HW139617   0.363   4.150   7.655 -0.2646  0.1309  1.0074
 9385SOL    HW239618   0.282   4.033   7.660  1.4769 -0.1122  0.1843
 9386SOL     OW39619   2.821   4.216  11.379  0.1395  0.1593 -0.3208
 9386SOL    HW139620   2.786   4.203  11.467 -0.4117 -1.1956 -0.7376
 9386SOL    HW239621   2.915   4.215  11.398  0.3354 -1.4140 -1.3085
 9387SOL     OW39622   1.171   4.093   8.234 -0.7607  0.4430 -0.1955
 9387SOL    HW139623   1.225   4.100   8.313 -0.2023  0.9582 -0.6301
 9387SOL    HW239624   1.123   4.012   8.255  2.0161 -1.0708  0.2954
 9388SOL     OW39625   3.796   4.562   7.220  0.3434 -0.3781 -0.6748
 9388SOL    HW139626   3.708   4.596   7.237  2.1796  3.9261  0.0719
 9388SOL    HW239627   3.766   4.498   7.155 -0.5878 -1.5539  0.9094
 9389SOL     OW39628   1.356   0.675   8.548  0.1039 -0.6028 -1.1371
 9389SOL    HW139629   1.396   0.589   8.556 -1.3806 -1.3750 -2.0660
 9389SOL    HW239630   1.390   0.717   8.628  0.3512 -3.0732  0.0450
 9390SOL     OW39631   3.193   4.335   8.836  0.0982  0.6670  0.1746
 9390SOL    HW139632   3.182   4.253   8.788  1.1602  0.0056  1.0704
 9390SOL    HW239633   3.259   4.379   8.782  1.6486 -1.5347  0.2823
 9391SOL     OW39634   4.385   1.019  16.073  0.3869  0.5750  0.0496
 9391SOL    HW139635   4.327   1.060  16.010 -1.5528 -2.1880 -0.0014
 9391SOL    HW239636   4.415   1.096  16.120 -0.7423  1.4625 -0.6878
 9392SOL     OW39637   3.023   4.185   5.446 -0.1249  0.2644 -0.6823
 9392SOL    HW139638   3.090   4.237   5.401  2.7406 -1.9534  1.0036
 9392SOL    HW239639   2.973   4.246   5.499 -0.4193 -1.3875  0.9496
 9393SOL     OW39640   1.430   0.015   1.264 -0.1803  0.4606  0.2536
 9393SOL    HW139641   1.440   4.690   1.346 -0.0141 -0.5096 -0.3354
 9393SOL    HW239642   1.469   0.094   1.301  1.7348  1.1683 -3.2446
 9394SOL     OW39643   3.820   0.954   2.826  0.0195  0.1741  0.3036
 9394SOL    HW139644   3.814   0.910   2.741  0.4778  0.1913  0.2609
 9394SOL    HW239645   3.755   1.023   2.812  0.3724  0.3741 -0.3486
 9395SOL     OW39646   2.205   0.014   4.748  0.1870  0.3178 -0.4666
 9395SOL    HW139647   2.116   0.044   4.728 -0.4445 -1.3282 -0.1248
 9395SOL    HW239648   2.251   0.040   4.669  0.1498  0.2742 -0.5025
 9396SOL     OW39649   3.514   1.229   3.604 -0.4623 -0.1240 -0.6186
 9396SOL    HW139650   3.609   1.223   3.611 -0.4989 -0.9370 -0.7881
 9396SOL    HW239651   3.490   1.152   3.552  0.3521 -1.3416  0.8227
 9397SOL     OW39652   4.116   3.745   8.207  0.2354  0.2845  0.5009
 9397SOL    HW139653   4.046   3.791   8.252 -0.8348  1.2223 -2.1373
 9397SOL    HW239654   4.143   3.691   8.281 -0.1782 -2.6000 -1.4276
 9398SOL     OW39655   1.984   3.502   3.660 -0.2776  0.3265  0.2780
 9398SOL    HW139656   2.053   3.563   3.687  1.3592 -1.2239 -0.4213
 9398SOL    HW239657   1.942   3.560   3.596 -0.9822 -2.5258 -1.8758
 9399SOL     OW39658   2.136   0.909  14.310 -0.1693  0.1750  0.1650
 9399SOL    HW139659   2.213   0.914  14.366  1.6082 -0.4172 -2.2184
 9399SOL    HW239660   2.072   0.906  14.381  0.1591  1.5746  0.5022
 9400SOL     OW39661   4.311   3.348   9.833 -0.8540 -0.2473  0.2801
 9400SOL    HW139662   4.237   3.362   9.774  2.8421  1.4030 -3.9197
 9400SOL    HW239663   4.312   3.440   9.860  2.1523 -1.0445  2.8341
 9401SOL     OW39664   4.158   4.181   4.507  0.2560 -0.4061  0.0257
 9401SOL    HW139665   4.099   4.114   4.473 -0.2916  1.7385 -3.2011
 9401SOL    HW239666   4.184   4.134   4.586  3.4951 -2.3817 -2.2256
 9402SOL     OW39667   0.574   0.780  11.973  0.2707 -0.3198  0.0472
 9402SOL    HW139668   0.536   0.702  12.014 -0.7155  0.7710  1.2136
 9402SOL    HW239669   0.527   0.765  11.891 -0.6442  1.4084  0.2434
 9403SOL     OW39670   0.719   4.453   1.200  0.4502 -0.0080 -0.0624
 9403SOL    HW139671   0.652   4.427   1.263 -1.0881  1.6847 -0.9603
 9403SOL    HW239672   0.671   4.444   1.117 -1.5094  2.0350  0.8314
 9404SOL     OW39673   1.448   2.354   8.725 -0.3481  0.1120  0.7528
 9404SOL    HW139674   1.523   2.328   8.779  0.7911  0.8513 -0.4568
 9404SOL    HW239675   1.400   2.408   8.788  0.0976 -1.9562  2.8506
 9405SOL     OW39676   3.260   3.601   1.515 -0.0845  0.7077 -0.4517
 9405SOL    HW139677   3.259   3.603   1.611 -1.7162  0.6584 -0.4698
 9405SOL    HW239678   3.306   3.684   1.504 -1.9515  1.8433  0.2134
 9406SOL     OW39679   3.798   4.570  11.356 -0.4910  0.9266  0.1969
 9406SOL    HW139680   3.881   4.548  11.315 -1.6015  0.1831 -1.6573
 9406SOL    HW239681   3.808   4.665  11.355 -0.3532  0.9088 -0.0211
 9407SOL     OW39682   1.068   1.961   4.075 -0.4358  0.1274 -0.5197
 9407SOL    HW139683   1.133   1.938   4.142 -1.3091  0.6198  0.5038
 9407SOL    HW239684   1.020   2.036   4.111 -1.5737 -0.2403 -1.2569
 9408SOL     OW39685   3.452   0.711  10.153 -0.0506 -0.0522 -0.1239
 9408SOL    HW139686   3.380   0.648  10.143  0.9774 -1.1880 -0.3703
 9408SOL    HW239687   3.506   0.674  10.223 -2.0290  3.0392  3.0962
 9409SOL     OW39688   1.965   3.030  10.193  0.2273 -0.2066 -0.4805
 9409SOL    HW139689   1.992   3.078  10.114 -3.3732  0.5313 -1.2573
 9409SOL    HW239690   1.880   3.074  10.199  0.0418 -0.7010  0.4591
 9410SOL     OW39691   2.478   2.821  14.314 -0.0678 -0.5043 -0.1790
 9410SOL    HW139692   2.482   2.811  14.219  0.2891  2.2702 -0.4630
 9410SOL    HW239693   2.474   2.917  14.318  2.4275 -0.4536  0.7352
 9411SOL     OW39694   1.474   1.818   6.518 -0.2913  0.2853 -0.5576
 9411SOL    HW139695   1.506   1.854   6.601 -1.6474 -3.6422  1.6502
 9411SOL    HW239696   1.427   1.899   6.498  2.4926  2.6694  2.5836
 9412SOL     OW39697   1.445   1.732   8.133  0.6227 -0.3506 -0.5403
 9412SOL    HW139698   1.390   1.794   8.085  0.4847 -1.3979 -1.7078
 9412SOL    HW239699   1.482   1.680   8.062 -0.2595 -0.5911 -0.8114
 9413SOL     OW39700   0.325   2.668   5.133 -0.7764  0.0613  0.9673
 9413SOL    HW139701   0.298   2.759   5.143 -1.1468 -0.1037  1.5205
 9413SOL    HW239702   0.251   2.615   5.164 -1.2710 -0.5303 -1.1955
 9414SOL     OW39703   3.952   2.244  17.401  0.3341  0.4975  0.2794
 9414SOL    HW139704   3.986   2.203  17.481 -0.3385  1.0569  0.8498
 9414SOL    HW239705   3.931   2.167  17.347  1.3984  0.1758  0.3324
 9415SOL     OW39706   1.588   3.168   6.749  0.9669 -0.7105 -0.0493
 9415SOL    HW139707   1.553   3.199   6.666  0.3511 -2.1711 -0.3319
 9415SOL    HW239708   1.595   3.073   6.738 -1.7147 -0.9629  0.3013
 9416SOL     OW39709   0.852   2.336   7.327 -0.1874  0.0152 -0.5069
 9416SOL    HW139710   0.778   2.397   7.318  0.1314  0.3669 -0.7475
 9416SOL    HW239711   0.837   2.283   7.248  1.8111 -2.5670  0.8530
 9417SOL     OW39712   0.830   4.300  14.931  0.3549  0.2785 -0.5595
 9417SOL    HW139713   0.825   4.240  15.006  1.8518 -0.6540 -1.2188
 9417SOL    HW239714   0.745   4.277  14.893 -0.5534  1.0316  1.0145
 9418SOL     OW39715   3.613   3.937   8.669  0.7195 -0.1307  0.2593
 9418SOL    HW139716   3.658   3.962   8.750 -0.2874  0.2694  0.7036
 9418SOL    HW239717   3.656   4.001   8.613 -0.7153 -1.4180 -2.2755
 9419SOL     OW39718   2.224   0.456   3.215  0.3779  0.5037  0.0548
 9419SOL    HW139719   2.233   0.537   3.265  0.0419 -0.9818  2.5219
 9419SOL    HW239720   2.287   0.466   3.144 -1.5166 -0.3940 -1.7555
 9420SOL     OW39721   1.555   1.435  13.099 -0.3290 -0.0628  0.0235
 9420SOL    HW139722   1.622   1.475  13.044  0.8939 -0.6328  1.0991
 9420SOL    HW239723   1.607   1.385  13.162  0.2291  1.0818  0.4810
 9421SOL     OW39724   4.671   3.790  11.883 -0.3194  0.2324  0.6388
 9421SOL    HW139725   4.687   3.719  11.945 -0.3768 -0.6198 -0.3326
 9421SOL    HW239726   0.039   3.820  11.879 -0.4098  0.2908 -0.8273
 9422SOL     OW39727   0.089   1.435   7.196 -0.1237  0.0984  0.0310
 9422SOL    HW139728   0.028   1.363   7.211  0.4353 -0.5975 -1.0215
 9422SOL    HW239729   0.109   1.476   7.280 -0.3690 -1.6419  0.9259
 9423SOL     OW39730   4.536   4.512   5.471 -0.2422  0.2367  0.1111
 9423SOL    HW139731   4.622   4.477   5.449 -0.1983 -2.2486  4.3637
 9423SOL    HW239732   4.524   4.572   5.397 -0.3170  0.2655  0.1471
 9424SOL     OW39733   3.839   0.750   6.457 -0.4889 -0.7692 -0.3833
 9424SOL    HW139734   3.828   0.800   6.537 -0.2969 -0.9355 -0.2538
 9424SOL    HW239735   3.774   0.781   6.393 -0.3234  2.6651  1.1080
 9425SOL     OW39736   4.018   4.405   3.439 -0.2822 -0.5846  0.0216
 9425SOL    HW139737   4.023   4.386   3.346 -0.6565  1.8159 -0.4976
 9425SOL    HW239738   4.095   4.461   3.450 -1.9499  1.6935  0.2450
 9426SOL     OW39739   0.306   2.758   6.065  0.1625  0.1585 -0.2986
 9426SOL    HW139740   0.285   2.728   5.977 -0.6458 -0.4985  0.1173
 9426SOL    HW239741   0.219   2.777   6.100  1.3419  3.8045  0.6540
 9427SOL     OW39742   0.704   4.350   9.963 -0.1717 -1.0541  0.1441
 9427SOL    HW139743   0.778   4.297   9.933  0.2360 -0.9844  1.0242
 9427SOL    HW239744   0.742   4.437   9.949 -0.9921 -0.5722  0.9133
 9428SOL     OW39745   3.618   2.682  17.185 -0.2101  0.5852  0.4772
 9428SOL    HW139746   3.632   2.597  17.225  0.3962  0.2420 -0.4573
 9428SOL    HW239747   3.530   2.698  17.218 -0.5843 -3.1476  1.2489
 9429SOL     OW39748   2.642   3.705   8.098 -0.1714  0.4407  0.1007
 9429SOL    HW139749   2.558   3.682   8.137 -0.3269  0.6344 -0.1170
 9429SOL    HW239750   2.657   3.789   8.143 -2.1762 -0.6203  2.7424
 9430SOL     OW39751   2.276   3.449   3.574  0.2405  0.1353 -0.2069
 9430SOL    HW139752   2.245   3.512   3.639  1.4206  0.8715 -0.3621
 9430SOL    HW239753   2.284   3.368   3.625 -2.2455  1.0636  1.6733
 9431SOL     OW39754   1.949   1.067   4.415  0.4343 -0.2103 -0.0606
 9431SOL    HW139755   1.961   1.137   4.480  0.2429  0.4943 -0.7815
 9431SOL    HW239756   1.883   1.011   4.455 -0.3965  0.3119 -0.7179
 9432SOL     OW39757   1.122   1.024   3.831 -0.5591  0.2395 -0.1315
 9432SOL    HW139758   1.104   1.070   3.749 -1.2559  2.4898  1.2797
 9432SOL    HW239759   1.161   0.941   3.803  1.0994  1.0459 -0.2310
 9433SOL     OW39760   3.392   4.505  16.580  0.6257  0.1096  0.0208
 9433SOL    HW139761   3.352   4.450  16.648  2.2158  0.2801  1.0974
 9433SOL    HW239762   3.485   4.489  16.595  1.2485  1.5035 -2.4561
 9434SOL     OW39763   0.000   1.795   2.606  0.0925  0.2565  0.1349
 9434SOL    HW139764   4.677   1.879   2.607 -0.8861 -0.3317  3.8233
 9434SOL    HW239765   0.014   1.778   2.513  1.6592 -0.5838  0.5269
 9435SOL     OW39766   1.239   3.128   9.909  0.1681 -0.0880  0.7552
 9435SOL    HW139767   1.233   3.034   9.925 -0.3263 -0.1931 -0.0716
 9435SOL    HW239768   1.250   3.161   9.998  3.0721 -2.2521  1.2125
 9436SOL     OW39769   0.493   4.403   7.242 -0.5712  0.0698 -0.4836
 9436SOL    HW139770   0.539   4.487   7.237  0.3434 -0.3263  1.3500
 9436SOL    HW239771   0.503   4.353   7.162  1.8019 -1.8878  1.0599
 9437SOL     OW39772   3.235   4.538   0.003  0.3079  0.5619  0.3951
 9437SOL    HW139773   3.238   4.490  17.613 -1.5338  0.4128  0.4041
 9437SOL    HW239774   3.141   4.538   0.020 -0.0060  0.0735 -1.3996
 9438SOL     OW39775   0.691   2.616   4.346 -0.4878  0.2177  0.6352
 9438SOL    HW139776   0.687   2.541   4.405  1.4392 -0.3655  0.0128
 9438SOL    HW239777   0.760   2.596   4.283 -1.0174 -1.3660  0.5619
 9439SOL     OW39778   2.937   2.920   3.076 -0.4748 -0.6102 -0.4353
 9439SOL    HW139779   3.033   2.919   3.082 -0.5546  0.9800  1.3778
 9439SOL    HW239780   2.922   2.873   2.994 -1.4048 -1.0613 -0.0055
 9440SOL     OW39781   0.646   0.118   2.615 -0.1353  0.3400  0.7270
 9440SOL    HW139782   0.584   0.158   2.555 -0.1861  0.6100  0.9576
 9440SOL    HW239783   0.717   0.180   2.596  0.1340 -0.6814 -1.5416
 9441SOL     OW39784   1.371   2.009   6.129  0.5290 -0.1513 -0.6110
 9441SOL    HW139785   1.449   2.064   6.127  0.6209 -0.2894 -0.8664
 9441SOL    HW239786   1.412   1.922   6.137  2.1963  0.6228 -0.7874
 9442SOL     OW39787   3.309   2.089   2.936  0.7164 -0.6021  0.1125
 9442SOL    HW139788   3.319   2.001   2.900 -0.7428 -1.5634  2.0214
 9442SOL    HW239789   3.215   2.100   2.922  0.9342 -0.0182 -0.8919
 9443SOL     OW39790   3.027   2.881   3.420 -0.2248 -0.5917 -0.8659
 9443SOL    HW139791   3.055   2.804   3.469 -0.9204 -1.6675 -2.1607
 9443SOL    HW239792   3.080   2.872   3.342  0.2259 -0.1948 -0.6026
 9444SOL     OW39793   1.266   3.513   8.357  0.4572  1.0963  0.0309
 9444SOL    HW139794   1.212   3.478   8.428  0.0564  2.9512  0.6239
 9444SOL    HW239795   1.242   3.460   8.280  1.6944  0.2551  0.2294
 9445SOL     OW39796   1.239   1.923   4.281  0.4095  0.2971  0.2456
 9445SOL    HW139797   1.334   1.916   4.296  0.4186 -0.1955 -0.0464
 9445SOL    HW239798   1.238   1.972   4.363 -2.9791  0.7172 -0.0590
 9446SOL     OW39799   3.454   0.438   1.584 -0.1707  0.3789  0.1138
 9446SOL    HW139800   3.547   0.432   1.604  0.2278  0.5190 -1.6761
 9446SOL    HW239801   3.420   0.415   1.670  0.5299  1.6280  0.7302
 9447SOL     OW39802   0.917   3.531   6.858  0.2287 -0.0962  0.2073
 9447SOL    HW139803   0.942   3.444   6.890 -1.7846 -1.7143 -2.5834
 9447SOL    HW239804   0.927   3.572   6.944  1.2774 -1.3239  0.6733
 9448SOL     OW39805   4.120   0.961   8.061  0.2639 -0.0904  0.1969
 9448SOL    HW139806   4.146   0.940   7.972  2.4371  3.5372  0.0035
 9448SOL    HW239807   4.110   0.870   8.089 -1.6645 -0.1336 -0.5785
 9449SOL     OW39808   1.080   1.455   8.070  0.1133  0.1569  0.5184
 9449SOL    HW139809   1.117   1.541   8.090 -1.7247  0.8920  0.7669
 9449SOL    HW239810   1.162   1.407   8.067 -1.0061 -1.6685 -1.2574
 9450SOL     OW39811   0.293   1.728   7.437 -0.1358 -0.3437 -0.3772
 9450SOL    HW139812   0.261   1.815   7.464 -0.0469 -0.8202  1.2847
 9450SOL    HW239813   0.377   1.728   7.482 -0.4818  1.1389  0.2990
 9451SOL     OW39814   0.643   4.529   1.478 -0.2045  0.0881 -0.3170
 9451SOL    HW139815   0.597   4.532   1.561 -0.2451  4.4154 -0.5265
 9451SOL    HW239816   0.731   4.544   1.510 -0.4296  1.2412 -0.2551
 9452SOL     OW39817   0.597   3.185  16.971  0.1609  0.1821  0.2844
 9452SOL    HW139818   0.513   3.170  16.928 -0.5112  1.9644  0.9776
 9452SOL    HW239819   0.558   3.216  17.053 -0.2423 -0.5630  0.3740
 9453SOL     OW39820   0.368   2.335  17.624  0.1057 -0.2520  0.6985
 9453SOL    HW139821   0.344   2.389   0.007 -0.6378 -0.1277  0.3786
 9453SOL    HW239822   0.290   2.353  17.571  1.0949 -1.4787 -1.1649
 9454SOL     OW39823   3.486   2.400  16.660 -0.1874  0.7392 -0.1351
 9454SOL    HW139824   3.530   2.448  16.729  3.1883 -1.0252 -1.0244
 9454SOL    HW239825   3.422   2.466  16.632  2.9921  3.5339 -0.7347
 9455SOL     OW39826   1.250   1.172   4.012 -0.7576 -0.5120 -0.4732
 9455SOL    HW139827   1.216   1.111   3.945  0.3963 -0.3647 -1.1890
 9455SOL    HW239828   1.324   1.215   3.970 -1.8343  1.2427 -0.5704
 9456SOL     OW39829   0.642   2.555   2.406  0.9173 -0.1478  0.6295
 9456SOL    HW139830   0.570   2.616   2.420  1.4784  0.6701 -0.0805
 9456SOL    HW239831   0.682   2.603   2.333 -1.1260 -0.9403 -0.9985
 9457SOL     OW39832   2.788   3.002  11.875 -0.3158  0.3856 -0.2040
 9457SOL    HW139833   2.728   2.953  11.819  0.9125  0.7112 -1.7997
 9457SOL    HW239834   2.796   2.938  11.946  0.0497 -1.2297 -1.7129
 9458SOL     OW39835   0.014   1.209  16.336 -0.2172 -0.0372  0.1065
 9458SOL    HW139836   0.024   1.114  16.322  1.5300  0.2894 -0.9538
 9458SOL    HW239837   4.642   1.217  16.346 -0.1990  1.4488 -0.8937
 9459SOL     OW39838   3.354   4.649   2.484 -0.4401 -0.6478 -0.2302
 9459SOL    HW139839   3.442   4.614   2.475  0.0036  1.0163 -2.4190
 9459SOL    HW239840   3.305   4.567   2.489 -2.1122  0.3237 -0.6865
 9460SOL     OW39841   2.822   1.845  17.363  0.3961 -0.3276  0.6139
 9460SOL    HW139842   2.784   1.871  17.279 -0.4592 -1.0160  0.7827
 9460SOL    HW239843   2.901   1.897  17.378  2.2696 -2.7138 -1.1561
 9461SOL     OW39844   3.823   1.373   3.368 -0.6057  0.1138 -0.6007
 9461SOL    HW139845   3.814   1.278   3.360  1.1629  0.0265 -1.4149
 9461SOL    HW239846   3.735   1.405   3.387 -0.6165  0.4114 -1.1613
 9462SOL     OW39847   1.973   3.931  13.035  0.3890 -0.2081 -0.7901
 9462SOL    HW139848   1.917   3.853  13.032  1.4916 -0.9647 -1.4930
 9462SOL    HW239849   1.910   3.999  13.013 -1.1031 -0.4533  2.5968
 9463SOL     OW39850   2.288   0.318   2.567  0.5570  0.2924 -0.2878
 9463SOL    HW139851   2.250   0.308   2.654  0.8590 -0.7513 -0.2809
 9463SOL    HW239852   2.382   0.303   2.575  0.2622 -1.3514  0.1258
 9464SOL     OW39853   0.253   1.084   5.859 -0.1055 -0.7668  0.0786
 9464SOL    HW139854   0.234   1.047   5.946 -0.9387  0.0605  0.2438
 9464SOL    HW239855   0.213   1.018   5.803  0.3221 -0.5849 -0.4310
 9465SOL     OW39856   4.134   1.741   4.259 -0.5647 -0.4758  0.3871
 9465SOL    HW139857   4.149   1.809   4.325  0.4978  0.0709 -0.4302
 9465SOL    HW239858   4.099   1.795   4.189  1.0292 -1.3239 -1.0579
 9466SOL     OW39859   2.123   2.600   4.187  0.0827  0.2396  0.8237
 9466SOL    HW139860   2.035   2.626   4.159 -0.4445 -2.2596  0.1535
 9466SOL    HW239861   2.177   2.645   4.122  0.4467  1.2916  1.8713
 9467SOL     OW39862   0.416   0.142  17.096  1.0698 -0.1187  0.2289
 9467SOL    HW139863   0.490   0.184  17.140  1.5862 -1.1161  0.3038
 9467SOL    HW239864   0.451   0.145  17.007 -0.2796 -2.5980 -0.3874
 9468SOL     OW39865   2.068   4.696   1.987  0.0344  0.1008  0.4845
 9468SOL    HW139866   2.075   0.013   1.901  1.1950 -0.2922  0.4069
 9468SOL    HW239867   2.062   4.603   1.964  2.7199  0.1020 -0.1829
 9469SOL     OW39868   0.042   0.564   0.756  0.2360  0.0732  0.3349
 9469SOL    HW139869   0.131   0.533   0.769 -0.5056 -2.3563 -0.3874
 9469SOL    HW239870   0.044   0.613   0.839  1.1926 -0.6590  0.7405
 9470SOL     OW39871   1.021   2.491   3.446 -0.0346 -0.1222  0.4243
 9470SOL    HW139872   1.010   2.578   3.482  0.3358 -1.5888  4.0758
 9470SOL    HW239873   1.100   2.455   3.488 -0.1401 -2.1246 -1.0812
 9471SOL     OW39874   0.408   0.470  16.285  0.4360  0.6266  0.1644
 9471SOL    HW139875   0.324   0.517  16.279  0.2323  0.3072  0.5623
 9471SOL    HW239876   0.412   0.429  16.199  0.0790  0.8230  0.0538
 9472SOL     OW39877   4.407   1.527   2.772  0.4138 -0.2203  0.2031
 9472SOL    HW139878   4.500   1.546   2.787 -0.2394  4.0829 -1.1575
 9472SOL    HW239879   4.398   1.510   2.678  3.9223  3.0195 -0.6992
 9473SOL     OW39880   4.514   4.142   6.313  0.0524 -0.3826 -0.9947
 9473SOL    HW139881   4.603   4.141   6.279  0.0827 -0.5972 -0.9101
 9473SOL    HW239882   4.544   4.139   6.404 -2.7125 -1.8579 -0.1218
 9474SOL     OW39883   3.439   4.094   5.000  0.8102 -0.0617 -0.3442
 9474SOL    HW139884   3.530   4.080   4.975  1.4946  2.6488  0.6054
 9474SOL    HW239885   3.413   4.150   4.927  0.9355  0.2574 -0.1431
 9475SOL     OW39886   1.858   4.465   6.081  0.3021 -0.0307 -0.4171
 9475SOL    HW139887   1.858   4.558   6.102  0.9304 -0.1861  0.2485
 9475SOL    HW239888   1.899   4.461   5.994  2.3282  2.2771  0.4422
 9476SOL     OW39889   0.288   0.573   6.448  0.2122 -0.3104 -0.2478
 9476SOL    HW139890   0.215   0.635   6.445  0.3594 -0.2055 -1.9604
 9476SOL    HW239891   0.340   0.600   6.373  3.1606  0.2439  2.0168
 9477SOL     OW39892   3.579   4.264   9.502  0.4653  0.8650  0.1075
 9477SOL    HW139893   3.642   4.245   9.571 -0.4986 -1.8463  0.2226
 9477SOL    HW239894   3.581   4.186   9.447 -0.0909  0.5253  0.5711
 9478SOL     OW39895   0.753   2.961   7.409 -0.0929  0.2210 -0.0293
 9478SOL    HW139896   0.739   2.941   7.502 -1.2803 -2.5009 -0.8199
 9478SOL    HW239897   0.750   3.057   7.419 -0.4256  0.2135 -0.0495
 9479SOL     OW39898   2.609   0.947   4.203  0.6348  0.3855 -0.3554
 9479SOL    HW139899   2.527   0.899   4.192  1.6323 -1.0305 -1.5196
 9479SOL    HW239900   2.579   1.034   4.229 -1.1857 -1.5498  3.8881
 9480SOL     OW39901   1.731   3.491   6.515  0.2285  0.2014 -0.2910
 9480SOL    HW139902   1.781   3.508   6.595  1.0774 -2.5252 -0.2446
 9480SOL    HW239903   1.748   3.570   6.465  1.0225 -0.5934 -1.2728
 9481SOL     OW39904   4.286   0.945   1.254  0.6319 -0.2662 -0.0592
 9481SOL    HW139905   4.190   0.946   1.256  0.6955  0.8892  1.8755
 9481SOL    HW239906   4.299   0.921   1.345  0.8130 -1.6278 -0.4365
 9482SOL     OW39907   0.345   4.620  14.927  0.0127 -0.0362  1.0970
 9482SOL    HW139908   0.330   4.610  14.833  1.3693 -0.6547  0.9485
 9482SOL    HW239909   0.408   4.691  14.929 -0.2137  0.1714  0.8919
 9483SOL     OW39910   0.024   0.403   4.722 -0.3935  0.1895 -0.0114
 9483SOL    HW139911   4.702   0.463   4.781  0.0846  0.7699 -0.2440
 9483SOL    HW239912   4.672   0.364   4.675 -0.5183 -0.3051  0.5976
 9484SOL     OW39913   0.341   2.577   3.800 -0.6238 -0.9903  0.2715
 9484SOL    HW139914   0.425   2.622   3.808 -1.8087  1.4537 -1.2303
 9484SOL    HW239915   0.289   2.622   3.867  0.3833 -0.4803  0.7096
 9485SOL     OW39916   2.771   2.340   5.426 -0.0977 -0.1316  0.5967
 9485SOL    HW139917   2.696   2.282   5.440 -0.9879  1.0154  0.5447
 9485SOL    HW239918   2.736   2.409   5.370  0.1398  0.9785  1.8447
 9486SOL     OW39919   4.643   4.489   7.463 -0.3887  0.1811 -0.1660
 9486SOL    HW139920   4.722   4.453   7.503  0.7361  1.5805 -1.1348
 9486SOL    HW239921   4.628   4.554   7.531 -0.2889  0.4243 -0.3788
 9487SOL     OW39922   2.498   2.871   8.893 -0.0193 -0.2072 -0.3515
 9487SOL    HW139923   2.518   2.948   8.840 -1.8617  1.1021  0.8903
 9487SOL    HW239924   2.532   2.880   8.982  3.5445  0.3606 -1.7563
 9488SOL     OW39925   3.866   1.697  16.571 -0.5598 -0.0351 -0.4174
 9488SOL    HW139926   3.859   1.677  16.665  1.2631  2.9934  0.3423
 9488SOL    HW239927   3.959   1.687  16.554 -0.5321 -2.9527  1.3196
 9489SOL     OW39928   4.634   1.083   7.207 -0.0312 -0.0027 -0.5219
 9489SOL    HW139929   4.585   1.142   7.264 -1.4460 -1.6506 -0.0208
 9489SOL    HW239930   0.001   1.102   7.235  0.3248  1.9734 -3.0408
 9490SOL     OW39931   3.934   3.738   4.752 -0.1554 -0.0883 -0.4376
 9490SOL    HW139932   3.905   3.697   4.833 -1.8867  1.5768 -0.2220
 9490SOL    HW239933   3.854   3.785   4.728 -1.9681 -1.6858  2.5959
 9491SOL     OW39934   4.466   2.169   8.067  0.4767 -0.0291  0.0385
 9491SOL    HW139935   4.549   2.130   8.040  1.9071  2.7631  0.4346
 9491SOL    HW239936   4.462   2.249   8.014 -0.6032 -0.3048 -0.3027
 9492SOL     OW39937   3.407   3.353   9.948  0.2479 -0.2194 -0.4234
 9492SOL    HW139938   3.463   3.322  10.019  0.8616  1.5138 -0.1600
 9492SOL    HW239939   3.322   3.352   9.993  1.4143 -1.1452  1.7799
 9493SOL     OW39940   2.732   4.483  11.236  0.4207 -0.5920 -0.2012
 9493SOL    HW139941   2.770   4.402  11.270  0.7360 -0.1351  0.5291
 9493SOL    HW239942   2.796   4.546  11.269 -0.6825 -0.2933  1.3136
 9494SOL     OW39943   0.849   0.262   6.059 -0.3850  0.1087  0.1851
 9494SOL    HW139944   0.909   0.266   5.984  0.9499  0.0753  1.2564
 9494SOL    HW239945   0.855   0.169   6.080 -0.0611 -0.3207 -1.7665
 9495SOL     OW39946   3.252   0.558   6.861 -0.4424 -0.0413  0.5196
 9495SOL    HW139947   3.197   0.496   6.812  0.5784 -0.6280  0.1282
 9495SOL    HW239948   3.333   0.509   6.871 -0.9781 -1.1833 -0.7061
 9496SOL     OW39949   1.271   4.481   3.619  0.1051  0.0712  0.0721
 9496SOL    HW139950   1.248   4.483   3.527  1.3147 -1.0451 -0.2584
 9496SOL    HW239951   1.203   4.430   3.662 -0.7017  0.4763 -0.7365
 9497SOL     OW39952   1.388   2.938   0.817 -0.6445  0.0231 -0.4373
 9497SOL    HW139953   1.455   2.997   0.851 -0.2022 -1.0324  0.4833
 9497SOL    HW239954   1.354   2.981   0.738 -1.4087 -0.2362 -0.2509
 9498SOL     OW39955   2.418   3.444   1.474 -0.2919 -0.2266  0.2827
 9498SOL    HW139956   2.487   3.413   1.416 -0.1718  1.5159 -0.5232
 9498SOL    HW239957   2.363   3.484   1.406  0.5832  0.3747 -0.0705
 9499SOL     OW39958   2.294   2.535   5.346 -0.4282  0.1382  0.1007
 9499SOL    HW139959   2.306   2.462   5.284  0.8595 -1.2115  1.9565
 9499SOL    HW239960   2.335   2.596   5.284  2.2076 -0.0216  1.6782
 9500SOL     OW39961   3.130   0.666  13.943  0.0629  0.8859 -0.3265
 9500SOL    HW139962   3.221   0.649  13.918  0.0437 -2.6618  1.8892
 9500SOL    HW239963   3.147   0.636  14.033  0.4440  0.1732 -0.6366
 9501SOL     OW39964   4.219   3.163  11.737 -0.4181  0.0202 -0.2326
 9501SOL    HW139965   4.149   3.203  11.789  0.4047 -0.0408  0.9382
 9501SOL    HW239966   4.177   3.161  11.651  2.9810 -0.8670 -1.8606
 9502SOL     OW39967   4.128   1.840   9.711  0.2759  0.0045  0.4380
 9502SOL    HW139968   4.125   1.764   9.770  0.0166  1.6810  2.5750
 9502SOL    HW239969   4.034   1.853   9.707  0.3064  0.1200  0.1070
 9503SOL     OW39970   0.085   3.904  16.692  0.1606 -0.0937 -0.2296
 9503SOL    HW139971   0.115   3.972  16.631 -1.6013  1.0699  0.1846
 9503SOL    HW239972   0.008   3.954  16.719  1.6520  1.2454  1.5585
 9504SOL     OW39973   0.215   0.655   5.645 -0.1349  0.1903 -0.1436
 9504SOL    HW139974   0.245   0.587   5.706  1.1031  1.0212  0.1809
 9504SOL    HW239975   0.246   0.613   5.564 -0.3323  0.9086 -0.5983
 9505SOL     OW39976   3.574   2.129   8.190  0.1268 -0.2506  0.0385
 9505SOL    HW139977   3.520   2.050   8.181  0.5120 -0.4557 -0.4917
 9505SOL    HW239978   3.525   2.203   8.155 -1.4090 -0.3990  1.8648
 9506SOL     OW39979   2.046   4.421  14.632 -0.4498  0.1319  0.1839
 9506SOL    HW139980   1.965   4.471  14.639 -0.8473  0.0600 -4.0931
 9506SOL    HW239981   2.036   4.371  14.713  0.5227  0.9626  0.8271
 9507SOL     OW39982   3.184   4.708   5.997 -0.7313 -0.5060  0.3752
 9507SOL    HW139983   3.123   0.047   5.958 -0.6655 -0.8771 -0.3089
 9507SOL    HW239984   3.235   0.063   6.018 -0.7988  0.0220 -1.4461
 9508SOL     OW39985   2.200   3.302   4.692 -0.0436  0.1547 -0.0420
 9508SOL    HW139986   2.203   3.391   4.658  2.1703 -0.6633 -1.9366
 9508SOL    HW239987   2.130   3.312   4.757  0.9871  1.2675  0.8868
 9509SOL     OW39988   0.274   2.905  12.462 -0.3306  0.2113 -0.3256
 9509SOL    HW139989   0.365   2.913  12.432 -0.4966  1.2982 -0.5470
 9509SOL    HW239990   0.245   2.990  12.427 -0.5285  0.2382 -0.0973
 9510SOL     OW39991   4.522   0.271  12.622  0.3434 -0.3256  0.0188
 9510SOL    HW139992   4.555   0.359  12.642 -0.7867 -0.5587  2.9071
 9510SOL    HW239993   4.462   0.267  12.697 -1.2264  1.4840 -1.1436
 9511SOL     OW39994   1.043   3.991   8.913 -0.2117  0.0656  0.5309
 9511SOL    HW139995   1.124   3.942   8.925 -1.2317 -1.9911 -0.8215
 9511SOL    HW239996   0.986   3.919   8.887  1.0046 -0.7526  0.1422
 9512SOL     OW39997   4.296   4.621  12.674  0.9096 -0.3775 -0.2814
 9512SOL    HW139998   4.311   4.593  12.764  2.3538  1.8113  0.1430
 9512SOL    HW239999   4.379   4.589  12.637  0.7961  1.3340 -2.0399
 9513SOL     OW40000   1.295   2.733  14.866  0.1295 -0.3114  0.5074
 9513SOL    HW140001   1.383   2.711  14.896  0.5596  0.9449  0.1729
 9513SOL    HW240002   1.256   2.646  14.855  0.5233 -0.6945  2.1821
 9514SOL     OW40003   3.793   1.486   5.532  0.3646  0.1093 -0.4904
 9514SOL    HW140004   3.854   1.514   5.600  0.3227 -0.0096 -0.4039
 9514SOL    HW240005   3.721   1.451   5.585  1.1292  0.7133  0.9271
 9515SOL     OW40006   0.231   0.680  11.841 -0.4325 -0.3850 -0.6391
 9515SOL    HW140007   0.322   0.650  11.837 -0.6563 -1.2067  0.3211
 9515SOL    HW240008   0.245   0.774  11.854 -0.3362 -0.7905  2.3846
 9516SOL     OW40009   3.671   3.369   2.252 -0.3791  0.5763  0.8301
 9516SOL    HW140010   3.763   3.353   2.275  0.1942  3.6198  0.6077
 9516SOL    HW240011   3.656   3.304   2.184 -0.9485  1.0116  0.5408
 9517SOL     OW40012   1.534   3.134   5.197  0.1809 -0.3917 -0.2004
 9517SOL    HW140013   1.444   3.165   5.187  0.8405  1.4067 -0.5214
 9517SOL    HW240014   1.549   3.163   5.287 -0.0894  0.4787 -0.4392
 9518SOL     OW40015   0.893   3.039   4.993 -0.3529 -0.0531  0.6379
 9518SOL    HW140016   0.961   3.080   5.047 -0.1240  1.4112 -0.7907
 9518SOL    HW240017   0.868   3.118   4.946  0.6194  0.6297  1.2631
 9519SOL     OW40018   2.422   3.886  14.695  0.3664 -0.0907  0.4054
 9519SOL    HW140019   2.328   3.904  14.689  0.0404 -1.8124  0.2561
 9519SOL    HW240020   2.424   3.832  14.774 -4.4333  0.1683  0.7566
 9520SOL     OW40021   3.661   4.290  13.519 -0.1088  0.1089  0.3451
 9520SOL    HW140022   3.612   4.215  13.552  2.4382 -1.0386  1.5525
 9520SOL    HW240023   3.741   4.278  13.570 -1.0603 -2.6592  1.1688
 9521SOL     OW40024   3.276   1.240  13.960  0.0176  0.2938  0.1773
 9521SOL    HW140025   3.217   1.295  14.012  2.8402  1.9997  1.5733
 9521SOL    HW240026   3.304   1.313  13.904  1.3668  0.1070  0.6051
 9522SOL     OW40027   2.865   0.187   8.937 -0.0357  0.1049 -0.6878
 9522SOL    HW140028   2.866   0.245   8.860  1.8946 -0.5382 -1.1287
 9522SOL    HW240029   2.823   0.242   9.003  0.8225  0.0807 -0.1219
 9523SOL     OW40030   1.415   3.799   5.456  0.0924 -0.3913  0.4003
 9523SOL    HW140031   1.472   3.758   5.391  1.8380  0.4630  1.4088
 9523SOL    HW240032   1.332   3.751   5.458  0.8610 -1.7786 -1.2740
 9524SOL     OW40033   0.537   0.716   2.940  0.2628 -0.3846  0.0122
 9524SOL    HW140034   0.554   0.707   3.034  0.0197  0.7876  0.1705
 9524SOL    HW240035   0.472   0.787   2.940 -0.2747 -0.8791  0.5931
 9525SOL     OW40036   2.505   2.249  12.351  0.7662 -0.7310 -0.1534
 9525SOL    HW140037   2.521   2.343  12.337 -0.1659 -0.9099 -2.4505
 9525SOL    HW240038   2.555   2.241  12.432  2.2938  0.2490 -0.9798
 9526SOL     OW40039   3.474   4.505  14.036 -0.4100 -0.5678 -0.5695
 9526SOL    HW140040   3.541   4.471  14.096  1.5377  2.0207 -1.2663
 9526SOL    HW240041   3.513   4.483  13.951  1.1025 -0.9607  0.2240
 9527SOL     OW40042   1.633   4.002  14.769 -0.7290  0.5433 -0.1588
 9527SOL    HW140043   1.726   3.999  14.794 -0.5601 -0.6848 -0.9096
 9527SOL    HW240044   1.621   4.097  14.768 -0.1785  0.6168  0.5504
 9528SOL     OW40045   0.292   0.806   1.409  0.2260  0.4623  0.3537
 9528SOL    HW140046   0.275   0.720   1.369  1.3834 -0.0629  0.9874
 9528SOL    HW240047   0.234   0.861   1.357 -0.2551  0.6768  1.1281
 9529SOL     OW40048   3.818   1.425  11.694 -0.5489 -0.5723 -0.1572
 9529SOL    HW140049   3.722   1.433  11.692 -0.3822  0.7314 -3.3244
 9529SOL    HW240050   3.826   1.430  11.789 -1.8082  0.7300 -0.1292
 9530SOL     OW40051   0.658   4.089   4.433  0.0270 -0.1934  0.4341
 9530SOL    HW140052   0.700   4.077   4.518  1.1047  0.4571 -0.0096
 9530SOL    HW240053   0.621   4.175   4.451 -3.1490 -1.5599  0.4050
 9531SOL     OW40054   0.419   2.030   7.621  0.0774  0.4301 -0.6444
 9531SOL    HW140055   0.338   2.015   7.573  0.1385 -0.4246 -0.4850
 9531SOL    HW240056   0.470   1.949   7.617 -2.0836 -0.9939  0.7776
 9532SOL     OW40057   1.404   4.330   5.566  0.1785 -0.1579  0.0105
 9532SOL    HW140058   1.362   4.263   5.512 -1.0864  0.2467  0.4800
 9532SOL    HW240059   1.407   4.272   5.643  0.8289  1.0773  0.9173
 9533SOL     OW40060   4.122   0.759  13.632  0.1541  0.5046 -0.0847
 9533SOL    HW140061   4.183   0.691  13.663 -1.1715 -0.8773 -0.5258
 9533SOL    HW240062   4.092   0.711  13.555 -1.3617 -0.5504  1.1486
 9534SOL     OW40063   1.608   3.555  15.214 -0.5960 -0.4852 -0.1078
 9534SOL    HW140064   1.588   3.607  15.135  0.9561  0.2497 -0.0230
 9534SOL    HW240065   1.521   3.522  15.237 -1.2909 -0.1489 -2.1855
 9535SOL     OW40066   0.852   2.235   3.021 -0.0672  0.6483 -0.3420
 9535SOL    HW140067   0.854   2.247   3.116  1.2553 -1.4637 -0.1188
 9535SOL    HW240068   0.944   2.237   2.993 -0.1976  0.2583 -0.7994
 9536SOL     OW40069   2.035   4.303  16.074  0.1659  0.4380 -0.0580
 9536SOL    HW140070   2.051   4.220  16.118  0.3845  0.9397  0.8069
 9536SOL    HW240071   2.122   4.342  16.060  0.7072 -1.1944 -1.2288
 9537SOL     OW40072   2.548   4.094   1.737  0.2103 -0.3027  0.1909
 9537SOL    HW140073   2.605   4.079   1.813 -0.6893  1.2160  1.1718
 9537SOL    HW240074   2.467   4.049   1.764 -0.5904  0.6897 -0.5690
 9538SOL     OW40075   3.421   1.439   8.865  0.4178 -0.1337 -0.0584
 9538SOL    HW140076   3.365   1.383   8.811  0.5283 -1.7363  1.4819
 9538SOL    HW240077   3.492   1.375   8.864  1.2991  0.8802 -1.3646
 9539SOL     OW40078   1.828   0.879  10.526  0.1255  0.2925  0.1692
 9539SOL    HW140079   1.857   0.871  10.435 -0.3312  1.9317 -0.1251
 9539SOL    HW240080   1.809   0.789  10.552  1.0278  0.1618  0.3530
 9540SOL     OW40081   0.199   2.267  10.559  0.9010 -0.5103  0.1398
 9540SOL    HW140082   0.144   2.247  10.634 -2.3325  0.2858 -2.0234
 9540SOL    HW240083   0.230   2.184  10.520  1.2452 -1.5851  2.7179
 9541SOL     OW40084   3.320   2.237  10.649 -0.0177 -0.3258 -1.0308
 9541SOL    HW140085   3.254   2.213  10.714  2.7773 -2.7185  0.9507
 9541SOL    HW240086   3.290   2.325  10.625  0.6782  0.5174  1.1862
 9542SOL     OW40087   2.270   2.722   2.900 -0.2016  0.4533 -0.5228
 9542SOL    HW140088   2.355   2.733   2.942  0.2304 -2.8224 -0.5270
 9542SOL    HW240089   2.254   2.814   2.876 -1.9870  0.2702 -0.0138
 9543SOL     OW40090   4.240   4.713   5.140  0.0733 -0.3616  0.7071
 9543SOL    HW140091   4.292   0.058   5.095 -0.0943 -1.0729 -0.5554
 9543SOL    HW240092   4.188   4.682   5.066 -1.7849  2.0461  0.9839
 9544SOL     OW40093   4.245   1.745  14.560 -0.0457  0.1569 -0.4550
 9544SOL    HW140094   4.278   1.688  14.490 -0.6620  0.5583 -1.0673
 9544SOL    HW240095   4.199   1.682  14.615  0.5372 -0.4935 -0.7080
 9545SOL     OW40096   3.210   1.067   8.038  0.2865  0.0020  0.0756
 9545SOL    HW140097   3.174   1.022   8.115 -1.4994  2.0756  0.4786
 9545SOL    HW240098   3.208   0.998   7.972 -0.4323 -0.0287  0.1227
 9546SOL     OW40099   2.501   1.199   8.651 -0.4041 -0.1310  0.5961
 9546SOL    HW140100   2.531   1.153   8.729  2.8718 -1.8725 -1.6584
 9546SOL    HW240101   2.410   1.168   8.647 -0.9088  1.4401  0.1263
 9547SOL     OW40102   1.938   2.197   3.486 -0.0267  0.2410  0.7979
 9547SOL    HW140103   1.883   2.262   3.442 -1.6312 -2.0747 -0.6013
 9547SOL    HW240104   1.923   2.136   3.414  0.0438  0.7735  0.3287
 9548SOL     OW40105   3.630   3.011  13.961  0.7439  0.1040  0.6758
 9548SOL    HW140106   3.692   3.047  13.898  1.2583 -0.4531  0.8760
 9548SOL    HW240107   3.598   3.083  14.016 -0.6747  0.8706 -1.1616
 9549SOL     OW40108   3.111   0.709   3.258 -0.1732  0.3828 -0.1226
 9549SOL    HW140109   3.016   0.697   3.256 -0.3375  1.8521 -1.2138
 9549SOL    HW240110   3.116   0.796   3.218  1.9548 -0.8292 -2.5637
 9550SOL     OW40111   2.988   2.106   4.510 -0.3008  0.1141  0.0818
 9550SOL    HW140112   2.994   2.040   4.579  1.3199  0.1019 -0.0798
 9550SOL    HW240113   3.081   2.116   4.494 -0.8064  1.3780 -2.0300
 9551SOL     OW40114   2.956   0.049   3.546 -0.0301 -0.1018 -0.2678
 9551SOL    HW140115   3.017   4.698   3.548 -0.2422 -0.3310 -2.5471
 9551SOL    HW240116   2.984   0.096   3.625 -1.7836  1.3769 -0.5319
 9552SOL     OW40117   3.739   0.952  14.656  0.0336  0.1730 -0.1951
 9552SOL    HW140118   3.784   0.947  14.572 -1.7936  0.0188 -1.1521
 9552SOL    HW240119   3.758   1.044  14.674  2.2921 -0.0386 -1.5411
 9553SOL     OW40120   3.851   1.827   5.837  0.1076 -0.1092 -0.3194
 9553SOL    HW140121   3.906   1.766   5.787 -0.3537 -1.9841  1.4566
 9553SOL    HW240122   3.792   1.769   5.885  1.2377 -0.2949  0.8730
 9554SOL     OW40123   0.874   1.579   1.009  0.1955 -0.6520 -0.4748
 9554SOL    HW140124   0.953   1.604   0.961  0.4655 -1.0679 -0.2424
 9554SOL    HW240125   0.820   1.641   0.961  2.5107 -0.6449 -3.0837
 9555SOL     OW40126   1.874   2.225  14.158 -0.4556  0.1629 -0.0369
 9555SOL    HW140127   1.949   2.249  14.213 -1.0930 -0.1711  0.9637
 9555SOL    HW240128   1.900   2.269  14.076 -2.1390 -1.4329 -1.4048
 9556SOL     OW40129   0.284   0.379  10.580  0.2655  0.1132 -0.1303
 9556SOL    HW140130   0.288   0.442  10.508 -0.3627  0.6290  0.2877
 9556SOL    HW240131   0.372   0.375  10.616  0.9412  0.5953 -1.7382
 9557SOL     OW40132   2.318   0.906   8.383 -0.3558  0.1766  0.5194
 9557SOL    HW140133   2.273   0.979   8.425  1.1781  1.8990 -0.8324
 9557SOL    HW240134   2.313   0.833   8.445 -0.6925  0.0685  0.3655
 9558SOL     OW40135   1.162   1.236   9.298 -0.3986  0.1288 -0.4197
 9558SOL    HW140136   1.147   1.191   9.381  1.0752  2.9027  1.3405
 9558SOL    HW240137   1.202   1.318   9.324 -2.9128  0.1392  3.3273
 9559SOL     OW40138   4.224   2.974   7.726  0.3266  0.1717 -0.0911
 9559SOL    HW140139   4.266   3.055   7.698  1.1390  0.0901  0.8949
 9559SOL    HW240140   4.169   3.004   7.798  1.9921  1.8272  0.4869
 9560SOL     OW40141   1.745   0.578   1.798  0.1427  0.2103 -0.7534
 9560SOL    HW140142   1.683   0.613   1.862  0.3786  1.7949 -1.3775
 9560SOL    HW240143   1.761   0.664   1.758  3.0198  1.2227  2.5645
 9561SOL     OW40144   1.479   4.497  12.428  0.5192  0.2316 -0.3823
 9561SOL    HW140145   1.470   4.588  12.455  1.9141  0.1784  0.2355
 9561SOL    HW240146   1.574   4.499  12.420  0.3588  1.6823 -2.0716
 9562SOL     OW40147   0.302   4.432   6.184 -0.0461 -0.1775 -0.0883
 9562SOL    HW140148   0.372   4.497   6.193 -1.5032  1.4715 -0.7440
 9562SOL    HW240149   0.232   4.484   6.146  2.0292  1.5509 -1.5567
 9563SOL     OW40150   0.948   4.423   6.992  0.1778  0.4832 -0.2939
 9563SOL    HW140151   0.951   4.487   6.921  1.3543  0.5965 -0.1405
 9563SOL    HW240152   0.963   4.343   6.943 -0.6709 -0.1148  0.4188
 9564SOL     OW40153   1.939   1.333   4.901 -0.2778  0.7398  0.1561
 9564SOL    HW140154   2.018   1.311   4.850  0.4374  0.5012  1.3643
 9564SOL    HW240155   1.872   1.304   4.839 -2.1845  1.9117  1.6815
 9565SOL     OW40156   0.305   2.655   8.991 -0.4399 -0.1754  0.1396
 9565SOL    HW140157   0.300   2.561   9.010  0.9661 -0.3784 -0.4442
 9565SOL    HW240158   0.397   2.676   9.010  0.1231 -4.1826  1.8933
 9566SOL     OW40159   3.676   1.857   8.790  0.0583  0.5145 -0.2223
 9566SOL    HW140160   3.651   1.789   8.727  0.6070  0.8690 -0.8335
 9566SOL    HW240161   3.636   1.816   8.866 -0.2682  0.6625 -0.3168
 9567SOL     OW40162   3.456   3.034  10.198  0.1486  0.1119 -0.0951
 9567SOL    HW140163   3.445   2.999  10.109 -2.0236 -0.8750  0.5528
 9567SOL    HW240164   3.487   3.122  10.178  1.5242 -1.0150 -2.9738
 9568SOL     OW40165   2.107   2.818   1.164  0.1728 -0.7611  0.7105
 9568SOL    HW140166   2.148   2.751   1.109  2.1412  1.9742 -1.1467
 9568SOL    HW240167   2.027   2.839   1.116  0.0873  1.8261  2.0151
   4.72266   4.72266  17.69265
