Membrane in water
40167
    1TCq1    O1    1   1.410   0.572  11.092 -0.2955  0.0748 -0.4936
    1TCq1    C1    2   1.367   0.495  11.188  0.1242  0.7155  0.1612
    1TCq1    O2    3   1.306   0.530  11.291 -0.7075  0.3446 -0.3363
    1TCq1    C2    4   1.385   0.360  11.138  0.6059 -0.1781 -0.0498
    1TCq1    C3    5   1.488   0.330  11.050 -0.4243  0.1467  0.9483
    1TCq1    C4    6   1.506   0.193  11.030  0.3868  0.6253 -0.5095
    1TCq1    C5    7   1.417   0.096  11.068 -0.3946  0.8013  0.3170
    1TCq1    C6    8   1.301   0.131  11.136 -0.0229  0.6509 -0.0433
    1TCq1    C7    9   1.299   0.262  11.179 -0.1876  0.3397 -1.0728
    1TCq1    C8   10   1.208   0.036  11.189 -0.3171  0.3468 -0.0110
    1TCq1    O4   11   1.126   0.069  11.274 -0.6589  0.1887 -0.1046
    1TCq1    C9   12   1.640   0.150  10.973 -0.6439  0.0783 -0.3221
    1TCq1    O5   13   1.727   0.238  10.957 -0.1289  0.5228 -0.0730
    1TCq1    O6   14   1.649   0.028  10.952 -0.4620 -0.2146  0.3744
    1TCq1    H1   15   1.435   0.513  11.017  0.2016 -0.3590  0.0074
    1TCq1    H2   16   1.565   0.399  11.018  0.9389 -0.8732  2.0369
    1TCq1    H3   17   1.445   4.709  11.060 -1.2370  0.6263 -0.2606
    1TCq1    H4   18   1.215   0.296  11.239 -2.4693 -1.2763 -3.3556
    2MPD2     C   19   0.979   4.294  11.251  0.4578 -0.5371 -0.0383
    2MPD2    C1   20   0.993   4.393  11.344 -0.4956  0.3023  0.5288
    2MPD2    C2   21   1.072   4.505  11.306 -0.2870 -0.1642 -0.3685
    2MPD2    C3   22   1.138   4.514  11.183 -0.0172  0.0050 -0.2841
    2MPD2    C4   23   1.133   4.404  11.097 -0.8034  0.1309 -0.3879
    2MPD2    C5   24   1.060   4.295  11.135  0.0563 -0.3193  1.0075
    2MPD2     H   25   1.072   4.586  11.378 -1.2370  0.0083 -0.5646
    2MPD2    H1   26   1.180   4.400  10.999  0.1423 -3.7273  0.1995
    2MPD2    H2   27   0.924   4.202  11.266 -0.5011 -0.2144 -1.6079
    2MPD2    H3   28   1.064   4.206  11.074 -3.0777 -0.3689  0.8576
    2MPD2     N   29   1.204   4.625  11.131  0.1550  0.0084 -0.0767
    2MPD2    H5   30   1.236   4.615  11.035 -2.8389  1.2987 -1.1786
    2MPD2    N1   31   0.938   4.384  11.474  0.2110  0.8834 -0.0249
    2MPD2    H7   32   0.980   4.454  11.534  1.0203  0.0931  0.3127
    3TCq1    O1   33   0.976   0.241  10.780  0.0681  0.4209 -0.1244
    3TCq1    C1   34   0.972   0.144  10.677 -0.7395 -0.5002  0.4012
    3TCq1    O2   35   1.054   0.142  10.583  0.2709 -1.0416  0.1318
    3TCq1    C2   36   0.828   0.126  10.657 -0.4388 -0.6351 -0.7728
    3TCq1    C3   37   0.787   0.122  10.526 -0.1124  0.5649  0.7762
    3TCq1    C4   38   0.656   0.111  10.502  0.2805  0.2167 -0.5295
    3TCq1    C5   39   0.568   0.104  10.608  0.6301 -0.0691 -0.6726
    3TCq1    C6   40   0.610   0.095  10.739  0.2219  0.0724 -0.4627
    3TCq1    C7   41   0.742   0.106  10.765  0.1261  0.3705 -0.0585
    3TCq1    C8   42   0.511   0.092  10.848 -0.1964 -0.4258 -0.2610
    3TCq1    O4   43   0.539   0.033  10.951  0.0670 -0.3284  0.0663
    3TCq1    C9   44   0.612   0.119  10.368  0.2246 -1.0864 -0.4573
    3TCq1    O5   45   0.693   0.114  10.277  0.6914 -0.3426 -0.0668
    3TCq1    O6   46   0.490   0.096  10.347  0.2365 -0.0485 -0.1184
    3TCq1    H1   47   0.886   0.273  10.799  0.7543  0.7308  2.6036
    3TCq1    H2   48   0.855   0.132  10.443  0.1106 -0.7228  0.8046
    3TCq1    H3   49   0.461   0.100  10.588  0.4070 -2.8123  1.0688
    3TCq1    H4   50   0.772   0.093  10.868 -3.0761 -1.4936  0.6513
    4MPD2     C   51   0.137   0.312  11.113 -0.1959 -0.5078 -0.6193
    4MPD2    C1   52   0.147   0.372  10.990 -0.7933 -0.1152 -0.1747
    4MPD2    C2   53   0.243   0.330  10.900  0.1774 -0.1949 -0.6763
    4MPD2    C3   54   0.319   0.222  10.928  0.0275 -0.3105  0.3051
    4MPD2    C4   55   0.301   0.150  11.047  0.3222 -0.0182 -1.0048
    4MPD2    C5   56   0.198   0.194  11.126 -0.2018  0.0857  0.7662
    4MPD2     H   57   0.250   0.375  10.802  1.4562 -0.8427 -0.8829
    4MPD2    H1   58   0.355   0.057  11.066  1.2124  1.1532  2.2618
    4MPD2    H2   59   0.055   0.335  11.180  1.6872  0.9852  1.1729
    4MPD2    H3   60   0.176   0.145  11.220 -0.7366 -0.5514  0.3077
    4MPD2     N   61   0.411   0.184  10.828 -0.3713  0.0930  0.5093
    4MPD2    H5   62   0.409   0.230  10.738 -0.6862 -1.7937 -0.4499
    4MPD2    N1   63   0.075   0.493  10.951 -0.0652 -0.0822 -0.2560
    4MPD2    H7   64   0.099   0.526  10.858  0.3116 -0.1227 -0.1722
    5TCq1    O1   65   0.471   2.015  11.720  0.0944 -0.0661 -0.5075
    5TCq1    C1   66   0.568   1.919  11.725 -0.9191  0.1273 -0.5927
    5TCq1    O2   67   0.550   1.804  11.690  0.3568  0.8414 -0.1614
    5TCq1    C2   68   0.700   1.987  11.693  0.0266  0.3623 -0.1802
    5TCq1    C3   69   0.746   2.086  11.772  0.1724 -0.1245 -0.5961
    5TCq1    C4   70   0.854   2.156  11.734  0.6632 -0.3875 -0.1995
    5TCq1    C5   71   0.922   2.128  11.616 -0.0018  0.4396  0.2620
    5TCq1    C6   72   0.869   2.025  11.540  0.1554 -0.2135 -0.3289
    5TCq1    C7   73   0.763   1.948  11.580  0.2202  0.4510  0.1556
    5TCq1    C8   74   0.907   2.009  11.401  0.3732  0.3989 -0.3013
    5TCq1    O4   75   0.893   1.895  11.355  0.0338  0.3312  0.1325
    5TCq1    C9   76   0.912   2.248  11.826  0.3223 -0.3171 -0.5812
    5TCq1    O5   77   0.875   2.241  11.948 -0.4693  0.1322  0.2649
    5TCq1    O6   78   0.993   2.332  11.770  0.2020 -0.1676 -0.0220
    5TCq1    H1   79   0.508   2.105  11.706  1.2916 -0.2276  1.6607
    5TCq1    H2   80   0.697   2.113  11.865  0.1852 -1.9733 -0.0672
    5TCq1    H3   81   1.002   2.194  11.584 -0.4380  0.1719 -1.3582
    5TCq1    H4   82   0.711   1.880  11.514  2.1943 -0.3778 -0.5501
    6MPD2     C   83   0.933   2.287  11.164 -0.1277 -0.1175  0.7186
    6MPD2    C1   84   0.941   2.160  11.209  0.3042 -0.3695 -0.1004
    6MPD2    C2   85   0.965   2.063  11.113 -0.2925  0.4612 -0.1839
    6MPD2    C3   86   0.990   2.088  10.985 -0.2609 -0.7143 -0.1512
    6MPD2    C4   87   0.992   2.223  10.944  0.1850  0.7270 -0.4259
    6MPD2    C5   88   0.959   2.318  11.030 -0.0599 -0.6393 -0.0584
    6MPD2     H   89   0.976   1.962  11.150 -0.0080  0.7402  0.5044
    6MPD2    H1   90   1.030   2.249  10.846 -1.8287 -0.6512 -1.5766
    6MPD2    H2   91   0.911   2.362  11.238 -1.7193 -1.4601  1.6131
    6MPD2    H3   92   0.969   2.420  10.996  0.3003 -0.8327 -0.5335
    6MPD2     N   93   1.038   1.981  10.912 -0.2226 -0.5338 -0.1020
    6MPD2    H5   94   1.056   1.894  10.962 -2.4995 -1.4030 -0.7478
    6MPD2    N1   95   0.917   2.132  11.343  0.6446 -1.0549  0.3649
    6MPD2    H7   96   0.905   2.210  11.407  2.3959 -0.9459  0.5682
    7TCq1    O1   97   3.404   2.033  13.482  0.2297  0.1860  0.3090
    7TCq1    C1   98   3.474   1.946  13.406 -0.1326  0.0607  0.2220
    7TCq1    O2   99   3.580   1.887  13.420 -0.2944 -0.0291 -0.0218
    7TCq1    C2  100   3.374   1.898  13.308 -0.0502 -0.2564  0.4002
    7TCq1    C3  101   3.291   1.985  13.247 -0.5492 -0.1794 -0.4131
    7TCq1    C4  102   3.221   1.936  13.141 -0.0984 -0.3571 -0.9475
    7TCq1    C5  103   3.239   1.809  13.092 -0.0756 -0.1619  0.4401
    7TCq1    C6  104   3.312   1.727  13.165  0.7687 -0.5715 -0.0590
    7TCq1    C7  105   3.381   1.768  13.276  0.3656  0.1679 -0.7413
    7TCq1    C8  106   3.288   1.586  13.150 -0.2726 -0.1654  0.1282
    7TCq1    O4  107   3.386   1.522  13.186 -0.0372  0.2826  0.6460
    7TCq1    C9  108   3.136   2.027  13.064  0.0477  1.4586  0.3500
    7TCq1    O5  109   3.066   1.979  12.967 -0.7660  0.0645 -0.1821
    7TCq1    O6  110   3.148   2.149  13.095 -0.3661  0.6699  0.1567
    7TCq1    H1  111   3.308   2.041  13.464  0.1733  1.0941  1.0460
    7TCq1    H2  112   3.273   2.084  13.287  2.4389  0.7011 -1.2451
    7TCq1    H3  113   3.210   1.779  12.991 -0.4106 -1.4064  0.9021
    7TCq1    H4  114   3.443   1.697  13.329  1.3610  0.2296 -1.8369
    8MPD2     C  115   3.008   1.167  13.076 -0.0184  0.1874  0.0736
    8MPD2    C1  116   3.115   1.189  13.165 -0.3382 -0.0877 -0.3562
    8MPD2    C2  117   3.176   1.313  13.166  0.8087 -0.3173 -0.1762
    8MPD2    C3  118   3.122   1.413  13.092  1.1279 -0.3165  0.0150
    8MPD2    C4  119   3.017   1.388  13.006  0.6032  0.1912 -0.6232
    8MPD2    C5  120   2.965   1.265  12.996 -0.6417  0.0087 -0.4585
    8MPD2     H  121   3.248   1.328  13.245  0.5548  0.1403 -0.0350
    8MPD2    H1  122   2.985   1.470  12.942  0.4645  0.9997  0.4915
    8MPD2    H2  123   2.960   1.070  13.085  2.2100 -0.8856  0.5413
    8MPD2    H3  124   2.887   1.236  12.927  0.6293  0.7731 -2.2302
    8MPD2     N  125   3.161   1.548  13.109  0.3643 -0.3400 -0.0050
    8MPD2    H5  126   3.102   1.626  13.084  1.1309 -0.0215 -0.8263
    8MPD2    N1  127   3.146   1.089  13.249 -0.2742  0.6572 -0.1433
    8MPD2    H7  128   3.068   1.024  13.258 -1.8611  2.4724 -0.5734
    9TCq1    O1  129   1.184   0.131  10.372  0.5579 -0.0326  0.4662
    9TCq1    C1  130   1.299   0.190  10.352 -0.7047 -0.5248 -0.5858
    9TCq1    O2  131   1.370   0.166  10.251 -0.2778 -0.3462  0.4146
    9TCq1    C2  132   1.364   0.206  10.479 -0.8180  0.2299  0.5143
    9TCq1    C3  133   1.498   0.178  10.471  0.8650  0.0739 -0.3620
    9TCq1    C4  134   1.576   0.235  10.570 -0.0082  0.2533  0.0581
    9TCq1    C5  135   1.530   0.311  10.673 -0.4275 -0.2140  0.0797
    9TCq1    C6  136   1.398   0.337  10.672  0.3825  0.6991  0.2409
    9TCq1    C7  137   1.311   0.280  10.580  0.7249 -0.0050  0.7566
    9TCq1    C8  138   1.349   0.448  10.750  0.7389 -0.0467 -0.5903
    9TCq1    O4  139   1.440   0.523  10.777 -0.3178  0.1558 -0.0533
    9TCq1    C9  140   1.713   0.223  10.556  0.1785  0.3313 -0.5198
    9TCq1    O5  141   1.789   0.283  10.634 -0.0559  0.3513 -0.1085
    9TCq1    O6  142   1.756   0.150  10.462  0.1259 -0.1382  0.0698
    9TCq1    H1  143   1.143   0.143  10.460  0.8271  0.5377  0.5185
    9TCq1    H2  144   1.545   0.108  10.403  1.3295 -0.0988  0.1381
    9TCq1    H3  145   1.593   0.360  10.746 -2.3579  0.0938  1.5485
    9TCq1    H4  146   1.209   0.313  10.562  1.0073  1.5492  2.0141
   10MPD2     C  147   1.187   0.671  10.828  0.2532 -0.0683  0.2440
   10MPD2    C1  148   1.152   0.544  10.860 -0.1738  0.0409  0.1131
   10MPD2    C2  149   1.075   0.517  10.968 -0.0086 -0.0251 -0.1146
   10MPD2    C3  150   1.009   0.626  11.035 -0.1336 -0.1676 -0.1696
   10MPD2    C4  151   1.040   0.752  10.990 -0.1395  0.4923 -0.3108
   10MPD2    C5  152   1.122   0.773  10.888  0.6167  0.2760 -0.2641
   10MPD2     H  153   1.066   0.414  11.001  0.6791  0.1750  0.6993
   10MPD2    H1  154   0.993   0.840  11.034  1.1713  0.5750  0.9438
   10MPD2    H2  155   1.250   0.703  10.747 -2.1817 -0.9994 -2.0139
   10MPD2    H3  156   1.140   0.879  10.874 -0.3620  0.3447 -1.0514
   10MPD2     N  157   0.955   0.616  11.167  0.0904 -0.7233  0.0751
   10MPD2    H5  158   0.923   0.709  11.191  0.5410 -0.5905  0.1631
   10MPD2    N1  159   1.219   0.433  10.801 -0.0568  0.2167 -0.0456
   10MPD2    H7  160   1.169   0.348  10.779 -1.8430  1.3289 -0.2457
   11TCq1    O1  161   2.358   0.581  14.015  0.1927 -0.4161 -0.1269
   11TCq1    C1  162   2.482   0.546  14.052 -0.2514  0.7187 -0.1459
   11TCq1    O2  163   2.586   0.580  13.998  0.2608 -0.0765 -0.3093
   11TCq1    C2  164   2.473   0.513  14.195  1.1168  1.0548  0.4144
   11TCq1    C3  165   2.550   0.599  14.273  0.1519  0.3867 -0.1681
   11TCq1    C4  166   2.501   0.640  14.398 -0.5021 -0.0728 -0.6350
   11TCq1    C5  167   2.384   0.593  14.449 -0.1350  0.1302  0.2962
   11TCq1    C6  168   2.307   0.519  14.366 -0.7624 -0.4807 -0.5629
   11TCq1    C7  169   2.350   0.475  14.242  0.1392  0.0701 -0.0114
   11TCq1    C8  170   2.171   0.494  14.414 -0.4914 -1.1457 -0.6016
   11TCq1    O4  171   2.153   0.509  14.533  0.8933 -0.0593 -0.2348
   11TCq1    C9  172   2.581   0.719  14.479 -0.5313 -0.7330 -0.2561
   11TCq1    O5  173   2.523   0.767  14.585  0.4297  0.2067  0.5409
   11TCq1    O6  174   2.702   0.747  14.440 -0.1540  0.7146  0.0378
   11TCq1    H1  175   2.287   0.568  14.082  0.1967 -0.2851 -0.0973
   11TCq1    H2  176   2.650   0.625  14.241  0.5366 -1.8634 -0.7480
   11TCq1    H3  177   2.342   0.630  14.542 -1.1176 -0.5796  0.1419
   11TCq1    H4  178   2.288   0.409  14.183 -0.3358  0.9631 -0.5170
   12MPD2     C  179   1.874   0.463  14.452 -0.0948 -0.3368 -0.4732
   12MPD2    C1  180   1.947   0.427  14.333 -0.4557 -0.0235 -0.1588
   12MPD2    C2  181   1.883   0.377  14.226 -0.4036 -0.2589  0.0498
   12MPD2    C3  182   1.748   0.337  14.234  0.4928  0.5566 -0.2757
   12MPD2    C4  183   1.674   0.371  14.340 -0.4984 -0.5476 -0.2412
   12MPD2    C5  184   1.742   0.434  14.447 -0.8473  0.2636 -0.2119
   12MPD2     H  185   1.940   0.350  14.139  0.4960  0.5256  0.3968
   12MPD2    H1  186   1.572   0.339  14.353 -0.6553  0.4301  0.9843
   12MPD2    H2  187   1.913   0.502  14.546  0.0326  0.5966 -0.9109
   12MPD2    H3  188   1.681   0.458  14.534 -0.2244  0.0507  0.2831
   12MPD2     N  189   1.688   0.258  14.138  0.1240  0.6140 -0.0359
   12MPD2    H5  190   1.748   0.212  14.071 -1.4825 -0.7058 -0.5697
   12MPD2    N1  191   2.083   0.456  14.317  0.5469  0.6345 -0.0821
   12MPD2    H7  192   2.125   0.435  14.227  1.5684  1.1348  0.2670
   13TCq1    O1  193   1.774   4.605  10.787 -0.7666  0.2111  0.2925
   13TCq1    C1  194   1.727   4.505  10.708  0.8602 -0.2721 -0.5054
   13TCq1    O2  195   1.789   4.419  10.649  0.0402 -0.0965 -0.1965
   13TCq1    C2  196   1.602   4.555  10.646 -0.8859  0.0055 -0.1490
   13TCq1    C3  197   1.601   4.556  10.515  0.5545  0.0223 -0.1142
   13TCq1    C4  198   1.482   4.553  10.452  0.7760  0.3250  0.3835
   13TCq1    C5  199   1.365   4.576  10.518 -0.9458 -0.5561 -0.0702
   13TCq1    C6  200   1.373   4.598  10.649 -0.2303  0.0988  0.3832
   13TCq1    C7  201   1.494   4.581  10.721 -0.4936 -0.0135 -0.1468
   13TCq1    C8  202   1.250   4.590  10.734 -0.5161  0.4466 -0.0308
   13TCq1    O4  203   1.265   4.616  10.853 -0.0315  0.0552  0.4706
   13TCq1    C9  204   1.477   4.531  10.308 -0.0438 -0.1235  0.0175
   13TCq1    O5  205   1.371   4.557  10.250  0.1020  0.2070 -0.1814
   13TCq1    O6  206   1.588   4.540  10.254  0.2514 -0.1648  0.3069
   13TCq1    H1  207   1.704   4.654  10.835 -0.1467  0.0299  1.3672
   13TCq1    H2  208   1.687   4.529  10.454 -0.6275 -0.3689 -1.6176
   13TCq1    H3  209   1.274   4.594  10.463 -1.1261 -1.2943 -0.0206
   13TCq1    H4  210   1.501   4.576  10.829  0.3450 -2.1517 -0.2901
   14MPD2     C  211   0.911   4.476  10.634 -0.3620 -0.0826 -0.0328
   14MPD2    C1  212   1.009   4.525  10.720 -0.0322 -0.4661 -0.0051
   14MPD2    C2  213   0.965   4.556  10.850  0.3862 -0.8064 -0.3622
   14MPD2    C3  214   0.843   4.519  10.893  0.4864 -0.0810  0.3940
   14MPD2    C4  215   0.749   4.478  10.806  0.0514  0.3296  0.3306
   14MPD2    C5  216   0.781   4.465  10.676  0.2388  0.1180  0.0596
   14MPD2     H  217   1.038   4.605  10.914 -0.2822  1.2671 -1.1889
   14MPD2    H1  218   0.643   4.477  10.827 -0.3132  0.0451 -1.5244
   14MPD2    H2  219   0.945   4.450  10.534  2.4399  2.7539  0.2000
   14MPD2    H3  220   0.706   4.435  10.604  0.6757 -0.3422 -0.2048
   14MPD2     N  221   0.812   4.543  11.023  0.6964 -0.2489  0.2058
   14MPD2    H5  222   0.869   4.615  11.067  0.7072  1.5832 -2.8093
   14MPD2    N1  223   1.139   4.542  10.668 -0.3669 -0.1099  0.0257
   14MPD2    H7  224   1.141   4.513  10.570 -0.4831  0.8525 -0.2574
   15TCq1    O1  225   3.167   4.196   2.317 -0.2207 -0.1878  0.8993
   15TCq1    C1  226   3.143   4.067   2.279  0.5775  0.1528 -0.2390
   15TCq1    O2  227   3.222   3.977   2.268  0.5417  0.0753  0.0062
   15TCq1    C2  228   3.030   4.082   2.195 -0.4664  0.3476 -0.5719
   15TCq1    C3  229   2.915   4.123   2.259 -0.5862  0.4881 -0.1204
   15TCq1    C4  230   2.800   4.114   2.199 -0.1211 -0.1749  0.3504
   15TCq1    C5  231   2.800   4.069   2.069  0.1615  0.1204 -0.4345
   15TCq1    C6  232   2.909   4.023   2.000 -0.3841 -0.6289 -0.0283
   15TCq1    C7  233   3.026   4.022   2.072  0.5935  1.5153  0.4961
   15TCq1    C8  234   2.898   3.936   1.879 -0.8683  0.4585 -0.3271
   15TCq1    O4  235   2.988   3.857   1.877  0.4498  0.4410 -0.3668
   15TCq1    C9  236   2.674   4.158   2.255 -0.1345  0.0787  0.5183
   15TCq1    O5  237   2.570   4.141   2.176  0.1154 -0.5579 -0.2753
   15TCq1    O6  238   2.680   4.238   2.353  0.2617  0.4647  0.1011
   15TCq1    H1  239   3.092   4.259   2.311  0.8630  1.0231 -0.1121
   15TCq1    H2  240   2.922   4.172   2.356  1.1914 -1.2812  0.6497
   15TCq1    H3  241   2.702   4.063   2.022 -0.6502 -1.2729  1.4504
   15TCq1    H4  242   3.112   3.967   2.035  0.1053 -0.0178  1.6383
   16MPD2     C  243   2.648   3.928   1.626  0.0325 -0.0279 -0.8125
   16MPD2    C1  244   2.762   3.889   1.692  0.0099 -0.0661 -0.7535
   16MPD2    C2  245   2.830   3.772   1.649 -0.1672  0.4117  0.4030
   16MPD2    C3  246   2.798   3.709   1.530  1.0498  0.1349 -0.3729
   16MPD2    C4  247   2.691   3.759   1.463 -0.3082 -0.1219 -0.2589
   16MPD2    C5  248   2.612   3.866   1.505  0.3828 -0.4753 -0.1583
   16MPD2     H  249   2.911   3.733   1.710 -0.8353  0.7551  1.4931
   16MPD2    H1  250   2.652   3.725   1.367 -1.3761 -2.3384  0.9748
   16MPD2    H2  251   2.585   4.002   1.673  2.2334  1.9046 -0.9118
   16MPD2    H3  252   2.526   3.902   1.451  0.3121 -0.2120  0.1267
   16MPD2     N  253   2.877   3.606   1.481  0.4368 -0.4048 -0.2790
   16MPD2    H5  254   2.966   3.598   1.530 -0.1933 -1.1137  0.7490
   16MPD2    N1  255   2.790   3.966   1.807  1.2658  0.5029 -0.3675
   16MPD2    H7  256   2.721   4.038   1.827  0.7254  0.4182 -1.8880
   17TCq1    O1  257   4.369   0.383  10.648 -0.1033 -0.2960  0.6219
   17TCq1    C1  258   4.431   0.347  10.762  0.1383 -0.0241  0.1783
   17TCq1    O2  259   4.418   0.404  10.870 -0.0118 -0.6459  0.0074
   17TCq1    C2  260   4.552   0.269  10.722  0.4670  0.5018  0.1879
   17TCq1    C3  261   4.623   0.287  10.607  0.6171  0.7453  0.4215
   17TCq1    C4  262   0.023   0.224  10.585  0.0724 -0.2457  0.1117
   17TCq1    C5  263   0.071   0.130  10.671 -0.7958  0.2232 -0.2488
   17TCq1    C6  264   4.709   0.114  10.786 -0.5908  0.4026 -0.0686
   17TCq1    C7  265   4.594   0.184  10.811 -0.1645  0.1232  0.1906
   17TCq1    C8  266   0.043   0.014  10.885  0.3744  0.1280 -0.1330
   17TCq1    O4  267   4.701   0.011  10.991  0.3793 -0.0496  0.1577
   17TCq1    C9  268   0.100   0.258  10.469 -0.3596  0.0018  0.6614
   17TCq1    O5  269   0.186   0.175  10.428  0.1923  0.4500  0.0731
   17TCq1    O6  270   0.050   0.355  10.400  0.0873 -0.3257  0.0777
   17TCq1    H1  271   4.389   0.328  10.569  2.3430  0.2602  0.8522
   17TCq1    H2  272   4.602   0.377  10.551 -0.3534 -0.5571 -1.3036
   17TCq1    H3  273   0.161   0.077  10.642 -0.7414 -0.7248  1.6938
   17TCq1    H4  274   4.544   0.180  10.907 -1.5145  0.4668 -0.5077
   18MPD2     C  275   0.208   4.544  11.044  0.2118 -0.4193 -0.0711
   18MPD2    C1  276   0.212   4.551  10.907 -0.0901 -0.8373  0.3981
   18MPD2    C2  277   0.292   4.463  10.834 -0.0117  0.3887 -0.2978
   18MPD2    C3  278   0.353   4.354  10.901 -0.3558 -0.4472  0.4201
   18MPD2    C4  279   0.345   4.344  11.034 -0.1073 -0.4416 -0.4310
   18MPD2    C5  280   0.277   4.444  11.107 -0.4899 -0.5914 -0.4433
   18MPD2     H  281   0.310   4.476  10.728  1.0268  0.3910 -0.1152
   18MPD2    H1  282   0.401   4.274  11.095  0.8892  1.1317  0.4576
   18MPD2    H2  283   0.156   4.609  11.113  2.9993  0.1703  1.5126
   18MPD2    H3  284   0.281   4.445  11.216  0.8016  1.7620 -0.5268
   18MPD2     N  285   0.421   4.252  10.826 -0.2598  0.1998 -0.1903
   18MPD2    H5  286   0.459   4.173  10.879 -1.6312 -1.3512 -1.5480
   18MPD2    N1  287   0.135   4.643  10.835 -0.6746  0.0429  0.5469
   18MPD2    H7  288   0.154   4.647  10.735  3.0876 -0.9114  1.2084
   19TMC2    C1  289   2.640   4.692  13.688  0.0224  0.2025 -0.4060
   19TMC2    C2  290   2.688   4.705  13.564  0.1055  0.0503 -0.3083
   19TMC2    C3  291   2.700   4.595  13.488 -0.4598 -0.7494  0.2583
   19TMC2    C4  292   2.600   4.571  13.740  0.1347  0.4572 -0.2291
   19TMC2    C5  293   2.629   4.462  13.660  0.0714 -0.0273  0.0923
   19TMC2    C6  294   2.679   4.466  13.532 -0.2927 -0.9068  0.6550
   19TMC2     C  295   2.676   0.080  13.783  0.1919 -0.3861 -0.3037
   19TMC2     O  296   2.681   0.190  13.742  0.2717  0.1673 -0.5170
   19TMC2     H  297   2.729   0.082  13.530 -0.9104  0.4404 -0.4488
   19TMC2    H1  298   2.578   4.545  13.843  0.5923 -0.0761 -0.2646
   19TMC2    H2  299   2.709   4.385  13.467 -1.9730 -0.9401 -0.0820
   19TMC2    C7  300   2.560   4.336  13.700 -0.1708  0.2901 -0.1535
   19TMC2    C8  301   2.757   4.614  13.359 -0.2578 -0.2199 -0.4439
   19TMC2    O1  302   2.456   4.349  13.766 -0.3257 -0.5992 -0.7238
   19TMC2    O2  303   2.815   4.519  13.304  0.3783 -0.3832  0.2041
   19TMC2    O5  304   2.707   0.004  13.295  0.5607  0.2837  0.6171
   19TMC2    H5  305   2.643   0.059  13.344 -0.1577  0.2801 -0.3164
   20MPD2     C  306   2.738   0.248  14.022  1.0757 -0.0321  0.4860
   20MPD2    C1  307   2.699   0.118  14.031 -0.2587  0.7716  0.3029
   20MPD2    C2  308   2.721   0.053  14.147  0.2850  0.3469 -0.7647
   20MPD2    C3  309   2.765   0.119  14.260 -0.5318  0.1257 -0.2709
   20MPD2    C4  310   2.775   0.254  14.258  0.3603  0.3923 -0.3916
   20MPD2    C5  311   2.765   0.321  14.137  0.2528  0.1274  0.3669
   20MPD2     H  312   2.717   4.662  14.146 -0.6409  0.3454  2.4942
   20MPD2    H1  313   2.782   0.315  14.348 -2.9404  1.8919 -1.1430
   20MPD2    H2  314   2.721   0.316  13.939  1.9754  2.0882  2.0321
   20MPD2    H3  315   2.766   0.429  14.129 -0.3532 -0.0300 -1.8646
   20MPD2     N  316   2.786   0.063  14.388 -0.1053  0.1310 -0.1364
   20MPD2    H5  317   2.807   0.121  14.468 -0.0671 -2.1684  1.5206
   20MPD2    N1  318   2.680   0.037  13.913  0.1088 -0.1002 -0.3657
   20MPD2    H7  319   2.661   4.655  13.924  1.4241 -0.3227 -0.0154
   21MPD2     C  320   4.648   1.075  14.738  0.0356  0.4010  0.2909
   21MPD2    C1  321   4.630   0.948  14.801 -0.2488  0.3746 -0.5622
   21MPD2    C2  322   4.522   0.933  14.888 -0.3677 -0.2111 -0.3935
   21MPD2    C3  323   4.438   1.040  14.910  0.4929  0.1751 -0.1987
   21MPD2    C4  324   4.451   1.155  14.836 -0.1100 -0.5465  0.1543
   21MPD2    C5  325   4.561   1.175  14.759 -0.2342 -0.2734  0.4758
   21MPD2     H  326   4.512   0.835  14.932  1.6576 -1.8553 -3.5834
   21MPD2    H1  327   4.388   1.239  14.862  2.3206  1.2528  0.2069
   21MPD2    H2  328   0.017   1.081  14.673  1.1787  1.4882  1.9221
   21MPD2    H3  329   4.586   1.274  14.720  0.0874  0.0452  1.4797
   21MPD2     N  330   4.338   1.038  15.007  0.8310  0.1881  0.2468
   21MPD2    H5  331   4.286   1.125  15.015  2.1223  1.1326 -1.5370
   21MPD2    N1  332   4.700   0.836  14.777  0.6070  0.3529 -0.6790
   21MPD2    H7  333   4.670   0.750  14.823  0.9517  1.2102  1.1434
   22TCq2    C1  334   4.311   0.938  15.100  0.4430  0.4871  0.6451
   22TCq2    O2  335   4.372   0.831  15.123  0.0304  0.0623 -0.4478
   22TCq2    C2  336   4.207   0.969  15.191  0.0066 -0.2129  1.0105
   22TCq2    C3  337   4.194   0.898  15.305 -1.1562  0.1359 -0.1486
   22TCq2    C4  338   4.106   0.940  15.400 -0.3251  0.4897  0.5860
   22TCq2    C5  339   4.018   1.043  15.376 -0.4714 -0.4264 -0.2433
   22TCq2    C6  340   4.020   1.104  15.255 -0.3623  0.1087  0.2165
   22TCq2    C7  341   4.117   1.068  15.166  0.0402 -0.0532  0.1873
   22TCq2    C8  342   3.912   1.198  15.237 -0.0992 -0.0497 -0.1045
   22TCq2    O4  343   3.839   1.223  15.332  0.1421  0.2729  0.1648
   22TCq2    C9  344   4.091   0.860  15.524 -0.6190  0.5442 -0.5224
   22TCq2    O5  345   4.038   0.916  15.621 -0.1267 -0.3379  0.5278
   22TCq2    O6  346   4.155   0.751  15.532  0.3591 -0.0578 -0.2255
   22TCq2    H2  347   4.257   0.811  15.317  0.1355  1.0717 -0.1611
   22TCq2    H3  348   3.935   1.055  15.445  0.2497  0.0880  0.5344
   22TCq2    H4  349   4.103   1.106  15.065  0.3715  1.3280  0.6603
   23MPD2     C  350   2.282   1.404  14.847  0.4785  0.5934  0.0679
   23MPD2    C1  351   2.165   1.406  14.920 -0.0490 -0.9708 -0.4323
   23MPD2    C2  352   2.054   1.465  14.867  0.0795 -0.2904 -0.5725
   23MPD2    C3  353   2.049   1.503  14.737 -0.5849  0.1776 -0.0676
   23MPD2    C4  354   2.168   1.508  14.668 -0.2998 -0.0004  0.5759
   23MPD2    C5  355   2.289   1.472  14.729  0.1992  0.3203 -0.7359
   23MPD2     H  356   1.972   1.473  14.937 -0.4359  1.4591 -1.3601
   23MPD2    H1  357   2.171   1.543  14.566  0.1092 -1.3326  0.1296
   23MPD2    H2  358   2.371   1.355  14.884 -0.1300 -0.7048 -0.1627
   23MPD2    H3  359   2.379   1.476  14.670  0.0628  0.9413 -0.9011
   23MPD2     N  360   1.930   1.541  14.669 -0.0444 -0.0020 -0.1546
   23MPD2    H5  361   1.933   1.566  14.570 -1.1209  1.2575  0.1153
   23MPD2    N1  362   2.145   1.339  15.035  0.1261 -0.1336  0.0235
   23MPD2    H7  363   2.053   1.337  15.079  1.0244 -2.2997  1.8406
   24TCq2    C1  364   1.797   1.531  14.708 -0.3397  0.5815 -0.2871
   24TCq2    O2  365   1.754   1.493  14.818 -0.4642 -0.3190  0.1585
   24TCq2    C2  366   1.709   1.563  14.597 -0.4412 -0.4371 -0.3874
   24TCq2    C3  367   1.736   1.680  14.523 -0.1701  0.4851  0.3246
   24TCq2    C4  368   1.638   1.730  14.445 -0.5776  0.3829 -0.2141
   24TCq2    C5  369   1.509   1.691  14.477 -0.4009 -0.2548 -0.2544
   24TCq2    C6  370   1.482   1.596  14.569 -0.3973 -0.3050  0.1180
   24TCq2    C7  371   1.580   1.525  14.630 -0.1769 -0.1565  0.0180
   24TCq2    C8  372   1.354   1.533  14.579  0.4910  0.4059  0.6679
   24TCq2    O4  373   1.353   1.414  14.600  0.1333  0.1450 -0.1831
   24TCq2    C9  374   1.674   1.829  14.341 -0.2324 -0.4632 -0.2916
   24TCq2    O5  375   1.786   1.891  14.348 -0.1004  0.1220 -0.2236
   24TCq2    O6  376   1.579   1.849  14.257 -0.5202 -0.4623  0.4238
   24TCq2    H2  377   1.833   1.716  14.491  1.0073 -2.3414  0.6983
   24TCq2    H3  378   1.427   1.743  14.430 -0.4059 -0.7518 -0.8079
   24TCq2    H4  379   1.561   1.440  14.695  0.8336  1.0095  1.8270
   25TMC2    C1  380   4.579   3.432  11.256  0.5683 -0.8329 -0.2294
   25TMC2    C2  381   4.462   3.420  11.325 -0.4669 -1.1786 -0.4315
   25TMC2    C3  382   4.454   3.494  11.441 -0.5315 -0.1363 -0.3197
   25TMC2    C4  383   4.685   3.503  11.301  0.4089 -0.0680  0.2380
   25TMC2    C5  384   4.669   3.563  11.421 -0.1841  0.2775 -0.7253
   25TMC2    C6  385   4.555   3.566  11.490  0.2572 -0.8988 -0.6053
   25TMC2     C  386   4.589   3.334  11.149 -0.3893 -0.1864 -0.2609
   25TMC2     O  387   4.491   3.262  11.140 -1.0005  0.3437 -0.3145
   25TMC2     H  388   4.374   3.367  11.290 -0.8624 -1.3779  0.8513
   25TMC2    H1  389   0.064   3.498  11.254 -0.0425  0.9972 -0.8147
   25TMC2    H2  390   4.532   3.637  11.569 -1.0735 -0.9551 -0.9459
   25TMC2    C7  391   0.043   3.668  11.454 -0.0054 -0.3711  0.4372
   25TMC2    C8  392   4.338   3.480  11.523 -0.8560 -0.6808 -0.1405
   25TMC2    O1  393   0.137   3.674  11.375  0.3150 -0.9259 -0.5037
   25TMC2    O2  394   4.234   3.434  11.475 -0.0463  0.5438 -0.1193
   25TMC2    O5  395   4.372   3.467  11.652 -0.6098  0.1121 -0.0479
   25TMC2    H5  396   4.467   3.482  11.672 -0.6430 -0.1596  0.3100
   26MPD2     C  397   0.118   3.047  10.807  0.4080  0.3080 -0.0607
   26MPD2    C1  398   0.023   3.011  10.900  0.0809  0.5586 -0.8362
   26MPD2    C2  399   4.689   3.109  10.983 -0.1584 -0.1781  0.4620
   26MPD2    C3  400   0.010   3.245  10.963  0.4646  0.1714 -0.3682
   26MPD2    C4  401   0.105   3.281  10.869 -0.0386 -1.4325  0.0477
   26MPD2    C5  402   0.161   3.179  10.796  0.5117 -0.5294  0.0974
   26MPD2     H  403   4.620   3.085  11.063  0.2218 -0.8429  0.5939
   26MPD2    H1  404   0.148   3.380  10.857 -1.1538 -1.1021 -1.2252
   26MPD2    H2  405   0.165   2.971  10.745 -1.4919 -0.7256 -0.2303
   26MPD2    H3  406   0.229   3.200  10.714  0.7638 -1.1490  0.1456
   26MPD2     N  407   4.688   3.345  11.056 -0.5024 -0.1985  0.0914
   26MPD2    H5  408   0.028   3.427  11.067 -0.3129 -0.0516 -2.0441
   26MPD2    N1  409   4.709   2.874  10.904 -0.1083  0.1143 -0.0659
   26MPD2    H7  410   0.050   2.805  10.857 -1.0287 -1.1032  0.5792
   27TMC2    C1  411   4.218   0.809  12.212 -0.0562 -0.4572 -0.3409
   27TMC2    C2  412   4.142   0.917  12.182  0.6934  0.2415  0.2530
   27TMC2    C3  413   4.185   1.000  12.082 -0.3795  0.6210 -0.0052
   27TMC2    C4  414   4.337   0.777  12.154  0.1179 -0.1196 -0.0381
   27TMC2    C5  415   4.394   0.872  12.074  0.4714 -0.3777 -0.3132
   27TMC2    C6  416   4.315   0.977  12.040  0.2418 -0.5827 -0.5239
   27TMC2     C  417   4.182   0.730  12.326  0.5793  0.1871  0.7817
   27TMC2     O  418   4.248   0.629  12.348  0.2244  0.0432 -0.1036
   27TMC2     H  419   4.061   0.955  12.243 -0.8949 -1.2139 -0.9779
   27TMC2    H1  420   4.405   0.704  12.196  0.7943  0.7920  0.4606
   27TMC2    H2  421   4.354   1.052  11.973 -0.9011 -2.2224 -3.0028
   27TMC2    C7  422   4.515   0.915  12.135 -0.6160  0.7345  0.6827
   27TMC2    C8  423   4.125   1.130  12.069 -0.3439  0.3624 -0.6536
   27TMC2    O1  424   4.569   0.835  12.215  0.6032  0.7401 -0.6088
   27TMC2    O2  425   4.194   1.222  12.032  0.2891 -0.1149  0.3817
   27TMC2    O5  426   3.996   1.116  12.052 -0.0801  0.1105 -0.7531
   27TMC2    H5  427   3.967   1.022  12.059 -1.8558  0.6671 -0.5979
   28MPD2     C  428   3.973   0.649  12.788 -0.3689  0.1016  0.8161
   28MPD2    C1  429   3.938   0.781  12.754 -0.4263  0.7635  0.0775
   28MPD2    C2  430   3.979   0.823  12.624 -0.1370 -0.5602  0.3882
   28MPD2    C3  431   4.040   0.731  12.537 -0.1066 -0.5457  0.4120
   28MPD2    C4  432   4.064   0.603  12.575 -0.8518 -0.0523  0.1013
   28MPD2    C5  433   4.040   0.563  12.702 -0.0440 -0.2072 -0.1699
   28MPD2     H  434   3.972   0.922  12.583 -1.5571 -0.6538  0.4073
   28MPD2    H1  435   4.123   0.532  12.518  1.1175  1.2299  0.5106
   28MPD2    H2  436   3.959   0.620  12.891  0.4423 -0.9037  0.6437
   28MPD2    H3  437   4.093   0.477  12.740  1.1173 -0.0149 -1.3548
   28MPD2     N  438   4.095   0.787  12.421 -0.4634 -0.0469  0.3259
   28MPD2    H5  439   4.084   0.887  12.403  1.0148  0.4162  1.9997
   28MPD2    N1  440   3.873   0.862  12.848  0.4147  0.1277  0.1529
   28MPD2    H7  441   3.851   0.820  12.937  1.5652  1.5258  1.0899
   29MPD2     C  442   3.503   3.288  13.910  0.7252 -0.1241 -0.1033
   29MPD2    C1  443   3.641   3.291  13.933 -0.0537  0.1497  0.7343
   29MPD2    C2  444   3.698   3.403  13.985 -0.2213  0.2268 -0.4231
   29MPD2    C3  445   3.630   3.516  14.005  0.4695 -0.3058  0.8871
   29MPD2    C4  446   3.494   3.517  13.978  0.3695 -0.9611 -0.2201
   29MPD2    C5  447   3.424   3.404  13.933  0.6214 -0.6688 -0.3845
   29MPD2     H  448   3.800   3.391  14.019  0.1630 -0.2708 -1.7439
   29MPD2    H1  449   3.434   3.606  13.992  0.4682 -0.8574 -0.4429
   29MPD2    H2  450   3.445   3.199  13.887 -1.6434  1.6224 -0.8835
   29MPD2    H3  451   3.319   3.409  13.907  0.4007 -0.7866  0.4733
   29MPD2     N  452   3.685   3.639  14.050  0.0054  0.5266  0.0348
   29MPD2    H5  453   3.617   3.709  14.079  1.9517  1.9159  1.1814
   29MPD2    N1  454   3.733   3.184  13.902 -0.0345 -1.0247 -0.2187
   29MPD2    H7  455   3.830   3.214  13.900 -0.2605 -0.2416  0.4679
   30TCq2    C1  456   3.821   3.669  14.031  0.2522  0.4164  0.1839
   30TCq2    O2  457   3.905   3.599  13.980  0.4566 -0.1943  0.1977
   30TCq2    C2  458   3.856   3.798  14.092 -0.3257  0.6099  0.0383
   30TCq2    C3  459   3.988   3.832  14.098 -0.0118  0.3912 -0.3414
   30TCq2    C4  460   4.032   3.916  14.197  0.1606  0.0808  0.6199
   30TCq2    C5  461   3.946   3.976  14.282 -0.5557  0.3297  0.8875
   30TCq2    C6  462   3.814   3.941  14.274  0.1125  0.0538 -0.2056
   30TCq2    C7  463   3.770   3.853  14.186 -0.3912  0.9355 -0.6113
   30TCq2    C8  464   3.716   4.026  14.343 -0.2083 -0.0238  0.5045
   30TCq2    O4  465   3.596   4.022  14.310 -0.2906  0.2053  0.3962
   30TCq2    C9  466   4.172   3.950  14.209 -0.2705  0.1839 -0.3425
   30TCq2    O5  467   4.198   4.053  14.278 -0.1635 -0.0664 -0.5717
   30TCq2    O6  468   4.248   3.862  14.164  0.0152  0.1971 -0.3483
   30TCq2    H2  469   4.064   3.788  14.036 -0.2881 -1.4318  0.6048
   30TCq2    H3  470   3.979   4.063  14.337 -0.2414 -0.0357  1.2742
   30TCq2    H4  471   3.663   3.836  14.183 -0.3330  0.9099 -2.4031
   31MPD2     C  472   1.800   2.362  14.881 -0.7128 -0.1998 -0.1798
   31MPD2    C1  473   1.690   2.375  14.797  0.3856  0.0661  0.5940
   31MPD2    C2  474   1.569   2.322  14.844  0.5285  0.0014 -0.7213
   31MPD2    C3  475   1.558   2.252  14.963 -0.1778 -0.7128  0.0810
   31MPD2    C4  476   1.668   2.228  15.033 -0.1679 -0.8003  1.1593
   31MPD2    C5  477   1.786   2.294  14.996  0.1236  0.1854  0.2277
   31MPD2     H  478   1.484   2.339  14.778  0.0353 -0.6526 -0.2494
   31MPD2    H1  479   1.671   2.171  15.125 -0.2016 -1.4909  0.7289
   31MPD2    H2  480   1.892   2.415  14.863 -1.0015 -0.1508 -1.4841
   31MPD2    H3  481   1.867   2.284  15.068 -0.2166 -0.1704  0.5581
   31MPD2     N  482   1.436   2.184  14.997 -0.0880 -0.2074 -0.0579
   31MPD2    H5  483   1.448   2.106  15.061  0.3660  0.5725  0.7917
   31MPD2    N1  484   1.703   2.431  14.666 -0.2370  0.1753 -0.2447
   31MPD2    H7  485   1.790   2.477  14.638 -0.2222  0.0039 -0.4815
   32TCq2    C1  486   1.321   2.189  14.918  0.3037 -0.4765 -0.3648
   32TCq2    O2  487   1.289   2.273  14.836  0.2187  0.1171 -0.2742
   32TCq2    C2  488   1.214   2.102  14.961  0.3129  0.2110  0.1663
   32TCq2    C3  489   1.085   2.154  14.952 -0.1878 -0.1341 -0.2770
   32TCq2    C4  490   0.975   2.090  15.007 -0.1054 -0.1442  0.6991
   32TCq2    C5  491   0.996   1.973  15.073 -0.1277 -0.2753 -0.5618
   32TCq2    C6  492   1.122   1.924  15.078  0.4275 -0.1053 -0.1841
   32TCq2    C7  493   1.234   1.983  15.022  0.6035  0.4552 -0.2595
   32TCq2    C8  494   1.156   1.841  15.195  0.1935  0.2024 -0.6038
   32TCq2    O4  495   1.272   1.800  15.196  0.5758  0.0827 -0.0946
   32TCq2    C9  496   0.838   2.141  14.991  0.9567  0.0818 -0.0257
   32TCq2    O5  497   0.823   2.241  14.918  0.0230 -0.5386 -0.2355
   32TCq2    O6  498   0.750   2.081  15.055  0.2609  0.2281 -0.1296
   32TCq2    H2  499   1.064   2.239  14.888  1.3611  1.3632  1.1888
   32TCq2    H3  500   0.911   1.918  15.109 -0.0882 -0.0742 -0.1561
   32TCq2    H4  501   1.338   1.952  15.035  0.0273 -0.3432  2.4543
   33MPD2     C  502   0.471   3.861  10.083  0.3020 -0.5270 -0.1578
   33MPD2    C1  503   0.516   3.986  10.119  0.0561 -0.3710 -0.2741
   33MPD2    C2  504   0.536   4.086  10.022 -0.4950  0.6691  0.6636
   33MPD2    C3  505   0.518   4.057   9.887  0.1510 -0.4928  0.1354
   33MPD2    C4  506   0.472   3.933   9.852 -0.1504  0.7794 -0.8961
   33MPD2    C5  507   0.439   3.838   9.949 -0.0828 -0.1888  0.1858
   33MPD2     H  508   0.560   4.188  10.052  0.5887  0.8938 -0.9268
   33MPD2    H1  509   0.461   3.907   9.748  0.2680  0.0768 -0.7669
   33MPD2    H2  510   0.455   3.784  10.158  0.2172  0.6911  1.0694
   33MPD2    H3  511   0.413   3.737   9.919  0.5918  0.5957 -3.0757
   33MPD2     N  512   0.552   4.152   9.782  0.1242 -0.3647  0.0448
   33MPD2    H5  513   0.529   4.119   9.689  0.5579 -0.8238  0.0982
   33MPD2    N1  514   0.540   4.005  10.258  0.2754 -0.0540 -0.2207
   33MPD2    H7  515   0.510   3.935  10.325  2.0971  0.0873  0.7361
   34TCq2    C1  516   0.626   4.268   9.806 -0.2359  0.1566  0.8419
   34TCq2    O2  517   0.666   4.315   9.912  0.1742  0.0806  0.2195
   34TCq2    C2  518   0.652   4.349   9.696 -0.2226 -0.1416  0.8484
   34TCq2    C3  519   0.564   4.359   9.588  0.1043 -0.1449  0.1079
   34TCq2    C4  520   0.572   4.462   9.499 -0.6228  0.6869 -0.0361
   34TCq2    C5  521   0.674   4.556   9.510  0.0147 -0.2702 -0.2737
   34TCq2    C6  522   0.763   4.546   9.618  0.0181 -0.4430  0.2454
   34TCq2    C7  523   0.746   4.446   9.717 -0.6688  0.6240 -0.1556
   34TCq2    C8  524   0.869   4.640   9.629 -0.7608  0.1668 -0.3171
   34TCq2    O4  525   0.926   4.643   9.739 -0.3565  0.4328 -0.2517
   34TCq2    C9  526   0.482   4.463   9.383  0.3715 -0.8133 -0.0763
   34TCq2    O5  527   0.513   4.554   9.300  0.8581  0.3516  0.2568
   34TCq2    O6  528   0.420   4.357   9.359 -0.3385  0.0782 -0.5237
   34TCq2    H2  529   0.490   4.283   9.569  0.0112  0.1385 -0.6784
   34TCq2    H3  530   0.682   4.644   9.448 -1.1932  0.2874  0.3534
   34TCq2    H4  531   0.816   4.440   9.800  1.2853 -0.5214 -1.9060
   35MPD2     C  532   3.095   1.260  11.780 -0.3059  0.0120 -0.3388
   35MPD2    C1  533   2.964   1.247  11.793 -0.3645  0.5271  0.8393
   35MPD2    C2  534   2.873   1.308  11.710 -0.1878 -0.0944  0.7210
   35MPD2    C3  535   2.925   1.366  11.594 -0.3746 -0.5397 -0.0207
   35MPD2    C4  536   3.062   1.365  11.577  0.3017  0.4633 -0.2335
   35MPD2    C5  537   3.145   1.332  11.675 -0.2043  0.1727 -0.7047
   35MPD2     H  538   2.765   1.307  11.721 -0.5072 -2.6936 -2.5028
   35MPD2    H1  539   3.114   1.407  11.491  1.9480 -1.4389 -0.1870
   35MPD2    H2  540   3.173   1.219  11.843 -0.0419  1.6002  0.3663
   35MPD2    H3  541   3.252   1.333  11.658 -0.1417  1.3441 -0.2608
   35MPD2     N  542   2.837   1.406  11.498  0.2020 -0.2429  0.6056
   35MPD2    H5  543   2.738   1.391  11.516 -0.4726  1.5912 -1.5227
   35MPD2    N1  544   2.924   1.184  11.914  0.4437 -0.3223  0.2110
   35MPD2    H7  545   3.007   1.146  11.960 -0.1786  0.8336  2.2688
   36TCq2    C1  546   2.877   1.487  11.389 -0.1746 -0.3614  0.0091
   36TCq2    O2  547   2.971   1.562  11.390  0.3604  0.1889 -0.4858
   36TCq2    C2  548   2.770   1.514  11.302  0.6775 -0.0998  1.1863
   36TCq2    C3  549   2.768   1.621  11.215 -0.4257  0.4495  0.0976
   36TCq2    C4  550   2.668   1.634  11.122 -0.2081  0.0259 -0.3030
   36TCq2    C5  551   2.567   1.543  11.119  0.2201 -0.0843 -0.4057
   36TCq2    C6  552   2.568   1.440  11.207 -0.0880  0.3026  0.2285
   36TCq2    C7  553   2.668   1.428  11.305 -0.0726 -0.1544 -0.6799
   36TCq2    C8  554   2.452   1.357  11.219 -0.6001 -0.2123  0.7190
   36TCq2    O4  555   2.451   1.279  11.314 -0.0633 -0.0534 -0.0620
   36TCq2    C9  556   2.665   1.755  11.035 -0.0890  0.3911 -0.5143
   36TCq2    O5  557   2.701   1.871  11.079  0.5923 -0.6377  0.2702
   36TCq2    O6  558   2.608   1.744  10.924  0.7057 -0.6347 -0.1012
   36TCq2    H2  559   2.853   1.689  11.211 -0.7237  0.8518  0.6280
   36TCq2    H3  560   2.500   1.549  11.035  0.6004  1.5974 -0.6023
   36TCq2    H4  561   2.654   1.351  11.380  2.2459  1.1759  1.1269
   37TMC2    C1  562   0.224   1.265  11.999  0.4984  0.1316 -0.3956
   37TMC2    C2  563   0.098   1.215  11.975  0.5740  0.2869  0.9666
   37TMC2    C3  564   0.049   1.232  11.852  0.4794  0.0320 -1.3316
   37TMC2    C4  565   0.307   1.304  11.897 -0.4835 -0.0567 -0.1599
   37TMC2    C5  566   0.261   1.294  11.769 -0.2228  0.5532  0.6565
   37TMC2    C6  567   0.133   1.261  11.745 -0.2784 -0.1576  0.9780
   37TMC2     C  568   0.273   1.277  12.137 -0.2010 -0.2914  0.0230
   37TMC2     O  569   0.190   1.257  12.229  0.7183 -0.4779 -0.6004
   37TMC2     H  570   0.036   1.174  12.055  3.7929 -3.3485  1.5469
   37TMC2    H1  571   0.407   1.340  11.916 -0.3422 -0.3641 -0.3272
   37TMC2    H2  572   0.087   1.284  11.649  1.6404 -0.5747 -0.0528
   37TMC2    C7  573   0.352   1.331  11.656 -0.1352 -0.1207 -0.6596
   37TMC2    C8  574   4.651   1.156  11.822  0.1412  0.8972 -0.4948
   37TMC2    O1  575   0.459   1.378  11.695 -0.0489  0.5437  0.2396
   37TMC2    O2  576   4.558   1.143  11.896  0.4602 -0.2626  0.3335
   37TMC2    O5  577   4.672   1.087  11.702 -0.0937  0.0157 -0.3340
   37TMC2    H5  578   0.044   1.105  11.666 -1.1253  1.6767 -2.0381
   38MPD2     C  579   0.589   1.493  12.482  0.6315 -0.4958 -0.2201
   38MPD2    C1  580   0.655   1.501  12.356 -0.0193 -0.4419 -0.5682
   38MPD2    C2  581   0.588   1.448  12.243  0.5324 -0.3236 -0.3720
   38MPD2    C3  582   0.458   1.386  12.256  0.5204 -0.9232  0.3539
   38MPD2    C4  583   0.407   1.375  12.383  1.2337  0.1407 -0.1536
   38MPD2    C5  584   0.472   1.423  12.492  0.5560 -0.5203 -0.4526
   38MPD2     H  585   0.627   1.446  12.142  0.8180  2.2646 -0.3113
   38MPD2    H1  586   0.315   1.324  12.405  0.7320  0.9385 -0.4153
   38MPD2    H2  587   0.634   1.536  12.571 -0.2961  0.6119 -0.2941
   38MPD2    H3  588   0.423   1.411  12.588  2.4719  2.4806  0.9264
   38MPD2     N  589   0.394   1.340  12.145 -1.3959 -0.5145  0.0504
   38MPD2    H5  590   0.457   1.328  12.067  0.4578 -1.5153  1.7215
   38MPD2    N1  591   0.783   1.560  12.341  0.2022  0.9769 -0.4984
   38MPD2    H7  592   0.814   1.553  12.244 -0.7596  0.1304 -0.7451
   39MPD2     C  593   3.085   3.185   1.745 -0.4278 -0.4885  0.0324
   39MPD2    C1  594   2.980   3.280   1.749 -0.0372  0.4195  0.2391
   39MPD2    C2  595   2.874   3.271   1.658 -0.0340 -0.0665 -1.0277
   39MPD2    C3  596   2.884   3.183   1.552 -0.4822 -0.2543 -0.2161
   39MPD2    C4  597   2.998   3.103   1.536 -0.5283  0.0269  0.6528
   39MPD2    C5  598   3.101   3.102   1.633 -0.1265  0.3655  0.7155
   39MPD2     H  599   2.788   3.337   1.664  0.5632  0.6217 -0.0451
   39MPD2    H1  600   3.004   3.017   1.470  0.4272  1.1026 -0.6593
   39MPD2    H2  601   3.145   3.168   1.834  0.1005 -0.8413 -0.3928
   39MPD2    H3  602   3.186   3.034   1.628 -0.9414 -0.4035 -3.1597
   39MPD2     N  603   2.773   3.165   1.465  0.7295  0.3346  0.0766
   39MPD2    H5  604   2.774   3.090   1.397  0.6237  1.2987 -0.9672
   39MPD2    N1  605   2.984   3.376   1.855  1.1816  0.3031 -0.0013
   39MPD2    H7  606   3.052   3.349   1.925 -0.2702  1.8396  1.9864
   40TCq2    C1  607   2.907   3.488   1.880 -0.2185  0.1995 -0.0929
   40TCq2    O2  608   2.802   3.517   1.822 -0.2232  0.0300 -0.5169
   40TCq2    C2  609   2.929   3.551   2.014 -0.3674  0.1329 -0.0241
   40TCq2    C3  610   2.835   3.637   2.072  0.1452 -0.2269  0.2461
   40TCq2    C4  611   2.854   3.687   2.198 -0.2684  0.2741 -0.5959
   40TCq2    C5  612   2.965   3.647   2.270 -0.5774  0.2614  0.0180
   40TCq2    C6  613   3.064   3.574   2.214 -0.9822  0.6596  0.3097
   40TCq2    C7  614   3.047   3.530   2.085 -1.1382 -0.5734  0.1369
   40TCq2    C8  615   3.202   3.566   2.269  0.1769  0.2107  0.5903
   40TCq2    O4  616   3.216   3.560   2.390  0.8487 -0.2419  0.0639
   40TCq2    C9  617   2.741   3.748   2.266  0.0784 -0.1414  0.0723
   40TCq2    O5  618   2.629   3.727   2.213  0.0987  0.3220 -0.1242
   40TCq2    O6  619   2.758   3.779   2.389 -0.1584  0.2044 -0.3306
   40TCq2    H2  620   2.746   3.664   2.016  0.0017  1.0617  1.0897
   40TCq2    H3  621   2.974   3.678   2.373  2.1890 -0.7721  0.0719
   40TCq2    H4  622   3.128   3.466   2.051 -1.4990 -0.3133 -1.2036
   41TMC2    C1  623   2.801   1.475  13.341  0.6595 -0.1065 -0.5590
   41TMC2    C2  624   2.772   1.596  13.407  0.0834  0.2513  0.5481
   41TMC2    C3  625   2.661   1.666  13.366  0.2147 -0.4421 -0.2976
   41TMC2    C4  626   2.747   1.445  13.223  0.0388  0.9113 -0.3295
   41TMC2    C5  627   2.638   1.516  13.185 -0.1549  0.0078 -0.5523
   41TMC2    C6  628   2.590   1.627  13.255 -0.3682 -0.3218  0.2944
   41TMC2     C  629   2.876   1.377  13.412 -0.8116  0.3791 -0.0787
   41TMC2     O  630   2.895   1.269  13.354  0.5293  0.9927 -0.0023
   41TMC2     H  631   2.847   1.632  13.477 -0.5310  2.9926 -0.2151
   41TMC2    H1  632   2.773   1.351  13.175  0.9157  1.3046 -0.6307
   41TMC2    H2  633   2.507   1.682  13.214 -2.0581 -1.6961  1.8570
   41TMC2    C7  634   2.586   1.501  13.048 -0.3816  0.5986  1.3706
   41TMC2    C8  635   2.667   1.809  13.390  0.1956  0.0099  0.0615
   41TMC2    O1  636   2.541   1.605  13.000 -0.5984 -0.2876 -0.2141
   41TMC2    O2  637   2.635   1.895  13.306 -0.2227  0.2773  0.2499
   41TMC2    O5  638   2.702   1.824  13.518 -0.5045  0.3871 -0.2004
   41TMC2    H5  639   2.701   1.746  13.578  0.0040 -0.3897 -1.2100
   42MPD2     C  640   2.983   1.193  13.631 -0.6437  0.1785 -0.3030
   42MPD2    C1  641   2.907   1.302  13.656 -0.2924  0.0533  0.5896
   42MPD2    C2  642   2.855   1.325  13.781 -0.3906  0.3899  0.8772
   42MPD2    C3  643   2.891   1.245  13.890 -0.4295  0.6245  0.0960
   42MPD2    C4  644   2.950   1.128  13.866  0.2332 -0.8829 -0.7642
   42MPD2    C5  645   2.988   1.100  13.738  0.3872  0.6724  0.2762
   42MPD2     H  646   2.790   1.411  13.795 -1.3005  0.2339 -2.4923
   42MPD2    H1  647   2.992   1.069  13.946  0.2370  1.4202  0.9407
   42MPD2    H2  648   3.031   1.173  13.536 -1.0583 -0.2808 -0.4197
   42MPD2    H3  649   3.034   1.004  13.718 -0.3707  0.6789 -1.5342
   42MPD2     N  650   2.846   1.270  14.022 -0.4925 -0.0949 -0.0801
   42MPD2    H5  651   2.870   1.195  14.086 -0.7167 -0.6257 -0.6154
   42MPD2    N1  652   2.873   1.396  13.550  0.0691  0.2166 -0.0791
   42MPD2    H7  653   2.815   1.472  13.583 -3.7170 -2.6000 -0.3011
   43MPD2     C  654   3.542   4.290   0.885  0.6350 -0.2469  0.7747
   43MPD2    C1  655   3.645   4.335   0.800  0.0931  0.2722 -0.1648
   43MPD2    C2  656   3.651   4.472   0.787  0.7277 -0.7367  0.2862
   43MPD2    C3  657   3.562   4.561   0.857 -0.5371  0.6577 -0.1551
   43MPD2    C4  658   3.469   4.513   0.940 -1.1217 -0.0775 -0.2290
   43MPD2    C5  659   3.452   4.378   0.945 -0.5101  0.2002 -0.6724
   43MPD2     H  660   3.717   4.518   0.715 -0.9298 -0.7914 -1.2550
   43MPD2    H1  661   3.388   4.572   0.983  0.4670  2.1631 -0.2988
   43MPD2    H2  662   3.518   4.186   0.902 -1.0740 -0.0288 -0.2905
   43MPD2    H3  663   3.371   4.330   0.999  0.5109  1.1010  1.6771
   43MPD2     N  664   3.561   4.697   0.846  0.4323  0.1559 -0.6946
   43MPD2    H5  665   3.492   0.023   0.906  0.4147  1.1725 -1.4546
   43MPD2    N1  666   3.733   4.253   0.726  0.1417  0.1450  0.0396
   43MPD2    H7  667   3.801   4.299   0.666  1.2280 -2.3350 -0.6461
   44TCq2    C1  668   3.821   0.458   0.940 -0.0943  0.1660 -0.3290
   44TCq2    O2  669   3.930   0.446   0.889 -0.1792  0.4938 -0.0645
   44TCq2    C2  670   3.709   0.380   0.899  0.3153  0.5786  0.3226
   44TCq2    C3  671   3.579   0.428   0.918  0.5239  0.2651  0.5018
   44TCq2    C4  672   3.470   0.352   0.869  0.1536  0.0953 -0.1717
   44TCq2    C5  673   3.500   0.230   0.816  0.0499 -0.0901  0.0466
   44TCq2    C6  674   3.629   0.191   0.801 -0.3395 -0.1989  0.0013
   44TCq2    C7  675   3.738   0.269   0.830 -0.3424 -0.1718 -0.2582
   44TCq2    C8  676   3.648   0.051   0.773 -0.1746  1.0390  0.2249
   44TCq2    O4  677   3.749   0.016   0.717  0.1996  0.7189  0.2843
   44TCq2    C9  678   3.331   0.391   0.902  0.4139 -0.3597 -0.3416
   44TCq2    O5  679   3.259   0.299   0.958 -0.5184  0.3820 -0.3462
   44TCq2    O6  680   3.309   0.518   0.900  0.6574 -1.0703  0.3031
   44TCq2    H2  681   3.563   0.525   0.964 -1.6834  1.1644 -2.1612
   44TCq2    H3  682   3.420   0.159   0.796  0.5085 -0.8563  0.9579
   44TCq2    H4  683   3.838   0.237   0.802 -0.1194 -0.1775  0.5614
   45TMC2    C1  684   4.426   0.716   9.820 -0.1270  0.2535  0.4293
   45TMC2    C2  685   4.517   0.644   9.892 -0.3263 -0.2828  0.0643
   45TMC2    C3  686   4.601   0.719   9.968 -0.0538 -0.1729 -0.3843
   45TMC2    C4  687   4.428   0.856   9.815 -0.5961 -0.6104 -0.1649
   45TMC2    C5  688   4.512   0.922   9.891  0.1315  0.1981  0.1726
   45TMC2    C6  689   4.596   0.857   9.983 -0.3103  0.8466  0.1096
   45TMC2     C  690   4.345   0.639   9.718 -0.0303 -0.0137  0.5870
   45TMC2     O  691   4.342   0.518   9.716  0.3044 -0.1054 -0.4157
   45TMC2     H  692   4.522   0.538   9.871  2.6968 -0.3767  1.2732
   45TMC2    H1  693   4.340   0.905   9.777 -0.2525  0.5009  0.4657
   45TMC2    H2  694   4.668   0.915  10.040  0.9114 -0.7035  0.1706
   45TMC2    C7  695   4.516   1.067   9.892 -0.2280 -0.6940  0.2430
   45TMC2    C8  696   0.003   0.647  10.016  0.1541 -0.1348 -0.1141
   45TMC2    O1  697   4.566   1.112   9.994 -0.2236  0.7844 -0.0898
   45TMC2    O2  698   0.044   0.544   9.969  0.0479 -0.2235 -0.8276
   45TMC2    O5  699   0.057   0.694  10.125  0.2869  0.5094  0.4831
   45TMC2    H5  700   0.007   0.757  10.181  0.1845 -0.8147  1.8797
   46MPD2     C  701   4.180   0.551   9.488  0.2967  0.3419  0.1327
   46MPD2    C1  702   4.172   0.676   9.548 -0.2806  0.1327  0.0559
   46MPD2    C2  703   4.083   0.770   9.504 -0.8095 -0.4681 -0.2307
   46MPD2    C3  704   3.978   0.729   9.427  0.9222  0.2249  0.2429
   46MPD2    C4  705   3.975   0.603   9.380 -0.3214 -0.3284  0.1497
   46MPD2    C5  706   4.083   0.515   9.405  0.2665  0.4153  0.4372
   46MPD2     H  707   4.095   0.869   9.546  0.9297 -0.9478  0.3926
   46MPD2    H1  708   3.899   0.567   9.311 -0.6366 -0.7671  0.7286
   46MPD2    H2  709   4.256   0.478   9.513 -0.5702  0.0567  1.9501
   46MPD2    H3  710   4.080   0.416   9.359 -2.8553 -0.2219  1.9949
   46MPD2     N  711   3.875   0.823   9.404 -0.0069 -0.4211  0.1925
   46MPD2    H5  712   3.896   0.917   9.437 -2.0092 -0.3784  1.3355
   46MPD2    N1  713   4.255   0.716   9.656  0.1676  0.1554 -0.5825
   46MPD2    H7  714   4.238   0.809   9.694  1.5952  0.4983 -0.7993
   47TMC2    C1  715   2.660   1.638   9.256  0.8635 -0.2195 -0.2404
   47TMC2    C2  716   2.707   1.736   9.166  0.2076 -0.2096 -0.0101
   47TMC2    C3  717   2.646   1.752   9.043  0.0267 -0.6888 -0.1770
   47TMC2    C4  718   2.547   1.563   9.226 -0.1646  0.1822 -0.0797
   47TMC2    C5  719   2.494   1.579   9.107 -0.8509 -0.0921 -0.0236
   47TMC2    C6  720   2.542   1.669   9.008  0.0113 -0.1893 -0.3182
   47TMC2     C  721   2.738   1.605   9.370 -0.1426  0.1123 -0.0840
   47TMC2     O  722   2.853   1.643   9.373  0.3895  0.4035  0.0882
   47TMC2     H  723   2.777   1.809   9.206 -0.5216  1.8407 -2.4749
   47TMC2    H1  724   2.527   1.473   9.284 -0.6181  0.5594  0.3421
   47TMC2    H2  725   2.492   1.687   8.913 -0.8178 -4.1835 -0.6404
   47TMC2    C7  726   2.378   1.513   9.066  0.5792  0.4301 -0.1634
   47TMC2    C8  727   2.634   1.887   8.989 -0.4450  0.1905 -1.1951
   47TMC2    O1  728   2.358   1.490   8.947  0.2521  0.5429 -0.3962
   47TMC2    O2  729   2.530   1.928   8.945  0.2342  0.2738 -0.3374
   47TMC2    O5  730   2.726   1.970   9.054 -0.6621  0.2235 -0.1111
   47TMC2    H5  731   2.808   1.920   9.073 -1.4763 -0.0534  2.6882
   48MPD2     C  732   2.861   1.482   9.606  0.1898  0.0704 -0.0275
   48MPD2    C1  733   2.728   1.457   9.570  0.1255  0.2634  0.0710
   48MPD2    C2  734   2.647   1.372   9.646  0.4409  0.5185  0.4067
   48MPD2    C3  735   2.704   1.309   9.756  0.0081 -0.2832  0.0409
   48MPD2    C4  736   2.836   1.332   9.787  0.7153 -0.0842  0.6795
   48MPD2    C5  737   2.912   1.419   9.715  0.3337  0.1143  0.0992
   48MPD2     H  738   2.540   1.371   9.626  0.3327  1.0530  0.9870
   48MPD2    H1  739   2.892   1.302   9.875 -0.6758 -1.0635  1.2292
   48MPD2    H2  740   2.926   1.555   9.558  1.0215  0.4718  1.7051
   48MPD2    H3  741   3.012   1.432   9.753  0.5899 -0.9813 -0.1792
   48MPD2     N  742   2.617   1.235   9.832  0.1061  0.2268 -0.0991
   48MPD2    H5  743   2.519   1.227   9.807 -0.1037 -0.4186  0.9427
   48MPD2    N1  744   2.669   1.527   9.461  0.0541  0.1452 -0.2807
   48MPD2    H7  745   2.569   1.517   9.447  0.3448 -1.5720 -1.0212
   49MPD2     C  746   0.634   3.766  10.686  0.2707 -0.3228 -0.5562
   49MPD2    C1  747   0.581   3.683  10.589  0.8579  0.4237 -0.1776
   49MPD2    C2  748   0.446   3.642  10.592 -0.3977  0.2374  0.2972
   49MPD2    C3  749   0.361   3.693  10.693 -0.0542  0.2813  0.5546
   49MPD2    C4  750   0.422   3.762  10.796  0.4087 -0.3995 -0.5467
   49MPD2    C5  751   0.556   3.797  10.790  0.2580 -0.0342  0.8274
   49MPD2     H  752   0.407   3.572  10.519  3.3507  0.8255 -2.2860
   49MPD2    H1  753   0.372   3.797  10.885  1.1284 -1.5184  0.3082
   49MPD2    H2  754   0.736   3.801  10.675 -0.6719  2.6140 -0.1445
   49MPD2    H3  755   0.598   3.854  10.872  0.3041 -0.1016  0.8498
   49MPD2     N  756   0.221   3.662  10.700 -0.0071  0.0531  0.2961
   49MPD2    H5  757   0.176   3.701  10.782  1.0140 -0.6626  1.2080
   49MPD2    N1  758   0.660   3.637  10.483  0.1894 -0.1654 -0.2142
   49MPD2    H7  759   0.614   3.585  10.408  0.0476  1.9128 -1.5523
   50TCq2    C1  760   0.789   3.661  10.457 -0.3704  0.1572 -0.4527
   50TCq2    O2  761   0.863   3.748  10.496  0.0335 -0.6036 -0.4477
   50TCq2    C2  762   0.822   3.574  10.346  0.1784 -0.1031 -0.0590
   50TCq2    C3  763   0.857   3.638  10.226  0.0923  0.0166  0.4907
   50TCq2    C4  764   0.859   3.571  10.111 -0.4011 -0.0668  0.0303
   50TCq2    C5  765   0.820   3.443  10.110  0.0694 -0.5084 -0.0784
   50TCq2    C6  766   0.795   3.381  10.230 -0.4077  0.2374 -0.9581
   50TCq2    C7  767   0.786   3.446  10.350  0.3870  0.2412 -0.5283
   50TCq2    C8  768   0.725   3.255  10.224  0.1717 -0.2995 -0.0530
   50TCq2    O4  769   0.709   3.202  10.330  0.3200  0.4946  0.2987
   50TCq2    C9  770   0.888   3.638   9.988  0.5250  0.3882  0.1443
   50TCq2    O5  771   0.867   3.569   9.883  0.1862  0.1104 -0.1807
   50TCq2    O6  772   0.929   3.756   9.989 -0.3354  0.3697 -0.0115
   50TCq2    H2  773   0.883   3.743  10.234  0.7452  0.0050 -1.5369
   50TCq2    H3  774   0.851   3.378  10.029 -1.5865  0.0570 -1.1837
   50TCq2    H4  775   0.757   3.411  10.448  1.5309 -0.2426 -0.3684
   51MPD2     C  776   1.239   2.544   1.368 -0.3128  1.0289  0.3348
   51MPD2    C1  777   1.347   2.460   1.389  0.5793  0.2398 -0.3337
   51MPD2    C2  778   1.422   2.481   1.502  0.8555  0.2847  0.2435
   51MPD2    C3  779   1.384   2.576   1.591 -0.1114  0.4387 -0.4717
   51MPD2    C4  780   1.287   2.669   1.563 -0.1746 -0.2490 -0.3779
   51MPD2    C5  781   1.214   2.652   1.450 -0.1516  0.3454  0.4872
   51MPD2     H  782   1.516   2.427   1.511  0.8385 -0.2016 -2.4449
   51MPD2    H1  783   1.272   2.757   1.625 -0.8227  0.6180 -1.7944
   51MPD2    H2  784   1.182   2.533   1.276  2.4108 -0.4244 -1.1843
   51MPD2    H3  785   1.126   2.714   1.437  0.3771  1.5384  2.5910
   51MPD2     N  786   1.454   2.600   1.712  0.1676  0.9998 -0.3411
   51MPD2    H5  787   1.405   2.664   1.774 -0.3877  0.9629 -0.7310
   51MPD2    N1  788   1.379   2.357   1.300 -0.4257 -0.1102  0.5297
   51MPD2    H7  789   1.445   2.284   1.326 -0.6980 -0.0695  1.3212
   52TCq2    C1  790   1.566   2.528   1.759  0.9552 -0.4207 -0.0678
   52TCq2    O2  791   1.617   2.421   1.719  0.2311  0.0839 -0.3601
   52TCq2    C2  792   1.609   2.582   1.886 -0.0390  0.0084 -0.3124
   52TCq2    C3  793   1.714   2.518   1.949  0.4530 -0.2632 -0.0076
   52TCq2    C4  794   1.780   2.577   2.053 -0.5943  0.4511  0.4770
   52TCq2    C5  795   1.744   2.702   2.097 -0.9556 -0.0132  0.1035
   52TCq2    C6  796   1.638   2.760   2.035  0.4804 -0.0573  0.5779
   52TCq2    C7  797   1.579   2.707   1.925  0.5302 -0.4980 -1.2721
   52TCq2    C8  798   1.576   2.875   2.104  0.8962  0.0425 -0.7183
   52TCq2    O4  799   1.507   2.941   2.023  0.1164 -0.6979 -0.0426
   52TCq2    C9  800   1.874   2.500   2.129 -0.2513 -0.2212 -0.1039
   52TCq2    O5  801   1.898   2.382   2.083 -0.2829  0.5935  0.2118
   52TCq2    O6  802   1.934   2.561   2.223  0.3666 -0.1707 -0.1559
   52TCq2    H2  803   1.736   2.417   1.918  0.7056  0.1645 -1.2023
   52TCq2    H3  804   1.806   2.746   2.174 -0.4932 -0.8780  0.2192
   52TCq2    H4  805   1.490   2.758   1.890  1.3159  2.0579  0.4516
   53TMC2    C1  806   0.979   1.419  11.294  0.4286  0.2418  0.0815
   53TMC2    C2  807   1.050   1.502  11.216 -0.3844 -0.4661 -0.0587
   53TMC2    C3  808   1.078   1.623  11.277 -0.3726 -0.9746  0.0485
   53TMC2    C4  809   0.967   1.435  11.430  0.0588  0.0657 -0.2417
   53TMC2    C5  810   1.017   1.544  11.485 -0.6200 -0.0617  0.1722
   53TMC2    C6  811   1.067   1.649  11.411 -0.4177  0.0132  0.7780
   53TMC2     C  812   0.857   1.357  11.230  0.1844  0.3862 -0.1416
   53TMC2     O  813   0.846   1.350  11.108  0.5205 -0.7377 -0.0718
   53TMC2     H  814   1.067   1.484  11.111  0.1866  0.6182 -0.1512
   53TMC2    H1  815   0.927   1.359  11.497 -1.0785  0.1343 -0.8552
   53TMC2    H2  816   1.093   1.748  11.445 -1.5683 -0.0491  1.8745
   53TMC2    C7  817   0.946   1.591  11.607 -0.4841  0.1120 -0.3550
   53TMC2    C8  818   1.114   1.736  11.194  0.3665 -0.3015  0.3515
   53TMC2    O1  819   0.837   1.536  11.620 -0.3209 -0.1083  0.2952
   53TMC2    O2  820   1.207   1.810  11.215 -0.4971 -0.0367  0.3597
   53TMC2    O5  821   1.047   1.726  11.073 -1.0208 -0.2671  0.4749
   53TMC2    H5  822   0.971   1.664  11.076 -1.5615  0.1031 -4.8730
   54MPD2     C  823   0.563   1.287  11.188 -0.1835  0.2115 -0.1584
   54MPD2    C1  824   0.621   1.317  11.310 -0.2880  0.3412  0.4555
   54MPD2    C2  825   0.540   1.322  11.425  0.1669 -0.4284  0.0362
   54MPD2    C3  826   0.407   1.300  11.417  0.8798 -0.9952  0.3019
   54MPD2    C4  827   0.351   1.284  11.292  0.3143 -0.3372 -0.4164
   54MPD2    C5  828   0.429   1.263  11.183 -0.3761  0.1166  0.4536
   54MPD2     H  829   0.591   1.344  11.519  0.8354 -2.3466  0.1223
   54MPD2    H1  830   0.243   1.280  11.287  0.3799  0.0804 -1.9641
   54MPD2    H2  831   0.619   1.293  11.095 -1.2561  1.2867 -0.7368
   54MPD2    H3  832   0.391   1.244  11.083 -1.0819 -0.2480  0.7894
   54MPD2     N  833   0.313   1.294  11.529  0.6910 -0.2736  0.3369
   54MPD2    H5  834   0.215   1.271  11.513  0.3791  0.1504  1.6312
   54MPD2    N1  835   0.763   1.354  11.326  0.0713 -0.5256  0.5460
   54MPD2    H7  836   0.790   1.384  11.419  0.2279 -0.7632  0.5764
   55MPD2     C  837   1.814   4.087  17.092 -0.3011 -0.2023  0.1449
   55MPD2    C1  838   1.907   4.108  17.194 -0.2891  0.9641  0.4383
   55MPD2    C2  839   1.866   4.183  17.296 -0.5477 -0.2095 -0.2571
   55MPD2    C3  840   1.742   4.245  17.305 -0.4665 -0.0009  0.0938
   55MPD2    C4  841   1.651   4.219  17.204  0.1264  0.2974 -0.2228
   55MPD2    C5  842   1.687   4.132  17.104 -0.5676  0.2328 -0.4640
   55MPD2     H  843   1.923   4.188  17.388  2.7550  2.6216 -2.4754
   55MPD2    H1  844   1.559   4.274  17.190 -0.2249 -0.1977  0.1467
   55MPD2    H2  845   1.830   4.031  17.001 -0.1459 -1.4044  0.8981
   55MPD2    H3  846   1.614   4.123  17.024 -1.3645 -1.3645  0.4367
   55MPD2     N  847   1.711   4.329  17.415  0.0580  0.5795  0.0988
   55MPD2    H5  848   1.783   4.347  17.483  1.0172  0.8485 -0.9962
   55MPD2    N1  849   2.033   4.049  17.181  0.1909 -0.9119  0.6414
   55MPD2    H7  850   2.047   3.996  17.096  0.1888  0.8350 -0.4578
   56TCq2    C1  851   2.135   4.054  17.271  0.0582 -0.3228 -0.4207
   56TCq2    O2  852   2.148   4.104  17.384  0.7174 -0.1893 -0.5647
   56TCq2    C2  853   2.242   3.965  17.242  0.0655 -0.1583 -0.0883
   56TCq2    C3  854   2.270   3.911  17.120 -0.5147  0.4520 -0.8867
   56TCq2    C4  855   2.338   3.796  17.109 -0.2555 -0.6309 -0.0018
   56TCq2    C5  856   2.385   3.727  17.223  0.1180 -0.1698 -0.0300
   56TCq2    C6  857   2.347   3.780  17.346  0.9406 -0.4284 -0.5983
   56TCq2    C7  858   2.290   3.908  17.359 -0.0594 -0.0414 -0.6937
   56TCq2    C8  859   2.354   3.696  17.463 -0.0227  0.2257  0.3093
   56TCq2    O4  860   2.441   3.610  17.463  0.5275  0.4706 -0.7838
   56TCq2    C9  861   2.370   3.746  16.973 -0.0315  0.1368  0.0666
   56TCq2    O5  862   2.473   3.687  16.942 -0.0467  0.1474 -0.4950
   56TCq2    O6  863   2.288   3.778  16.884  0.5607 -0.3185  0.0937
   56TCq2    H2  864   2.235   3.965  17.032 -0.1425 -0.2250 -1.4519
   56TCq2    H3  865   2.420   3.626  17.204  0.5249  0.1474 -0.9748
   56TCq2    H4  866   2.271   3.945  17.459  1.1188 -2.0436  0.2799
   57TMC2    C1  867   0.555   0.370  13.893  0.3415  0.6616 -0.2891
   57TMC2    C2  868   0.695   0.377  13.884  0.0850  0.8195 -0.2386
   57TMC2    C3  869   0.753   0.296  13.795 -0.0769 -0.6597 -1.0446
   57TMC2    C4  870   0.477   0.286  13.822 -0.1136 -0.0386 -0.3916
   57TMC2    C5  871   0.549   0.211  13.729  0.2882  0.2162 -0.0587
   57TMC2    C6  872   0.683   0.208  13.724 -0.0607 -0.4240 -0.7819
   57TMC2     C  873   0.494   0.468  13.978 -0.0303  0.4003  1.0544
   57TMC2     O  874   0.551   0.572  14.009  0.2676  0.0269 -0.4867
   57TMC2     H  875   0.751   0.439  13.953 -0.5844  0.5501  0.5479
   57TMC2    H1  876   0.371   0.301  13.810 -0.5445 -0.9461  2.1055
   57TMC2    H2  877   0.738   0.158  13.645 -1.7396 -0.4034 -1.9496
   57TMC2    C7  878   0.472   0.176  13.611  0.4224  0.4465  0.2654
   57TMC2    C8  879   0.895   0.262  13.808  0.9075 -0.7704  0.5603
   57TMC2    O1  880   0.365   0.117  13.626  0.3658 -1.0862  0.6298
   57TMC2    O2  881   0.960   0.360  13.853 -0.3832 -0.0020  0.1303
   57TMC2    O5  882   0.894   0.137  13.859  0.4303 -0.0854 -0.2395
   57TMC2    H5  883   0.837   0.074  13.810 -0.6400 -1.0470  2.2482
   58MPD2     C  884   0.099   0.547  14.291 -0.2744  0.0965 -0.1416
   58MPD2    C1  885   0.196   0.636  14.252  0.2247  0.7335  0.2607
   58MPD2    C2  886   0.288   0.580  14.164 -0.0931  0.4669  0.4870
   58MPD2    C3  887   0.293   0.450  14.123  0.5020 -0.0952  0.2805
   58MPD2    C4  888   0.192   0.365  14.165 -0.2505 -0.2244  0.4423
   58MPD2    C5  889   0.104   0.414  14.256  0.0866 -0.2105  0.4980
   58MPD2     H  890   0.360   0.650  14.124 -0.9005  1.7361  1.2510
   58MPD2    H1  891   0.206   0.260  14.144 -1.8289 -0.2272 -0.5820
   58MPD2    H2  892   0.020   0.556  14.364  2.0527 -0.5972  2.4708
   58MPD2    H3  893   0.031   0.345  14.296 -2.6702  1.2779 -2.0535
   58MPD2     N  894   0.391   0.403  14.037  0.0310 -0.5134 -0.2618
   58MPD2    H5  895   0.381   0.304  14.019 -0.1584 -0.8279  1.5580
   58MPD2    N1  896   0.185   0.770  14.283 -0.9921  0.9601 -0.1911
   58MPD2    H7  897   0.244   0.835  14.232  1.0313 -1.0956 -0.4807
   59MPD2     C  898   3.362   0.433  13.380 -0.2077 -0.3907  0.0485
   59MPD2    C1  899   3.457   0.496  13.299 -0.3850 -0.0889  0.1661
   59MPD2    C2  900   3.551   0.581  13.351 -0.3099 -0.3876 -0.3270
   59MPD2    C3  901   3.560   0.613  13.492 -0.5056  0.3740  0.1117
   59MPD2    C4  902   3.463   0.550  13.575 -0.4555  0.0375 -0.7623
   59MPD2    C5  903   3.367   0.466  13.519  0.6041 -0.5511  0.1897
   59MPD2     H  904   3.613   0.633  13.279 -1.8166  1.8176 -0.0484
   59MPD2    H1  905   3.474   0.549  13.683 -0.3508 -2.5694 -0.7970
   59MPD2    H2  906   3.287   0.366  13.338 -0.1942  0.0393 -0.6531
   59MPD2    H3  907   3.293   0.422  13.584 -0.7596 -2.1689 -2.4582
   59MPD2     N  908   3.666   0.678  13.560  0.2536  0.2950 -0.4431
   59MPD2    H5  909   3.652   0.676  13.660 -3.0389  1.4315 -0.8871
   59MPD2    N1  910   3.444   0.506  13.157 -0.2623 -0.4017  0.4014
   59MPD2    H7  911   3.495   0.572  13.100  0.1313  0.5040  1.7975
   60TCq2    C1  912   3.373   0.412  13.084  0.4316  0.1940  0.0447
   60TCq2    O2  913   3.327   0.306  13.123  0.3327 -0.9529  0.8463
   60TCq2    C2  914   3.372   0.449  12.943  0.4875 -0.2078 -0.2506
   60TCq2    C3  915   3.302   0.371  12.868 -0.2024 -0.3657  0.5334
   60TCq2    C4  916   3.298   0.396  12.730 -0.1019 -1.1858  0.9792
   60TCq2    C5  917   3.343   0.512  12.674  0.0691 -0.1266 -0.3461
   60TCq2    C6  918   3.410   0.590  12.770  0.1652  0.6919 -0.1951
   60TCq2    C7  919   3.440   0.561  12.899  0.5049  0.5213 -0.2095
   60TCq2    C8  920   3.456   0.715  12.717  0.1483 -0.1582  0.3358
   60TCq2    O4  921   3.571   0.744  12.736 -0.4853 -0.0477  0.1906
   60TCq2    C9  922   3.215   0.315  12.644 -0.4338  0.8520 -0.1878
   60TCq2    O5  923   3.196   0.194  12.682  0.2566 -0.4253 -0.1288
   60TCq2    O6  924   3.160   0.362  12.538 -0.6448 -0.3443  0.0433
   60TCq2    H2  925   3.243   0.289  12.908  1.0189 -1.5157 -0.0271
   60TCq2    H3  926   3.308   0.550  12.578  1.3891 -1.7349 -1.4663
   60TCq2    H4  927   3.512   0.621  12.954 -0.9620  1.4367  0.6940
   61MPD2     C  928   2.662   1.965  15.536  0.2793 -0.0497  0.1361
   61MPD2    C1  929   2.718   2.088  15.506  0.0400 -0.3874 -0.4819
   61MPD2    C2  930   2.772   2.100  15.378  0.1817 -0.2978  0.0036
   61MPD2    C3  931   2.740   2.026  15.270  0.3416  0.0450 -0.2225
   61MPD2    C4  932   2.682   1.904  15.300 -0.1620  0.0448  0.0805
   61MPD2    C5  933   2.649   1.875  15.431  0.4178 -0.0207 -0.7502
   61MPD2     H  934   2.830   2.188  15.353 -0.8159  0.5037  0.5265
   61MPD2    H1  935   2.655   1.828  15.227  1.6514 -0.8178  0.3005
   61MPD2    H2  936   2.626   1.932  15.633 -0.6264  2.6222  0.7072
   61MPD2    H3  937   2.594   1.788  15.466  1.5248  0.4390  2.1530
   61MPD2     N  938   2.763   2.060  15.136  0.8139  0.6928  0.2223
   61MPD2    H5  939   2.731   1.998  15.062 -0.1223  1.9916 -0.4645
   61MPD2    N1  940   2.737   2.202  15.593  0.3039 -0.9279 -0.3142
   61MPD2    H7  941   2.776   2.284  15.547 -0.2783  0.3334  1.4506
   62TCq2    C1  942   2.705   2.210  15.728  0.1044  0.5515  0.0266
   62TCq2    O2  943   2.635   2.138  15.798  0.4026  0.1991 -0.4516
   62TCq2    C2  944   2.738   2.337  15.792  0.8942 -0.1193  0.0700
   62TCq2    C3  945   2.717   2.348  15.925 -0.4898  0.2054  0.4324
   62TCq2    C4  946   2.707   2.468  15.981 -1.1884 -0.5771 -0.8419
   62TCq2    C5  947   2.728   2.582  15.915 -0.4084 -0.2619 -0.4991
   62TCq2    C6  948   2.750   2.575  15.781 -0.0276 -0.2319  0.7937
   62TCq2    C7  949   2.752   2.451  15.717  0.1113  0.3470  0.2002
   62TCq2    C8  950   2.764   2.689  15.689 -0.2979 -0.5100 -0.4733
   62TCq2    O4  951   2.768   2.660  15.570  1.0758 -0.4692  0.4888
   62TCq2    C9  952   2.660   2.484  16.113  0.1807  0.3211 -0.3725
   62TCq2    O5  953   2.627   2.593  16.155  0.1377  0.2278  0.1313
   62TCq2    O6  954   2.641   2.376  16.182 -0.1556  0.6447 -0.4283
   62TCq2    H2  955   2.688   2.259  15.981 -0.5640  1.1045  1.8209
   62TCq2    H3  956   2.708   2.680  15.959 -1.4067 -1.5385  1.9012
   62TCq2    H4  957   2.780   2.445  15.612 -1.8014 -0.7468 -0.2560
   63TMC2    C1  958   1.548   1.587   9.620 -0.7492  0.0900 -0.2244
   63TMC2    C2  959   1.573   1.608   9.490  0.2427 -0.8239 -0.5050
   63TMC2    C3  960   1.469   1.631   9.404 -0.2864 -0.6268  0.6796
   63TMC2    C4  961   1.419   1.608   9.664  0.7868 -0.8943 -0.4382
   63TMC2    C5  962   1.313   1.640   9.582  0.4451  0.0605 -0.0738
   63TMC2    C6  963   1.339   1.647   9.445  0.5536 -0.7458 -0.3216
   63TMC2     C  964   1.643   1.625   9.719  0.5530 -0.4638 -0.5178
   63TMC2     O  965   1.713   1.723   9.703 -0.4913  0.2928 -0.0745
   63TMC2     H  966   1.674   1.588   9.456  0.0968 -1.6323 -0.4717
   63TMC2    H1  967   1.395   1.617   9.770 -0.0830 -1.8506 -0.5674
   63TMC2    H2  968   1.261   1.657   9.370  0.1867  3.6151  0.6190
   63TMC2    C7  969   1.198   1.701   9.636  0.0748 -0.2173  0.2300
   63TMC2    C8  970   1.509   1.640   9.263  0.2373  0.4228  1.1241
   63TMC2    O1  971   1.181   1.712   9.756 -0.0352 -0.7795  0.1327
   63TMC2    O2  972   1.629   1.630   9.227 -0.0377 -0.1336  0.9608
   63TMC2    O5  973   1.406   1.678   9.180 -0.2689 -0.0551 -0.5732
   63TMC2    H5  974   1.315   1.695   9.214 -0.5007 -0.6858 -0.8791
   64MPD2     C  975   1.803   1.613  10.211 -0.1766  0.5595  0.2538
   64MPD2    C1  976   1.732   1.493  10.189 -0.7859  1.2185 -0.1415
   64MPD2    C2  977   1.677   1.475  10.063 -0.3929 -0.1110  0.0412
   64MPD2    C3  978   1.681   1.579   9.969 -0.2419 -0.8252  0.2362
   64MPD2    C4  979   1.734   1.703   9.999 -0.1549  0.2282  0.0804
   64MPD2    C5  980   1.800   1.717  10.116 -0.3986  0.2930  0.4276
   64MPD2     H  981   1.630   1.381  10.037 -0.5610  0.1824 -0.7034
   64MPD2    H1  982   1.727   1.784   9.927  1.2103  2.7059  2.7352
   64MPD2    H2  983   1.857   1.632  10.302  1.5320  0.7607 -0.8108
   64MPD2    H3  984   1.843   1.814  10.139 -1.0893 -0.0810  3.2527
   64MPD2     N  985   1.619   1.550   9.842 -0.0639 -0.1809  0.6615
   64MPD2    H5  986   1.570   1.463   9.826 -0.1109  0.3419 -2.0238
   64MPD2    N1  987   1.733   1.385  10.282 -0.0184 -0.5476  0.0925
   64MPD2    H7  988   1.704   1.291  10.258 -1.7156  0.3469 -1.3600
   65MPD2     C  989   2.798   1.160  15.592  0.0844  0.5566  0.0974
   65MPD2    C1  990   2.882   1.155  15.482  0.4014  0.0298 -0.0281
   65MPD2    C2  991   2.963   1.038  15.477  0.3473  0.3025  0.0651
   65MPD2    C3  992   2.968   0.932  15.569  1.0227 -0.2730  0.2115
   65MPD2    C4  993   2.868   0.934  15.663 -0.0256 -0.0799 -0.0759
   65MPD2    C5  994   2.788   1.049  15.676 -0.1076 -0.0612  0.0541
   65MPD2     H  995   3.013   1.036  15.381  1.4035 -0.2965  0.6385
   65MPD2    H1  996   2.860   0.863  15.745 -2.1951  1.7453  1.2939
   65MPD2    H2  997   2.725   1.238  15.602  1.7660  2.3193 -1.3996
   65MPD2    H3  998   2.706   1.060  15.747 -1.4315  0.1876 -1.5237
   65MPD2     N  999   3.045   0.814  15.556  0.4128 -0.4372  0.3151
   65MPD2    H5 1000   3.014   0.737  15.614  0.3835 -0.5930  0.0922
   65MPD2    N1 1001   2.886   1.250  15.376  0.3903 -0.6392  0.1445
   65MPD2    H7 1002   2.937   1.227  15.291  2.2336  1.4766  0.6777
   66TCq2    C1 1003   2.833   1.378  15.383  0.3180 -0.2908  0.2962
   66TCq2    O2 1004   2.818   1.431  15.490 -0.1694  0.9356  0.1436
   66TCq2    C2 1005   2.871   1.468  15.272 -0.0439  0.1816  0.5746
   66TCq2    C3 1006   2.865   1.412  15.148  0.1249 -0.3158 -0.2098
   66TCq2    C4 1007   2.894   1.499  15.045 -0.5971  0.1337  0.4755
   66TCq2    C5 1008   2.947   1.625  15.070  0.3777 -0.1305  0.2636
   66TCq2    C6 1009   2.942   1.681  15.196 -0.2245  0.4212 -0.8240
   66TCq2    C7 1010   2.908   1.600  15.300  0.2717  0.5070 -0.8132
   66TCq2    C8 1011   3.026   1.796  15.218  0.5879  0.2635  0.2244
   66TCq2    O4 1012   3.089   1.839  15.123  0.0318  0.2105  1.2010
   66TCq2    C9 1013   2.893   1.458  14.903  0.3764  0.4987 -0.1263
   66TCq2    O5 1014   2.898   1.336  14.875 -0.3303 -0.5653 -0.1687
   66TCq2    O6 1015   2.895   1.539  14.811  0.0294  0.2321  0.3174
   66TCq2    H2 1016   2.822   1.313  15.142  0.0923 -0.4069  1.7231
   66TCq2    H3 1017   2.980   1.689  14.989  1.9310 -1.4107 -0.1264
   66TCq2    H4 1018   2.939   1.618  15.402 -0.1525 -0.4125 -0.5158
   67MPD2     C 1019   3.293   0.648  14.078 -0.2364  0.1184  0.1624
   67MPD2    C1 1020   3.220   0.744  14.149 -0.2430  0.3160 -0.6415
   67MPD2    C2 1021   3.092   0.763  14.119  0.0357 -0.4177 -0.5462
   67MPD2    C3 1022   3.026   0.715  14.003  1.1020 -0.2229  0.2052
   67MPD2    C4 1023   3.100   0.623  13.925 -0.3456 -0.0688 -0.7099
   67MPD2    C5 1024   3.230   0.597  13.966 -0.0919  0.6140 -0.0056
   67MPD2     H 1025   3.041   0.836  14.181  1.1113 -1.3168  1.3657
   67MPD2    H1 1026   3.067   0.570  13.837 -2.3515  0.2329 -0.1470
   67MPD2    H2 1027   3.388   0.609  14.112  0.6150 -0.5907 -3.0391
   67MPD2    H3 1028   3.278   0.515  13.915  0.8795  1.5644 -0.6250
   67MPD2     N 1029   2.893   0.749  13.968 -0.0287  0.0901 -0.0301
   67MPD2    H5 1030   2.857   0.718  13.879  1.4391 -1.1456 -0.1755
   67MPD2    N1 1031   3.273   0.805  14.266 -0.1987  0.8056  0.2607
   67MPD2    H7 1032   3.212   0.867  14.318  0.2094  0.9424  0.5764
   68TCq2    C1 1033   3.401   0.809  14.313  0.4256  0.2265  0.4692
   68TCq2    O2 1034   3.500   0.738  14.287 -0.4618 -0.0746 -0.2850
   68TCq2    C2 1035   3.420   0.912  14.411 -0.2321 -0.0889  0.9835
   68TCq2    C3 1036   3.314   1.002  14.436  0.0725 -0.4820  0.4798
   68TCq2    C4 1037   3.303   1.064  14.557  0.2716  0.0749  0.3872
   68TCq2    C5 1038   3.388   1.045  14.660 -0.3650 -0.3720 -0.5074
   68TCq2    C6 1039   3.492   0.958  14.630  0.7019 -0.0776  0.1696
   68TCq2    C7 1040   3.516   0.896  14.507 -0.0103  0.4240  0.1062
   68TCq2    C8 1041   3.586   0.930  14.738  0.0512 -0.7508  0.5327
   68TCq2    O4 1042   3.696   0.895  14.695 -0.3776 -0.2040 -0.2795
   68TCq2    C9 1043   3.187   1.143  14.582  0.7008  0.1788  0.3844
   68TCq2    O5 1044   3.120   1.189  14.486 -0.1707  0.4010  0.0943
   68TCq2    O6 1045   3.149   1.153  14.702 -0.1935  0.3363  0.2701
   68TCq2    H2 1046   3.240   1.035  14.364 -1.2847 -2.5549  0.9118
   68TCq2    H3 1047   3.366   1.103  14.749  1.6429 -1.0162  0.4237
   68TCq2    H4 1048   3.598   0.827  14.491  0.2388  0.1437  2.5251
   69TMC2    C1 1049   1.130   2.056  12.397  0.1960 -0.1349 -0.7501
   69TMC2    C2 1050   1.002   2.074  12.356  0.6003 -0.2638 -0.1619
   69TMC2    C3 1051   0.972   2.151  12.247 -0.4461 -0.5531  0.0250
   69TMC2    C4 1052   1.236   2.125  12.351  0.4741  0.1568  0.1170
   69TMC2    C5 1053   1.204   2.205  12.244  0.1424 -0.2437  0.1518
   69TMC2    C6 1054   1.078   2.221  12.193  0.5459 -0.0535 -0.7522
   69TMC2     C 1055   1.159   1.960  12.501 -0.2796 -0.4374 -0.8229
   69TMC2     O 1056   1.064   1.923  12.565 -0.1785  0.2478  0.0436
   69TMC2     H 1057   0.925   2.010  12.398  1.9469 -1.7520  0.0329
   69TMC2    H1 1058   1.334   2.131  12.397  0.4505 -0.4600  0.2543
   69TMC2    H2 1059   1.068   2.275  12.100 -0.0604 -0.7638 -1.0964
   69TMC2    C7 1060   1.304   2.217  12.149 -0.2325  0.4324  0.0071
   69TMC2    C8 1061   0.853   2.228  12.273 -0.5447  0.3066  0.0975
   69TMC2    O1 1062   1.281   2.198  12.028  0.0838 -0.1290 -0.3343
   69TMC2    O2 1063   0.824   2.242  12.390 -0.6544 -0.3377  0.3420
   69TMC2    O5 1064   0.866   2.329  12.182 -0.0698 -0.0574  0.6439
   69TMC2    H5 1065   0.879   2.290  12.093  0.7194  2.1446 -0.2131
   70MPD2     C 1066   1.481   1.859  12.628  0.5750 -0.5017  0.1718
   70MPD2    C1 1067   1.344   1.842  12.613  0.2380  0.0150 -0.5335
   70MPD2    C2 1068   1.282   1.746  12.697 -0.0164  0.0848  0.3409
   70MPD2    C3 1069   1.350   1.666  12.787 -0.3368  0.0506 -0.1962
   70MPD2    C4 1070   1.486   1.682  12.793 -0.2228 -0.8685  0.1587
   70MPD2    C5 1071   1.548   1.775  12.714 -1.2639 -0.1248  0.1196
   70MPD2     H 1072   1.175   1.728  12.695  0.3821 -2.3825  1.1688
   70MPD2    H1 1073   1.542   1.617  12.860 -0.8920 -1.5023  0.1178
   70MPD2    H2 1074   1.545   1.933  12.581 -2.5382  1.6435 -0.6873
   70MPD2    H3 1075   1.656   1.779  12.712 -1.3115  1.7788  1.5774
   70MPD2     N 1076   1.288   1.564  12.869  0.3377 -0.7409  0.1840
   70MPD2    H5 1077   1.352   1.511  12.928 -0.3012 -0.7962  0.8289
   70MPD2    N1 1078   1.289   1.926  12.512  0.2074 -0.4785  0.9583
   70MPD2    H7 1079   1.349   1.951  12.435 -1.5154 -1.5748 -0.7377
   71TMC2    C1 1080   2.193   2.572   1.760  0.0528  0.9637 -0.1321
   71TMC2    C2 1081   2.237   2.548   1.889 -0.7931 -0.1476  0.5288
   71TMC2    C3 1082   2.168   2.616   1.992  0.8259  0.3220  0.1161
   71TMC2    C4 1083   2.118   2.684   1.731 -0.4555  0.3578  1.1542
   71TMC2    C5 1084   2.064   2.753   1.835  0.1180  1.1777  0.0568
   71TMC2    C6 1085   2.094   2.725   1.967  0.0286 -0.6849  0.0277
   71TMC2     C 1086   2.276   2.510   1.658 -0.3901 -0.5561  0.6577
   71TMC2     O 1087   2.293   2.596   1.570  0.2115 -0.1478 -0.2095
   71TMC2     H 1088   2.295   2.458   1.905  1.8794  1.2728 -1.2486
   71TMC2    H1 1089   2.095   2.711   1.629  0.2739  1.2019  1.2043
   71TMC2    H2 1090   2.064   2.790   2.047 -4.3066 -2.0749 -0.4839
   71TMC2    C7 1091   1.930   2.813   1.817 -0.4824 -0.3012 -0.4114
   71TMC2    C8 1092   2.252   2.613   2.111  0.0767 -0.1823 -0.0634
   71TMC2    O1 1093   1.903   2.907   1.892  0.5048  0.1000 -0.0032
   71TMC2    O2 1094   2.371   2.643   2.105 -0.2157  0.8617 -0.0382
   71TMC2    O5 1095   2.168   2.612   2.212 -0.1643 -0.4541 -0.3846
   71TMC2    H5 1096   2.074   2.595   2.193 -0.5590 -0.5277  1.6465
   72MPD2     C 1097   2.501   2.139   1.401  0.1397 -0.5257  0.1619
   72MPD2    C1 1098   2.505   2.280   1.378  0.4751 -0.0025  0.2547
   72MPD2    C2 1099   2.444   2.359   1.471  0.0673  0.2329 -0.2552
   72MPD2    C3 1100   2.389   2.302   1.583  0.2431  0.1712 -0.6430
   72MPD2    C4 1101   2.390   2.166   1.602  0.1582  0.5208 -0.4710
   72MPD2    C5 1102   2.436   2.088   1.506  0.8099 -0.7621 -0.6297
   72MPD2     H 1103   2.450   2.467   1.465 -1.6305  0.4175  1.3208
   72MPD2    H1 1104   2.340   2.123   1.688  2.7305  0.3242  0.9380
   72MPD2    H2 1105   2.540   2.063   1.335 -2.8011 -0.7834 -1.2929
   72MPD2    H3 1106   2.416   1.981   1.514 -1.2549 -0.3035  0.3889
   72MPD2     N 1107   2.312   2.379   1.675 -0.3268 -0.2821  0.0872
   72MPD2    H5 1108   2.282   2.333   1.760 -1.0236  0.5826  0.3064
   72MPD2    N1 1109   2.562   2.347   1.264  0.4272 -0.5557  0.0524
   72MPD2    H7 1110   2.550   2.448   1.261 -2.8013 -1.0015 -2.6842
   73TMC2    C1 1111   3.008   4.047  14.176 -0.6064 -0.1863 -0.4618
   73TMC2    C2 1112   2.960   3.936  14.240  0.4829 -0.6349  0.2734
   73TMC2    C3 1113   2.946   3.951  14.378  0.4790  0.3014 -0.2761
   73TMC2    C4 1114   3.049   4.161  14.245 -0.5461 -0.2448  0.2260
   73TMC2    C5 1115   3.032   4.160  14.382 -0.0656  0.3962  0.0902
   73TMC2    C6 1116   2.977   4.057  14.448  0.2175  0.2316 -0.4146
   73TMC2     C 1117   2.996   4.058  14.031  0.5925  0.0173  0.2020
   73TMC2     O 1118   3.005   3.960  13.958  0.2646  0.0471  0.0717
   73TMC2     H 1119   2.940   3.844  14.187 -3.1505 -0.3645  1.1861
   73TMC2    H1 1120   3.092   4.244  14.190 -1.6741 -0.2223 -0.6264
   73TMC2    H2 1121   2.956   4.055  14.554 -0.9278  1.0982 -0.6274
   73TMC2    C7 1122   3.054   4.290  14.451 -0.3675  0.5684  0.0807
   73TMC2    C8 1123   2.864   3.855  14.455 -0.0367 -0.2044 -0.2826
   73TMC2    O1 1124   3.070   4.296  14.568 -0.3086  0.2746  0.1846
   73TMC2    O2 1125   2.855   3.860  14.580 -0.6039 -0.1912  0.0007
   73TMC2    O5 1126   2.758   3.841  14.376 -0.5563 -0.5511 -0.2384
   73TMC2    H5 1127   2.788   3.808  14.289 -2.1243 -2.4147 -0.0538
   74MPD2     C 1128   3.018   4.384  13.625  0.1901  0.5380  0.6506
   74MPD2    C1 1129   3.012   4.460  13.741 -0.0931 -0.0504  0.1713
   74MPD2    C2 1130   2.981   4.389  13.857 -0.0899 -0.5174  0.7894
   74MPD2    C3 1131   2.983   4.249  13.862 -0.3213 -1.0562  0.4565
   74MPD2    C4 1132   3.005   4.177  13.747 -0.1343 -0.6877  0.3462
   74MPD2    C5 1133   3.005   4.247  13.625  0.7785  0.2991 -0.1762
   74MPD2     H 1134   2.981   4.442  13.952  0.0251  0.5925  0.1759
   74MPD2    H1 1135   3.014   4.069  13.744  0.9839 -0.5862 -0.0368
   74MPD2    H2 1136   3.043   4.416  13.525 -0.2694 -0.1797  0.3037
   74MPD2    H3 1137   3.006   4.196  13.529 -0.7910 -1.0434  0.5108
   74MPD2     N 1138   2.971   4.190  13.989 -0.1450 -0.9590  0.7890
   74MPD2    H5 1139   2.952   4.251  14.067 -0.0073 -1.1222  0.9502
   74MPD2    N1 1140   3.021   4.604  13.733  0.3087 -0.1215 -0.2094
   74MPD2    H7 1141   3.058   4.634  13.644 -0.9458  0.6918 -0.4591
   75TCq2    C1 1142   2.812   0.829  14.047 -0.2309  0.0892 -0.3035
   75TCq2    O2 1143   2.826   0.865  14.163  0.7846  0.1891  0.8054
   75TCq2    C2 1144   2.692   0.875  13.976  0.4506 -0.3136 -0.2603
   75TCq2    C3 1145   2.568   0.899  14.028  0.1037 -0.3271  0.4071
   75TCq2    C4 1146   2.467   0.958  13.959  0.3564  0.0824 -0.0831
   75TCq2    C5 1147   2.492   1.009  13.838  0.0475 -0.1528 -0.3879
   75TCq2    C6 1148   2.613   0.981  13.781  0.0893  0.1452  0.0276
   75TCq2    C7 1149   2.718   0.920  13.847 -0.0898  0.0432  0.3192
   75TCq2    C8 1150   2.627   1.013  13.642 -0.1811  0.1159 -0.1092
   75TCq2    O4 1151   2.696   0.932  13.580 -0.4104  0.9234  0.0734
   75TCq2    C9 1152   2.335   0.960  14.012  0.3096  0.1081 -0.3802
   75TCq2    O5 1153   2.253   1.024  13.940 -0.4338 -0.0461  0.7391
   75TCq2    O6 1154   2.306   0.907  14.123  0.8635 -0.1172  0.1567
   75TCq2    H2 1155   2.542   0.838  14.113 -0.8859 -0.8394 -0.2544
   75TCq2    H3 1156   2.409   1.051  13.782  0.6257 -2.5520 -3.0440
   75TCq2    H4 1157   2.806   0.888  13.792 -0.2334 -1.6298  1.0390
   76MPD2     C 1158   2.234   1.691  11.760  0.6172 -0.5146 -0.0637
   76MPD2    C1 1159   2.126   1.651  11.689  0.4442  0.3890  0.4411
   76MPD2    C2 1160   2.115   1.515  11.673 -0.1334 -0.6624  1.1758
   76MPD2    C3 1161   2.210   1.419  11.709  0.4485 -0.4957 -0.1837
   76MPD2    C4 1162   2.310   1.472  11.780  0.4713 -0.5700 -0.5691
   76MPD2    C5 1163   2.327   1.605  11.799 -0.3908 -0.4832 -1.2170
   76MPD2     H 1164   2.025   1.477  11.627  1.7421 -0.2373 -2.8278
   76MPD2    H1 1165   2.390   1.410  11.821  0.2619  0.8897  2.0563
   76MPD2    H2 1166   2.262   1.795  11.751  0.1570 -0.4889 -1.2427
   76MPD2    H3 1167   2.410   1.638  11.862 -0.4446  1.2090 -2.0362
   76MPD2     N 1168   2.207   1.280  11.681 -0.4224 -0.1540 -0.0697
   76MPD2    H5 1169   2.291   1.228  11.705 -0.1486  0.1199 -0.4287
   76MPD2    N1 1170   2.030   1.739  11.631 -0.3332  0.0247 -0.4119
   76MPD2    H7 1171   1.949   1.691  11.592 -1.4569  2.1723 -0.7031
   77TCq2    C1 1172   2.094   1.216  11.646 -0.6325  0.1703  0.2518
   77TCq2    O2 1173   1.979   1.256  11.631 -0.2075  0.4209  0.1477
   77TCq2    C2 1174   2.111   1.070  11.644 -0.0917 -0.0744  1.0879
   77TCq2    C3 1175   2.000   0.992  11.663  0.3222 -0.4760  0.4606
   77TCq2    C4 1176   2.016   0.859  11.680  0.0898  0.1559 -0.3074
   77TCq2    C5 1177   2.140   0.810  11.665 -0.8207  0.1886  0.4850
   77TCq2    C6 1178   2.251   0.880  11.633 -0.8975  0.3002  0.1259
   77TCq2    C7 1179   2.243   1.017  11.625 -0.3581 -0.1192  0.1008
   77TCq2    C8 1180   2.386   0.819  11.637  0.0589 -0.0956  0.2976
   77TCq2    O4 1181   2.419   0.732  11.558  0.1813  0.1116 -0.9884
   77TCq2    C9 1182   1.909   0.770  11.731  0.9905  0.2377 -0.4152
   77TCq2    O5 1183   1.797   0.820  11.759  0.0834  0.6451  0.3631
   77TCq2    O6 1184   1.943   0.659  11.782  0.1244  0.4602 -0.0709
   77TCq2    H2 1185   1.909   1.045  11.688 -0.0094 -0.7976 -0.0711
   77TCq2    H3 1186   2.155   0.704  11.685 -0.0707 -0.3188 -2.6606
   77TCq2    H4 1187   2.331   1.075  11.600 -0.1899  0.7684  2.7108
   78MPD1     C 1188   3.340   2.614   1.823 -0.0233  0.6803  0.1921
   78MPD1    C1 1189   3.289   2.714   1.744  0.5379  0.6595  0.1769
   78MPD1    C2 1190   3.362   2.783   1.647  0.0363  0.0132  0.9062
   78MPD1    C3 1191   3.496   2.739   1.622  0.3597 -0.1011 -0.1956
   78MPD1    C4 1192   3.544   2.634   1.702 -0.2167  0.2822 -1.1201
   78MPD1    C5 1193   3.468   2.580   1.805  0.0381 -0.3047  1.0736
   78MPD1     H 1194   3.318   2.864   1.590  0.3328  1.0331  2.1229
   78MPD1    H1 1195   3.648   2.607   1.687 -0.1703  1.5504 -3.1931
   78MPD1    H2 1196   3.289   2.579   1.912  2.7439 -0.6555  1.2631
   78MPD1    H3 1197   3.501   2.493   1.860 -0.1835 -1.1751 -0.1563
   78MPD1     N 1198   3.587   2.787   1.522 -0.0700  0.4882 -0.0301
   78MPD1    H5 1199   3.679   2.745   1.512 -0.2743  0.5455 -2.1558
   78MPD1    N1 1200   3.169   2.775   1.790 -1.1677  0.4165  0.3169
   78MPD1    H6 1201   3.108   2.708   1.836 -3.2386  1.3303 -1.0908
   78MPD1    H7 1202   3.117   2.816   1.713  0.2273 -0.6933 -1.2275
   79TCq2    C1 1203   3.561   2.890   1.432  0.7401  0.1205 -0.5968
   79TCq2    O2 1204   3.460   2.956   1.406 -0.5902 -0.1120  0.1458
   79TCq2    C2 1205   3.666   2.911   1.331  0.5432 -0.3313 -0.2032
   79TCq2    C3 1206   3.635   2.992   1.223  0.0111  0.1436 -0.1792
   79TCq2    C4 1207   3.725   3.016   1.118 -0.6772  0.1304  0.8984
   79TCq2    C5 1208   3.846   2.955   1.121 -0.2652  0.9060  0.0498
   79TCq2    C6 1209   3.877   2.872   1.228 -0.4708 -0.3140  0.0993
   79TCq2    C7 1210   3.791   2.855   1.333 -0.0374  0.3323  0.7025
   79TCq2    C8 1211   4.015   2.847   1.265  0.3497  0.2522  0.1544
   79TCq2    O4 1212   4.058   2.862   1.380 -0.3550  0.3092 -0.1165
   79TCq2    C9 1213   3.696   3.108   1.018 -0.1748 -0.0999  0.4533
   79TCq2    O5 1214   3.632   3.211   1.048 -0.3133  0.1223  0.0455
   79TCq2    O6 1215   3.770   3.105   0.913 -0.1633 -0.0120 -0.0598
   79TCq2    H2 1216   3.540   3.043   1.217  1.0367  2.2225  1.1052
   79TCq2    H3 1217   3.920   2.988   1.049 -0.0751  1.1652  0.3668
   79TCq2    H4 1218   3.833   2.798   1.415  2.0502  0.7405 -0.0817
   80MPD2     C 1219   1.081   1.230  11.655  0.0036  0.8318  0.0127
   80MPD2    C1 1220   0.980   1.246  11.744 -0.0581  0.5431 -0.5772
   80MPD2    C2 1221   0.986   1.335  11.847 -0.4768 -0.2543  0.9265
   80MPD2    C3 1222   1.097   1.403  11.863 -0.5547  0.1001 -0.4793
   80MPD2    C4 1223   1.206   1.384  11.788 -0.0460 -0.4085  0.0933
   80MPD2    C5 1224   1.196   1.304  11.679  0.6527 -0.3026 -0.6965
   80MPD2     H 1225   0.901   1.358  11.912  0.0559 -1.1014  1.9223
   80MPD2    H1 1226   1.295   1.440  11.817 -0.2975  0.0084  0.0567
   80MPD2    H2 1227   1.089   1.143  11.591  2.2857  1.6124 -0.7728
   80MPD2    H3 1228   1.282   1.289  11.614  2.2141 -0.8270  1.5142
   80MPD2     N 1229   1.121   1.484  11.977  0.2671  0.0258 -0.2028
   80MPD2    H5 1230   1.216   1.517  11.989  0.6205 -1.2270  0.4374
   80MPD2    N1 1231   0.859   1.173  11.722  0.1945 -0.5174 -0.6723
   80MPD2    H7 1232   0.781   1.185  11.787  1.6677  2.7716  0.5221
   81TCq2    C1 1233   0.820   1.110  11.610  0.5020  0.1568 -0.4472
   81TCq2    O2 1234   0.880   1.101  11.506  0.2350 -0.1850 -0.0214
   81TCq2    C2 1235   0.688   1.053  11.624  1.2547  0.0748 -0.0086
   81TCq2    C3 1236   0.632   1.018  11.500  0.1211 -0.5189  0.2846
   81TCq2    C4 1237   0.508   0.972  11.489 -0.5153 -0.7600 -0.2196
   81TCq2    C5 1238   0.438   0.953  11.608 -0.0276 -0.2614  0.2129
   81TCq2    C6 1239   0.493   0.992  11.729  0.6176 -0.0889 -0.2281
   81TCq2    C7 1240   0.615   1.048  11.742 -0.1203  1.1136 -0.4282
   81TCq2    C8 1241   0.405   0.969  11.838  0.2105 -0.1641 -0.3857
   81TCq2    O4 1242   0.288   0.956  11.808  1.1161 -0.2994  0.2791
   81TCq2    C9 1243   0.456   0.922  11.367 -0.2948 -0.0026  0.4787
   81TCq2    O5 1244   0.534   0.913  11.272  0.6862  0.2323 -0.1350
   81TCq2    O6 1245   0.332   0.913  11.365  0.1309 -0.6281 -0.1973
   81TCq2    H2 1246   0.702   1.034  11.418  1.1161  2.0124  1.6207
   81TCq2    H3 1247   0.338   0.914  11.594 -1.3981  3.3002  0.2893
   81TCq2    H4 1248   0.649   1.080  11.840 -0.0632  2.6534 -0.9600
   82MPD2     C 1249   3.912   0.044  10.283 -0.0779  0.5644  0.1813
   82MPD2    C1 1250   3.815   0.068  10.378 -0.3933  0.1565  0.3037
   82MPD2    C2 1251   3.829   0.005  10.501 -0.3392 -0.6836  0.6765
   82MPD2    C3 1252   3.939   4.634  10.519  0.3385  0.6212 -0.1007
   82MPD2    C4 1253   4.031   4.620  10.418  0.1086  0.2145 -0.2233
   82MPD2    C5 1254   4.022   4.685  10.300 -0.9103 -0.1769  1.0049
   82MPD2     H 1255   3.752   0.010  10.577  2.0029  1.2121  2.9218
   82MPD2    H1 1256   4.114   4.553  10.435  1.2214  1.2143 -1.7652
   82MPD2    H2 1257   3.887   0.086  10.186 -0.7170  3.6542  1.6735
   82MPD2    H3 1258   4.104   4.681  10.229 -0.1642 -3.4112  2.0625
   82MPD2     N 1259   3.960   4.567  10.643  0.5683 -0.1165  0.9024
   82MPD2    H5 1260   4.052   4.535  10.669  1.0485 -0.2209 -0.9159
   82MPD2    N1 1261   3.707   0.149  10.343  0.0681  0.0001 -0.4956
   82MPD2    H7 1262   3.691   0.167  10.244 -0.2588  1.5141 -0.1502
   83TCq2    C1 1263   3.871   4.542  10.750  0.5110 -0.5695  0.5494
   83TCq2    O2 1264   3.755   4.558  10.770 -0.4768  0.4744  0.0010
   83TCq2    C2 1265   3.937   4.456  10.850 -0.4701  0.1181 -0.2125
   83TCq2    C3 1266   4.067   4.425  10.841 -0.2804 -0.3418 -0.2401
   83TCq2    C4 1267   4.114   4.351  10.943 -0.6726 -0.8925  0.9973
   83TCq2    C5 1268   4.047   4.315  11.054  0.1443 -0.0534  0.8117
   83TCq2    C6 1269   3.921   4.357  11.075  0.2655 -0.5111  0.5346
   83TCq2    C7 1270   3.866   4.428  10.968 -0.5901 -0.6127 -0.1994
   83TCq2    C8 1271   3.866   4.382  11.206 -0.2805  0.3617 -0.1870
   83TCq2    O4 1272   3.747   4.406  11.206 -0.3928  0.5133 -0.1326
   83TCq2    C9 1273   4.249   4.302  10.930 -0.0223 -0.0390  1.1437
   83TCq2    O5 1274   4.324   4.303  11.032 -0.4433 -0.0657  0.1412
   83TCq2    O6 1275   4.304   4.294  10.816  0.4032 -0.6388  0.3745
   83TCq2    H2 1276   4.135   4.455  10.762  0.5252 -0.2293  0.4788
   83TCq2    H3 1277   4.099   4.251  11.124  1.5788 -0.0683 -0.2767
   83TCq2    H4 1278   3.768   4.469  10.986  1.0508  3.9561 -1.6786
   84TCq2    C1 1279   0.142   3.604  10.597  0.0027  0.2258 -0.0417
   84TCq2    O2 1280   0.163   3.576  10.484  0.2241 -0.4900  0.0498
   84TCq2    C2 1281   0.000   3.605  10.646  0.0311 -0.3823 -0.3396
   84TCq2    C3 1282   4.625   3.628  10.551  0.1589  1.0807 -0.2188
   84TCq2    C4 1283   4.501   3.666  10.590  0.0620 -0.8626 -1.0511
   84TCq2    C5 1284   4.464   3.674  10.722 -0.0846  0.0445  0.7473
   84TCq2    C6 1285   4.557   3.635  10.817 -0.1843 -1.1470 -0.6669
   84TCq2    C7 1286   4.688   3.613  10.781  0.3077  0.6519 -0.3462
   84TCq2    C8 1287   4.537   3.677  10.953 -0.0336 -0.1164  0.2411
   84TCq2    O4 1288   4.640   3.693  11.017  0.6316 -0.0343  0.5115
   84TCq2    C9 1289   4.415   3.721  10.494  0.6523 -0.0590  0.2880
   84TCq2    O5 1290   4.441   3.694  10.377  0.6908 -0.9716  0.0157
   84TCq2    O6 1291   4.333   3.811  10.531 -0.5218 -0.3618  0.1075
   84TCq2    H2 1292   4.656   3.623  10.447  2.2145 -0.0709  0.4565
   84TCq2    H3 1293   4.368   3.722  10.740 -0.6847 -0.6032 -0.7389
   84TCq2    H4 1294   0.037   3.574  10.857  0.0336 -0.0676 -0.4677
   85MPD2     C 1295   0.357   2.341  16.120  0.4435  0.6582 -0.2941
   85MPD2    C1 1296   0.477   2.291  16.081  0.1827  0.2649 -0.4079
   85MPD2    C2 1297   0.566   2.374  16.023 -0.0712 -0.0945  0.3797
   85MPD2    C3 1298   0.542   2.511  16.005 -0.1670  0.4121  0.6928
   85MPD2    C4 1299   0.418   2.560  16.037 -0.1352  0.7127 -0.5144
   85MPD2    C5 1300   0.328   2.475  16.094  0.2492 -0.3978  0.0993
   85MPD2     H 1301   0.661   2.327  16.000 -0.2883  0.1250 -1.0132
   85MPD2    H1 1302   0.390   2.665  16.032  2.8145  1.4396 -1.7497
   85MPD2    H2 1303   0.275   2.280  16.157  0.9904 -0.0773 -0.2848
   85MPD2    H3 1304   0.233   2.520  16.122  1.3719  1.3164  1.2017
   85MPD2     N 1305   0.637   2.595  15.942  0.0576  0.2577 -0.1339
   85MPD2    H5 1306   0.721   2.544  15.916  1.6048  1.6416  2.0715
   85MPD2    N1 1307   0.505   2.151  16.100 -0.3557  0.0161 -0.1918
   85MPD2    H7 1308   0.579   2.113  16.042  1.1716  1.0081  1.0981
   86TCq2    C1 1309   0.633   2.729  15.922 -0.6133 -0.4250 -0.6631
   86TCq2    O2 1310   0.559   2.805  15.979 -0.4083 -0.5361  0.0902
   86TCq2    C2 1311   0.731   2.790  15.830 -0.1569  0.4651  0.7718
   86TCq2    C3 1312   0.723   2.919  15.807  0.5281 -0.1955  0.1571
   86TCq2    C4 1313   0.777   2.969  15.693  1.2983  0.4090 -0.4624
   86TCq2    C5 1314   0.852   2.891  15.613 -0.5873 -0.1129 -0.2774
   86TCq2    C6 1315   0.853   2.757  15.636  0.3797 -0.0529  0.4137
   86TCq2    C7 1316   0.797   2.702  15.745  0.5487  0.2369 -1.1527
   86TCq2    C8 1317   0.936   2.671  15.553  0.2327 -0.6528 -0.5119
   86TCq2    O4 1318   0.990   2.577  15.612 -0.1939 -0.0350  0.1197
   86TCq2    C9 1319   0.777   3.110  15.665 -0.4800 -0.2744  0.1246
   86TCq2    O5 1320   0.714   3.179  15.748 -0.6687 -0.2202  0.1084
   86TCq2    O6 1321   0.821   3.154  15.552 -0.0548 -0.3425 -0.0374
   86TCq2    H2 1322   0.672   2.981  15.879  1.7620 -1.8291  2.4569
   86TCq2    H3 1323   0.908   2.931  15.529  1.0004 -0.2206  0.7182
   86TCq2    H4 1324   0.813   2.597  15.769  2.5723  0.5855 -1.0206
   87MPD2     C 1325   3.438   1.875   1.583 -0.2837 -0.4618  0.1819
   87MPD2    C1 1326   3.462   1.829   1.459  0.5242 -0.3107  0.0675
   87MPD2    C2 1327   3.377   1.860   1.348  0.6015  0.5142 -0.0392
   87MPD2    C3 1328   3.265   1.943   1.372  0.6127  0.3506 -0.1202
   87MPD2    C4 1329   3.257   2.003   1.492  0.7062  0.8425 -1.0149
   87MPD2    C5 1330   3.336   1.970   1.598 -0.1522 -0.5144 -0.5499
   87MPD2     H 1331   3.381   1.811   1.251  0.0916 -0.3460  0.3809
   87MPD2    H1 1332   3.190   2.087   1.493  0.9250  1.0407 -2.1309
   87MPD2    H2 1333   3.503   1.842   1.662 -1.8144 -2.3964  0.6146
   87MPD2    H3 1334   3.335   2.024   1.692  0.2643 -0.7479 -0.4108
   87MPD2     N 1335   3.176   1.987   1.268  0.0070 -0.3150 -0.2819
   87MPD2    H5 1336   3.106   2.053   1.300  0.1925 -0.3788  0.2602
   87MPD2    N1 1337   3.573   1.741   1.445 -0.2576 -0.1535 -0.4453
   87MPD2    H7 1338   3.621   1.725   1.533 -0.0294  1.7672 -0.2268
   88TCq2    C1 1339   3.614   1.676   1.328  0.2780  0.5952  0.2788
   88TCq2    O2 1340   3.548   1.657   1.228  0.0612 -0.0872  0.3552
   88TCq2    C2 1341   3.739   1.595   1.347 -0.2255  0.6329 -0.5253
   88TCq2    C3 1342   3.821   1.629   1.453 -0.2069 -0.0801  0.3310
   88TCq2    C4 1343   3.949   1.593   1.437  0.2457  0.1371  0.1744
   88TCq2    C5 1344   3.989   1.519   1.329 -0.3188  0.1077 -0.5356
   88TCq2    C6 1345   3.907   1.494   1.224 -0.8181 -0.4346 -0.0442
   88TCq2    C7 1346   3.782   1.535   1.231 -0.6072 -0.8018 -0.5028
   88TCq2    C8 1347   3.965   1.419   1.117  0.1691  0.4637 -0.9069
   88TCq2    O4 1348   4.086   1.399   1.131 -0.4118  0.2448 -0.4789
   88TCq2    C9 1349   4.044   1.618   1.544 -0.6069  0.1524 -0.4583
   88TCq2    O5 1350   4.158   1.566   1.535  0.2155  0.3213  0.4503
   88TCq2    O6 1351   4.012   1.718   1.613  0.4573  0.1947 -0.3197
   88TCq2    H2 1352   3.783   1.667   1.547 -0.9289 -0.5998  0.2453
   88TCq2    H3 1353   4.096   1.502   1.334  0.2939  4.2612  0.1076
   88TCq2    H4 1354   3.718   1.517   1.145  0.1736  0.2508 -1.3119
   89MPD2     C 1355   3.492   3.502   2.299 -0.1431  0.2300 -0.5475
   89MPD2    C1 1356   3.441   3.576   2.193  0.4246  0.2785  0.5032
   89MPD2    C2 1357   3.533   3.619   2.096  0.2234  0.3711 -0.8093
   89MPD2    C3 1358   3.669   3.609   2.113  0.0453 -0.6827  0.5946
   89MPD2    C4 1359   3.714   3.524   2.214 -0.3239 -0.3996 -0.0626
   89MPD2    C5 1360   3.627   3.470   2.306  0.3128  0.7555  0.2311
   89MPD2     H 1361   3.492   3.657   2.003 -0.4144  2.4991  0.3500
   89MPD2    H1 1362   3.819   3.508   2.238 -0.0793 -0.2497 -1.0058
   89MPD2    H2 1363   3.437   3.465   2.384 -0.5713  2.7015  0.2494
   89MPD2    H3 1364   3.674   3.432   2.396  2.4397  1.3028 -0.6653
   89MPD2     N 1365   3.756   3.675   2.019 -0.6322 -0.7367 -0.0557
   89MPD2    H5 1366   3.712   3.733   1.948  1.6575 -1.4876 -2.0414
   89MPD2    N1 1367   3.300   3.599   2.176 -0.3330  0.2979 -0.4564
   89MPD2    H7 1368   3.262   3.636   2.090 -2.4621 -1.5747 -0.3527
   90TCq2    C1 1369   3.888   3.645   2.005  0.4569  1.2454  0.3480
   90TCq2    O2 1370   3.965   3.561   2.053 -0.4300 -0.3168 -0.7830
   90TCq2    C2 1371   3.959   3.736   1.911  0.2948 -0.6907 -0.3045
   90TCq2    C3 1372   4.079   3.778   1.955  0.1056  0.2408 -0.2567
   90TCq2    C4 1373   4.146   3.867   1.873 -0.5032  0.0614 -0.3216
   90TCq2    C5 1374   4.091   3.901   1.746 -0.5020 -0.1803  0.1292
   90TCq2    C6 1375   3.967   3.846   1.709  0.3377  0.0405 -0.2655
   90TCq2    C7 1376   3.894   3.782   1.800 -0.2890  0.3510  0.3592
   90TCq2    C8 1377   3.897   3.884   1.584  0.1442  0.2728  0.7283
   90TCq2    O4 1378   3.775   3.878   1.577 -0.3012 -0.0220 -0.9629
   90TCq2    C9 1379   4.266   3.930   1.927 -0.0126  0.8859 -0.6422
   90TCq2    O5 1380   4.285   3.918   2.054  0.1867 -0.1119  0.4960
   90TCq2    O6 1381   4.323   4.021   1.857  0.1814 -0.6108 -0.4637
   90TCq2    H2 1382   4.118   3.760   2.054  0.8787  0.5892 -0.4974
   90TCq2    H3 1383   4.162   3.953   1.683 -0.3341 -0.7830 -0.1890
   90TCq2    H4 1384   3.804   3.729   1.769 -1.5878  1.6892  1.8118
   91TMC2    C1 1385   0.872   3.699  16.686 -0.4803 -0.6702 -0.3372
   91TMC2    C2 1386   0.920   3.799  16.608  0.0594  0.4110 -0.8272
   91TMC2    C3 1387   0.827   3.881  16.555 -0.0228  0.9520  0.6126
   91TMC2    C4 1388   0.740   3.677  16.705 -0.4078  0.2532 -0.0648
   91TMC2    C5 1389   0.652   3.757  16.635 -0.7738  0.1618  0.4294
   91TMC2    C6 1390   0.692   3.869  16.571  0.3930  0.4153 -0.3365
   91TMC2     C 1391   0.953   3.587  16.728  0.0051  1.0099 -0.2603
   91TMC2     O 1392   0.905   3.488  16.789  0.2178 -0.4002  0.2502
   91TMC2     H 1393   1.025   3.827  16.604  0.3051 -0.3667  0.2093
   91TMC2    H1 1394   0.707   3.603  16.776 -1.4273  1.2435  0.4997
   91TMC2    H2 1395   0.618   3.924  16.515 -0.7556  0.6478  1.4166
   91TMC2    C7 1396   0.512   3.713  16.634  0.3228 -0.4322  0.1892
   91TMC2    C8 1397   0.884   3.971  16.453  1.1687  0.0045  0.4389
   91TMC2    O1 1398   0.474   3.649  16.733  0.6550  0.2863 -0.0870
   91TMC2    O2 1399   0.993   3.968  16.397 -0.5819  0.1299 -0.0778
   91TMC2    O5 1400   0.807   4.079  16.429  0.2608  0.4297  0.1147
   91TMC2    H5 1401   0.760   4.089  16.514  2.0942  1.7003  0.9797
   92MPD2     C 1402   1.164   3.373  16.755  0.1204 -0.0463 -0.1999
   92MPD2    C1 1403   1.182   3.504  16.703 -1.2116 -1.1444  0.0531
   92MPD2    C2 1404   1.309   3.533  16.657 -0.1040  0.2778 -0.1393
   92MPD2    C3 1405   1.414   3.445  16.667  0.3044  0.3434  0.0129
   92MPD2    C4 1406   1.387   3.319  16.718  0.3549 -0.6865 -0.2536
   92MPD2    C5 1407   1.265   3.289  16.760  0.1352 -0.6552  0.1709
   92MPD2     H 1408   1.332   3.627  16.610 -2.4620  1.0431  0.2519
   92MPD2    H1 1409   1.459   3.238  16.727 -0.5372 -1.4016  0.3795
   92MPD2    H2 1410   1.069   3.331  16.789  0.2142 -0.2525 -0.1933
   92MPD2    H3 1411   1.241   3.190  16.799  1.3968 -0.9033  0.3345
   92MPD2     N 1412   1.535   3.487  16.617 -0.1303 -0.1972  0.0545
   92MPD2    H5 1413   1.529   3.586  16.594 -0.1414  0.5311  3.2023
   92MPD2    N1 1414   1.084   3.605  16.704  0.1263  0.1451  0.2523
   92MPD2    H7 1415   1.114   3.698  16.678  1.9996 -0.2420  1.0101
   93MPD2     C 1416   2.547   3.607  13.437 -0.5212  0.2064 -0.1273
   93MPD2    C1 1417   2.488   3.534  13.541  0.0824 -0.3333  0.0586
   93MPD2    C2 1418   2.349   3.528  13.553  0.0075 -0.0363 -0.2553
   93MPD2    C3 1419   2.264   3.598  13.475  0.1015  0.3223 -0.6409
   93MPD2    C4 1420   2.324   3.679  13.380 -0.1238  0.1635  0.4008
   93MPD2    C5 1421   2.459   3.683  13.364  0.1317 -0.3767  0.2011
   93MPD2     H 1422   2.310   3.480  13.641  0.0108 -0.5577 -0.5367
   93MPD2    H1 1423   2.263   3.736  13.311  0.3559 -0.9706 -0.9662
   93MPD2    H2 1424   2.649   3.638  13.414 -0.5805 -0.0013 -0.6777
   93MPD2    H3 1425   2.500   3.757  13.296 -1.3621 -0.3706 -0.7022
   93MPD2     N 1426   2.126   3.583  13.500  0.6365 -0.0576  0.1071
   93MPD2    H5 1427   2.062   3.638  13.443 -0.3063 -2.0185 -0.7089
   93MPD2    N1 1428   2.566   3.490  13.648 -0.7752  0.1118 -0.1883
   93MPD2    H7 1429   2.512   3.463  13.730  0.5766  0.7742  0.9153
   94TCq2    C1 1430   2.699   3.483  13.649  0.0701 -0.5273  0.5340
   94TCq2    O2 1431   2.782   3.498  13.555  0.2061 -0.2448 -0.3647
   94TCq2    C2 1432   2.759   3.477  13.782 -0.2185 -0.0889 -0.2720
   94TCq2    C3 1433   2.690   3.546  13.875 -0.3584  0.0484 -0.3837
   94TCq2    C4 1434   2.759   3.635  13.954  0.0080 -0.3734 -0.3507
   94TCq2    C5 1435   2.895   3.649  13.947  0.0761  0.0810  0.2921
   94TCq2    C6 1436   2.958   3.570  13.849  0.0671  0.1297 -0.6296
   94TCq2    C7 1437   2.895   3.485  13.768 -1.0551 -0.3782  0.3953
   94TCq2    C8 1438   3.093   3.596  13.803  0.6645  0.6178  0.2423
   94TCq2    O4 1439   3.142   3.510  13.733  0.5336 -0.2216  0.5567
   94TCq2    C9 1440   2.684   3.694  14.062 -0.6074  0.2031  0.4963
   94TCq2    O5 1441   2.561   3.684  14.057 -0.0814 -0.0896 -0.4573
   94TCq2    O6 1442   2.746   3.764  14.142  0.1166  0.5928 -0.0397
   94TCq2    H2 1443   2.582   3.545  13.879 -0.4639  3.2732 -2.2660
   94TCq2    H3 1444   2.957   3.710  14.013 -0.3926  0.1294  0.6867
   94TCq2    H4 1445   2.944   3.415  13.702 -0.5315  1.5505 -1.2611
   95TMC2    C1 1446   2.860   4.682  16.025  0.6226  0.2102  0.7342
   95TMC2    C2 1447   2.908   4.591  16.114  0.2280  0.2555  0.0742
   95TMC2    C3 1448   2.815   4.536  16.201 -0.2128  0.7842 -0.4566
   95TMC2    C4 1449   2.731   0.000  16.011  0.2009 -0.9683  0.2656
   95TMC2    C5 1450   2.646   4.666  16.101 -0.0770 -0.1023  0.3441
   95TMC2    C6 1451   2.684   4.575  16.195 -0.1161 -0.0732 -0.6576
   95TMC2     C 1452   2.957   0.037  15.947 -0.4283  1.0536 -0.3493
   95TMC2     O 1453   2.933   0.156  15.922  0.4854  0.0313  0.5125
   95TMC2     H 1454   3.012   4.584  16.145  0.6207  2.3164 -0.8077
   95TMC2    H1 1455   2.713   0.086  15.947  0.6533 -0.7803  0.3910
   95TMC2    H2 1456   2.615   4.528  16.264 -0.3703  0.7344 -0.3651
   95TMC2    C7 1457   2.510   0.010  16.110 -0.4541 -0.3613  0.3539
   95TMC2    C8 1458   2.863   4.484  16.331 -0.1565 -0.2347 -0.3656
   95TMC2    O1 1459   2.451   4.712  16.219  0.1592 -0.1356  1.1342
   95TMC2    O2 1460   2.788   4.475  16.430 -0.7252 -0.0950  0.2949
   95TMC2    O5 1461   2.971   4.400  16.314 -0.3292 -0.0613 -0.3095
   95TMC2    H5 1462   2.998   4.395  16.220 -1.3623  0.5233 -0.6420
   96MPD2     C 1463   3.443   0.117  15.833 -0.1597 -0.5349 -0.1985
   96MPD2    C1 1464   3.338   0.195  15.801 -0.6436 -0.1460 -0.2849
   96MPD2    C2 1465   3.215   0.147  15.851 -0.4569  0.0877  0.2118
   96MPD2    C3 1466   3.196   0.014  15.892  0.1688 -0.1396  0.1392
   96MPD2    C4 1467   3.310   4.655  15.904  0.4813  0.3992  0.4008
   96MPD2    C5 1468   3.429   4.713  15.885 -0.2103  0.0820 -0.1566
   96MPD2     H 1469   3.129   0.210  15.831 -0.1415  0.3551 -0.2948
   96MPD2    H1 1470   3.306   4.559  15.953 -3.1036 -0.6018 -1.8994
   96MPD2    H2 1471   3.546   0.144  15.816 -0.5120  1.5215  0.9063
   96MPD2    H3 1472   3.515   4.651  15.906 -0.1236  0.3118  0.1669
   96MPD2     N 1473   3.076   4.682  15.939 -0.5220 -0.6924  0.6353
   96MPD2    H5 1474   3.079   4.593  15.988 -0.8411 -0.5340  0.9411
   96MPD2    N1 1475   3.355   0.309  15.723 -0.0947 -0.5168 -0.1456
   96MPD2    H7 1476   3.451   0.322  15.693 -0.8263 -1.3572 -2.8328
   97MPD2     C 1477   0.705   2.599   1.467 -0.6644 -0.2871  0.5161
   97MPD2    C1 1478   0.650   2.691   1.384 -0.3686  0.1294 -0.1785
   97MPD2    C2 1479   0.675   2.678   1.250 -0.0255 -0.5145  0.5285
   97MPD2    C3 1480   0.760   2.583   1.197 -0.1591 -0.1289  0.6679
   97MPD2    C4 1481   0.817   2.494   1.284  0.3466 -0.0922 -0.1767
   97MPD2    C5 1482   0.784   2.497   1.419  0.5206 -0.3128  0.4276
   97MPD2     H 1483   0.655   2.762   1.183  0.7379 -1.0107 -0.3210
   97MPD2    H1 1484   0.892   2.425   1.246 -1.9662 -2.4723 -0.4643
   97MPD2    H2 1485   0.684   2.594   1.574 -0.2410  1.1251  0.6587
   97MPD2    H3 1486   0.822   2.423   1.488 -1.6217 -0.9506  0.9498
   97MPD2     N 1487   0.799   2.578   1.059  0.9116  0.7079  0.1372
   97MPD2    H5 1488   0.856   2.499   1.029 -1.9980 -1.9325  1.5939
   97MPD2    N1 1489   0.599   2.811   1.441  0.2998  0.0385 -0.1364
   97MPD2    H7 1490   0.590   2.811   1.543  0.0159  1.4838 -0.1551
   98TCq2    C1 1491   0.763   2.670   0.956 -0.1147 -0.2666 -0.2647
   98TCq2    O2 1492   0.689   2.773   0.959 -0.5146  0.3166 -0.4050
   98TCq2    C2 1493   0.836   2.651   0.825  0.1637  0.6058 -0.1174
   98TCq2    C3 1494   0.902   2.537   0.809 -0.0636 -0.4411 -0.3376
   98TCq2    C4 1495   1.009   2.536   0.717  0.3006  0.6537  0.3600
   98TCq2    C5 1496   1.033   2.652   0.647  0.3022  1.0634  0.3615
   98TCq2    C6 1497   0.962   2.766   0.675 -0.9681  0.1476 -0.5293
   98TCq2    C7 1498   0.862   2.769   0.767  0.0973 -0.1487  0.8900
   98TCq2    C8 1499   0.958   2.868   0.577  0.2321 -0.2325  0.1173
   98TCq2    O4 1500   1.057   2.887   0.509  0.6104 -0.0551 -0.5709
   98TCq2    C9 1501   1.072   2.407   0.687  0.5455 -0.4405 -0.2254
   98TCq2    O5 1502   1.068   2.323   0.783  0.3640  0.5804  0.3324
   98TCq2    O6 1503   1.151   2.408   0.593  0.1170 -0.0175 -0.0770
   98TCq2    H2 1504   0.877   2.439   0.848 -1.0668  0.4667  1.2961
   98TCq2    H3 1505   1.114   2.645   0.575  0.9187  0.1055  1.1330
   98TCq2    H4 1506   0.827   2.860   0.814 -0.6410 -0.5207  1.0519
   99MPD2     C 1507   4.040   0.739   1.310 -0.2475  0.1537 -0.1514
   99MPD2    C1 1508   3.908   0.721   1.344 -1.0220 -1.1397 -0.1408
   99MPD2    C2 1509   3.823   0.650   1.257 -0.0473  0.0565 -0.0753
   99MPD2    C3 1510   3.880   0.593   1.145  0.5305 -0.4150  0.6800
   99MPD2    C4 1511   4.012   0.618   1.118  0.2083  0.2158  0.0750
   99MPD2    C5 1512   4.095   0.681   1.203  0.1099 -0.0753 -0.3041
   99MPD2     H 1513   3.715   0.646   1.266 -0.2025  1.0210 -1.6483
   99MPD2    H1 1514   4.061   0.570   1.034  3.5747  1.3423  1.3873
   99MPD2    H2 1515   4.108   0.797   1.371  0.1567  1.2850 -1.6585
   99MPD2    H3 1516   4.196   0.707   1.175  0.5984 -1.3003  0.3646
   99MPD2     N 1517   3.797   0.515   1.063 -0.3788  0.1060 -0.4426
   99MPD2    H5 1518   3.704   0.503   1.102  0.0364 -0.0798  0.4862
   99MPD2    N1 1519   3.845   0.782   1.454  0.0765 -0.6709  0.2462
   99MPD2    H7 1520   3.743   0.776   1.457  0.1592 -1.2799  1.9104
  100TCq2    C1 1521   3.905   0.846   1.560  0.1405 -0.2710 -0.3259
  100TCq2    O2 1522   4.027   0.859   1.582  0.0397 -0.5888  0.6702
  100TCq2    C2 1523   3.818   0.901   1.662 -0.1098 -0.5280 -0.4092
  100TCq2    C3 1524   3.874   0.956   1.776 -0.5206 -0.2937  0.1846
  100TCq2    C4 1525   3.794   1.008   1.876 -0.2493  0.7730 -0.1162
  100TCq2    C5 1526   3.660   1.012   1.859  0.2597  0.7208 -0.2751
  100TCq2    C6 1527   3.610   0.942   1.752  0.4469  0.4154 -0.1051
  100TCq2    C7 1528   3.683   0.881   1.659  0.3721  0.2274 -0.0049
  100TCq2    C8 1529   3.477   0.980   1.707  0.1223 -0.2856 -0.2432
  100TCq2    O4 1530   3.440   1.097   1.728 -0.5541 -0.1125  0.2549
  100TCq2    C9 1531   3.846   1.064   1.997 -0.1603  0.5613 -0.0499
  100TCq2    O5 1532   3.969   1.045   2.020 -0.1609 -0.4861  1.1579
  100TCq2    O6 1533   3.776   1.116   2.084 -0.1741 -0.2747 -0.0784
  100TCq2    H2 1534   3.982   0.964   1.789 -0.6174 -0.5908  1.2446
  100TCq2    H3 1535   3.583   1.051   1.925  1.7301 -0.0902  1.9354
  100TCq2    H4 1536   3.637   0.831   1.574  1.6283 -2.1817  0.7350
  101MPD2     C 1537   4.542   1.079  13.274 -0.2267  0.1088 -0.5008
  101MPD2    C1 1538   4.421   1.146  13.276 -0.3127  0.1989  0.4536
  101MPD2    C2 1539   4.316   1.097  13.352  0.6755  0.2515 -0.3300
  101MPD2    C3 1540   4.326   0.973  13.415 -0.4808 -0.1642 -0.4071
  101MPD2    C4 1541   4.445   0.902  13.394  0.4718  0.2301  0.0487
  101MPD2    C5 1542   4.557   0.950  13.326 -0.3232  0.1822 -0.1681
  101MPD2     H 1543   4.219   1.145  13.349 -0.1686 -1.3419  1.4877
  101MPD2    H1 1544   4.460   0.802  13.433  2.1623  0.1740 -0.7756
  101MPD2    H2 1545   4.625   1.116  13.216  0.0077  2.1934  1.1835
  101MPD2    H3 1546   4.651   0.896  13.328  0.5802  1.7123 -1.0014
  101MPD2     N 1547   4.227   0.922  13.499 -0.9465 -0.1772 -0.0814
  101MPD2    H5 1548   4.134   0.963  13.508 -0.7998  0.4011 -1.3187
  101MPD2    N1 1549   4.420   1.267  13.206  0.1662 -0.3792 -0.8640
  101MPD2    H7 1550   4.506   1.292  13.157  1.0096 -0.8726  0.3658
  102TCq2    C1 1551   4.523   1.531  12.775  0.6061  0.2400  0.3563
  102TCq2    O2 1552   4.508   1.576  12.660  0.7364 -0.1149  0.3616
  102TCq2    C2 1553   4.401   1.508  12.860 -0.3081 -1.0232  0.6585
  102TCq2    C3 1554   4.296   1.591  12.854 -0.5517 -0.4236  0.1927
  102TCq2    C4 1555   4.204   1.600  12.954 -0.7461 -0.3791 -0.9858
  102TCq2    C5 1556   4.211   1.522  13.064 -0.4372  0.3870  0.8041
  102TCq2    C6 1557   4.316   1.439  13.076 -1.2098 -0.8748  0.6618
  102TCq2    C7 1558   4.419   1.435  12.978  0.0568  0.2342 -0.5369
  102TCq2    C8 1559   4.304   1.347  13.189 -0.8067 -0.2949 -0.0945
  102TCq2    O4 1560   4.196   1.345  13.250 -0.0730  0.7335  0.3077
  102TCq2    C9 1561   4.089   1.679  12.923 -0.0069  0.7839 -0.0886
  102TCq2    O5 1562   4.068   1.713  12.804 -0.1501  0.4861 -0.3056
  102TCq2    O6 1563   4.021   1.711  13.024  0.4831  0.4772  0.6907
  102TCq2    H2 1564   4.286   1.653  12.765 -1.0913 -2.2130 -0.9885
  102TCq2    H3 1565   4.121   1.518  13.125 -0.5524 -2.0475  0.4449
  102TCq2    H4 1566   4.496   1.360  12.978 -0.7341 -0.5826 -1.8035
  103TMC2    C1 1567   2.745   0.807  12.329 -0.2899 -0.3135 -0.0171
  103TMC2    C2 1568   2.857   0.726  12.347 -0.1299 -0.0765  0.4682
  103TMC2    C3 1569   2.917   0.751  12.473 -0.3299 -0.7963  0.1185
  103TMC2    C4 1570   2.694   0.897  12.417  0.3116 -0.0134  0.0359
  103TMC2    C5 1571   2.764   0.916  12.538 -0.2776  0.4019 -0.2230
  103TMC2    C6 1572   2.878   0.841  12.562  0.1593  0.2126 -0.0974
  103TMC2     C 1573   2.695   0.814  12.196  0.5129  0.0363 -0.2900
  103TMC2     O 1574   2.585   0.865  12.187 -0.6949 -0.4683 -0.0047
  103TMC2     H 1575   2.896   0.653  12.277 -1.8247 -0.7035  0.1845
  103TMC2    H1 1576   2.617   0.967  12.389  0.7589 -0.3872 -2.1276
  103TMC2    H2 1577   2.926   0.841  12.659 -2.1595  0.2713  1.0393
  103TMC2    C7 1578   2.730   1.024  12.632  0.3606  0.0283  0.2758
  103TMC2    C8 1579   3.024   0.663  12.520  0.2190 -0.2446  0.4556
  103TMC2    O1 1580   2.788   1.020  12.742  0.2843  0.4195 -0.0507
  103TMC2    O2 1581   3.095   0.689  12.615  0.6205  0.0792 -0.0300
  103TMC2    O5 1582   3.015   0.548  12.459 -0.0222 -0.5520  0.5501
  103TMC2    H5 1583   3.079   0.478  12.486 -1.2650 -2.9896 -2.8284
  104MPD2     C 1584   2.844   0.710  11.871  0.1591 -0.1450  0.4833
  104MPD2    C1 1585   2.758   0.785  11.954 -0.9666  0.4251  0.0100
  104MPD2    C2 1586   2.643   0.854  11.904  0.1958  0.0207  0.1832
  104MPD2    C3 1587   2.595   0.814  11.779 -0.5470 -0.5869 -0.2596
  104MPD2    C4 1588   2.678   0.742  11.697  0.0431 -0.2102  0.4414
  104MPD2    C5 1589   2.805   0.697  11.738  0.1377 -0.1465 -0.0736
  104MPD2     H 1590   2.580   0.915  11.968  0.3048 -0.2213  0.5171
  104MPD2    H1 1591   2.647   0.727  11.594  1.4901  1.1707 -0.1973
  104MPD2    H2 1592   2.933   0.664  11.913 -0.7997 -2.8801 -0.4495
  104MPD2    H3 1593   2.869   0.640  11.671  0.8984  0.1809  0.3792
  104MPD2     N 1594   2.469   0.866  11.744 -0.0228 -0.2525 -0.0865
  104MPD2    H5 1595   2.439   0.947  11.798 -1.4942 -1.7664  1.3588
  104MPD2    N1 1596   2.792   0.791  12.097 -0.1227  0.0260  0.6280
  104MPD2    H7 1597   2.881   0.752  12.128  1.2704  1.7147 -1.3318
  105MPD2     C 1598   4.711   0.747  17.650 -0.6913  0.6930 -0.1967
  105MPD2    C1 1599   4.599   0.833  17.651  0.7128 -0.0410  0.0696
  105MPD2    C2 1600   4.578   0.906   0.091 -0.3876  0.5271  0.4954
  105MPD2    C3 1601   4.666   0.902   0.201  0.1615  0.1968  0.4558
  105MPD2    C4 1602   0.068   0.841   0.188  0.5364 -0.2934 -0.2086
  105MPD2    C5 1603   0.087   0.761   0.075 -0.1168  0.7606  0.2972
  105MPD2     H 1604   4.493   0.973   0.100 -0.1417  0.9932 -0.7131
  105MPD2    H1 1605   0.132   0.825   0.274  1.3248 -0.0126 -0.7426
  105MPD2    H2 1606   0.015   0.682  17.566 -3.5649 -1.2947  0.5766
  105MPD2    H3 1607   0.174   0.697   0.068  0.9611  2.2823 -0.0616
  105MPD2     N 1608   4.625   0.983   0.310 -0.0634  0.1411  0.6971
  105MPD2    H5 1609   4.535   1.029   0.302 -1.1088 -2.2597 -1.2807
  105MPD2    N1 1610   4.499   0.830  17.558  0.3384 -0.7362 -0.2840
  105MPD2    H7 1611   4.431   0.903  17.574 -0.2550 -1.4482  0.4324
  106TCq2    C1 1612   4.684   0.976   0.440  0.2344 -0.0913  0.2173
  106TCq2    O2 1613   0.078   0.929   0.457  0.0910 -0.4049 -0.0121
  106TCq2    C2 1614   4.600   1.010   0.553  0.0091  0.3858  0.3405
  106TCq2    C3 1615   4.651   0.983   0.676  0.7506  0.8193  0.1633
  106TCq2    C4 1616   4.569   0.994   0.783 -0.9782  0.0110  0.3657
  106TCq2    C5 1617   4.440   1.040   0.769  0.1782 -0.0410  0.2016
  106TCq2    C6 1618   4.399   1.082   0.649 -0.0370  0.7073  0.8243
  106TCq2    C7 1619   4.468   1.052   0.536 -0.4219  0.2171  0.5372
  106TCq2    C8 1620   4.257   1.107   0.621 -0.2671  0.2854 -0.1078
  106TCq2    O4 1621   4.203   1.062   0.519 -0.4379 -0.2442  0.7251
  106TCq2    C9 1622   4.633   0.987   0.912  0.3396  0.6010  0.3027
  106TCq2    O5 1623   0.040   0.980   0.913  0.5734 -0.0083 -0.2069
  106TCq2    O6 1624   4.556   1.005   1.007 -0.3827 -0.1369  0.9322
  106TCq2    H2 1625   0.035   0.949   0.690 -1.0477 -4.1856  1.1760
  106TCq2    H3 1626   4.383   1.061   0.859 -0.2954  1.6023 -0.4807
  106TCq2    H4 1627   4.420   1.041   0.439 -3.4410 -2.0117  2.3186
  107TMC2    C1 1628   4.467   4.330  11.615 -0.0712 -0.5472 -0.1169
  107TMC2    C2 1629   4.554   4.369  11.512  0.1167  0.0659 -0.1529
  107TMC2    C3 1630   4.616   4.270  11.435 -0.2056  0.3626 -0.2408
  107TMC2    C4 1631   4.431   4.192  11.621  0.6380 -0.4692  0.0299
  107TMC2    C5 1632   4.499   4.101  11.541 -0.4319  0.1043 -0.6509
  107TMC2    C6 1633   4.592   4.137  11.453  0.0083 -0.5864  0.2552
  107TMC2     C 1634   4.407   4.427  11.704  0.5248 -0.5723  0.1357
  107TMC2     O 1635   4.360   4.385  11.812 -0.0628 -0.8944 -0.2066
  107TMC2     H 1636   4.589   4.471  11.500  2.1190 -0.5335  0.7829
  107TMC2    H1 1637   4.357   4.165  11.696 -2.2800  4.1522 -1.1551
  107TMC2    H2 1638   4.669   4.071  11.417 -1.5356 -1.4561 -1.4769
  107TMC2    C7 1639   4.448   3.966  11.534  0.2368 -0.0886 -0.6606
  107TMC2    C8 1640   0.010   4.302  11.350 -1.1153 -0.9828  0.8206
  107TMC2    O1 1641   4.382   3.923  11.631  0.4445  0.3271 -0.1896
  107TMC2    O2 1642   0.061   4.217  11.277  0.9386  0.4338 -0.0161
  107TMC2    O5 1643   0.017   4.433  11.331 -0.2775  0.2760 -0.1507
  107TMC2    H5 1644   4.694   4.499  11.391 -1.1806 -1.6928  1.3907
  108MPD2     C 1645   4.439   0.070  11.647  0.7159  0.7645  0.6715
  108MPD2    C1 1646   4.397   4.673  11.714  0.2163  0.0897  0.2342
  108MPD2    C2 1647   4.337   4.692  11.838 -0.4632 -0.6910  0.0880
  108MPD2    C3 1648   4.306   0.098  11.890  0.0226 -0.1423 -0.0928
  108MPD2    C4 1649   4.340   0.207  11.818  0.4586  0.1525  0.8900
  108MPD2    C5 1650   4.414   0.194  11.704  0.5377 -0.1199  0.2938
  108MPD2     H 1651   4.304   4.606  11.896  0.3421 -0.3600  1.0416
  108MPD2    H1 1652   4.322   0.311  11.839 -0.6113  0.3751 -1.0726
  108MPD2    H2 1653   4.506   0.070  11.562 -1.8444 -1.0386 -1.3582
  108MPD2    H3 1654   4.455   0.279  11.651 -0.8304 -0.3289 -1.1156
  108MPD2     N 1655   4.239   0.121  12.011  0.2165  0.2744  0.6505
  108MPD2    H5 1656   4.218   0.219  12.031  0.1017  0.4436 -0.2773
  108MPD2    N1 1657   4.414   4.551  11.649  0.2434  0.0829 -0.1617
  108MPD2    H7 1658   4.447   4.563  11.554  1.8996 -2.1035  0.1475
  109MPD2     C 1659   4.485   3.452   1.931  0.1107 -0.3250  0.5907
  109MPD2    C1 1660   4.597   3.368   1.919 -0.2032 -0.5840 -0.3431
  109MPD2    C2 1661   4.700   3.382   2.014 -0.1527 -0.2600 -0.2745
  109MPD2    C3 1662   4.691   3.469   2.117  0.4773  0.5176  0.2084
  109MPD2    C4 1663   4.591   3.561   2.111  0.1494 -0.0125  0.6228
  109MPD2    C5 1664   4.487   3.555   2.022  0.6854  0.4821 -0.4144
  109MPD2     H 1665   0.063   3.312   2.031 -0.6203 -0.4439  1.2169
  109MPD2    H1 1666   4.585   3.642   2.183 -0.5509 -0.3150  0.9015
  109MPD2    H2 1667   4.404   3.431   1.862 -0.0738 -0.1238  0.7470
  109MPD2    H3 1668   4.392   3.600   2.046  0.5320 -0.1858  0.2167
  109MPD2     N 1669   0.085   3.474   2.204 -0.8710 -0.4852 -0.3670
  109MPD2    H5 1670   0.159   3.410   2.177 -0.1957  0.6015 -1.0918
  109MPD2    N1 1671   4.610   3.269   1.815 -0.2662  0.3286 -0.1652
  109MPD2    H7 1672   4.528   3.242   1.762 -0.0066 -3.2489  1.2734
  110TCq2    C1 1673   0.094   3.552   2.313 -0.0887  0.3335 -0.3597
  110TCq2    O2 1674   0.015   3.627   2.372 -0.4915 -0.1840 -0.2883
  110TCq2    C2 1675   0.231   3.536   2.365 -0.0598  0.0775  0.3589
  110TCq2    C3 1676   0.248   3.528   2.500  0.0337 -0.3471 -0.1091
  110TCq2    C4 1677   0.371   3.492   2.550  0.0082 -0.3214  0.0281
  110TCq2    C5 1678   0.473   3.473   2.465 -1.0921  0.2143 -0.4093
  110TCq2    C6 1679   0.456   3.480   2.335 -0.3375  0.5726  0.3621
  110TCq2    C7 1680   0.337   3.507   2.282  0.6877 -0.4878  0.3002
  110TCq2    C8 1681   0.554   3.421   2.244  0.3451  0.6730  0.1649
  110TCq2    O4 1682   0.578   3.473   2.139 -0.2373 -0.0521  0.8084
  110TCq2    C9 1683   0.389   3.467   2.691  0.1391  0.1186 -0.0403
  110TCq2    O5 1684   0.490   3.401   2.723  0.5337 -0.1925  0.2003
  110TCq2    O6 1685   0.304   3.519   2.768  0.4052 -0.2609  0.0484
  110TCq2    H2 1686   0.160   3.534   2.562 -0.6854  1.3430 -1.2798
  110TCq2    H3 1687   0.574   3.457   2.501 -0.5160  2.0538 -1.2290
  110TCq2    H4 1688   0.328   3.518   2.175  0.5208 -0.5899  0.3044
  111TMC2    C1 1689   4.165   1.572  11.587  0.1046  0.2080  0.2481
  111TMC2    C2 1690   4.082   1.466  11.623  0.6105 -0.5352  0.2989
  111TMC2    C3 1691   4.130   1.393  11.729 -0.2137  0.2204  0.3006
  111TMC2    C4 1692   4.291   1.592  11.641 -0.0929 -0.1368 -0.4245
  111TMC2    C5 1693   4.330   1.506  11.735 -0.7319  0.1178 -0.4884
  111TMC2    C6 1694   4.252   1.409  11.788  0.1139 -0.8433  0.3485
  111TMC2     C 1695   4.114   1.653  11.479  0.3299  0.4788  0.1446
  111TMC2     O 1696   4.022   1.613  11.410 -0.2013  0.0332  0.2151
  111TMC2     H 1697   3.983   1.457  11.581 -0.0792  1.8856  1.4226
  111TMC2    H1 1698   4.356   1.675  11.614  1.1583 -1.2581 -0.8224
  111TMC2    H2 1699   4.295   1.352  11.870 -1.7120  1.7138  3.0759
  111TMC2    C7 1700   4.460   1.524  11.787  0.0012  0.2380 -0.9065
  111TMC2    C8 1701   4.069   1.264  11.723 -0.6953  0.4139  0.1800
  111TMC2    O1 1702   4.484   1.525  11.907 -0.1669 -0.2659 -0.2691
  111TMC2    O2 1703   3.993   1.231  11.629 -0.1206 -0.6430 -0.1587
  111TMC2    O5 1704   4.169   1.189  11.771  0.6242  0.9430 -0.0546
  111TMC2    H5 1705   4.202   1.228  11.855  3.3849  1.1418 -1.2539
  112MPD2     C 1706   4.168   2.036  11.153  0.1299 -0.1902  0.3689
  112MPD2    C1 1707   4.067   1.942  11.153 -0.1657  0.7116  0.1711
  112MPD2    C2 1708   4.075   1.849  11.258  0.1450 -0.4673  0.8179
  112MPD2    C3 1709   4.167   1.857  11.357 -0.1390  0.1475 -0.0404
  112MPD2    C4 1710   4.267   1.952  11.348 -0.2040 -0.3786  0.0907
  112MPD2    C5 1711   4.270   2.040  11.245 -0.1072  0.4936  0.0779
  112MPD2     H 1712   4.003   1.768  11.264  0.3208 -0.8214 -1.8677
  112MPD2    H1 1713   4.349   1.967  11.417 -1.5565 -2.2688  2.1290
  112MPD2    H2 1714   4.167   2.106  11.070  2.0547 -2.2630 -1.4103
  112MPD2    H3 1715   4.344   2.119  11.241  2.2915 -1.7364  0.5992
  112MPD2     N 1716   4.177   1.775  11.471  0.2469  0.1694  0.5566
  112MPD2    H5 1717   4.254   1.799  11.532  0.0470  2.3316 -0.0525
  112MPD2    N1 1718   3.955   1.943  11.074 -0.1658 -1.3847 -0.1619
  112MPD2    H7 1719   3.880   1.877  11.087 -0.6136 -1.1721 -1.6239
  113MPD2     C 1720   2.622   4.651   1.026  0.0917 -1.1095 -0.2756
  113MPD2    C1 1721   2.611   0.025   0.922  0.6275  1.0549  0.8945
  113MPD2    C2 1722   2.530   0.001   0.818  0.3868  0.1503 -0.7344
  113MPD2    C3 1723   2.457   4.598   0.807  0.2478 -0.4496  0.0518
  113MPD2    C4 1724   2.466   4.511   0.916 -0.6996 -0.5124  0.2099
  113MPD2    C5 1725   2.555   4.535   1.019 -0.2386 -0.1621  0.6297
  113MPD2     H 1726   2.524   0.074   0.738  1.9597  1.5703  0.4378
  113MPD2    H1 1727   2.419   4.413   0.912  0.9313 -1.2796 -0.2905
  113MPD2    H2 1728   2.690   4.662   1.110  3.1776 -2.6952 -2.5785
  113MPD2    H3 1729   2.563   4.462   1.099 -1.0731 -1.1287 -0.1722
  113MPD2     N 1730   2.382   4.558   0.698  0.3660 -0.1845  0.3185
  113MPD2    H5 1731   2.346   4.464   0.709  0.0239 -0.2183 -1.0165
  113MPD2    N1 1732   2.687   0.145   0.910 -0.1239 -0.4985  0.0164
  113MPD2    H7 1733   2.664   0.199   0.827  0.1920  1.0296  0.9158
  114TCq2    C1 1734   2.349   4.631   0.586 -0.3569 -0.7280 -0.4042
  114TCq2    O2 1735   2.402   0.018   0.545  0.6080 -0.0362 -0.2692
  114TCq2    C2 1736   2.246   4.570   0.501 -1.1670  0.2582  0.4224
  114TCq2    C3 1737   2.235   4.610   0.369 -0.1697  0.4172 -0.0501
  114TCq2    C4 1738   2.136   4.563   0.290 -0.0382 -0.9087  0.2927
  114TCq2    C5 1739   2.048   4.476   0.340  0.2901 -0.4334 -0.2061
  114TCq2    C6 1740   2.059   4.428   0.468  0.0609 -0.3880 -0.4126
  114TCq2    C7 1741   2.147   4.482   0.552 -0.0413  0.3392 -0.6037
  114TCq2    C8 1742   2.030   4.291   0.482  0.2580 -0.0050  0.4116
  114TCq2    O4 1743   2.026   4.225   0.379 -0.1098  0.2290 -0.1231
  114TCq2    C9 1744   2.130   4.620   0.159 -0.6117  0.5412 -0.2203
  114TCq2    O5 1745   2.025   4.593   0.099  0.1373 -0.4819 -0.6457
  114TCq2    O6 1746   2.219   4.707   0.132  0.5970 -0.2195  0.2811
  114TCq2    H2 1747   2.316   4.672   0.331 -1.7273  2.7634  0.4514
  114TCq2    H3 1748   1.966   4.435   0.281  0.5108 -0.5415 -0.4401
  114TCq2    H4 1749   2.149   4.441   0.653  2.4985  0.3530 -0.6469
  115TMC2    C1 1750   3.901   2.556   0.264  1.1556 -0.3343 -0.6759
  115TMC2    C2 1751   4.001   2.488   0.327  0.0935 -0.2294 -0.3162
  115TMC2    C3 1752   4.106   2.569   0.367  0.0287  0.2923  0.0648
  115TMC2    C4 1753   3.893   2.690   0.249 -0.0658 -0.0167  0.5262
  115TMC2    C5 1754   3.999   2.766   0.297  0.2308 -0.3553  0.2430
  115TMC2    C6 1755   4.108   2.702   0.352  0.4927 -0.4705 -0.3613
  115TMC2     C 1756   3.782   2.478   0.248  0.0939  0.0466  0.8750
  115TMC2     O 1757   3.792   2.362   0.208  0.4854  0.2216  0.1605
  115TMC2     H 1758   3.999   2.381   0.343 -0.3154 -0.1384  0.2436
  115TMC2    H1 1759   3.805   2.740   0.211 -1.5605 -0.9671  2.8079
  115TMC2    H2 1760   4.192   2.765   0.376 -0.7671  0.2186  2.2542
  115TMC2    C7 1761   4.001   2.914   0.283  0.2407 -0.3515  0.3572
  115TMC2    C8 1762   4.234   2.498   0.403 -0.0753  0.6369  0.2505
  115TMC2    O1 1763   4.029   2.961   0.391 -0.0807 -0.0855  0.3001
  115TMC2    O2 1764   4.269   2.389   0.359 -0.0142 -0.5420  0.0491
  115TMC2    O5 1765   4.314   2.585   0.468 -0.2934 -0.1991 -0.0415
  115TMC2    H5 1766   4.266   2.639   0.534  0.4124 -1.8728  1.8681
  116MPD2     C 1767   3.292   2.395   0.363  0.5320 -0.1684  0.3308
  116MPD2    C1 1768   3.375   2.323   0.284  0.0683 -0.5150 -0.3168
  116MPD2    C2 1769   3.508   2.364   0.280 -0.0757  0.5631 -0.8295
  116MPD2    C3 1770   3.553   2.481   0.329 -0.0810 -0.7469  0.1303
  116MPD2    C4 1771   3.466   2.555   0.410  0.4616  0.0471  0.1559
  116MPD2    C5 1772   3.336   2.508   0.433 -0.1095 -0.1079 -0.1808
  116MPD2     H 1773   3.569   2.294   0.224 -1.3481  0.2572 -1.8178
  116MPD2    H1 1774   3.503   2.643   0.462 -0.7166 -0.1866  1.3888
  116MPD2    H2 1775   3.188   2.371   0.383  0.3785 -1.4483 -1.9723
  116MPD2    H3 1776   3.273   2.569   0.497  0.0047  0.5439 -0.6838
  116MPD2     N 1777   3.679   2.536   0.320 -0.3341 -0.1123  0.2154
  116MPD2    H5 1778   3.702   2.620   0.372  0.4318  0.2677 -0.7278
  116MPD2    N1 1779   3.327   2.207   0.222  0.3285  0.0874 -0.3038
  116MPD2    H7 1780   3.234   2.178   0.250  0.8488 -0.4989  0.8492
  117TMC2    C1 1781   1.837   3.864  13.909 -0.0893  0.0552 -1.1659
  117TMC2    C2 1782   1.833   3.728  13.904  0.6590  0.5828  0.5425
  117TMC2    C3 1783   1.948   3.659  13.882  0.6894 -0.3721 -0.3994
  117TMC2    C4 1784   1.950   3.931  13.879  0.5088 -0.7477  0.6457
  117TMC2    C5 1785   2.062   3.863  13.844 -0.0372 -0.7924 -0.0452
  117TMC2    C6 1786   2.062   3.731  13.853 -0.0763  0.1253 -0.2716
  117TMC2     C 1787   1.715   3.927  13.957 -0.0420  0.5139  0.0950
  117TMC2     O 1788   1.646   3.859  14.030 -0.0610 -0.5209 -0.1463
  117TMC2     H 1789   1.751   3.663  13.930  1.2162 -0.0949  0.6091
  117TMC2    H1 1790   1.949   4.039  13.895  0.6298 -0.5108 -0.9499
  117TMC2    H2 1791   2.145   3.663  13.837 -0.2477 -0.1755  0.1282
  117TMC2    C7 1792   2.179   3.947  13.813 -0.8831 -0.6113  0.2238
  117TMC2    C8 1793   1.959   3.530  13.941  0.4223  0.2411  0.2791
  117TMC2    O1 1794   2.164   4.069  13.814 -0.8015 -0.4008  0.5301
  117TMC2    O2 1795   1.852   3.465  13.926 -0.0461 -0.3052 -0.3476
  117TMC2    O5 1796   2.010   3.566  14.060  0.1095  0.0890  0.2202
  117TMC2    H5 1797   2.090   3.621  14.066 -0.2591  0.3476  2.9770
  118MPD2     C 1798   2.507   3.828  13.709  0.4437  0.4573  0.3212
  118MPD2    C1 1799   2.411   3.925  13.724  0.4495  0.0137 -0.9764
  118MPD2    C2 1800   2.452   4.063  13.719 -0.0314  0.3567  0.4425
  118MPD2    C3 1801   2.585   4.093  13.687  0.4287 -0.0539 -0.5942
  118MPD2    C4 1802   2.671   3.998  13.657 -0.1170  0.2073 -0.9621
  118MPD2    C5 1803   2.634   3.864  13.675 -0.8871  0.7137  0.6458
  118MPD2     H 1804   2.380   4.142  13.737 -0.7094  0.3604 -2.2289
  118MPD2    H1 1805   2.774   4.019  13.632  1.1045 -0.2104  3.6797
  118MPD2    H2 1806   2.481   3.725  13.727 -0.1455  0.7145  0.9523
  118MPD2    H3 1807   2.712   3.789  13.667 -0.9874  0.8573 -1.5856
  118MPD2     N 1808   2.631   4.226  13.666  0.0548  0.8957  0.5413
  118MPD2    H5 1809   2.731   4.235  13.648 -0.0016 -0.4426 -0.3714
  118MPD2    N1 1810   2.289   3.883  13.775  0.0753  0.0219 -0.9300
  118MPD2    H7 1811   2.283   3.781  13.774 -1.1007  0.0924 -0.7261
  119MPD2     C 1812   0.646   1.012  14.391  0.4985 -0.2531  0.2929
  119MPD2    C1 1813   0.525   1.067  14.352  0.7701  0.3516  0.6325
  119MPD2    C2 1814   0.472   1.025  14.230  0.0942  0.0682  0.1924
  119MPD2    C3 1815   0.519   0.908  14.168  0.1179 -0.1701  0.1643
  119MPD2    C4 1816   0.635   0.849  14.212 -0.0243 -0.3280 -0.6001
  119MPD2    C5 1817   0.701   0.909  14.315 -0.8584  0.4852  0.4544
  119MPD2     H 1818   0.373   1.062  14.207  0.2349  0.5831  0.4142
  119MPD2    H1 1819   0.668   0.756  14.167 -1.7529 -1.1860 -0.1033
  119MPD2    H2 1820   0.679   1.030  14.492  0.6903 -1.9628  0.5415
  119MPD2    H3 1821   0.795   0.867  14.348 -1.2055  0.5818  1.5690
  119MPD2     N 1822   0.460   0.867  14.051 -0.5592  0.5928 -0.4689
  119MPD2    H5 1823   0.503   0.786  14.007 -0.0040  1.0183 -0.7078
  119MPD2    N1 1824   0.463   1.157  14.441  0.6810  0.3805  0.3437
  119MPD2    H7 1825   0.526   1.191  14.512  1.6301 -1.3532  0.3232
  120TCq2    C1 1826   0.343   0.907  13.992  0.2398 -0.7513 -0.0598
  120TCq2    O2 1827   0.240   0.952  14.042  0.2618 -0.1885  0.1879
  120TCq2    C2 1828   0.337   0.822  13.882 -0.1946  0.6094  0.1999
  120TCq2    C3 1829   0.447   0.800  13.808  0.3346 -0.0012  0.1003
  120TCq2    C4 1830   0.438   0.700  13.721  0.3094 -0.7020 -0.0293
  120TCq2    C5 1831   0.331   0.614  13.718 -0.4760  0.1825 -0.4464
  120TCq2    C6 1832   0.224   0.632  13.802  0.0899  0.2797 -0.2894
  120TCq2    C7 1833   0.226   0.746  13.881 -0.2755 -1.1891  0.2437
  120TCq2    C8 1834   0.136   0.517  13.805 -0.3403  0.1025 -0.2681
  120TCq2    O4 1835   0.143   0.439  13.712 -0.0040  0.5200  0.6744
  120TCq2    C9 1836   0.554   0.660  13.643 -0.3183  0.4251  0.1940
  120TCq2    O5 1837   0.663   0.717  13.670 -0.4979  0.0847 -0.0894
  120TCq2    O6 1838   0.541   0.576  13.552  0.4383  0.1088  0.6222
  120TCq2    H2 1839   0.533   0.865  13.802  0.1507  0.4194  1.8567
  120TCq2    H3 1840   0.345   0.517  13.671 -0.2436 -0.9231  1.9204
  120TCq2    H4 1841   0.150   0.758  13.958 -0.6450 -0.1512 -0.2812
  121TMC2    C1 1842   1.856   2.293  14.094 -0.1454  0.5964 -0.1262
  121TMC2    C2 1843   1.898   2.260  14.221  0.4278 -0.3841  0.0602
  121TMC2    C3 1844   1.822   2.175  14.296  0.2580 -0.3269 -0.3536
  121TMC2    C4 1845   1.729   2.265  14.054  0.7557 -0.4265  0.3896
  121TMC2    C5 1846   1.650   2.180  14.132 -0.1990 -0.3181 -0.6880
  121TMC2    C6 1847   1.700   2.135  14.253  0.0763  0.2421 -0.0238
  121TMC2     C 1848   1.900   2.430  14.065 -0.0074  0.8358  1.2724
  121TMC2     O 1849   1.919   2.501  14.159 -0.3792  0.1450 -0.4745
  121TMC2     H 1850   2.001   2.272  14.250  0.5979 -1.0090 -0.2803
  121TMC2    H1 1851   1.689   2.323  13.972  1.5046 -0.8598 -0.2813
  121TMC2    H2 1852   1.618   2.101  14.316  1.3465  2.3772  2.7995
  121TMC2    C7 1853   1.508   2.168  14.093  0.0649  0.0239 -0.2831
  121TMC2    C8 1854   1.848   2.191  14.442  0.7163  0.3997 -0.3558
  121TMC2    O1 1855   1.474   2.248  14.010  0.8262  0.4140  0.3861
  121TMC2    O2 1856   1.905   2.297  14.473  0.3399 -0.2420 -0.3304
  121TMC2    O5 1857   1.880   2.073  14.488  0.7116  0.1327 -0.1412
  121TMC2    H5 1858   1.841   2.002  14.431 -2.3550  0.8319  1.1109
  122MPD2     C 1859   1.957   2.699  13.956  0.5795 -0.3036 -0.0198
  122MPD2    C1 1860   1.966   2.583  13.885 -0.1704 -0.6544  0.1349
  122MPD2    C2 1861   2.005   2.583  13.754  0.4946  0.1719  0.4775
  122MPD2    C3 1862   2.037   2.708  13.696  0.4115  1.1146  0.1328
  122MPD2    C4 1863   2.014   2.821  13.768  0.9426  0.0576 -0.5832
  122MPD2    C5 1864   1.987   2.816  13.898 -0.6885 -0.5690  0.3503
  122MPD2     H 1865   2.000   2.490  13.698 -0.0378  0.4317  0.1002
  122MPD2    H1 1866   2.071   2.906  13.732 -0.9773  0.9265 -1.6260
  122MPD2    H2 1867   1.925   2.702  14.060  0.0388  1.3176 -0.2358
  122MPD2    H3 1868   1.992   2.899  13.969 -2.1315  0.7639 -1.1135
  122MPD2     N 1869   2.092   2.722  13.567 -0.1199  0.0084 -0.1446
  122MPD2    H5 1870   2.110   2.816  13.535  3.5189 -0.1451  1.4840
  122MPD2    N1 1871   1.927   2.454  13.932 -0.1831 -0.5879 -0.4889
  122MPD2    H7 1872   1.929   2.375  13.868 -1.4142  0.6827 -2.1143
  123MPD2     C 1873   4.285   3.900   9.135 -0.3297 -0.2807 -0.1671
  123MPD2    C1 1874   4.341   3.985   9.226  0.9076 -0.5266  0.1697
  123MPD2    C2 1875   4.377   4.117   9.192  0.0410  0.2230 -0.3049
  123MPD2    C3 1876   4.342   4.163   9.061 -0.0588  0.5301 -0.1979
  123MPD2    C4 1877   4.276   4.075   8.975  0.3364  0.6428  0.2516
  123MPD2    C5 1878   4.251   3.947   9.014  0.4056 -0.9761  1.0118
  123MPD2     H 1879   4.422   4.188   9.259 -0.3956  0.0149  0.2138
  123MPD2    H1 1880   4.249   4.104   8.875 -2.2546 -0.5948  0.6036
  123MPD2    H2 1881   4.255   3.799   9.161  1.3768 -1.0781 -1.2919
  123MPD2    H3 1882   4.202   3.876   8.950 -1.1831  1.7269 -0.7739
  123MPD2     N 1883   4.378   4.291   9.028 -0.1733 -0.1696  0.0681
  123MPD2    H5 1884   4.423   4.352   9.095 -0.3891 -0.8800  0.8534
  123MPD2    N1 1885   4.349   3.936   9.359  0.1847 -0.0530  0.2426
  123MPD2    H7 1886   4.318   3.840   9.372 -1.2353  0.3587 -0.0958
  124TCq2    C1 1887   4.362   4.343   8.898  0.8549 -0.2542  0.3583
  124TCq2    O2 1888   4.276   4.309   8.816  0.3762 -0.0263  0.1267
  124TCq2    C2 1889   4.410   4.480   8.873 -0.6513  0.2398 -0.7610
  124TCq2    C3 1890   4.318   4.560   8.819 -0.0177  0.4301 -0.0497
  124TCq2    C4 1891   4.336   4.694   8.827  0.6884 -0.5846 -0.0867
  124TCq2    C5 1892   4.452   0.029   8.888  0.9077 -0.8669 -0.7102
  124TCq2    C6 1893   4.544   4.658   8.936  0.4542  0.0075 -0.6779
  124TCq2    C7 1894   4.520   4.522   8.931  0.2926 -0.3339  0.1407
  124TCq2    C8 1895   4.632   4.701   9.043  0.0301  0.6738 -0.6590
  124TCq2    O4 1896   4.669   4.611   9.114 -0.7914  0.4233 -0.1695
  124TCq2    C9 1897   4.242   0.063   8.752  0.3637  0.1415  0.3667
  124TCq2    O5 1898   4.187   0.018   8.649 -0.2617 -0.5761  0.4789
  124TCq2    O6 1899   4.227   0.186   8.781  0.2118  0.0502 -0.5780
  124TCq2    H2 1900   4.224   4.530   8.774 -1.2670  1.1715  2.0992
  124TCq2    H3 1901   4.474   0.135   8.884  1.3875 -0.9526 -0.3285
  124TCq2    H4 1902   4.599   4.456   8.966  1.2683  1.0258  0.4859
  125TMC2    C1 1903   1.595   1.054   8.666 -0.0210 -0.2813  0.0045
  125TMC2    C2 1904   1.649   1.088   8.550  0.5790  0.3236  0.4760
  125TMC2    C3 1905   1.727   1.195   8.558  0.5279  0.5995  0.5525
  125TMC2    C4 1906   1.644   1.090   8.788  0.3617  0.6228  0.0327
  125TMC2    C5 1907   1.743   1.181   8.789  0.7090  0.7180 -0.1793
  125TMC2    C6 1908   1.790   1.235   8.673 -0.0049  0.0263 -0.3326
  125TMC2     C 1909   1.476   0.971   8.656 -0.1089 -0.6616  0.0228
  125TMC2     O 1910   1.447   0.917   8.552 -0.7952 -0.3593 -0.2471
  125TMC2     H 1911   1.619   1.056   8.451 -1.2893  1.2214  0.7484
  125TMC2    H1 1912   1.614   1.037   8.877  0.5221  0.5429  0.0401
  125TMC2    H2 1913   1.865   1.313   8.678  0.3422 -0.2923 -0.5296
  125TMC2    C7 1914   1.787   1.232   8.922  0.0063  0.6277 -0.0154
  125TMC2    C8 1915   1.730   1.278   8.440  0.1641 -0.4993 -0.7526
  125TMC2    O1 1916   1.713   1.193   9.013  0.1920 -0.1776  0.1272
  125TMC2    O2 1917   1.714   1.224   8.334 -0.3118 -0.0430  0.9308
  125TMC2    O5 1918   1.663   1.393   8.471  0.6371 -0.0850 -0.7558
  125TMC2    H5 1919   1.658   1.400   8.568 -2.1786 -3.5433 -0.6673
  126MPD1     C 1920   1.096   0.670   8.847  0.2552 -0.3461 -0.0086
  126MPD1    C1 1921   1.148   0.747   8.951  0.8546 -0.4678 -0.7409
  126MPD1    C2 1922   1.238   0.848   8.919 -0.2073 -0.3724  0.7807
  126MPD1    C3 1923   1.288   0.862   8.791 -0.8010  0.1384  0.4058
  126MPD1    C4 1924   1.238   0.783   8.693  0.9582  0.5667 -0.1105
  126MPD1    C5 1925   1.146   0.685   8.722  0.3162 -0.5197 -0.3873
  126MPD1     H 1926   1.274   0.913   8.999 -1.9571  0.9504  0.4921
  126MPD1    H1 1927   1.272   0.787   8.590  0.0438  0.4385 -0.4206
  126MPD1    H2 1928   1.039   0.579   8.866 -0.2510  0.2597  1.4022
  126MPD1    H3 1929   1.119   0.607   8.653 -1.1205  0.6603 -1.1707
  126MPD1     N 1930   1.403   0.952   8.773 -0.1594  0.4469  0.5254
  126MPD1    H5 1931   1.430   1.009   8.853  2.9921 -0.7379  0.2807
  126MPD1    N1 1932   1.112   0.716   9.082 -0.1792 -0.8867 -0.1605
  126MPD1    H6 1933   1.141   0.788   9.148 -0.5816 -2.4806  1.7609
  126MPD1    H7 1934   1.020   0.680   9.104 -0.2115 -0.9274 -0.3673
  127MPD2     C 1935   1.871   0.737   9.594  0.8438  0.1896 -0.9196
  127MPD2    C1 1936   1.840   0.723   9.728  0.4940  0.0252  0.1340
  127MPD2    C2 1937   1.926   0.781   9.826 -0.2387 -0.1598 -0.2016
  127MPD2    C3 1938   2.040   0.855   9.783 -0.1019  0.0172  0.3180
  127MPD2    C4 1939   2.062   0.871   9.646 -0.4113 -0.0912  0.3142
  127MPD2    C5 1940   1.980   0.806   9.551 -0.0863 -0.2598 -0.1174
  127MPD2     H 1941   1.909   0.771   9.932  3.4653 -2.5547  0.1638
  127MPD2    H1 1942   2.147   0.927   9.608 -1.5448  1.3485 -0.1092
  127MPD2    H2 1943   1.807   0.690   9.520  0.5333 -2.0646  0.7816
  127MPD2    H3 1944   1.998   0.813   9.444  0.6674 -0.1557  0.0149
  127MPD2     N 1945   2.128   0.915   9.881  0.4237 -0.7828  0.1678
  127MPD2    H5 1946   2.103   0.892   9.977 -0.5287 -4.5230 -0.9853
  127MPD2    N1 1947   1.738   0.631   9.766  0.1401  0.7157 -0.1661
  127MPD2    H7 1948   1.691   0.591   9.686 -1.6327 -1.8040  2.1274
  128TCq2    C1 1949   1.700   0.601   9.895 -0.5696  0.1782  0.1424
  128TCq2    O2 1950   1.746   0.634  10.004 -0.3690 -0.0520  0.0303
  128TCq2    C2 1951   1.600   0.495   9.880  0.4847 -1.3422  0.3244
  128TCq2    C3 1952   1.617   0.394   9.968  0.1778 -0.6632  0.5988
  128TCq2    C4 1953   1.534   0.282   9.958  0.2490 -0.0341  0.2368
  128TCq2    C5 1954   1.431   0.278   9.862 -0.0646 -0.6309  0.3131
  128TCq2    C6 1955   1.434   0.382   9.770 -0.3662 -0.0178 -0.0419
  128TCq2    C7 1956   1.516   0.489   9.775  0.6352 -0.0795 -0.7892
  128TCq2    C8 1957   1.344   0.375   9.654 -0.1971 -0.2907 -0.1889
  128TCq2    O4 1958   1.366   0.454   9.567  0.0964  0.0556  0.0169
  128TCq2    C9 1959   1.571   0.163  10.028  0.0430  0.2493 -0.1775
  128TCq2    O5 1960   1.505   0.058  10.016 -0.0709 -0.1141  0.5728
  128TCq2    O6 1961   1.695   0.164  10.062  0.3462 -0.0374  0.1422
  128TCq2    H2 1962   1.701   0.398  10.036 -0.0876 -0.2622  0.9058
  128TCq2    H3 1963   1.374   0.186   9.868  0.9013 -1.3465 -1.2424
  128TCq2    H4 1964   1.496   0.576   9.714  0.6626  0.8503  0.5399
  129MPD2     C 1965   1.216   1.492   1.453 -0.3438 -0.4097 -0.0376
  129MPD2    C1 1966   1.129   1.599   1.419  0.0575 -0.9673  0.5873
  129MPD2    C2 1967   1.180   1.714   1.366  0.0147 -0.0266 -0.2648
  129MPD2    C3 1968   1.313   1.724   1.331  0.1673 -0.0838  0.2481
  129MPD2    C4 1969   1.398   1.614   1.359 -1.0503  0.1149  0.1385
  129MPD2    C5 1970   1.354   1.508   1.434  0.0060  0.7563  0.1476
  129MPD2     H 1971   1.111   1.794   1.342  0.8515  0.4474 -1.0713
  129MPD2    H1 1972   1.502   1.610   1.329 -0.2818 -0.2670  2.8108
  129MPD2    H2 1973   1.186   1.405   1.511 -0.6588  0.2717  0.8346
  129MPD2    H3 1974   1.423   1.428   1.460 -2.3570 -1.3401 -0.0621
  129MPD2     N 1975   1.340   1.845   1.259  0.1957 -0.4443  0.1807
  129MPD2    H5 1976   1.261   1.909   1.255 -0.6193 -1.5343 -1.1728
  129MPD2    N1 1977   0.990   1.604   1.444 -0.7691 -0.3394 -0.0199
  129MPD2    H7 1978   0.935   1.677   1.399  0.4083 -0.1234 -1.1238
  130TCq2    C1 1979   0.920   1.525   1.523  0.7657  0.8394  0.7282
  130TCq2    O2 1980   0.951   1.431   1.594 -0.4248  0.0735 -0.9335
  130TCq2    C2 1981   0.807   1.599   1.566 -0.0177 -0.6641 -0.3786
  130TCq2    C3 1982   0.819   1.735   1.580 -0.1298 -0.0744  0.1059
  130TCq2    C4 1983   0.715   1.798   1.644  0.5551  0.3878 -0.3250
  130TCq2    C5 1984   0.609   1.728   1.695 -0.3038  0.0821 -0.1665
  130TCq2    C6 1985   0.594   1.593   1.669  0.0656  0.3963  0.2408
  130TCq2    C7 1986   0.698   1.524   1.614 -0.0898 -0.1054  0.1422
  130TCq2    C8 1987   0.470   1.532   1.723 -0.5195 -0.3111 -0.3295
  130TCq2    O4 1988   0.382   1.605   1.764  0.0046 -0.0179 -0.7412
  130TCq2    C9 1989   0.708   1.942   1.658 -0.3292  0.0011 -0.4429
  130TCq2    O5 1990   0.598   1.991   1.702  0.0589 -0.6769 -0.2319
  130TCq2    O6 1991   0.811   2.001   1.635  0.2123 -0.4171 -0.3087
  130TCq2    H2 1992   0.897   1.802   1.547 -1.3923  1.1457 -0.4068
  130TCq2    H3 1993   0.533   1.785   1.749 -0.1401 -1.2059  1.4256
  130TCq2    H4 1994   0.699   1.416   1.605  0.0655 -0.0484 -0.5549
  131MPD2     C 1995   4.677   4.451  10.178 -0.3326 -0.3054 -0.2330
  131MPD2    C1 1996   4.652   4.484  10.047 -0.4538  0.0455  0.0762
  131MPD2    C2 1997   4.599   4.383   9.963  0.0563  0.0460  0.2531
  131MPD2    C3 1998   4.552   4.260  10.007  0.3899 -0.5825 -0.3072
  131MPD2    C4 1999   4.556   4.240  10.141 -0.1663 -0.5478 -0.3200
  131MPD2    C5 2000   4.631   4.329  10.222 -0.1311  0.0838 -0.1224
  131MPD2     H 2001   4.597   4.406   9.857  0.9970 -2.6249 -0.3534
  131MPD2    H1 2002   4.541   4.142  10.185 -4.6807  1.1335  1.8144
  131MPD2    H2 2003   0.009   4.531  10.232  0.9036  1.5517 -4.0705
  131MPD2    H3 2004   4.635   4.304  10.328  1.1771 -3.0895 -0.8970
  131MPD2     N 2005   4.504   4.160   9.922 -0.5595 -0.0144  0.2828
  131MPD2    H5 2006   4.526   4.178   9.824  0.4925 -1.5874  0.2201
  131MPD2    N1 2007   4.706   4.604   9.994  0.1109 -0.0077  0.0592
  131MPD2    H7 2008   0.052   4.651  10.058  1.2768 -0.6244 -0.6447
  132TCq2    C1 2009   0.005   0.366   9.651 -0.1051  0.0429  0.1031
  132TCq2    O2 2010   4.660   0.314   9.559 -0.4234 -0.0139  0.1597
  132TCq2    C2 2011   0.055   0.279   9.745  0.3129 -0.2988 -0.1678
  132TCq2    C3 2012   0.147   0.318   9.840  0.1599  0.1179 -0.1428
  132TCq2    C4 2013   0.182   0.236   9.946 -1.0360  0.8849 -0.2640
  132TCq2    C5 2014   0.137   0.107   9.955  0.1802 -0.3006 -0.0833
  132TCq2    C6 2015   0.057   0.059   9.858  0.0976 -0.0561  0.3542
  132TCq2    C7 2016   0.016   0.145   9.759  0.2362 -0.0510 -0.4014
  132TCq2    C8 2017   4.701   4.654   9.869  0.4368 -0.0312  0.2562
  132TCq2    O4 2018   4.633   4.619   9.778  0.3701 -0.3056 -0.3153
  132TCq2    C9 2019   0.287   0.284  10.034  0.2727  0.2277  0.0162
  132TCq2    O5 2020   0.348   0.388  10.003  0.3874  0.4781  0.0307
  132TCq2    O6 2021   0.339   0.199  10.112  0.2530  0.1642  0.4910
  132TCq2    H2 2022   0.183   0.419   9.831  3.6185 -1.1465 -0.4584
  132TCq2    H3 2023   0.190   0.038  10.020 -0.2098  1.0438  1.6675
  132TCq2    H4 2024   4.650   0.115   9.697  0.4590  0.8009 -1.1069
  133MPD2     C 2025   3.717   1.723   9.654  0.6576  0.2166 -0.1539
  133MPD2    C1 2026   3.820   1.638   9.621 -0.4096 -0.0173  0.3537
  133MPD2    C2 2027   3.779   1.511   9.581  0.5943 -0.0027  0.2700
  133MPD2    C3 2028   3.650   1.468   9.583 -0.0402 -0.5839 -0.0810
  133MPD2    C4 2029   3.550   1.549   9.631  0.0832 -0.4409 -0.7120
  133MPD2    C5 2030   3.585   1.677   9.657 -0.5540 -0.5050  0.0596
  133MPD2     H 2031   3.849   1.437   9.543 -2.2134 -3.0853  1.0817
  133MPD2    H1 2032   3.448   1.512   9.635 -1.1328  3.0585  1.2344
  133MPD2    H2 2033   3.733   1.829   9.672  1.3228 -0.1492  1.4528
  133MPD2    H3 2034   3.513   1.752   9.686  3.6364  3.5222  0.1296
  133MPD2     N 2035   3.608   1.347   9.539  0.6245  0.0416  0.3373
  133MPD2    H5 2036   3.509   1.326   9.535  0.6284  0.2314 -1.0365
  133MPD2    N1 2037   3.953   1.689   9.620 -0.1029 -0.1018  0.1870
  133MPD2    H7 2038   3.963   1.770   9.679  1.1934  0.6091 -1.0183
  134TCq2    C1 2039   4.057   1.633   9.551 -0.2221 -0.5848 -0.6350
  134TCq2    O2 2040   4.053   1.540   9.466 -0.1654  0.6021  0.3924
  134TCq2    C2 2041   4.175   1.718   9.535 -0.3769 -0.1408 -0.2906
  134TCq2    C3 2042   4.191   1.829   9.617 -0.2473  0.7033  0.4533
  134TCq2    C4 2043   4.293   1.917   9.582 -0.1749  0.3128 -0.1379
  134TCq2    C5 2044   4.381   1.883   9.484 -0.3453  0.4566  0.4120
  134TCq2    C6 2045   4.372   1.764   9.429  0.2710  0.1592 -0.0994
  134TCq2    C7 2046   4.270   1.676   9.450 -0.4159  0.6159 -0.2327
  134TCq2    C8 2047   4.487   1.715   9.359 -0.4087  0.1682 -1.0619
  134TCq2    O4 2048   4.476   1.622   9.284  0.0297 -0.6872 -0.2387
  134TCq2    C9 2049   4.314   2.045   9.651 -0.0858  0.0072  0.0133
  134TCq2    O5 2050   4.419   2.106   9.622  0.6540 -0.9281  0.2076
  134TCq2    O6 2051   4.222   2.090   9.729 -0.2825  0.0670  0.7421
  134TCq2    H2 2052   4.130   1.856   9.703 -2.0403 -1.1692 -0.2537
  134TCq2    H3 2053   4.451   1.958   9.451  1.0303 -1.0287 -0.0295
  134TCq2    H4 2054   4.271   1.579   9.402  0.5819  0.7714 -0.5384
  135MPD2     C 2055   1.279   2.045   9.603 -0.1859 -0.2634  0.0441
  135MPD2    C1 2056   1.284   2.063   9.463 -0.6195 -0.0615 -0.2341
  135MPD2    C2 2057   1.407   2.036   9.409 -0.1183 -0.1187 -0.5788
  135MPD2    C3 2058   1.518   1.986   9.480  0.1587  0.0738  0.0709
  135MPD2    C4 2059   1.511   1.975   9.617 -0.7250  0.2735 -0.7804
  135MPD2    C5 2060   1.397   2.020   9.673  0.3004  0.5710 -0.3497
  135MPD2     H 2061   1.415   2.039   9.301  0.8633  1.7637 -0.4555
  135MPD2    H1 2062   1.590   1.939   9.682 -0.8834  2.2084  0.4661
  135MPD2    H2 2063   1.189   2.049   9.664 -1.1057  1.5126 -1.4197
  135MPD2    H3 2064   1.381   2.021   9.781  1.8083 -0.0625 -0.1127
  135MPD2     N 2065   1.642   1.953   9.423 -0.1374 -0.5020  0.0263
  135MPD2    H5 2066   1.718   1.924   9.484 -0.4263 -1.6888 -0.1717
  135MPD2    N1 2067   1.171   2.108   9.386  0.4516  0.1347  0.0739
  135MPD2    H7 2068   1.155   2.087   9.288  0.6111  0.3833 -0.0043
  136TCq2    C1 2069   1.066   2.181   9.439 -0.5320  0.1088 -0.1742
  136TCq2    O2 2070   1.055   2.232   9.549 -0.7386  0.0280 -0.2910
  136TCq2    C2 2071   0.973   2.232   9.335  0.1700 -0.3970  0.1674
  136TCq2    C3 2072   1.005   2.205   9.205  0.4024  0.3230 -0.1155
  136TCq2    C4 2073   0.911   2.220   9.110  0.1439 -0.6121 -0.0030
  136TCq2    C5 2074   0.789   2.271   9.145  0.3409 -0.0647  0.0470
  136TCq2    C6 2075   0.757   2.294   9.275  0.6107  0.2295 -0.1526
  136TCq2    C7 2076   0.854   2.289   9.373 -0.2272 -0.4410 -0.1179
  136TCq2    C8 2077   0.618   2.324   9.313 -0.3455 -0.2299 -0.6979
  136TCq2    O4 2078   0.554   2.353   9.216  0.0552  0.2990  0.0993
  136TCq2    C9 2079   0.943   2.178   8.972  0.1788  0.0920 -0.4406
  136TCq2    O5 2080   0.846   2.176   8.892 -0.2226  0.9731  0.1382
  136TCq2    O6 2081   1.064   2.156   8.939  0.2833  0.4230  0.2009
  136TCq2    H2 2082   1.100   2.170   9.168  0.3781 -0.0489  0.1701
  136TCq2    H3 2083   0.714   2.292   9.070  1.9532 -1.5692 -1.9935
  136TCq2    H4 2084   0.836   2.313   9.477  1.6853  0.5372 -0.0146
  137MPD2     C 2085   1.402   1.316   9.276 -0.5529 -0.2654 -0.7070
  137MPD2    C1 2086   1.269   1.349   9.299  0.2241  1.0762  0.3117
  137MPD2    C2 2087   1.215   1.339   9.426  0.6324 -0.0901 -0.4841
  137MPD2    C3 2088   1.308   1.305   9.532 -0.0334  0.0214 -0.5366
  137MPD2    C4 2089   1.441   1.276   9.510 -0.3761  0.1605 -0.4977
  137MPD2    C5 2090   1.491   1.294   9.380  0.1481 -0.2865  0.8527
  137MPD2     H 2091   1.112   1.353   9.456  1.0364 -1.6873  1.6946
  137MPD2    H1 2092   1.516   1.261   9.587 -1.9768 -0.4117  0.9286
  137MPD2    H2 2093   1.442   1.331   9.176 -1.4627 -0.6051 -1.1143
  137MPD2    H3 2094   1.594   1.271   9.354 -0.4589 -0.7973 -1.0665
  137MPD2     N 2095   1.254   1.295   9.664 -0.3517  0.5589  0.1000
  137MPD2    H5 2096   1.153   1.283   9.670  0.1101 -2.1109  2.4053
  137MPD2    N1 2097   1.195   1.390   9.186  0.1971  0.2174 -0.0507
  137MPD2    H7 2098   1.243   1.386   9.097  1.0926  1.1777  0.3833
  138TCq2    C1 2099   1.061   1.408   9.188  0.0755 -0.0781 -0.1284
  138TCq2    O2 2100   0.986   1.356   9.267 -0.0238  0.4248  0.0689
  138TCq2    C2 2101   1.002   1.453   9.062  0.4344  0.6492 -0.6824
  138TCq2    C3 2102   1.080   1.480   8.953  0.4328  0.4541 -0.3123
  138TCq2    C4 2103   1.020   1.495   8.837 -0.1556 -0.3605  0.7747
  138TCq2    C5 2104   0.885   1.492   8.830 -0.0673  0.4457 -0.2975
  138TCq2    C6 2105   0.810   1.469   8.945 -0.1939 -0.5838 -0.2279
  138TCq2    C7 2106   0.865   1.459   9.066 -0.0906 -0.0946 -0.0714
  138TCq2    C8 2107   0.665   1.441   8.928  1.3391 -0.4190 -0.0549
  138TCq2    O4 2108   0.619   1.440   8.816 -0.2336  0.4181  0.4334
  138TCq2    C9 2109   1.088   1.509   8.711 -0.0933  0.0707  0.4825
  138TCq2    O5 2110   1.211   1.524   8.720 -0.0542 -0.0271  0.0400
  138TCq2    O6 2111   1.020   1.564   8.616  0.6566 -0.5360  0.4657
  138TCq2    H2 2112   1.188   1.477   8.945  0.4731  1.4329 -0.1015
  138TCq2    H3 2113   0.842   1.493   8.731  0.9043 -3.5658 -0.7974
  138TCq2    H4 2114   0.807   1.461   9.157 -0.2401 -0.7104 -0.1544
  139TMC2    C1 2115   2.156   0.533  13.757  0.2299  0.4726  0.6637
  139TMC2    C2 2116   2.232   0.587  13.654  0.0111 -0.2394 -0.1142
  139TMC2    C3 2117   2.233   0.726  13.665  0.5720  0.1934 -0.4570
  139TMC2    C4 2118   2.089   0.607  13.851 -0.4845 -0.3166 -0.3532
  139TMC2    C5 2119   2.096   0.740  13.857 -0.0204 -0.0252  0.3428
  139TMC2    C6 2120   2.161   0.801  13.756  0.3315 -0.0625 -0.0543
  139TMC2     C 2121   2.111   0.392  13.741  0.0925 -0.2066  0.5698
  139TMC2     O 2122   2.003   0.372  13.797 -0.2594  0.5093 -0.9735
  139TMC2     H 2123   2.278   0.534  13.572 -0.3396  0.2822 -0.6448
  139TMC2    H1 2124   2.019   0.561  13.921  1.1003  0.3796  1.6748
  139TMC2    H2 2125   2.151   0.908  13.738  0.6600 -0.0539 -0.1847
  139TMC2    C7 2126   1.974   0.807  13.898  0.1658 -0.8398  0.0939
  139TMC2    C8 2127   2.275   0.800  13.546  0.4647  0.1825  0.3433
  139TMC2    O1 2128   1.875   0.738  13.896 -0.0281  0.1556 -0.5457
  139TMC2    O2 2129   2.226   0.902  13.498  0.3306 -0.3163  0.5619
  139TMC2    O5 2130   2.390   0.735  13.501 -0.5982  0.2589 -0.5846
  139TMC2    H5 2131   2.420   0.671  13.569 -0.6279 -1.2020 -1.9640
  140MPD2     C 2132   2.278   0.089  13.663  0.1558 -0.4793 -0.1579
  140MPD2    C1 2133   2.171   0.170  13.666  0.5336  0.3391 -0.3526
  140MPD2    C2 2134   2.046   0.132  13.644  1.0675  0.2603 -1.1914
  140MPD2    C3 2135   2.018   4.717  13.624 -0.2747  0.1168 -0.1409
  140MPD2    C4 2136   2.122   4.629  13.627  0.2365  0.0053 -0.3696
  140MPD2    C5 2137   2.249   4.674  13.647 -0.5469  0.1422  0.0098
  140MPD2     H 2138   1.962   0.200  13.637  0.3579 -0.5340 -0.4067
  140MPD2    H1 2139   2.103   4.525  13.605  1.7209  0.0768 -1.9719
  140MPD2    H2 2140   2.376   0.136  13.668 -0.7058  1.5513 -2.3927
  140MPD2    H3 2141   2.331   4.603  13.644  0.6576  1.4994  1.0752
  140MPD2     N 2142   1.879   4.674  13.611 -0.2059 -0.5008  0.5108
  140MPD2    H5 2143   1.807   0.028  13.615  0.1163 -0.1153 -0.4563
  140MPD2    N1 2144   2.201   0.305  13.691  0.7290  0.3527  0.0841
  140MPD2    H7 2145   2.300   0.330  13.689  1.0048 -0.7106  0.0928
  141TCq2    C1 2146   2.767   1.380  14.060  0.6309  0.0124 -0.3337
  141TCq2    O2 2147   2.715   1.466  13.989  0.3534 -0.5922  0.1094
  141TCq2    C2 2148   2.717   1.366  14.197  0.1714 -0.3049 -0.2081
  141TCq2    C3 2149   2.696   1.244  14.248  0.5087 -0.5184  1.3822
  141TCq2    C4 2150   2.595   1.212  14.327  0.0322  0.4672 -0.0094
  141TCq2    C5 2151   2.492   1.300  14.345  0.2187 -0.1750  0.6252
  141TCq2    C6 2152   2.518   1.428  14.295 -0.0039  0.4857  0.3015
  141TCq2    C7 2153   2.627   1.468  14.228  0.2973  0.2784 -0.3086
  141TCq2    C8 2154   2.436   1.530  14.348 -0.0573 -0.2754  0.0564
  141TCq2    O4 2155   2.318   1.516  14.333  0.3930  0.4061  0.2042
  141TCq2    C9 2156   2.590   1.077  14.368 -1.2373  0.0567  0.2318
  141TCq2    O5 2157   2.702   1.034  14.417 -0.0369 -0.0325  0.2895
  141TCq2    O6 2158   2.474   1.048  14.411  0.0322  0.0170 -0.2306
  141TCq2    H2 2159   2.764   1.159  14.238  2.9594  1.1577  3.6770
  141TCq2    H3 2160   2.403   1.274  14.401 -0.6987  1.1103 -0.2334
  141TCq2    H4 2161   2.633   1.565  14.180 -0.0880  0.7179  0.5249
  142MPD2     C 2162   0.133   4.062  10.210 -0.4183  0.3350 -0.6057
  142MPD2    C1 2163   0.130   4.045  10.076 -0.5506  0.4809 -0.3469
  142MPD2    C2 2164   0.181   4.144   9.990  0.3836 -0.4841 -0.0337
  142MPD2    C3 2165   0.247   4.259  10.036 -0.4268 -0.6588  0.0994
  142MPD2    C4 2166   0.265   4.272  10.169  0.7909 -0.2283 -0.6349
  142MPD2    C5 2167   0.210   4.173  10.254 -0.7473 -0.3626  0.5015
  142MPD2     H 2168   0.167   4.133   9.883  0.8321 -1.2538 -0.0101
  142MPD2    H1 2169   0.332   4.345  10.214 -0.6253  1.1583 -0.7537
  142MPD2    H2 2170   0.088   3.997  10.285 -1.1908  0.4000 -1.0190
  142MPD2    H3 2171   0.229   4.196  10.358  0.1209 -2.7966  0.8881
  142MPD2     N 2172   0.290   4.365   9.953  0.1476  0.1409  0.0388
  142MPD2    H5 2173   0.337   4.446   9.994  1.8901 -1.2859  0.8715
  142MPD2    N1 2174   0.066   3.928  10.030 -0.0665 -0.7275  0.0577
  142MPD2    H7 2175   0.024   3.875  10.106 -2.7097  0.3094 -0.6670
  143TCq2    C1 2176   0.268   4.371   9.818 -0.6436  0.2261 -0.0774
  143TCq2    O2 2177   0.213   4.295   9.738 -0.2231 -0.6472 -0.6435
  143TCq2    C2 2178   0.315   4.498   9.753 -0.6126 -0.1311 -0.3260
  143TCq2    C3 2179   0.410   4.578   9.818 -0.4852  0.0661 -1.0319
  143TCq2    C4 2180   0.429   4.705   9.767 -0.3387 -0.0729 -0.0818
  143TCq2    C5 2181   0.357   0.030   9.660 -1.2256  0.1099  0.1929
  143TCq2    C6 2182   0.276   4.666   9.594  0.2710 -0.4741 -0.0714
  143TCq2    C7 2183   0.261   4.538   9.636  0.2790 -0.3711 -0.5275
  143TCq2    C8 2184   0.199   4.711   9.485  0.5997  0.0491  0.6671
  143TCq2    O4 2185   0.133   4.620   9.434  0.8245  0.1392  0.1190
  143TCq2    C9 2186   0.521   0.086   9.830 -0.0725 -0.1647  0.6332
  143TCq2    O5 2187   0.586   0.052   9.938 -0.3864 -0.6197  0.2435
  143TCq2    O6 2188   0.557   0.182   9.759 -0.2708  0.7482  0.0667
  143TCq2    H2 2189   0.454   4.557   9.915  0.6353 -0.8629 -1.7452
  143TCq2    H3 2190   0.359   0.138   9.654  0.9501 -0.0641 -2.2976
  143TCq2    H4 2191   0.207   4.466   9.576  0.2374 -1.1683  0.4897
  144MPD2     C 2192   2.776   4.203   0.924  0.3492 -0.2485  0.1908
  144MPD2    C1 2193   2.778   4.070   0.954 -0.0007 -0.5186 -0.0190
  144MPD2    C2 2194   2.834   4.032   1.075 -0.2528  0.1934  0.0781
  144MPD2    C3 2195   2.882   4.127   1.167 -0.3789  0.8003  0.1224
  144MPD2    C4 2196   2.872   4.264   1.134 -0.1897  0.5983  0.1430
  144MPD2    C5 2197   2.826   4.296   1.009  0.0288  0.1488 -0.7920
  144MPD2     H 2198   2.836   3.926   1.096  1.2921 -0.1079 -1.5931
  144MPD2    H1 2199   2.904   4.346   1.197  1.1443  0.1358  0.0512
  144MPD2    H2 2200   2.742   4.242   0.828 -0.1983 -0.2505  0.3816
  144MPD2    H3 2201   2.824   4.402   0.985  1.2192  0.7496  1.7097
  144MPD2     N 2202   2.942   4.088   1.287  0.2548 -0.4001  0.2171
  144MPD2    H5 2203   2.963   4.167   1.348  0.9028  1.5458 -2.5262
  144MPD2    N1 2204   2.752   3.969   0.865  0.0225 -0.2268 -0.1796
  144MPD2    H7 2205   2.759   3.874   0.900 -1.4511 -0.8934 -1.6741
  145TCq2    C1 2206   2.980   3.964   1.324 -0.5626 -0.1219  0.0883
  145TCq2    O2 2207   2.981   3.859   1.262  0.4614 -0.0008 -0.3638
  145TCq2    C2 2208   3.034   3.957   1.462 -0.5154 -0.0121 -0.4234
  145TCq2    C3 2209   3.130   3.862   1.475  0.0532 -0.6309 -0.0031
  145TCq2    C4 2210   3.216   3.858   1.585  0.2082 -0.4138 -0.8217
  145TCq2    C5 2211   3.211   3.959   1.674 -0.5059  0.8272 -0.3492
  145TCq2    C6 2212   3.128   4.063   1.658 -0.2289  0.6148  0.4870
  145TCq2    C7 2213   3.030   4.063   1.554  0.5770 -0.3371 -0.2357
  145TCq2    C8 2214   3.149   4.174   1.757 -0.0390  0.5384 -0.7215
  145TCq2    O4 2215   3.217   4.162   1.858  0.2731  0.2262  0.8698
  145TCq2    C9 2216   3.319   3.754   1.588  0.7252 -0.3399  0.6710
  145TCq2    O5 2217   3.369   3.720   1.480 -0.6120  0.8461 -0.0552
  145TCq2    O6 2218   3.359   3.715   1.699 -0.4863 -0.4036  0.2316
  145TCq2    H2 2219   3.143   3.784   1.401 -0.7486  0.2468 -1.0650
  145TCq2    H3 2220   3.291   3.959   1.748 -2.0321 -1.2110  1.2959
  145TCq2    H4 2221   2.962   4.147   1.546 -1.9060 -2.1559  2.0255
  146TMC2    C1 2222   4.462   2.106  12.066 -0.0504  0.2493 -0.7087
  146TMC2    C2 2223   4.388   2.059  11.959 -0.1079 -0.0621 -0.4701
  146TMC2    C3 2224   4.454   1.973  11.879  0.5787  0.7541  0.0139
  146TMC2    C4 2225   4.585   2.061  12.104  0.5371  0.0469  0.3295
  146TMC2    C5 2226   4.645   1.977  12.016  0.2393 -0.2284  0.0849
  146TMC2    C6 2227   4.585   1.929  11.902  0.0482  0.0993 -0.9472
  146TMC2     C 2228   4.406   2.219  12.144  0.6617 -0.0323  0.4889
  146TMC2     O 2229   4.319   2.287  12.088 -0.0464  0.4655 -0.0049
  146TMC2     H 2230   4.289   2.097  11.942 -0.2506  0.0600  0.6175
  146TMC2    H1 2231   4.645   2.099  12.186  1.0485  0.3484 -0.1845
  146TMC2    H2 2232   4.637   1.872  11.826 -2.2140  0.1838 -2.5703
  146TMC2    C7 2233   0.073   2.003  12.000 -0.6057 -0.0192 -0.2362
  146TMC2    C8 2234   4.379   1.913  11.769 -0.2644 -0.8341 -0.8566
  146TMC2    O1 2235   0.119   2.029  11.888  0.3542  0.0541 -0.2050
  146TMC2    O2 2236   4.256   1.897  11.764  0.7300  0.3699  0.0396
  146TMC2    O5 2237   4.460   1.905  11.661 -0.1178 -0.6788 -0.0761
  146TMC2    H5 2238   4.537   1.964  11.680  0.9504 -1.1390 -3.0483
  147MPD2     C 2239   0.522   2.198  12.164 -0.4283  0.2667 -0.8809
  147MPD2    C1 2240   0.442   2.169  12.271 -0.6622 -0.1058  0.9663
  147MPD2    C2 2241   0.314   2.121  12.254 -0.2282 -0.0536 -0.0493
  147MPD2    C3 2242   0.264   2.089  12.128 -0.5477  0.8163  0.6367
  147MPD2    C4 2243   0.351   2.121  12.026 -0.4727  0.9469  0.6649
  147MPD2    C5 2244   0.466   2.192  12.038 -0.4364  0.2775  0.4563
  147MPD2     H 2245   0.248   2.098  12.337  0.2387  1.2269  0.6838
  147MPD2    H1 2246   0.315   2.118  11.924  1.3972  0.6763  0.0191
  147MPD2    H2 2247   0.622   2.238  12.178  0.3750 -1.1232 -2.6663
  147MPD2    H3 2248   0.530   2.226  11.958 -1.0588 -1.4990 -0.7821
  147MPD2     N 2249   0.137   2.034  12.117 -0.5361  0.4576 -0.3416
  147MPD2    H5 2250   0.084   2.027  12.204  0.2057  1.2872  0.1750
  147MPD2    N1 2251   0.500   2.184  12.401  0.0630  0.2188 -0.0664
  147MPD2    H7 2252   0.600   2.196  12.413  0.0985  0.5250 -0.7119
  148MPD2     C 2253   3.595   0.721  10.246  0.7422  0.0683 -0.4164
  148MPD2    C1 2254   3.672   0.611  10.274  0.5465  0.2205 -0.2760
  148MPD2    C2 2255   3.691   0.512  10.177 -0.0496  0.1173 -0.6116
  148MPD2    C3 2256   3.638   0.533  10.047 -0.2760  0.5857  0.8262
  148MPD2    C4 2257   3.572   0.651  10.024  0.2932 -0.4271 -0.3831
  148MPD2    C5 2258   3.548   0.741  10.125  0.2256  0.5200  0.4662
  148MPD2     H 2259   3.750   0.424  10.200 -1.6986 -0.8010  0.0689
  148MPD2    H1 2260   3.525   0.666   9.928  0.6348  2.6856 -0.0937
  148MPD2    H2 2261   3.572   0.797  10.320  1.7529 -0.1121  0.0865
  148MPD2    H3 2262   3.490   0.830  10.103  0.1481 -0.3007 -2.6680
  148MPD2     N 2263   3.667   0.449   9.949 -0.0002  0.1728 -0.4232
  148MPD2    H5 2264   3.646   0.469   9.852 -0.1534 -0.0156 -0.4291
  148MPD2    N1 2265   3.725   0.586  10.403 -0.2422 -0.5425 -0.1491
  148MPD2    H7 2266   3.789   0.508  10.417  0.7233  0.7219  2.4149
  149TCq2    C1 2267   3.702   0.656  10.516 -0.1942 -0.2417  0.1192
  149TCq2    O2 2268   3.629   0.750  10.536 -0.2933  0.0607 -0.1777
  149TCq2    C2 2269   3.761   0.602  10.633 -0.3537  0.1703  0.5327
  149TCq2    C3 2270   3.681   0.577  10.743  0.0230 -0.2651 -0.0236
  149TCq2    C4 2271   3.702   0.474  10.825 -0.7524 -0.0153 -0.3059
  149TCq2    C5 2272   3.791   0.378  10.793  0.1544 -0.5289 -0.9871
  149TCq2    C6 2273   3.871   0.403  10.685 -0.1257  0.0983  0.1043
  149TCq2    C7 2274   3.862   0.515  10.612  0.3208  0.0642 -0.0719
  149TCq2    C8 2275   3.972   0.301  10.655 -0.0107  0.0396 -0.0499
  149TCq2    O4 2276   4.020   0.321  10.541  0.1100  0.1664 -0.1581
  149TCq2    C9 2277   3.593   0.428  10.911  0.4162  0.4625 -0.5012
  149TCq2    O5 2278   3.603   0.308  10.950 -0.3337  0.9443  0.5066
  149TCq2    O6 2279   3.485   0.501  10.917 -0.1767  0.5055  0.0904
  149TCq2    H2 2280   3.599   0.646  10.757  1.9595  1.7335  1.4251
  149TCq2    H3 2281   3.787   0.280  10.840 -2.0316 -0.9962 -2.1445
  149TCq2    H4 2282   3.933   0.532  10.531 -1.0459  1.4909 -0.9546
  150MPD2     C 2283   1.141   0.669  11.943 -1.0224  0.2382 -0.7726
  150MPD2    C1 2284   1.123   0.755  11.833  0.3461 -0.1569 -0.1229
  150MPD2    C2 2285   1.208   0.861  11.819 -0.5617 -0.3420  0.3950
  150MPD2    C3 2286   1.309   0.883  11.909 -0.2437 -0.3834  0.0457
  150MPD2    C4 2287   1.334   0.789  12.006 -0.2472 -0.0667  0.1746
  150MPD2    C5 2288   1.256   0.675  12.016 -0.1575 -0.3244 -0.1391
  150MPD2     H 2289   1.191   0.925  11.733 -0.2754  1.4552  1.6773
  150MPD2    H1 2290   1.409   0.801  12.084 -1.3269  1.1280  1.0345
  150MPD2    H2 2291   1.072   0.589  11.971  0.5536 -0.2658  1.6722
  150MPD2    H3 2292   1.270   0.605  12.097  0.0978  1.7993  1.6618
  150MPD2     N 2293   1.396   0.995  11.887 -0.0230 -0.2164  0.2693
  150MPD2    H5 2294   1.383   1.044  11.799  2.5486 -1.5590 -0.8354
  150MPD2    N1 2295   1.015   0.727  11.752 -0.0279 -0.1764  0.4894
  150MPD2    H7 2296   0.947   0.658  11.784 -0.5797  0.7247  1.2396
  151TCq2    C1 2297   1.505   1.037  11.958 -0.4343 -0.1431  0.5855
  151TCq2    O2 2298   1.541   0.990  12.064  0.4730  1.0496 -0.7941
  151TCq2    C2 2299   1.578   1.150  11.907  0.1758 -0.0493 -0.4199
  151TCq2    C3 2300   1.550   1.213  11.787 -0.6158 -0.7330  0.3206
  151TCq2    C4 2301   1.635   1.307  11.740 -0.4183 -0.2111  0.2031
  151TCq2    C5 2302   1.747   1.348  11.810  0.3168  0.2671 -0.2760
  151TCq2    C6 2303   1.775   1.283  11.921 -0.4009 -0.1725  0.4041
  151TCq2    C7 2304   1.693   1.181  11.968 -0.1689 -0.0944  0.7321
  151TCq2    C8 2305   1.912   1.299  11.968 -0.4861  0.1111  0.0804
  151TCq2    O4 2306   1.960   1.412  11.973 -0.3768  0.5526 -0.3314
  151TCq2    C9 2307   1.609   1.351  11.605  0.1134 -0.3851  0.4756
  151TCq2    O5 2308   1.528   1.291  11.532  0.2727  0.0351 -0.2011
  151TCq2    O6 2309   1.634   1.474  11.604 -0.2921 -0.0042  0.1580
  151TCq2    H2 2310   1.457   1.200  11.733 -0.4327 -3.1735  0.6127
  151TCq2    H3 2311   1.828   1.410  11.772 -0.9990  2.1647  0.0584
  151TCq2    H4 2312   1.708   1.131  12.063 -0.5903 -0.6356  0.5096
  152MPD2     C 2313   1.156   0.094  12.412  0.6363 -0.5041  0.2449
  152MPD2    C1 2314   1.197   0.221  12.382 -0.0611  0.0336 -0.8812
  152MPD2    C2 2315   1.130   0.337  12.419 -0.0757 -0.5802  0.6702
  152MPD2    C3 2316   1.001   0.324  12.472  0.5922  0.4609  0.7019
  152MPD2    C4 2317   0.956   0.200  12.484 -0.1505  0.6036  0.2624
  152MPD2    C5 2318   1.028   0.088  12.459  0.0856  0.0770 -0.1234
  152MPD2     H 2319   1.177   0.434  12.423 -0.0957 -0.5770  0.8260
  152MPD2    H1 2320   0.852   0.183  12.509  0.4753 -3.4388  0.1267
  152MPD2    H2 2321   1.202   0.001  12.382  0.8440  0.1088 -1.3304
  152MPD2    H3 2322   0.986   4.709  12.483 -3.2924  2.1367  2.2898
  152MPD2     N 2323   0.935   0.441  12.504  0.6439 -0.4105 -0.0352
  152MPD2    H5 2324   0.980   0.531  12.487  2.6709 -1.7100 -1.5160
  152MPD2    N1 2325   1.332   0.226  12.341 -0.4930  0.3275  0.0890
  152MPD2    H7 2326   1.384   0.139  12.340  1.0202  1.2442 -1.9346
  153TCq2    C1 2327   1.411   0.340  12.309  0.7466 -0.3098  0.0089
  153TCq2    O2 2328   1.384   0.461  12.310  0.0290  1.0012  0.1022
  153TCq2    C2 2329   1.550   0.303  12.298  0.0645  0.3265  0.2588
  153TCq2    C3 2330   1.592   0.220  12.406 -0.1526  0.5905  0.3690
  153TCq2    C4 2331   1.708   0.252  12.474  0.2314  1.1753 -0.1677
  153TCq2    C5 2332   1.789   0.349  12.429 -0.2337  0.2964  0.0106
  153TCq2    C6 2333   1.758   0.426  12.318 -0.6865  0.6495 -0.1275
  153TCq2    C7 2334   1.637   0.398  12.252 -0.7283 -0.5359  0.3620
  153TCq2    C8 2335   1.825   0.558  12.291 -0.0440  0.3307  0.1456
  153TCq2    O4 2336   1.760   0.633  12.221  0.5963 -0.6706 -0.1351
  153TCq2    C9 2337   1.750   0.172  12.584  0.1784  0.4945 -0.9462
  153TCq2    O5 2338   1.706   0.051  12.586  0.2408 -0.0975 -0.7357
  153TCq2    O6 2339   1.824   0.220  12.670  0.1795  0.2085 -0.1504
  153TCq2    H2 2340   1.529   0.148  12.457 -0.7612 -1.0088 -2.6312
  153TCq2    H3 2341   1.879   0.355  12.489 -0.1319 -1.0473 -0.0071
  153TCq2    H4 2342   1.596   0.468  12.181  0.7385 -0.1729 -0.1243
  154MPD2     C 2343   3.777   1.482   0.510 -0.4004  0.4880 -1.2015
  154MPD2    C1 2344   3.664   1.522   0.576  0.2453 -0.4417  0.2171
  154MPD2    C2 2345   3.545   1.454   0.557  0.6654  0.4281  0.2583
  154MPD2    C3 2346   3.533   1.354   0.461  0.6903 -0.0151 -0.3435
  154MPD2    C4 2347   3.649   1.318   0.393 -0.5431  0.2311 -0.3378
  154MPD2    C5 2348   3.766   1.388   0.414 -0.2458  0.3668 -0.1940
  154MPD2     H 2349   3.455   1.490   0.606 -0.7458  1.7032 -3.2530
  154MPD2    H1 2350   3.643   1.240   0.317 -1.6286  0.4045 -0.4334
  154MPD2    H2 2351   3.865   1.546   0.519  0.7720 -1.1422 -1.1683
  154MPD2    H3 2352   3.849   1.353   0.354 -0.6445  0.7026 -0.9406
  154MPD2     N 2353   3.408   1.304   0.435 -0.5962  0.1672 -0.6489
  154MPD2    H5 2354   3.329   1.346   0.484  1.5254  1.4184  1.6923
  154MPD2    N1 2355   3.681   1.623   0.670  0.1893  0.6767  0.4716
  154MPD2    H7 2356   3.775   1.661   0.680 -0.0701  1.9445 -1.8218
  155TCq2    C1 2357   3.587   1.667   0.761 -0.3389 -0.5036 -0.4846
  155TCq2    O2 2358   3.463   1.670   0.758 -0.0895  0.2389  0.5599
  155TCq2    C2 2359   3.659   1.735   0.866 -0.1488  0.3099  0.4477
  155TCq2    C3 2360   3.794   1.732   0.885  0.9344 -0.0911  0.5612
  155TCq2    C4 2361   3.857   1.824   0.974  0.8727 -0.7217  0.2889
  155TCq2    C5 2362   3.772   1.904   1.049  0.4832 -0.6911 -0.1435
  155TCq2    C6 2363   3.637   1.905   1.022  0.7359  0.3259  0.1381
  155TCq2    C7 2364   3.577   1.824   0.929  0.5390 -0.4011  0.1025
  155TCq2    C8 2365   3.552   2.008   1.090 -0.6600  0.6566  0.1760
  155TCq2    O4 2366   3.439   2.019   1.047 -0.4604 -0.6129  0.5637
  155TCq2    C9 2367   4.002   1.825   0.990 -0.2077 -0.1359  0.1800
  155TCq2    O5 2368   4.048   1.907   1.072 -0.1700 -0.3090 -0.0658
  155TCq2    O6 2369   4.067   1.752   0.910  0.0114 -0.0438 -0.0022
  155TCq2    H2 2370   3.857   1.659   0.835  1.8652  0.5102  0.8558
  155TCq2    H3 2371   3.813   1.974   1.120 -0.6096  0.3422 -0.5424
  155TCq2    H4 2372   3.473   1.843   0.906  0.6967  1.3828  0.9095
  156MPD2     C 2373   1.565   2.861  12.000  0.5969 -0.3701 -0.5509
  156MPD2    C1 2374   1.497   2.970  11.961  0.3872  0.3827 -0.1280
  156MPD2    C2 2375   1.500   3.080  12.041  0.5925 -0.4335 -0.6670
  156MPD2    C3 2376   1.571   3.076  12.160 -0.0505 -0.4475 -0.3442
  156MPD2    C4 2377   1.651   2.970  12.189  0.4491  0.0157 -0.4709
  156MPD2    C5 2378   1.644   2.869  12.108  0.2650 -0.4156 -0.2802
  156MPD2     H 2379   1.435   3.166  12.028  2.1080  0.6025 -1.2945
  156MPD2    H1 2380   1.722   2.962  12.270  0.0753  2.8930  0.1227
  156MPD2    H2 2381   1.557   2.764  11.952 -0.9528 -0.8161  0.5837
  156MPD2    H3 2382   1.685   2.774  12.141  0.0940  0.2626  1.9234
  156MPD2     N 2383   1.574   3.199  12.227  0.5408 -0.1199 -0.8193
  156MPD2    H5 2384   1.539   3.280  12.176  1.7516  3.2789  3.8244
  156MPD2    N1 2385   1.411   2.956  11.852  0.5224  0.0190  0.6313
  156MPD2    H7 2386   1.401   2.864  11.810  3.1310  0.8810 -1.8573
  157TCq2    C1 2387   1.327   3.061  11.798 -0.4095 -0.4398  0.6440
  157TCq2    O2 2388   1.303   3.180  11.821 -0.4127 -0.0306 -0.2080
  157TCq2    C2 2389   1.253   3.006  11.684  0.2089  0.4001  0.3052
  157TCq2    C3 2390   1.219   2.872  11.682  0.4120 -0.3509  0.2656
  157TCq2    C4 2391   1.144   2.826  11.581  0.5821 -0.1505  0.8013
  157TCq2    C5 2392   1.111   2.903  11.475  0.4588 -0.2814 -0.6694
  157TCq2    C6 2393   1.156   3.034  11.475  0.3147 -0.4424 -0.2859
  157TCq2    C7 2394   1.219   3.089  11.577  0.1934 -0.1508  0.1528
  157TCq2    C8 2395   1.101   3.124  11.375 -1.0989  0.0835  0.0815
  157TCq2    O4 2396   1.148   3.238  11.373  0.1929  0.0144 -0.2736
  157TCq2    C9 2397   1.113   2.682  11.569  0.3726 -0.9052  0.2219
  157TCq2    O5 2398   1.162   2.603  11.651  0.0477  0.2902  0.4120
  157TCq2    O6 2399   1.025   2.646  11.486 -0.0042 -0.3925  0.3905
  157TCq2    H2 2400   1.246   2.804  11.762 -2.2793 -1.7583 -0.0210
  157TCq2    H3 2401   1.072   2.850  11.389 -1.4765 -0.4389  0.3028
  157TCq2    H4 2402   1.241   3.195  11.586  0.5316 -0.0503 -1.8428
  158TMC2    C1 2403   1.511   1.906  13.318  0.3125 -0.4257 -0.7968
  158TMC2    C2 2404   1.525   1.974  13.199  0.2651 -0.0495  0.3473
  158TMC2    C3 2405   1.449   1.941  13.102  0.1073  0.8795  0.1817
  158TMC2    C4 2406   1.406   1.814  13.338 -0.0907  0.0686  0.2931
  158TMC2    C5 2407   1.334   1.786  13.226  0.6541 -0.1382 -0.1953
  158TMC2    C6 2408   1.346   1.854  13.107 -0.1878 -0.7144  0.4959
  158TMC2     C 2409   1.591   1.939  13.432  0.7017 -0.2092  0.4808
  158TMC2     O 2410   1.669   2.027  13.415 -0.0445 -0.2793 -0.0942
  158TMC2     H 2411   1.612   2.037  13.182 -0.2575  0.1813 -1.4352
  158TMC2    H1 2412   1.381   1.771  13.434  1.9938 -3.0915 -0.6021
  158TMC2    H2 2413   1.276   1.835  13.027 -0.2742 -0.4801  0.5145
  158TMC2    C7 2414   1.228   1.682  13.234 -0.2341  0.1543 -0.5444
  158TMC2    C8 2415   1.509   1.962  12.975 -0.2625 -0.2094  0.2087
  158TMC2    O1 2416   1.124   1.702  13.169 -0.3359  0.2414 -0.2478
  158TMC2    O2 2417   1.630   1.975  12.954  0.2830 -0.3309  0.0571
  158TMC2    O5 2418   1.420   2.013  12.889  0.7248  0.0860  1.0997
  158TMC2    H5 2419   1.334   2.014  12.937 -0.2193 -2.0484 -0.5566
  159MPD2     C 2420   1.719   1.903  13.938  0.1253  0.5359 -0.4707
  159MPD2    C1 2421   1.627   1.808  13.908  0.0476 -0.3752  0.5950
  159MPD2    C2 2422   1.587   1.791  13.774  0.1721 -0.1820  0.0860
  159MPD2    C3 2423   1.630   1.874  13.671 -0.0814 -0.3984  0.1516
  159MPD2    C4 2424   1.731   1.960  13.706 -0.0854  0.3517 -0.7510
  159MPD2    C5 2425   1.777   1.970  13.835  0.4456  0.0866  0.0460
  159MPD2     H 2426   1.502   1.731  13.742  0.4902 -1.1681  1.0650
  159MPD2    H1 2427   1.770   2.024  13.628 -1.7408  1.5943 -0.5617
  159MPD2    H2 2428   1.739   1.931  14.041  1.2431 -0.6439 -0.3639
  159MPD2    H3 2429   1.856   2.044  13.849 -1.4232  1.9877  0.4992
  159MPD2     N 2430   1.569   1.868  13.549  0.2319  0.1757 -0.5888
  159MPD2    H5 2431   1.508   1.787  13.544 -1.4561  1.3816  0.4328
  159MPD2    N1 2432   1.569   1.731  14.013 -0.2990 -0.6631  0.1298
  159MPD2    H7 2433   1.584   1.769  14.106  2.3048  0.0826 -0.5764
  160TMC2    C1 2434   2.477   4.632   1.687 -0.2839  0.3204  1.0791
  160TMC2    C2 2435   2.573   4.559   1.756 -0.3336  0.5335 -0.5839
  160TMC2    C3 2436   2.576   4.425   1.739  0.3229  0.5267  0.0818
  160TMC2    C4 2437   2.383   4.573   1.605  0.0513  0.5509  0.0983
  160TMC2    C5 2438   2.406   4.434   1.586  0.1345  1.0642 -0.1635
  160TMC2    C6 2439   2.494   4.357   1.654  0.2150  0.0110 -0.2070
  160TMC2     C 2440   2.478   0.059   1.707 -0.9284  0.0733 -0.0771
  160TMC2     O 2441   2.524   0.105   1.811  0.3611  0.3405  0.1473
  160TMC2     H 2442   2.655   4.614   1.802 -1.4345  1.6228  0.0615
  160TMC2    H1 2443   2.303   4.624   1.553 -0.9173 -1.8974 -0.7887
  160TMC2    H2 2444   2.493   4.249   1.643 -1.4571 -0.0724  0.7843
  160TMC2    C7 2445   2.337   4.371   1.471  0.8705 -0.0879 -0.1230
  160TMC2    C8 2446   2.703   4.356   1.745 -0.1981 -0.4902 -0.4029
  160TMC2    O1 2447   2.319   4.252   1.470 -0.4618 -0.3464 -0.0861
  160TMC2    O2 2448   2.740   4.266   1.666 -0.8930 -0.0591  0.4999
  160TMC2    O5 2449   2.748   4.365   1.871 -0.3626  0.1934 -0.0579
  160TMC2    H5 2450   2.693   4.430   1.921 -0.2204  0.8999 -0.8258
  161MPD2     C 2451   2.427   0.352   1.674 -0.6693 -0.1703 -0.1056
  161MPD2    C1 2452   2.386   0.258   1.587  0.0194  0.2491  0.6040
  161MPD2    C2 2453   2.300   0.288   1.482  0.1368 -0.0935 -0.4326
  161MPD2    C3 2454   2.243   0.409   1.467 -0.1560  0.4171 -0.4332
  161MPD2    C4 2455   2.291   0.511   1.550  0.2105 -0.1239 -0.0843
  161MPD2    C5 2456   2.381   0.480   1.650  0.1317  0.2736 -0.3100
  161MPD2     H 2457   2.278   0.206   1.415 -0.0031 -0.3437 -0.0741
  161MPD2    H1 2458   2.259   0.614   1.536  1.7325  0.5792  1.6210
  161MPD2    H2 2459   2.493   0.331   1.757  1.6888 -2.2434 -2.4938
  161MPD2    H3 2460   2.415   0.558   1.718 -0.3068 -0.1429  0.3896
  161MPD2     N 2461   2.150   0.432   1.367 -0.6031  0.3449 -0.1742
  161MPD2    H5 2462   2.100   0.520   1.380 -0.9005  0.2138 -0.4017
  161MPD2    N1 2463   2.421   0.121   1.599 -0.4663  0.1285 -0.1092
  161MPD2    H7 2464   2.386   0.061   1.524 -1.3632  0.8556 -0.2729
  162TMC2    C1 2465   0.124   2.167   1.333 -0.0283 -0.7460 -1.1224
  162TMC2    C2 2466   0.087   2.281   1.261 -0.5391  0.4157  0.8144
  162TMC2    C3 2467   0.028   2.379   1.336  0.7336 -0.4359  0.1234
  162TMC2    C4 2468   0.092   2.151   1.465  0.1227  0.1299  0.6322
  162TMC2    C5 2469   0.052   2.262   1.534  0.1678  0.4824  0.1530
  162TMC2    C6 2470   0.016   2.375   1.477  0.8304 -0.5491 -0.0168
  162TMC2     C 2471   0.179   2.057   1.263 -1.2649 -0.1611 -0.6043
  162TMC2     O 2472   0.181   2.062   1.142  0.0894  0.8366 -0.1740
  162TMC2     H 2473   0.109   2.299   1.156 -0.4556 -1.0026  0.5915
  162TMC2    H1 2474   0.109   2.060   1.522  0.3660 -1.4893 -2.0411
  162TMC2    H2 2475   4.699   2.454   1.542 -0.7368  0.0865 -1.6275
  162TMC2    C7 2476   4.716   2.249   1.667 -0.0601  0.3181  0.0035
  162TMC2    C8 2477   4.713   2.505   1.268  0.5239  0.5070 -0.2615
  162TMC2    O1 2478   4.711   2.352   1.735  0.2830 -0.4876 -0.7348
  162TMC2    O2 2479   0.045   2.528   1.158  0.4926 -0.8123  0.0271
  162TMC2    O5 2480   4.625   2.579   1.341 -0.3908 -0.1814  0.2498
  162TMC2    H5 2481   4.572   2.534   1.411  0.2571 -0.8096  0.3339
  163MPD2     C 2482   0.575   1.737   1.191 -0.2707 -0.2654 -0.4662
  163MPD2    C1 2483   0.453   1.752   1.121 -0.1298 -0.8107 -0.3793
  163MPD2    C2 2484   0.352   1.833   1.174 -0.0668  0.2588 -0.4842
  163MPD2    C3 2485   0.374   1.907   1.285 -0.3091  0.2780 -0.8020
  163MPD2    C4 2486   0.496   1.890   1.356 -0.1867 -0.4004  0.3646
  163MPD2    C5 2487   0.594   1.803   1.309  0.3724 -0.1211  0.7981
  163MPD2     H 2488   0.260   1.841   1.116 -0.1823 -0.5678 -0.4076
  163MPD2    H1 2489   0.513   1.955   1.441  0.3328 -0.3802  0.2393
  163MPD2    H2 2490   0.662   1.679   1.162  0.2811 -0.2134  1.0903
  163MPD2    H3 2491   0.687   1.798   1.363  1.9959  1.0443 -1.8565
  163MPD2     N 2492   0.283   2.002   1.338  0.8850 -0.2400  0.0155
  163MPD2    H5 2493   0.299   2.039   1.431 -0.6502  1.8718 -0.5538
  163MPD2    N1 2494   0.445   1.673   1.001  0.3734 -0.4390  0.0186
  163MPD2    H7 2495   0.524   1.612   0.985  1.8385  1.8707 -1.4731
  164TCq2    C1 2496   4.702   0.558  11.028  0.6799 -0.1300 -0.3452
  164TCq2    O2 2497   4.667   0.539  11.144  0.2165  0.0679 -0.1071
  164TCq2    C2 2498   4.654   0.678  10.960 -0.3181  0.1539  0.7807
  164TCq2    C3 2499   4.660   0.683  10.821  0.4038 -0.9095  0.2401
  164TCq2    C4 2500   4.600   0.797  10.759 -0.1404  0.1251  0.2795
  164TCq2    C5 2501   4.527   0.894  10.824  0.1087  0.3398  0.5389
  164TCq2    C6 2502   4.521   0.873  10.959  0.1978 -0.2868 -0.0195
  164TCq2    C7 2503   4.589   0.776  11.025 -0.3119  0.8135 -0.0120
  164TCq2    C8 2504   4.473   0.985  11.035 -0.0824 -0.4678 -0.2893
  164TCq2    O4 2505   4.400   1.069  10.986  0.1294 -0.3744 -0.1373
  164TCq2    C9 2506   4.616   0.803  10.616 -0.2934  0.1467  0.3050
  164TCq2    O5 2507   4.709   0.731  10.564  0.5116  0.1908  0.2945
  164TCq2    O6 2508   4.549   0.884  10.546 -0.6191  0.0037  0.6612
  164TCq2    H2 2509   4.700   0.608  10.754 -1.0552 -1.4840  0.0118
  164TCq2    H3 2510   4.477   0.978  10.778 -1.7327 -0.0307  1.8862
  164TCq2    H4 2511   4.569   0.748  11.128  0.4172 -2.1413 -0.6643
  165MPD2     C 2512   1.596   2.984   2.456 -0.0208  0.2969  0.2835
  165MPD2    C1 2513   1.563   2.989   2.328 -0.5523  0.9396 -0.0772
  165MPD2    C2 2514   1.516   3.109   2.285 -0.8861  0.1793  0.4057
  165MPD2    C3 2515   1.500   3.217   2.366 -0.1996 -0.3767  0.6940
  165MPD2    C4 2516   1.541   3.211   2.497  0.5665  0.6245  0.8603
  165MPD2    C5 2517   1.584   3.091   2.539 -0.8234 -0.7348  0.3327
  165MPD2     H 2518   1.472   3.113   2.185  3.6380 -0.3812 -1.5989
  165MPD2    H1 2519   1.541   3.288   2.572  2.5226  0.9625  0.4952
  165MPD2    H2 2520   1.626   2.887   2.492 -1.1043 -0.1689 -0.0565
  165MPD2    H3 2521   1.620   3.073   2.640 -0.8772  0.4088  0.5590
  165MPD2     N 2522   1.436   3.339   2.325 -0.2152 -0.0266  0.7089
  165MPD2    H5 2523   1.428   3.416   2.391 -1.1450 -1.0212  1.7782
  165MPD2    N1 2524   1.596   2.881   2.241  0.1597 -0.2754 -0.8432
  165MPD2    H7 2525   1.650   2.808   2.287  0.5075 -1.4584 -3.1132
  166TCq2    C1 2526   1.385   3.365   2.201 -0.5087  0.0661 -0.1366
  166TCq2    O2 2527   1.382   3.289   2.105 -0.2438  0.7268  0.4109
  166TCq2    C2 2528   1.295   3.481   2.194  0.2871 -0.0117  0.5992
  166TCq2    C3 2529   1.258   3.547   2.310  0.0890  0.1828  0.3426
  166TCq2    C4 2530   1.227   3.680   2.302 -0.1223 -0.5096 -0.3687
  166TCq2    C5 2531   1.216   3.745   2.185  0.0846  0.0939 -0.5316
  166TCq2    C6 2532   1.237   3.669   2.071 -0.4514 -0.0362  1.0035
  166TCq2    C7 2533   1.286   3.541   2.073  0.3012  0.2346 -1.2583
  166TCq2    C8 2534   1.243   3.741   1.942 -0.1199 -0.1364 -0.9770
  166TCq2    O4 2535   1.287   3.669   1.852 -0.2742 -0.2444 -0.5012
  166TCq2    C9 2536   1.187   3.741   2.426 -0.7346 -0.5709  0.1516
  166TCq2    O5 2537   1.217   3.685   2.531 -0.0337  0.0804  0.4360
  166TCq2    O6 2538   1.154   3.860   2.414  0.1836 -0.0257  0.2527
  166TCq2    H2 2539   1.276   3.499   2.406 -1.0773 -0.4540  0.2451
  166TCq2    H3 2540   1.168   3.842   2.182  1.5184  0.7658 -1.3965
  166TCq2    H4 2541   1.313   3.493   1.979  1.3133  2.4325 -2.0842
  167TMC2    C1 2542   4.339   1.002  12.842 -0.2556  0.0633 -0.4571
  167TMC2    C2 2543   4.243   1.038  12.933  0.7317  0.0893 -0.4026
  167TMC2    C3 2544   4.171   0.941  12.990 -0.4632  0.6051 -0.0509
  167TMC2    C4 2545   4.379   0.872  12.827 -0.3679  0.2282  0.1994
  167TMC2    C5 2546   4.305   0.776  12.894  0.3790 -0.3157 -0.6962
  167TMC2    C6 2547   4.209   0.811  12.981 -0.2998  0.4756 -0.3130
  167TMC2     C 2548   4.372   1.099  12.738  0.3901 -0.4878 -0.5017
  167TMC2     O 2549   4.354   1.217  12.762  0.5779 -0.2351  0.2014
  167TMC2     H 2550   4.225   1.143  12.955  1.2508  0.2568 -0.7656
  167TMC2    H1 2551   4.471   0.844  12.777 -1.5909  2.1593 -3.1238
  167TMC2    H2 2552   4.146   0.736  13.027 -0.1552  0.2260 -0.5262
  167TMC2    C7 2553   4.343   0.640  12.895 -0.4910 -0.6318 -0.8415
  167TMC2    C8 2554   4.072   0.987  13.086  0.0772 -0.1043 -0.0515
  167TMC2    O1 2555   4.317   0.585  13.000  0.6404 -0.1186  0.1009
  167TMC2    O2 2556   4.025   1.101  13.079  0.5199 -0.1334 -0.0213
  167TMC2    O5 2557   4.072   0.914  13.197 -0.1226 -0.1550  0.0936
  167TMC2    H5 2558   4.116   0.827  13.198 -1.6027 -0.8428  3.1542
  168MPD2     C 2559   4.442   1.255  12.486 -0.2532  0.4125  0.0710
  168MPD2    C1 2560   4.444   1.118  12.500 -0.0554  0.2349  0.3070
  168MPD2    C2 2561   4.467   1.042  12.385 -0.3299  0.4035 -0.5080
  168MPD2    C3 2562   4.492   1.119  12.268  0.1342 -0.1392 -0.8520
  168MPD2    C4 2563   4.504   1.259  12.259  0.2632  0.1550 -0.4723
  168MPD2    C5 2564   4.474   1.323  12.376 -0.6540  0.0634 -0.6088
  168MPD2     H 2565   4.466   0.933  12.381 -2.4591  0.4986 -2.2649
  168MPD2    H1 2566   4.531   1.321  12.175  3.1621 -0.7274 -0.1887
  168MPD2    H2 2567   4.433   1.321  12.572  1.5324 -1.4310  1.6633
  168MPD2    H3 2568   4.483   1.431  12.376  1.9366 -0.1494  0.0524
  168MPD2     N 2569   4.513   1.052  12.146  0.3074  0.0519  0.3332
  168MPD2    H5 2570   4.507   1.107  12.061  2.2271 -3.2617 -1.9338
  168MPD2    N1 2571   4.414   1.046  12.617  0.0129  0.1909  0.6243
  168MPD2    H7 2572   4.426   0.946  12.609 -2.2866 -0.0136 -0.2859
  169MPD1     C 2573   1.479   0.084   9.496  0.3036 -0.3439 -0.7288
  169MPD1    C1 2574   1.459   0.002   9.387  0.6072 -0.4176 -0.0721
  169MPD1    C2 2575   1.560   4.706   9.294 -0.5480 -0.0539  0.8689
  169MPD1    C3 2576   1.665   0.080   9.294  1.0783  0.4403 -0.6046
  169MPD1    C4 2577   1.675   0.169   9.397 -0.4216  0.0611 -0.1853
  169MPD1    C5 2578   1.582   0.168   9.496  0.5171  0.2013 -0.1997
  169MPD1     H 2579   1.541   4.635   9.214  2.5046 -1.1045  1.0931
  169MPD1    H1 2580   1.752   0.245   9.407 -1.8725  1.2248  2.3108
  169MPD1    H2 2581   1.408   0.091   9.577 -0.2736 -1.1533 -1.1702
  169MPD1    H3 2582   1.600   0.236   9.579 -3.2654 -0.9010  1.5027
  169MPD1     N 2583   1.759   0.079   9.195  0.2243  0.3030  0.4999
  169MPD1    H5 2584   1.744   4.714   9.138  0.2900  0.8898 -0.3775
  169MPD1    N1 2585   1.367   4.622   9.402  0.1839 -0.1344 -0.6105
  169MPD1    H6 2586   1.337   4.590   9.310 -1.8070  2.6826 -0.9562
  169MPD1    H7 2587   1.290   4.642   9.466 -0.6532 -0.5644 -1.4921
  170MPD1     C 2588   0.255   3.487  12.757 -0.0061 -0.0605  0.2280
  170MPD1    C1 2589   0.307   3.614  12.744  0.5417  0.7053  0.4332
  170MPD1    C2 2590   0.354   3.684  12.859 -0.0091 -1.0335  0.1248
  170MPD1    C3 2591   0.333   3.621  12.983  0.1917 -0.0594  0.0398
  170MPD1    C4 2592   0.257   3.501  12.989  0.2433 -0.2295 -0.3463
  170MPD1    C5 2593   0.228   3.434  12.876 -0.0960  0.2600 -0.5120
  170MPD1     H 2594   0.388   3.787  12.854 -2.4450 -0.1869  1.2050
  170MPD1    H1 2595   0.232   3.451  13.082  0.1919 -0.3918 -0.4465
  170MPD1    H2 2596   0.233   3.428  12.668 -0.9197  1.3270 -0.4745
  170MPD1    H3 2597   0.178   3.338  12.877  0.1102  0.1607  1.1180
  170MPD1     N 2598   0.380   3.691  13.098  0.4292 -0.0778  0.1284
  170MPD1    H5 2599   0.418   3.782  13.076  1.6985 -0.5239  0.4198
  170MPD1    N1 2600   0.288   3.682  12.625  0.3223  0.4087 -0.7329
  170MPD1    H6 2601   0.285   3.618  12.546 -0.2957  1.6124 -1.6939
  170MPD1    H7 2602   0.362   3.750  12.615  1.8292 -0.7397  2.4751
  171MPD1     C 2603   3.700   3.812  15.239 -0.1764 -0.2299 -1.0428
  171MPD1    C1 2604   3.664   3.939  15.263  0.8906  0.3268  0.2921
  171MPD1    C2 2605   3.740   4.008  15.359 -0.4213 -0.0981  0.4083
  171MPD1    C3 2606   3.856   3.961  15.405  0.2132 -0.4069 -0.0658
  171MPD1    C4 2607   3.898   3.834  15.363 -0.6412 -0.6929  0.1787
  171MPD1    C5 2608   3.823   3.762  15.282  0.7433  0.5439  0.0085
  171MPD1     H 2609   3.704   4.106  15.387 -0.5579  0.7747 -2.8632
  171MPD1    H1 2610   3.990   3.782  15.388 -1.0264 -0.8849  1.2076
  171MPD1    H2 2611   3.642   3.754  15.168 -3.2457  1.0395  0.4607
  171MPD1    H3 2612   3.847   3.660  15.253 -2.0412  0.2594 -1.3432
  171MPD1     N 2613   3.943   4.030  15.498  0.0845 -0.5427 -0.8710
  171MPD1    H5 2614   4.038   3.996  15.508  0.4085 -0.2519 -2.9081
  171MPD1    N1 2615   3.537   3.995  15.223 -0.2798 -0.5955 -0.1585
  171MPD1    H6 2616   3.496   3.952  15.140 -1.3065  0.0600  0.0073
  171MPD1    H7 2617   3.533   4.097  15.219  1.0005 -0.5649 -0.6003
  172MPD1     C 2618   2.963   3.295   0.553 -0.4461 -0.2505 -0.1912
  172MPD1    C1 2619   2.895   3.389   0.626  0.2906 -0.3730  0.7696
  172MPD1    C2 2620   2.963   3.506   0.647  0.2473 -0.0841 -0.1797
  172MPD1    C3 2621   3.094   3.528   0.602  0.0371  0.8375 -0.1071
  172MPD1    C4 2622   3.161   3.433   0.520 -0.6566 -0.5481  0.3140
  172MPD1    C5 2623   3.086   3.317   0.498  0.7273  0.1511  0.0245
  172MPD1     H 2624   2.915   3.589   0.697  0.0881  0.0789 -0.6060
  172MPD1    H1 2625   3.254   3.452   0.467 -1.8793  1.7849 -0.9898
  172MPD1    H2 2626   2.905   3.208   0.524 -1.4578 -0.0147  1.0579
  172MPD1    H3 2627   3.118   3.240   0.428  1.8360  1.4449 -0.8832
  172MPD1     N 2628   3.158   3.642   0.626 -0.3723 -0.1008  0.0611
  172MPD1    H5 2629   3.253   3.629   0.593 -0.1129  1.4936  0.1648
  172MPD1    N1 2630   2.776   3.366   0.697  0.0706  0.5814 -0.1236
  172MPD1    H6 2631   2.719   3.447   0.721  0.9623  1.3238 -0.4810
  172MPD1    H7 2632   2.716   3.294   0.659  0.1487  1.4047 -1.7755
  173MPD1     C 2633   4.638   3.437  13.149 -0.1004 -0.0574  0.0371
  173MPD1    C1 2634   4.522   3.356  13.125 -0.5822 -0.3514  0.3687
  173MPD1    C2 2635   4.463   3.292  13.235  0.2170  0.0591  0.4932
  173MPD1    C3 2636   4.502   3.337  13.360  0.5595 -0.0636 -0.0126
  173MPD1    C4 2637   4.610   3.424  13.382  0.8158  0.3617  0.1917
  173MPD1    C5 2638   4.675   3.480  13.274  0.1094  0.5179  0.2232
  173MPD1     H 2639   4.390   3.212  13.222 -1.9085  1.9081  0.9705
  173MPD1    H1 2640   4.642   3.467  13.477  2.8984  3.3062 -1.8151
  173MPD1    H2 2641   4.687   3.486  13.066  1.6667 -0.7482  0.6771
  173MPD1    H3 2642   0.039   3.550  13.290  0.0614  0.2027  1.7792
  173MPD1     N 2643   4.443   3.277  13.477 -0.1001 -0.7507  0.1220
  173MPD1    H5 2644   4.376   3.202  13.462 -0.4243 -0.0196 -2.0111
  173MPD1    N1 2645   4.490   3.312  12.998 -0.6304  0.4760 -1.0223
  173MPD1    H6 2646   4.503   3.384  12.926 -3.8445  0.7822 -1.3183
  173MPD1    H7 2647   4.396   3.273  12.988 -0.8297  1.2517 -2.2398
  174MPD1     C 2648   0.211   2.636  13.843  0.1820 -0.3545  0.1484
  174MPD1    C1 2649   0.121   2.633  13.739  0.4942 -0.3485  0.0429
  174MPD1    C2 2650   0.013   2.716  13.753 -0.4119  0.1232  0.0441
  174MPD1    C3 2651   4.700   2.785  13.868 -0.4668  0.4315  0.2875
  174MPD1    C4 2652   0.072   2.786  13.974 -0.2498  0.4537 -0.4103
  174MPD1    C5 2653   0.189   2.712  13.957  0.4714  0.0897 -0.2925
  174MPD1     H 2654   4.663   2.734  13.670  0.0055 -1.0344 -0.5553
  174MPD1    H1 2655   0.048   2.838  14.066 -0.5090 -0.5586  0.0876
  174MPD1    H2 2656   0.304   2.581  13.839 -0.0104 -0.5104 -2.1729
  174MPD1    H3 2657   0.260   2.717  14.038  0.0402  1.1296  0.0223
  174MPD1     N 2658   4.591   2.874  13.881 -0.0403 -0.2395  0.0095
  174MPD1    H5 2659   4.591   2.926  13.969 -2.0799  0.1902 -0.2605
  174MPD1    N1 2660   0.158   2.568  13.618 -0.3992  0.4850 -0.5538
  174MPD1    H6 2661   0.077   2.536  13.566 -0.9492  0.0294  0.5859
  174MPD1    H7 2662   0.223   2.491  13.634  0.3453  1.1674 -0.2919
  175MPD1     C 2663   2.461   4.413  15.829  0.8756 -0.5632 -0.0759
  175MPD1    C1 2664   2.577   4.355  15.866 -0.2352  0.3899  0.4758
  175MPD1    C2 2665   2.583   4.319  16.000  0.2453 -0.5612 -0.0120
  175MPD1    C3 2666   2.479   4.320  16.089  0.8973  0.1249  0.7974
  175MPD1    C4 2667   2.364   4.386  16.045  0.4666 -0.3647  0.1675
  175MPD1    C5 2668   2.357   4.432  15.915 -0.2684  0.8766  0.3245
  175MPD1     H 2669   2.679   4.280  16.035  0.6667 -0.4336 -1.0312
  175MPD1    H1 2670   2.277   4.403  16.109  1.9003  1.5151  1.6214
  175MPD1    H2 2671   2.447   4.437  15.724  0.2489 -0.3779  0.0466
  175MPD1    H3 2672   2.268   4.490  15.895 -0.7518 -0.5552 -1.6701
  175MPD1     N 2673   2.480   4.284  16.225  0.7451 -0.0379  1.1307
  175MPD1    H5 2674   2.395   4.308  16.275 -0.4839 -1.4728 -0.3174
  175MPD1    N1 2675   2.683   4.347  15.777  1.3400  1.1454  0.0751
  175MPD1    H6 2676   2.650   4.345  15.681  1.6506  2.9490 -0.0751
  175MPD1    H7 2677   2.728   4.260  15.803  0.9454  0.5779 -1.1620
  176MPD1     C 2678   4.538   1.179  16.578  0.4655 -0.0484  0.4744
  176MPD1    C1 2679   4.606   1.140  16.691 -0.1450  1.0621  0.0879
  176MPD1    C2 2680   4.587   1.227  16.796  0.3195  0.6672  0.2956
  176MPD1    C3 2681   4.484   1.322  16.804  0.2149  0.6384  0.1081
  176MPD1    C4 2682   4.401   1.336  16.694  0.0684  0.6146  0.6495
  176MPD1    C5 2683   4.440   1.271  16.581  0.4114  0.4885 -0.7236
  176MPD1     H 2684   4.653   1.219  16.881  1.2961  0.4720 -0.4867
  176MPD1    H1 2685   4.323   1.412  16.690 -1.0318 -0.5594 -0.4051
  176MPD1    H2 2686   4.554   1.128  16.484  2.3989  0.8691  0.2934
  176MPD1    H3 2687   4.386   1.284  16.487  1.1198  0.5746 -1.1189
  176MPD1     N 2688   4.477   1.405  16.920  0.0597 -0.1377 -1.1075
  176MPD1    H5 2689   4.537   1.377  16.997 -1.6719  3.2855  1.5017
  176MPD1    N1 2690   4.704   1.041  16.683  0.0581 -0.4055  0.3000
  176MPD1    H6 2691   4.683   0.973  16.611 -2.5124  0.7333 -0.0427
  176MPD1    H7 2692   0.016   0.994  16.769 -1.4942  0.1122  1.1244
  177MPD1     C 2693   2.740   0.619  10.611  0.3752 -0.3168 -0.1408
  177MPD1    C1 2694   2.816   0.608  10.492  0.0746  0.5324 -0.4146
  177MPD1    C2 2695   2.751   0.649  10.379  1.1449  0.2495 -0.4392
  177MPD1    C3 2696   2.623   0.708  10.375 -0.0364 -0.0348 -0.1922
  177MPD1    C4 2697   2.549   0.727  10.491  0.0033  0.0145  0.2579
  177MPD1    C5 2698   2.617   0.689  10.608 -0.1683 -0.0373 -1.1668
  177MPD1     H 2699   2.802   0.647  10.283  1.0080  0.4813 -0.5166
  177MPD1    H1 2700   2.452   0.775  10.496 -0.9423 -1.8243 -0.2831
  177MPD1    H2 2701   2.778   0.584  10.706  2.0857  1.2305 -0.2551
  177MPD1    H3 2702   2.561   0.698  10.700  3.0146 -0.2860  0.7897
  177MPD1     N 2703   2.581   0.761  10.254  0.4294  0.0967 -0.3283
  177MPD1    H5 2704   2.646   0.765  10.176  0.1796  0.7069 -0.5122
  177MPD1    N1 2705   2.930   0.529  10.497  0.2435  0.0288  0.1306
  177MPD1    H6 2706   2.978   0.527  10.587 -0.0270 -1.0925  0.2430
  177MPD1    H7 2707   2.995   0.559  10.425  1.8405 -1.3885  0.9891
  178MPD1     C 2708   0.009   3.021  17.662  0.2156 -0.1747 -0.0881
  178MPD1    C1 2709   4.681   3.033  17.537 -0.1575  0.2547 -0.2101
  178MPD1    C2 2710   0.019   2.942  17.442  0.4395 -0.8067 -0.4376
  178MPD1    C3 2711   0.120   2.849  17.479  0.1146 -0.3390 -0.4856
  178MPD1    C4 2712   0.173   2.862  17.600  0.4701  0.5738  0.1973
  178MPD1    C5 2713   0.120   2.946   0.024 -0.2739 -0.4554  0.2366
  178MPD1     H 2714   4.700   2.944  17.340  1.2041  0.6802 -0.6880
  178MPD1    H1 2715   0.261   2.806  17.628 -1.0700 -1.9417 -0.0150
  178MPD1    H2 2716   4.681   3.080   0.067 -1.1185 -0.1476 -0.8709
  178MPD1    H3 2717   0.162   2.936   0.124 -0.6378  0.2834  0.4658
  178MPD1     N 2718   0.163   2.751  17.390 -0.1232  0.3064  0.2053
  178MPD1    H5 2719   0.238   2.688  17.414 -0.6010  0.7184  2.7445
  178MPD1    N1 2720   4.581   3.129  17.495 -0.0028  0.1846 -0.3179
  178MPD1    H6 2721   4.555   3.191  17.572 -0.2831  0.1275 -0.3644
  178MPD1    H7 2722   4.619   3.197  17.430  2.2800  0.0090  0.8476
  179MPD1     C 2723   0.458   0.348  15.420  0.4341  0.3068  0.4068
  179MPD1    C1 2724   0.337   0.284  15.404 -0.1466 -0.4630  0.2227
  179MPD1    C2 2725   0.227   0.330  15.474 -0.0740  0.2960 -0.2454
  179MPD1    C3 2726   0.236   0.440  15.554 -0.6780  0.5471 -0.3464
  179MPD1    C4 2727   0.361   0.502  15.577 -0.3110  0.3801 -0.3415
  179MPD1    C5 2728   0.471   0.448  15.507  0.4174 -0.3509  0.0597
  179MPD1     H 2729   0.130   0.289  15.448  1.3048 -1.4620 -2.6427
  179MPD1    H1 2730   0.378   0.579  15.651 -0.1058 -0.3894  0.4167
  179MPD1    H2 2731   0.541   0.299  15.371  1.1631  0.3509  1.6101
  179MPD1    H3 2732   0.574   0.482  15.509  0.9508 -1.9735  0.5473
  179MPD1     N 2733   0.130   0.486  15.626 -0.2224  0.4340 -0.2615
  179MPD1    H5 2734   0.144   0.555  15.700  2.0297 -0.5668  0.2280
  179MPD1    N1 2735   0.330   0.175  15.311  0.1492  0.2768  0.3487
  179MPD1    H6 2736   0.235   0.142  15.297  0.3547  0.6179 -1.9141
  179MPD1    H7 2737   0.372   0.194  15.220 -1.4419 -0.2507 -0.5104
  180MPD1     C 2738   3.787   2.332  14.614  0.0645  0.2404 -0.3850
  180MPD1    C1 2739   3.918   2.371  14.628  0.8345  0.1750 -0.0571
  180MPD1    C2 2740   4.004   2.358  14.520 -0.0303 -1.3277 -0.5603
  180MPD1    C3 2741   3.953   2.326  14.391  0.1364 -0.8207 -0.6048
  180MPD1    C4 2742   3.817   2.295  14.380 -0.3134 -0.5726 -0.1766
  180MPD1    C5 2743   3.737   2.296  14.492  0.9598 -0.3327  0.1883
  180MPD1     H 2744   4.109   2.385  14.522 -0.0253 -1.3380 -0.7055
  180MPD1    H1 2745   3.777   2.244  14.293  0.2615  1.0271 -1.3801
  180MPD1    H2 2746   3.732   2.324  14.707  2.6457 -0.8132  1.0668
  180MPD1    H3 2747   3.632   2.272  14.480  0.5302  1.8669 -0.2908
  180MPD1     N 2748   4.040   2.307  14.285 -0.2689  0.0351 -0.3808
  180MPD1    H5 2749   4.139   2.308  14.305 -0.0697 -1.2335 -1.3016
  180MPD1    N1 2750   3.962   2.414  14.754 -0.6815 -1.2067  0.2091
  180MPD1    H6 2751   4.010   2.332  14.788  0.7904 -1.0667 -1.5341
  180MPD1    H7 2752   3.885   2.425  14.820 -1.8997 -1.9987 -1.0809
  181MPD1     C 2753   2.542   3.970   9.044 -0.8052  0.4020  0.1909
  181MPD1    C1 2754   2.410   3.980   9.086  0.2497 -0.4089  0.2235
  181MPD1    C2 2755   2.347   3.877   9.152  0.2585 -0.1828 -0.0992
  181MPD1    C3 2756   2.409   3.750   9.152 -0.4425  0.7475 -0.0088
  181MPD1    C4 2757   2.537   3.740   9.092  0.2887  0.0740  0.2848
  181MPD1    C5 2758   2.601   3.849   9.038  0.2570 -0.0187  0.0899
  181MPD1     H 2759   2.245   3.890   9.187  0.7636  1.3223  0.7596
  181MPD1    H1 2760   2.590   3.646   9.080 -3.2496 -1.3776 -3.8787
  181MPD1    H2 2761   2.595   4.046   8.988  1.5304  0.8309  3.0335
  181MPD1    H3 2762   2.697   3.839   8.988  0.5489 -0.8383  0.8189
  181MPD1     N 2763   2.349   3.637   9.209 -0.1578 -0.6638 -0.0583
  181MPD1    H5 2764   2.408   3.557   9.189  1.1960  0.7373 -1.7248
  181MPD1    N1 2765   2.346   4.104   9.068 -0.4964 -0.5606 -0.7568
  181MPD1    H6 2766   2.247   4.086   9.058 -0.8337  0.7741  0.1992
  181MPD1    H7 2767   2.372   4.142   8.977 -0.3254  0.0684 -0.4462
  182MPD1     C 2768   2.448   2.770   0.055  0.2421 -0.1719  0.2215
  182MPD1    C1 2769   2.497   2.810   0.177  0.0171  0.2791  0.3014
  182MPD1    C2 2770   2.417   2.840   0.285 -0.1929  0.4175  0.0337
  182MPD1    C3 2771   2.283   2.818   0.276 -0.1334  0.2399 -0.2722
  182MPD1    C4 2772   2.233   2.772   0.156  0.0308  0.0642 -0.5496
  182MPD1    C5 2773   2.312   2.755   0.047  0.1443 -0.1430 -0.0088
  182MPD1     H 2774   2.460   2.891   0.371 -0.2136  0.0728  0.2517
  182MPD1    H1 2775   2.128   2.756   0.138  0.3777 -2.1706 -0.6116
  182MPD1    H2 2776   2.516   2.757  17.645 -1.3785 -3.4087 -0.5803
  182MPD1    H3 2777   2.259   2.722  17.632  1.5492  0.6756 -1.1442
  182MPD1     N 2778   2.188   2.858   0.369 -0.4135  1.0245 -0.7963
  182MPD1    H5 2779   2.096   2.859   0.324 -1.1107  0.7425  0.6123
  182MPD1    N1 2780   2.633   2.847   0.191 -0.1746  0.2494 -0.4562
  182MPD1    H6 2781   2.697   2.827   0.114  3.5351  2.5845  2.0108
  182MPD1    H7 2782   2.673   2.828   0.283  0.4143 -0.8519 -0.9327
  183MPD1     C 2783   3.880   3.852   9.614  0.7194  0.4609  0.5586
  183MPD1    C1 2784   3.771   3.798   9.553  0.1722 -0.5446  0.0297
  183MPD1    C2 2785   3.748   3.669   9.579 -0.6908  0.3782  0.6928
  183MPD1    C3 2786   3.821   3.600   9.671  0.0148  0.2345 -0.2805
  183MPD1    C4 2787   3.925   3.654   9.740  0.0708 -0.3427  0.3461
  183MPD1    C5 2788   3.960   3.776   9.700  0.5931  0.0853  0.1144
  183MPD1     H 2789   3.660   3.619   9.539 -0.3973  0.0951  0.4007
  183MPD1    H1 2790   3.991   3.601   9.808  1.3929  0.9456  0.0726
  183MPD1    H2 2791   3.913   3.952   9.587  0.3986  0.3532 -0.2306
  183MPD1    H3 2792   4.040   3.822   9.757  0.3417  0.8929 -0.1809
  183MPD1     N 2793   3.780   3.467   9.695  0.1941  0.1877 -0.3166
  183MPD1    H5 2794   3.697   3.434   9.647 -0.4325 -2.0126  2.2360
  183MPD1    N1 2795   3.705   3.867   9.452  0.0028 -0.0160 -0.0933
  183MPD1    H6 2796   3.612   3.832   9.429 -0.5286  1.1158  0.3140
  183MPD1    H7 2797   3.706   3.969   9.461 -0.7709 -0.0851  0.8253
  184MPD1     C 2798   1.097   1.099  10.333 -0.2260 -0.2056  0.2050
  184MPD1    C1 2799   1.216   1.157  10.376 -0.4533  0.3470 -0.1613
  184MPD1    C2 2800   1.321   1.120  10.300  0.1544 -0.6118 -0.6817
  184MPD1    C3 2801   1.313   1.048  10.183  0.3249  0.6080 -0.7311
  184MPD1    C4 2802   1.191   0.996  10.142  0.0528 -0.1874  0.0677
  184MPD1    C5 2803   1.083   1.020  10.220  0.1373 -0.0116 -0.3953
  184MPD1     H 2804   1.422   1.148  10.325  0.1180 -0.7174 -0.4100
  184MPD1    H1 2805   1.185   0.930  10.057  0.9481 -3.0018  2.1817
  184MPD1    H2 2806   1.012   1.113  10.399  0.3293 -1.0097  1.0838
  184MPD1    H3 2807   0.989   0.969  10.201 -0.8658  1.9022 -0.5757
  184MPD1     N 2808   1.411   1.026  10.090 -0.7525 -0.1503 -0.1327
  184MPD1    H5 2809   1.389   0.949  10.028  3.8644  0.2335 -2.2275
  184MPD1    N1 2810   1.225   1.204  10.512 -0.3596 -0.2019 -0.2327
  184MPD1    H6 2811   1.304   1.268  10.522 -2.7680  2.9484 -1.3886
  184MPD1    H7 2812   1.138   1.255  10.522 -0.9223 -0.5727 -3.1794
  185MPD1     C 2813   1.117   0.814   9.396 -0.2802 -0.0889 -0.9372
  185MPD1    C1 2814   1.202   0.919   9.365 -0.0045  0.3039  0.0837
  185MPD1    C2 2815   1.306   0.939   9.452 -0.1645  0.4777  0.0881
  185MPD1    C3 2816   1.336   0.862   9.560 -0.1340 -0.2910  0.4491
  185MPD1    C4 2817   1.246   0.760   9.584  0.0275 -0.0822 -0.3266
  185MPD1    C5 2818   1.138   0.745   9.506 -0.1651  0.7347 -0.7235
  185MPD1     H 2819   1.365   1.028   9.435 -0.2161  0.0230 -2.4995
  185MPD1    H1 2820   1.259   0.702   9.675 -0.1875  2.5149  1.3591
  185MPD1    H2 2821   1.020   0.798   9.350  0.2766 -1.2594 -1.7220
  185MPD1    H3 2822   1.071   0.668   9.544  2.2391  0.0471  2.1014
  185MPD1     N 2823   1.442   0.884   9.649 -0.0141  1.0697 -0.0316
  185MPD1    H5 2824   1.441   0.830   9.735 -1.9337  2.3166  0.7200
  185MPD1    N1 2825   1.201   0.978   9.238  0.3285 -0.2389 -0.6793
  185MPD1    H6 2826   1.258   1.062   9.236  2.5936 -1.7998 -1.3402
  185MPD1    H7 2827   1.106   0.986   9.203 -0.1811 -0.5627  0.6262
  186MPD1     C 2828   0.797   0.616  15.757  0.5070 -0.0562 -0.5248
  186MPD1    C1 2829   0.726   0.545  15.855 -0.5062 -0.4877 -0.5986
  186MPD1    C2 2830   0.647   0.623  15.942  0.0436  0.0959  0.1867
  186MPD1    C3 2831   0.647   0.761  15.935 -0.4050  0.6835  0.6847
  186MPD1    C4 2832   0.718   0.825  15.837 -0.5422  0.2804  0.6483
  186MPD1    C5 2833   0.785   0.753  15.743 -0.2065 -0.3272 -0.4925
  186MPD1     H 2834   0.596   0.583  16.029 -1.1058 -0.7427 -0.8724
  186MPD1    H1 2835   0.718   0.933  15.840  0.1886  0.2749  0.9185
  186MPD1    H2 2836   0.852   0.567  15.677  0.4118  1.9404 -1.8222
  186MPD1    H3 2837   0.838   0.798  15.660 -0.7227 -0.1256 -0.7098
  186MPD1     N 2838   0.575   0.843  16.026  0.5826 -0.8566  0.1240
  186MPD1    H5 2839   0.583   0.943  16.010  3.3517 -1.0862  0.0432
  186MPD1    N1 2840   0.737   0.405  15.871  0.4511 -0.6945 -0.0522
  186MPD1    H6 2841   0.731   0.352  15.785 -0.7921  0.1657 -0.4866
  186MPD1    H7 2842   0.676   0.363  15.941  0.7861 -1.3975 -0.1813
  187MPD1     C 2843   4.578   3.075   0.467  0.2750  1.5937  0.7973
  187MPD1    C1 2844   4.510   2.967   0.409 -0.2061  0.7024  0.1489
  187MPD1    C2 2845   4.447   2.988   0.286 -0.8055  0.5614 -0.2182
  187MPD1    C3 2846   4.446   3.113   0.224  0.4540 -0.2087  0.2907
  187MPD1    C4 2847   4.530   3.211   0.278  0.7178 -0.2113  0.0792
  187MPD1    C5 2848   4.584   3.197   0.399 -0.4808 -0.2959  0.5616
  187MPD1     H 2849   4.385   2.905   0.255 -1.3719  0.7186  0.4832
  187MPD1    H1 2850   4.537   3.312   0.239  0.0582  0.1448  0.8737
  187MPD1    H2 2851   4.627   3.072   0.563  1.7133 -2.0701 -0.0791
  187MPD1    H3 2852   4.629   3.289   0.434  1.5336 -0.9744 -0.2355
  187MPD1     N 2853   4.376   3.149   0.107  0.5120 -0.1300 -0.5303
  187MPD1    H5 2854   4.385   3.247   0.082 -0.3393  0.1688  0.2957
  187MPD1    N1 2855   4.526   2.835   0.477 -0.6466 -0.1656 -0.8814
  187MPD1    H6 2856   4.449   2.770   0.461  0.7805 -2.0336 -0.0587
  187MPD1    H7 2857   4.548   2.849   0.575 -0.4408 -1.0245 -0.8058
  188MPD1     C 2858   3.816   2.559   9.870  0.6787 -0.4584  0.5779
  188MPD1    C1 2859   3.698   2.501   9.816 -0.1504 -0.2892  0.0779
  188MPD1    C2 2860   3.683   2.362   9.842 -0.0871  0.4784  0.6918
  188MPD1    C3 2861   3.765   2.299   9.931 -0.4035 -0.1525  0.3469
  188MPD1    C4 2862   3.868   2.367   9.995  0.3728  0.2128 -0.5851
  188MPD1    C5 2863   3.893   2.495   9.960 -0.4939  0.3070  0.4171
  188MPD1     H 2864   3.596   2.316   9.796  0.8724  1.1227 -1.7938
  188MPD1    H1 2865   3.945   2.320  10.056 -1.0008 -0.5727  0.5534
  188MPD1    H2 2866   3.828   2.665   9.850 -2.4382 -0.2693 -0.3378
  188MPD1    H3 2867   3.969   2.555  10.009  0.5360 -0.0977 -0.6742
  188MPD1     N 2868   3.759   2.163   9.973  0.5601 -0.1479  0.4575
  188MPD1    H5 2869   3.827   2.124  10.037  1.1526 -0.8997 -0.6236
  188MPD1    N1 2870   3.617   2.563   9.724  0.2809  0.5793 -0.8062
  188MPD1    H6 2871   3.520   2.534   9.714 -0.0372  1.6342 -0.7713
  188MPD1    H7 2872   3.626   2.665   9.725  1.5225  0.4679  0.5718
  189MPD1     C 2873   1.927   3.333   0.166 -0.0699  0.8119 -0.1407
  189MPD1    C1 2874   1.842   3.280   0.261  0.1026  0.2756  0.4111
  189MPD1    C2 2875   1.706   3.305   0.255 -0.2013  0.1014  0.3018
  189MPD1    C3 2876   1.665   3.394   0.162  0.6128 -0.3197  0.6897
  189MPD1    C4 2877   1.744   3.444   0.068  0.5247 -0.1191 -0.2506
  189MPD1    C5 2878   1.876   3.423   0.076 -0.4255  0.1241  0.0132
  189MPD1     H 2879   1.637   3.266   0.329 -1.2125 -2.6243 -2.0899
  189MPD1    H1 2880   1.704   3.504  17.661 -1.7107 -0.7696  0.3858
  189MPD1    H2 2881   2.035   3.326   0.166 -0.1540 -0.6308 -2.4477
  189MPD1    H3 2882   1.941   3.475   0.006  1.6484 -1.3330  0.8550
  189MPD1     N 2883   1.529   3.431   0.170 -0.4113  0.3890 -0.2761
  189MPD1    H5 2884   1.480   3.388   0.247  1.2203  0.6026  0.8726
  189MPD1    N1 2885   1.886   3.189   0.356  0.4606  0.1071  0.3225
  189MPD1    H6 2886   1.817   3.190   0.431  0.8667  0.6690  0.6918
  189MPD1    H7 2887   1.976   3.222   0.390  1.1966  0.7928 -2.3391
  190MPD1     C 2888   0.172   2.778  15.212  0.0749  0.2429  0.0603
  190MPD1    C1 2889   0.227   2.671  15.145 -0.5409  0.2311 -0.1333
  190MPD1    C2 2890   0.229   2.542  15.201  0.1385 -0.1603  0.1388
  190MPD1    C3 2891   0.199   2.512  15.333 -0.7431  0.0558 -0.8957
  190MPD1    C4 2892   0.150   2.623  15.401  0.1491 -0.0912  0.4814
  190MPD1    C5 2893   0.134   2.749  15.341  0.2863  0.1843 -0.4396
  190MPD1     H 2894   0.267   2.460  15.141  0.2522  0.4633 -0.6408
  190MPD1    H1 2895   0.129   2.611  15.506  4.4849 -0.9344  1.2609
  190MPD1    H2 2896   0.164   2.883  15.185  2.3348  0.3054 -0.3612
  190MPD1    H3 2897   0.077   2.818  15.402 -0.4611  1.6423 -2.7764
  190MPD1     N 2898   0.242   2.390  15.395  0.5494  0.0576  0.0461
  190MPD1    H5 2899   0.291   2.314  15.349  1.2101 -0.3011  1.3508
  190MPD1    N1 2900   0.267   2.690  15.013 -0.3162 -0.2399 -0.6829
  190MPD1    H6 2901   0.280   2.788  14.989  0.2725 -0.1510  0.0029
  190MPD1    H7 2902   0.359   2.647  15.000  0.9357  2.0276  0.7239
  191MPD1     C 2903   4.270   2.986  11.743  0.1953 -0.4323  0.4002
  191MPD1    C1 2904   4.226   3.101  11.688  1.0722 -0.2776 -0.3951
  191MPD1    C2 2905   4.174   3.200  11.768 -0.1287 -0.7335 -0.1307
  191MPD1    C3 2906   4.163   3.187  11.905 -0.2438 -0.1932  0.6492
  191MPD1    C4 2907   4.218   3.075  11.958  0.1245 -1.1870 -0.1376
  191MPD1    C5 2908   4.258   2.970  11.880 -0.6682  0.1014  0.0319
  191MPD1     H 2909   4.139   3.291  11.719 -0.2780 -0.2825  0.8248
  191MPD1    H1 2910   4.218   3.060  12.066 -1.1645  3.1734  0.4621
  191MPD1    H2 2911   4.319   2.924  11.669  1.0730 -3.0334  3.1956
  191MPD1    H3 2912   4.293   2.872  11.911 -0.4514 -0.1729 -1.0528
  191MPD1     N 2913   4.128   3.301  11.976 -0.7551  0.8750  0.5150
  191MPD1    H5 2914   4.107   3.384  11.921  0.1816  0.6260 -0.2207
  191MPD1    N1 2915   4.218   3.108  11.549  0.8831  0.3600  0.3507
  191MPD1    H6 2916   4.289   3.054  11.500 -0.1211 -0.1003 -0.5924
  191MPD1    H7 2917   4.225   3.207  11.525  2.5518  0.5329  1.5392
  192MPD1     C 2918   3.715   3.582  12.897 -0.3148  0.1646 -0.3557
  192MPD1    C1 2919   3.740   3.695  12.817 -0.1589  0.3124  0.2368
  192MPD1    C2 2920   3.812   3.685  12.700 -0.2751 -0.5809  0.1649
  192MPD1    C3 2921   3.853   3.564  12.654  0.0425 -0.3762 -0.0885
  192MPD1    C4 2922   3.831   3.456  12.729  0.2705  0.0214  0.2574
  192MPD1    C5 2923   3.765   3.463  12.845  0.3667 -0.7921 -0.0691
  192MPD1     H 2924   3.821   3.780  12.649 -2.4973 -0.4745 -0.0573
  192MPD1    H1 2925   3.880   3.360  12.717  0.8724  0.1878  1.3426
  192MPD1    H2 2926   3.667   3.586  12.993 -1.5730 -1.8230 -0.9094
  192MPD1    H3 2927   3.745   3.368  12.893 -1.5614  0.2549  1.2073
  192MPD1     N 2928   3.942   3.547  12.544  0.2119  0.1510  0.5262
  192MPD1    H5 2929   3.965   3.453  12.514 -2.1256 -1.1484  2.8360
  192MPD1    N1 2930   3.706   3.826  12.864 -0.0530 -0.1700 -0.1189
  192MPD1    H6 2931   3.624   3.832  12.925 -0.7697  1.1827 -1.2035
  192MPD1    H7 2932   3.699   3.900  12.794 -0.8785  0.0505  0.1868
  193MPD1     C 2933   4.080   4.091  17.531 -0.3814 -0.1567 -0.6272
  193MPD1    C1 2934   4.183   4.058  17.441  0.3719  0.0821 -0.4133
  193MPD1    C2 2935   4.254   4.159  17.379 -0.5333 -0.1297  0.0528
  193MPD1    C3 2936   4.224   4.291  17.411 -0.1813 -0.6081  0.1846
  193MPD1    C4 2937   4.126   4.321  17.493  0.3678  0.6344  0.4478
  193MPD1    C5 2938   4.060   4.222  17.556 -0.0760 -0.1425  1.0651
  193MPD1     H 2939   4.342   4.132  17.323 -0.8407 -0.0523 -0.4608
  193MPD1    H1 2940   4.100   4.421  17.526 -0.8772  0.4386  0.0508
  193MPD1    H2 2941   4.034   4.005  17.578 -1.0058  0.9950  0.8556
  193MPD1    H3 2942   3.989   4.254  17.631 -0.3641 -2.7896  1.9300
  193MPD1     N 2943   4.293   4.402  17.352  0.0602  0.2784 -0.0219
  193MPD1    H5 2944   4.281   4.494  17.394  0.8962 -0.0223  0.8586
  193MPD1    N1 2945   4.225   3.925  17.424 -0.6054  0.3349 -0.2912
  193MPD1    H6 2946   4.258   3.919  17.328  1.0381  1.9031  0.1862
  193MPD1    H7 2947   4.150   3.857  17.438  0.5091 -0.8853 -0.2194
  194MPD1     C 2948   1.619   1.895  16.978 -0.3474  0.5537  1.0209
  194MPD1    C1 2949   1.661   1.905  17.111  0.3727 -0.0339 -0.4813
  194MPD1    C2 2950   1.791   1.866  17.147 -0.0914  0.3242  0.0457
  194MPD1    C3 2951   1.873   1.801  17.055 -0.3529 -0.2864  0.6459
  194MPD1    C4 2952   1.828   1.785  16.926 -0.2076 -0.4440 -0.1066
  194MPD1    C5 2953   1.702   1.831  16.886 -0.7558 -0.0142 -0.5315
  194MPD1     H 2954   1.825   1.867  17.249 -1.0209  0.0847  0.3570
  194MPD1    H1 2955   1.875   1.731  16.845 -1.8870 -1.0181 -0.6936
  194MPD1    H2 2956   1.525   1.931  16.939 -0.7411  3.5977  4.8298
  194MPD1    H3 2957   1.682   1.835  16.780  0.6371 -2.3174 -0.9010
  194MPD1     N 2958   1.989   1.724  17.086 -0.1888 -0.5327  0.1399
  194MPD1    H5 2959   2.012   1.659  17.011  1.5872 -0.2982  0.4760
  194MPD1    N1 2960   1.586   1.979  17.207  0.5306  0.5875  0.1395
  194MPD1    H6 2961   1.623   2.074  17.200  1.3615  0.2840  0.5260
  194MPD1    H7 2962   1.487   1.987  17.182  0.3995  2.1911  1.1413
  195MPD1     C 2963   0.038   1.686   1.401 -0.0921  0.1589 -0.1739
  195MPD1    C1 2964   0.116   1.619   1.305 -0.5040  0.2704 -0.6381
  195MPD1    C2 2965   0.056   1.599   1.182  0.5024  0.0629 -0.2451
  195MPD1    C3 2966   4.650   1.660   1.153  0.7600 -0.2813  0.5773
  195MPD1    C4 2967   4.579   1.727   1.250  0.2771  0.3687  0.3628
  195MPD1    C5 2968   4.634   1.746   1.371  0.1814 -0.0509 -0.5404
  195MPD1     H 2969   0.099   1.534   1.106  1.5291 -2.3379  2.3736
  195MPD1    H1 2970   4.479   1.766   1.235 -0.4185 -0.3529  3.0965
  195MPD1    H2 2971   0.073   1.695   1.503 -1.5565  0.0905  0.3439
  195MPD1    H3 2972   4.569   1.784   1.450  0.7811  0.1088 -0.1209
  195MPD1     N 2973   4.591   1.641   1.029  0.2892 -0.5869  0.3048
  195MPD1    H5 2974   4.506   1.693   1.009  0.5469 -0.1269  0.4270
  195MPD1    N1 2975   0.221   1.537   1.350 -0.1683 -0.6298  0.0650
  195MPD1    H6 2976   0.288   1.528   1.274  0.6269 -0.1468  0.6964
  195MPD1    H7 2977   0.270   1.568   1.434 -0.5841  3.3391 -1.1501
  196MPD1     C 2978   2.567   2.011   0.309  0.1566  0.4052  0.0756
  196MPD1    C1 2979   2.667   2.097   0.322 -0.0237  0.4792  0.8778
  196MPD1    C2 2980   2.675   2.168   0.436 -0.2111  0.4130 -0.1880
  196MPD1    C3 2981   2.583   2.169   0.534  0.2993  0.4012 -0.6276
  196MPD1    C4 2982   2.473   2.087   0.516  0.6534  0.3851  0.5217
  196MPD1    C5 2983   2.473   2.009   0.404 -0.7049  0.2111  0.0575
  196MPD1     H 2984   2.763   2.231   0.440  0.1476  0.0180 -1.5992
  196MPD1    H1 2985   2.391   2.070   0.585  0.5675  0.6327  0.4817
  196MPD1    H2 2986   2.560   1.936   0.231  1.3743  0.6588 -0.2772
  196MPD1    H3 2987   2.408   1.923   0.397 -1.2889  0.6662 -0.1361
  196MPD1     N 2988   2.591   2.241   0.653  0.5014  0.0491  0.8574
  196MPD1    H5 2989   2.527   2.231   0.731  0.1466  0.6705  0.6380
  196MPD1    N1 2990   2.776   2.099   0.237 -0.0897  0.0526  0.0691
  196MPD1    H6 2991   2.818   2.191   0.231 -1.5398  0.7390  0.5204
  196MPD1    H7 2992   2.751   2.071   0.142  0.2622  0.5536 -0.1658
  197MPD1     C 2993   2.961   4.505   0.230 -0.1765 -0.3440 -0.1028
  197MPD1    C1 2994   3.044   4.610   0.245 -0.7313 -0.0748 -0.6668
  197MPD1    C2 2995   3.055   4.708   0.149  0.1077 -0.4472 -0.0877
  197MPD1    C3 2996   3.001   4.681   0.026  0.3143 -0.6569  0.2479
  197MPD1    C4 2997   2.926   4.568   0.010  0.3325 -0.5749 -0.0570
  197MPD1    C5 2998   2.895   4.488   0.114 -0.7675 -0.0454  0.3991
  197MPD1     H 2999   3.105   0.085   0.167 -4.0897  1.3711  1.8655
  197MPD1    H1 3000   2.902   4.549  17.580  1.5972 -0.4825 -0.3635
  197MPD1    H2 3001   2.945   4.442   0.317 -0.7939  0.6050  0.4593
  197MPD1    H3 3002   2.823   4.408   0.104  0.4418 -1.1448  0.4081
  197MPD1     N 3003   3.027   0.032  17.578 -0.2199 -0.0738 -0.1816
  197MPD1    H5 3004   3.022   4.697  17.490  0.8150  1.0021 -0.8812
  197MPD1    N1 3005   3.117   4.636   0.370  0.0149 -0.4349  0.0817
  197MPD1    H6 3006   3.161   4.548   0.398 -2.6315 -1.9247 -0.5272
  197MPD1    H7 3007   3.205   4.683   0.351  0.3971 -0.5936  1.4552
  198MPD1     C 3008   4.070   3.459  15.469 -0.4860 -0.4776 -0.5210
  198MPD1    C1 3009   4.193   3.454  15.415 -1.3214 -0.9203 -0.0389
  198MPD1    C2 3010   4.295   3.520  15.470 -0.6810  0.1359  0.2080
  198MPD1    C3 3011   4.283   3.571  15.598 -0.4923 -0.3946  0.7279
  198MPD1    C4 3012   4.158   3.560  15.667 -0.0451 -0.2003  0.5397
  198MPD1    C5 3013   4.056   3.515  15.598  0.0699  0.4114 -0.3291
  198MPD1     H 3014   4.388   3.518  15.414  0.0140  0.6377  1.3520
  198MPD1    H1 3015   4.150   3.580  15.773  0.5780 -2.5611  1.0217
  198MPD1    H2 3016   3.981   3.428  15.415 -0.9346 -1.3230  0.6847
  198MPD1    H3 3017   3.952   3.535  15.621  0.4679  1.4004  0.6377
  198MPD1     N 3018   4.391   3.629  15.660  0.1989 -0.8708 -0.4908
  198MPD1    H5 3019   4.478   3.622  15.608  0.5809  2.9754 -0.3970
  198MPD1    N1 3020   4.206   3.397  15.291  1.1926 -0.4342  0.1470
  198MPD1    H6 3021   4.134   3.325  15.284  0.5735  0.1350  0.7212
  198MPD1    H7 3022   4.297   3.354  15.279  1.0964 -0.7910  0.6982
  199MPD1     C 3023   1.382   4.299  10.019 -0.2093 -0.2568 -0.2079
  199MPD1    C1 3024   1.339   4.179   9.968  0.2266 -0.3445 -0.6537
  199MPD1    C2 3025   1.427   4.091   9.902 -0.2039 -0.0240 -0.1455
  199MPD1    C3 3026   1.559   4.123   9.882 -0.1983  0.7523  0.0709
  199MPD1    C4 3027   1.602   4.251   9.931  0.0788  0.2865  0.3653
  199MPD1    C5 3028   1.513   4.332   9.996  0.0357  0.7536 -0.8727
  199MPD1     H 3029   1.385   3.997   9.867  1.7572  0.7428 -4.5800
  199MPD1    H1 3030   1.700   4.296   9.917  0.8700 -0.9078  2.1486
  199MPD1    H2 3031   1.309   4.372  10.053 -0.9992 -1.3663  0.4916
  199MPD1    H3 3032   1.548   4.432  10.018 -0.5113  0.7137  0.2136
  199MPD1     N 3033   1.652   4.051   9.810 -0.7037  0.2738 -0.4113
  199MPD1    H5 3034   1.744   4.095   9.806 -0.8554  0.5672 -0.6860
  199MPD1    N1 3035   1.210   4.133  10.002 -0.8598  0.1793 -0.2215
  199MPD1    H6 3036   1.172   4.066   9.935 -3.1772 -0.1845  1.4415
  199MPD1    H7 3037   1.151   4.215  10.014 -1.3370 -0.3268  0.8525
  200MPD1     C 3038   0.968   4.267  14.738 -0.2804  0.3868 -0.1163
  200MPD1    C1 3039   0.852   4.194  14.711  0.1418 -0.2495  0.6468
  200MPD1    C2 3040   0.774   4.244  14.611  0.7401  0.3592 -0.4042
  200MPD1    C3 3041   0.822   4.337  14.520 -0.1449 -0.4016  0.1280
  200MPD1    C4 3042   0.946   4.391  14.536  0.5067 -0.5040 -0.4448
  200MPD1    C5 3043   1.015   4.360  14.647  0.5539  0.3416  0.4158
  200MPD1     H 3044   0.674   4.202  14.605  1.0410 -1.0264  4.2784
  200MPD1    H1 3045   0.988   4.469  14.474 -0.6007 -0.7062 -1.4542
  200MPD1    H2 3046   1.030   4.241  14.823  0.2502  0.0704 -0.6019
  200MPD1    H3 3047   1.098   4.427  14.665  1.3019 -1.2714  3.0950
  200MPD1     N 3048   0.733   4.374  14.417  0.4307 -0.1822 -0.7194
  200MPD1    H5 3049   0.636   4.343  14.420  0.0857  1.0361  0.7189
  200MPD1    N1 3050   0.803   4.096  14.798  0.6724 -0.4367 -0.2955
  200MPD1    H6 3051   0.764   4.022  14.739  0.7029 -0.8548  0.2136
  200MPD1    H7 3052   0.874   4.060  14.861 -1.1877  0.1070  2.0962
  201MPD1     C 3053   2.768   3.790  13.114 -0.1742 -0.3035 -0.0244
  201MPD1    C1 3054   2.867   3.749  13.200  0.5163 -0.9520  0.2475
  201MPD1    C2 3055   2.933   3.633  13.172  0.0803  0.6559 -0.0259
  201MPD1    C3 3056   2.934   3.580  13.048  0.1401 -0.3517 -0.0820
  201MPD1    C4 3057   2.866   3.650  12.947 -1.0413 -0.0056 -0.4510
  201MPD1    C5 3058   2.777   3.744  12.984 -0.5357 -0.2525 -0.9841
  201MPD1     H 3059   2.978   3.578  13.254  1.3544  0.5029 -0.8311
  201MPD1    H1 3060   2.867   3.621  12.843  0.1684  0.2464 -0.5049
  201MPD1    H2 3061   2.692   3.866  13.131  2.5977  2.2209  1.0867
  201MPD1    H3 3062   2.712   3.779  12.905 -1.8502  4.9676  2.4453
  201MPD1     N 3063   2.991   3.453  13.040 -0.1698 -1.0446 -0.0998
  201MPD1    H5 3064   3.028   3.421  13.129 -2.4464 -1.6902  0.6068
  201MPD1    N1 3065   2.865   3.806  13.328  0.9241 -0.5789 -0.4191
  201MPD1    H6 3066   2.936   3.782  13.398  1.0007 -0.8994 -0.6048
  201MPD1    H7 3067   2.836   3.903  13.327 -0.5853 -1.0166  0.4669
  202MPD1     C 3068   2.966   2.094   9.300  0.2785  0.1372 -0.6073
  202MPD1    C1 3069   3.008   2.217   9.338  0.5593  0.0874  0.1208
  202MPD1    C2 3070   3.086   2.214   9.450 -0.0134 -0.5673  0.1657
  202MPD1    C3 3071   3.088   2.101   9.540 -0.3550  0.1604 -0.3294
  202MPD1    C4 3072   3.033   1.982   9.493 -0.4997 -0.1066 -0.6114
  202MPD1    C5 3073   2.970   1.982   9.372  0.8475  0.3481 -0.1915
  202MPD1     H 3074   3.126   2.309   9.484 -0.4034 -1.0026  1.8030
  202MPD1    H1 3075   3.028   1.885   9.541  0.2918 -0.9499 -2.2323
  202MPD1    H2 3076   2.923   2.085   9.201 -1.6297 -0.8137  0.3117
  202MPD1    H3 3077   2.930   1.887   9.339 -1.5364  1.6609 -0.9993
  202MPD1     N 3078   3.144   2.104   9.672 -0.2277 -0.4221  0.2935
  202MPD1    H5 3079   3.145   2.017   9.724  2.6270 -1.1719 -1.0112
  202MPD1    N1 3080   3.041   2.311   9.233 -0.1945 -0.5428 -0.1384
  202MPD1    H6 3081   2.975   2.308   9.156 -1.3980 -2.3822  0.9379
  202MPD1    H7 3082   3.041   2.407   9.266 -1.2156 -0.4338 -0.4459
  203MPD1     C 3083   1.895   4.335  12.606 -0.2804 -0.1650 -0.0345
  203MPD1    C1 3084   1.909   4.261  12.492  0.6023  0.0878  0.4987
  203MPD1    C2 3085   1.963   4.128  12.495  0.8142  0.1007 -0.2698
  203MPD1    C3 3086   2.003   4.077  12.618  0.1181  0.1334 -0.1347
  203MPD1    C4 3087   2.002   4.154  12.729 -0.0156 -0.0135  0.7434
  203MPD1    C5 3088   1.942   4.278  12.725  0.8076  0.0244 -0.8200
  203MPD1     H 3089   1.952   4.053  12.417 -2.8450  0.2811  0.1115
  203MPD1    H1 3090   2.042   4.113  12.821 -1.7428 -0.0959  1.4596
  203MPD1    H2 3091   1.847   4.432  12.619 -0.9590 -0.5672  0.4502
  203MPD1    H3 3092   1.929   4.330  12.819  0.4668  1.2698 -1.5626
  203MPD1     N 3093   2.052   3.945  12.609  0.1563 -0.1864  0.7547
  203MPD1    H5 3094   2.032   3.890  12.526 -2.3547  2.1905 -0.2354
  203MPD1    N1 3095   1.844   4.300  12.372  0.1538 -0.4854 -0.2150
  203MPD1    H6 3096   1.886   4.247  12.296  0.3527 -0.0248 -0.4255
  203MPD1    H7 3097   1.845   4.401  12.356  3.5464 -0.4851  0.0326
  204MPD1     C 3098   2.198   0.882   0.158 -0.5761 -1.0955 -0.5216
  204MPD1    C1 3099   2.236   0.756   0.124  0.0984  0.5890 -0.6367
  204MPD1    C2 3100   2.147   0.657   0.096 -0.0367 -0.3355  0.1784
  204MPD1    C3 3101   2.008   0.680   0.088  0.8746  0.7597  0.9763
  204MPD1    C4 3102   1.975   0.811   0.110 -0.5171 -0.1544  0.3555
  204MPD1    C5 3103   2.069   0.909   0.150 -0.1717 -0.8652 -0.3542
  204MPD1     H 3104   2.181   0.554   0.091  2.9670  0.5625  1.9978
  204MPD1    H1 3105   1.870   0.840   0.109 -0.6179 -0.5164  0.7525
  204MPD1    H2 3106   2.261   0.966   0.188 -0.9551 -1.3802  1.0606
  204MPD1    H3 3107   2.025   1.007   0.167  0.6863  0.0369 -3.4244
  204MPD1     N 3108   1.918   0.573   0.059  0.9216 -0.4250 -0.2446
  204MPD1    H5 3109   1.962   0.482   0.055  0.6591 -0.5996  0.8048
  204MPD1    N1 3110   2.364   0.719   0.157  0.0421  0.0042 -0.0810
  204MPD1    H6 3111   2.426   0.799   0.160 -1.3825  1.0706  0.5518
  204MPD1    H7 3112   2.398   0.644   0.096  1.3994  1.2379 -0.8630
  205MPD1     C 3113   1.378   4.493  16.611  0.1483 -0.4161 -0.0359
  205MPD1    C1 3114   1.434   4.407  16.701  0.0618  0.8188  0.0658
  205MPD1    C2 3115   1.368   4.383  16.820 -0.4163 -0.4221 -0.5247
  205MPD1    C3 3116   1.249   4.446  16.853  0.3366 -0.5690 -0.0201
  205MPD1    C4 3117   1.197   4.541  16.761  0.0343 -0.3316  0.1882
  205MPD1    C5 3118   1.265   4.567  16.641 -0.3109 -0.5285 -0.6699
  205MPD1     H 3119   1.409   4.308  16.886 -1.1380 -0.1013  0.2824
  205MPD1    H1 3120   1.108   4.600  16.781  1.1150  1.3211  0.1169
  205MPD1    H2 3121   1.416   4.506  16.511 -0.4008 -1.2984 -0.3602
  205MPD1    H3 3122   1.224   4.641  16.573  1.4968  0.7661 -0.3608
  205MPD1     N 3123   1.184   4.425  16.976  0.5574 -0.4049 -0.4039
  205MPD1    H5 3124   1.106   4.484  17.001 -0.6508 -1.9584 -0.5240
  205MPD1    N1 3125   1.544   4.330  16.672 -0.0050 -0.8789  0.0725
  205MPD1    H6 3126   1.593   4.365  16.590  1.7525  0.4293  1.6415
  205MPD1    H7 3127   1.599   4.351  16.755 -0.3128  0.6850 -0.1193
  206MPD1     C 3128   2.086   1.880  16.352  0.5488 -0.3026  0.3162
  206MPD1    C1 3129   1.996   1.788  16.391  0.8402  0.5119 -0.9276
  206MPD1    C2 3130   1.921   1.732  16.294  0.0304  0.9990 -0.1700
  206MPD1    C3 3131   1.915   1.769  16.164 -0.0473 -0.1081 -0.1578
  206MPD1    C4 3132   2.004   1.872  16.122  0.0221 -0.2156  0.5557
  206MPD1    C5 3133   2.078   1.929  16.220  0.1711 -0.1189 -0.3908
  206MPD1     H 3134   1.870   1.639  16.314  1.3159  0.4760  0.6749
  206MPD1    H1 3135   2.008   1.924  16.027  0.0306 -1.1732  0.0319
  206MPD1    H2 3136   2.159   1.935  16.410 -2.9200  1.5607  2.9083
  206MPD1    H3 3137   2.147   2.008  16.191  0.5485 -0.6561 -0.9504
  206MPD1     N 3138   1.826   1.710  16.077  0.3827 -0.5140  0.4945
  206MPD1    H5 3139   1.806   1.753  15.987  1.3755 -3.3076 -1.0523
  206MPD1    N1 3140   2.012   1.709  16.508 -1.1543 -0.4764  0.0200
  206MPD1    H6 3141   1.918   1.679  16.530 -1.8278  1.4672 -0.2293
  206MPD1    H7 3142   2.044   1.757  16.592  2.3207  1.5178 -2.3842
  207MPD1     C 3143   4.462   3.600   9.155  0.2231 -0.1585 -0.6320
  207MPD1    C1 3144   4.420   3.501   9.244 -0.4346 -0.4955 -0.1950
  207MPD1    C2 3145   4.475   3.513   9.369  0.0584 -0.1441 -0.0328
  207MPD1    C3 3146   4.570   3.605   9.405 -1.0434 -0.6558  0.3154
  207MPD1    C4 3147   4.608   3.700   9.316 -0.0606  0.1126 -0.0707
  207MPD1    C5 3148   4.548   3.698   9.195  0.0802 -0.2366 -0.6885
  207MPD1     H 3149   4.434   3.450   9.448 -0.1845 -0.7457 -0.6446
  207MPD1    H1 3150   4.670   3.786   9.338  0.7912 -0.6562  0.5753
  207MPD1    H2 3151   4.418   3.604   9.056 -1.8174  2.9266  0.3774
  207MPD1    H3 3152   4.575   3.776   9.126 -1.0896  1.5878  0.9275
  207MPD1     N 3153   4.634   3.616   9.531  0.2745 -0.3479 -0.0512
  207MPD1    H5 3154   4.697   3.695   9.532 -0.8033  0.4404  4.9771
  207MPD1    N1 3155   4.300   3.431   9.227 -0.2185 -0.4408 -0.0400
  207MPD1    H6 3156   4.294   3.391   9.133 -1.5346 -0.7786  0.1927
  207MPD1    H7 3157   4.294   3.348   9.285  2.5041 -1.6570 -1.4744
  208MPD1     C 3158   2.234   3.358  17.168 -0.4557  0.3656  0.2297
  208MPD1    C1 3159   2.205   3.229  17.201 -0.6613 -0.0828  0.3336
  208MPD1    C2 3160   2.081   3.204  17.251  0.3610  0.4398 -0.0852
  208MPD1    C3 3161   1.978   3.294  17.251 -0.0506  0.0442 -0.0394
  208MPD1    C4 3162   2.014   3.422  17.207 -0.5865  0.0659 -0.7648
  208MPD1    C5 3163   2.141   3.455  17.174 -0.3509 -0.0061  0.3484
  208MPD1     H 3164   2.065   3.107  17.297 -0.4003  1.1357  1.1291
  208MPD1    H1 3165   1.940   3.501  17.210 -1.2485 -0.5747 -0.3800
  208MPD1    H2 3166   2.333   3.384  17.133 -0.8594 -0.1693 -1.3164
  208MPD1    H3 3167   2.160   3.558  17.148 -2.7597 -0.2607 -2.3582
  208MPD1     N 3168   1.856   3.257  17.311  0.2481  0.6653 -0.0744
  208MPD1    H5 3169   1.857   3.169  17.362  0.5224  0.7308  0.0328
  208MPD1    N1 3170   2.309   3.132  17.217 -0.2131 -0.0339 -0.3384
  208MPD1    H6 3171   2.382   3.147  17.147  0.9349 -0.8750  0.6708
  208MPD1    H7 3172   2.285   3.034  17.209 -0.3408 -0.2036  2.0588
  209MPD1     C 3173   4.130   2.457  11.013  0.1787  0.2275  0.2629
  209MPD1    C1 3174   4.105   2.563  11.091  0.2505 -0.4543  0.3770
  209MPD1    C2 3175   4.171   2.675  11.056  0.5024  0.2514  0.0905
  209MPD1    C3 3176   4.225   2.694  10.932 -0.0924  0.0948  0.0082
  209MPD1    C4 3177   4.227   2.589  10.845 -0.6693  0.1826  0.0352
  209MPD1    C5 3178   4.188   2.466  10.887  0.1198  0.0801  0.0659
  209MPD1     H 3179   4.179   2.756  11.127 -0.8270 -0.6820  1.2956
  209MPD1    H1 3180   4.258   2.599  10.742 -0.8905  2.0670  0.1651
  209MPD1    H2 3181   4.096   2.360  11.046 -1.4110  1.2628  1.6826
  209MPD1    H3 3182   4.193   2.373  10.833  0.9858 -0.7278  1.5254
  209MPD1     N 3183   4.271   2.824  10.906 -0.8385  0.6312  0.4356
  209MPD1    H5 3184   4.265   2.894  10.979  0.0573 -0.3317  1.4344
  209MPD1    N1 3185   4.028   2.555  11.216  0.0013  0.2722  0.4742
  209MPD1    H6 3186   3.968   2.634  11.241 -1.7707 -0.9531  0.0962
  209MPD1    H7 3187   3.978   2.466  11.220  0.8333 -0.1193  2.1338
  210MPD1     C 3188   3.884   3.530  11.118  0.3326  0.2766 -0.2641
  210MPD1    C1 3189   3.924   3.527  10.988  0.0843  0.0026  0.4468
  210MPD1    C2 3190   4.035   3.444  10.953 -0.0925 -0.0976  0.3167
  210MPD1    C3 3191   4.105   3.375  11.049 -0.7715 -0.4761 -0.1700
  210MPD1    C4 3192   4.053   3.371  11.176 -0.9196  0.1121 -0.3148
  210MPD1    C5 3193   3.939   3.444  11.208 -0.8473  0.3418 -0.1559
  210MPD1     H 3194   4.046   3.430  10.846  2.1571  0.9047  0.4222
  210MPD1    H1 3195   4.089   3.310  11.258  0.7240  0.2702 -0.9329
  210MPD1    H2 3196   3.794   3.581  11.152  0.2346 -0.9642  1.3433
  210MPD1    H3 3197   3.908   3.431  11.311 -0.9645  0.7334 -0.1405
  210MPD1     N 3198   4.221   3.304  11.010 -0.0733 -0.0428  0.2781
  210MPD1    H5 3199   4.256   3.231  11.072 -1.4284 -0.4906  0.5193
  210MPD1    N1 3200   3.840   3.569  10.880  0.0350  0.0330 -0.1584
  210MPD1    H6 3201   3.898   3.579  10.797 -2.8423 -3.1816 -2.5448
  210MPD1    H7 3202   3.795   3.660  10.894 -0.5768 -0.6622  2.4375
  211MPD1     C 3203   2.361   2.985  16.316  0.1494 -0.0579  0.3615
  211MPD1    C1 3204   2.252   2.960  16.403 -0.2933 -0.1411  0.3012
  211MPD1    C2 3205   2.161   3.053  16.432 -0.0935 -0.2186  0.3963
  211MPD1    C3 3206   2.178   3.179  16.383  0.0223 -0.2753 -0.6936
  211MPD1    C4 3207   2.287   3.210  16.305 -0.1669  0.4564  0.4262
  211MPD1    C5 3208   2.382   3.115  16.281 -0.6541 -0.1639  0.1982
  211MPD1     H 3209   2.071   3.034  16.488 -1.5174 -0.4837 -1.9691
  211MPD1    H1 3210   2.304   3.306  16.258 -2.4380  0.6785  0.0539
  211MPD1    H2 3211   2.423   2.904  16.278  0.0264  0.4056 -0.8375
  211MPD1    H3 3212   2.462   3.142  16.212  1.5736 -2.1104  2.0337
  211MPD1     N 3213   2.074   3.267  16.406 -0.2134  0.0277 -0.3392
  211MPD1    H5 3214   1.983   3.225  16.426  0.8399 -0.8149  2.7571
  211MPD1    N1 3215   2.223   2.827  16.438 -0.4384 -0.5027 -0.3022
  211MPD1    H6 3216   2.309   2.774  16.442  1.0629  1.7048 -3.1347
  211MPD1    H7 3217   2.173   2.816  16.526 -0.3255 -1.2739 -0.3332
  212MPD1     C 3218   1.317   1.710  16.240 -0.3620 -0.5083  0.1097
  212MPD1    C1 3219   1.228   1.773  16.326  0.7167 -0.1917  0.0003
  212MPD1    C2 3220   1.194   1.708  16.445 -0.1639  0.4201 -0.6310
  212MPD1    C3 3221   1.247   1.585  16.482  0.6620 -0.2238  0.1250
  212MPD1    C4 3222   1.342   1.533  16.396 -0.5678 -0.3293 -0.0873
  212MPD1    C5 3223   1.375   1.596  16.278 -0.2574 -0.5170  0.2792
  212MPD1     H 3224   1.112   1.760  16.493 -0.1342  0.0438 -0.1816
  212MPD1    H1 3225   1.393   1.440  16.418  1.4725  1.2203  1.7225
  212MPD1    H2 3226   1.347   1.751  16.144 -0.2621 -0.6359  0.0860
  212MPD1    H3 3227   1.429   1.543  16.200  0.3736  0.2767  0.1793
  212MPD1     N 3228   1.211   1.514  16.601  0.0648  0.6050 -0.2135
  212MPD1    H5 3229   1.254   1.424  16.621 -0.4173  0.4985  0.3558
  212MPD1    N1 3230   1.162   1.880  16.273  0.1958  0.0125 -0.2014
  212MPD1    H6 3231   1.223   1.950  16.230  0.7342 -0.7751 -0.7230
  212MPD1    H7 3232   1.112   1.936  16.341  1.4462 -0.7448  1.3373
  213MPD1     C 3233   4.118   2.719  16.088 -0.5968 -0.5264  0.5866
  213MPD1    C1 3234   4.071   2.593  16.047 -0.3370 -0.4653  0.4024
  213MPD1    C2 3235   4.074   2.575  15.913  0.3751  0.4420 -0.2531
  213MPD1    C3 3236   4.076   2.684  15.824  0.5267 -0.0365 -0.1548
  213MPD1    C4 3237   4.106   2.816  15.870  0.5552  0.5886  0.3067
  213MPD1    C5 3238   4.139   2.830  16.004 -0.6254 -0.0355 -0.4603
  213MPD1     H 3239   4.074   2.475  15.872 -1.4177 -0.2689  1.4816
  213MPD1    H1 3240   4.112   2.906  15.811  3.1777  0.1555 -0.0875
  213MPD1    H2 3241   4.137   2.734  16.193  0.8951  0.5307  0.1778
  213MPD1    H3 3242   4.166   2.928  16.042  2.2197 -1.1971  0.5012
  213MPD1     N 3243   4.067   2.658  15.685  0.5977 -0.4616  0.1169
  213MPD1    H5 3244   4.062   2.560  15.661  0.2765 -0.1149 -1.2818
  213MPD1    N1 3245   4.083   2.483  16.134 -0.5258  0.6333 -0.2348
  213MPD1    H6 3246   4.042   2.396  16.101 -0.0323  0.3505 -0.1042
  213MPD1    H7 3247   4.037   2.506  16.222  1.3982  0.2128  0.8921
  214MPD1     C 3248   3.618   2.003  15.433 -0.5933  0.1363  0.2727
  214MPD1    C1 3249   3.609   2.086  15.328 -0.6257 -0.4155  0.1575
  214MPD1    C2 3250   3.696   2.193  15.328  0.3993  0.1597 -0.6140
  214MPD1    C3 3251   3.793   2.219  15.427 -0.1102 -0.4651 -0.4728
  214MPD1    C4 3252   3.790   2.134  15.531 -0.4992  0.2223  0.7259
  214MPD1    C5 3253   3.693   2.040  15.544 -0.1299 -0.0222 -1.1275
  214MPD1     H 3254   3.690   2.261  15.244 -2.5544  1.1507  0.3903
  214MPD1    H1 3255   3.859   2.150  15.614 -1.2050 -0.1959  1.3908
  214MPD1    H2 3256   3.547   1.921  15.443 -1.7378  1.0311 -0.5080
  214MPD1    H3 3257   3.675   1.983  15.635  0.7142  0.8684 -0.4111
  214MPD1     N 3258   3.887   2.330  15.416 -0.1113 -0.0742  0.2380
  214MPD1    H5 3259   3.942   2.353  15.498  0.4534  0.8142 -0.3840
  214MPD1    N1 3260   3.531   2.057  15.211 -0.2210  0.3553  0.1746
  214MPD1    H6 3261   3.442   2.013  15.231  0.1615 -0.4782  0.0828
  214MPD1    H7 3262   3.513   2.142  15.158 -0.1830 -0.7734 -1.6574
  215MPD1     C 3263   4.195   2.443  10.269  0.3061  0.2354  0.4114
  215MPD1    C1 3264   4.166   2.557  10.198 -0.1193  0.2149 -0.3603
  215MPD1    C2 3265   4.111   2.664  10.268  0.5667  0.9166 -0.6014
  215MPD1    C3 3266   4.075   2.648  10.404  0.3573  0.4425 -0.6402
  215MPD1    C4 3267   4.092   2.527  10.465 -0.1619 -0.3347  0.6451
  215MPD1    C5 3268   4.153   2.427  10.402  0.2196  0.4658  0.0377
  215MPD1     H 3269   4.107   2.765  10.228 -1.2681  1.8924  2.0195
  215MPD1    H1 3270   4.058   2.503  10.565  2.9495 -1.3104  1.4629
  215MPD1    H2 3271   4.246   2.364  10.214  0.8531  0.0763  1.1523
  215MPD1    H3 3272   4.177   2.333  10.449  3.0913  0.6430 -1.0835
  215MPD1     N 3273   4.021   2.761  10.466 -0.1005 -0.0281 -0.4665
  215MPD1    H5 3274   4.040   2.849  10.420  1.3926  0.5431  1.2713
  215MPD1    N1 3275   4.211   2.576  10.066  0.5259 -0.0911 -0.1781
  215MPD1    H6 3276   4.160   2.652  10.022  1.3529  1.2009  1.1055
  215MPD1    H7 3277   4.217   2.492  10.008  2.2935  2.0746 -3.1370
  216MPD1     C 3278   1.632   1.636  16.517 -0.1123  0.6272  0.3305
  216MPD1    C1 3279   1.654   1.498  16.519  0.9334 -0.1670  0.3043
  216MPD1    C2 3280   1.619   1.426  16.628  0.1089 -0.1074  0.1019
  216MPD1    C3 3281   1.534   1.481  16.726  0.9928  0.8170 -0.6938
  216MPD1    C4 3282   1.499   1.611  16.719 -0.1899 -0.2503 -0.0803
  216MPD1    C5 3283   1.549   1.685  16.614  0.1083 -0.0100  0.7027
  216MPD1     H 3284   1.647   1.322  16.643  0.8750  0.6587  4.1125
  216MPD1    H1 3285   1.438   1.662  16.793 -2.7792 -1.2924 -1.4703
  216MPD1    H2 3286   1.658   1.692  16.428  0.9507  0.8292  0.7664
  216MPD1    H3 3287   1.511   1.786  16.603  1.5899  0.8223  3.1102
  216MPD1     N 3288   1.498   1.390  16.826  0.1441 -0.1255  0.2981
  216MPD1    H5 3289   1.551   1.304  16.829  0.1755 -0.2013 -2.3491
  216MPD1    N1 3290   1.741   1.428  16.433  0.6465  0.4403  0.0616
  216MPD1    H6 3291   1.711   1.331  16.427  0.3206  0.6103 -0.9955
  216MPD1    H7 3292   1.750   1.469  16.340  2.8591 -0.4656 -0.1133
  217MPD1     C 3293   2.151   1.657   8.500 -0.1637 -0.4483 -0.3617
  217MPD1    C1 3294   2.018   1.638   8.536  0.6930  0.1049 -0.9134
  217MPD1    C2 3295   1.996   1.672   8.670  0.0858  0.0655 -0.1365
  217MPD1    C3 3296   2.087   1.744   8.750  0.2650  0.4847  0.4790
  217MPD1    C4 3297   2.213   1.761   8.697 -0.8718  0.1930  0.2452
  217MPD1    C5 3298   2.251   1.713   8.574  0.0630 -0.1541  0.0872
  217MPD1     H 3299   1.897   1.655   8.711  0.3225  3.7897  2.0075
  217MPD1    H1 3300   2.284   1.817   8.756 -0.2027  0.1740 -0.5437
  217MPD1    H2 3301   2.182   1.629   8.400  1.0576 -0.5243  0.0265
  217MPD1    H3 3302   2.353   1.723   8.539  0.0013  0.5697  0.1268
  217MPD1     N 3303   2.055   1.790   8.880  0.0291 -0.1207  0.1680
  217MPD1    H5 3304   2.133   1.823   8.935  0.1140 -0.3936  0.2110
  217MPD1    N1 3305   1.928   1.556   8.469 -0.1566  0.2411 -0.0677
  217MPD1    H6 3306   1.836   1.581   8.506 -1.2420 -0.4600 -2.2612
  217MPD1    H7 3307   1.920   1.581   8.370  0.0433  0.3637 -0.0527
  218MPD1     C 3308   3.382   4.342  13.407  0.0330 -0.2976  0.1000
  218MPD1    C1 3309   3.441   4.354  13.282  0.4900  0.4439  0.1471
  218MPD1    C2 3310   3.515   4.247  13.230 -0.1597 -0.1611  0.2912
  218MPD1    C3 3311   3.549   4.150  13.314 -0.2300 -0.5462 -0.0372
  218MPD1    C4 3312   3.481   4.138  13.438 -0.0169  0.1357 -0.2440
  218MPD1    C5 3313   3.405   4.236  13.482  0.5990  0.4328 -0.3822
  218MPD1     H 3314   3.555   4.258  13.130 -1.3931  2.7203  0.1221
  218MPD1    H1 3315   3.494   4.058  13.510 -0.8478  0.6766  0.5203
  218MPD1    H2 3316   3.336   4.429  13.452  1.6143  1.0054 -0.8046
  218MPD1    H3 3317   3.348   4.234  13.575  0.9718 -0.8249 -0.1853
  218MPD1     N 3318   3.646   4.054  13.264  0.4644 -0.1559  0.4297
  218MPD1    H5 3319   3.679   4.069  13.170  1.0088 -1.3748  0.4271
  218MPD1    N1 3320   3.410   4.464  13.201 -0.3109  0.2594  0.5794
  218MPD1    H6 3321   3.356   4.536  13.247 -2.5075 -0.6401 -0.5917
  218MPD1    H7 3322   3.487   4.503  13.147  0.5566  1.1835  2.4963
  219MPD1     C 3323   4.254   4.224  12.688  0.8206 -0.1795 -0.0379
  219MPD1    C1 3324   4.313   4.118  12.755 -0.7904 -0.4032  0.4528
  219MPD1    C2 3325   4.238   4.049  12.858  0.2677 -0.1392  0.4525
  219MPD1    C3 3326   4.108   4.085  12.874  0.1804  0.1129 -0.7407
  219MPD1    C4 3327   4.051   4.195  12.807  0.2546 -0.1025  0.1160
  219MPD1    C5 3328   4.124   4.256  12.709  0.6966 -0.2216  0.4818
  219MPD1     H 3329   4.286   3.966  12.908  1.4264  0.3476  0.1523
  219MPD1    H1 3330   3.945   4.215  12.816  0.3785  0.5524  0.0852
  219MPD1    H2 3331   4.317   4.286  12.624  0.0321 -0.9276 -1.5297
  219MPD1    H3 3332   4.085   4.347  12.666 -1.1197 -1.2522 -0.0613
  219MPD1     N 3333   4.026   4.017  12.975  0.5604  0.1968 -0.7548
  219MPD1    H5 3334   3.940   4.059  13.009  0.6092  0.2920 -0.7491
  219MPD1    N1 3335   4.457   4.098  12.742 -0.5920 -0.1059 -0.4539
  219MPD1    H6 3336   4.488   4.006  12.775  0.2484  0.7613  1.1606
  219MPD1    H7 3337   4.496   4.123  12.652  2.0698  0.1630  0.7607
  220MPD1     C 3338   3.368   3.722   9.177  0.0360  0.4107  0.7505
  220MPD1    C1 3339   3.261   3.782   9.244  0.7384  0.2037  0.1633
  220MPD1    C2 3340   3.231   3.766   9.373  0.5114 -0.1171 -0.2100
  220MPD1    C3 3341   3.316   3.680   9.440 -0.5027 -0.5339 -0.0775
  220MPD1    C4 3342   3.421   3.618   9.375  0.0192 -0.2374  0.2579
  220MPD1    C5 3343   3.453   3.642   9.243 -0.3184 -0.7947 -0.3375
  220MPD1     H 3344   3.146   3.821   9.412 -0.4946  0.1584 -2.7262
  220MPD1    H1 3345   3.478   3.539   9.422 -0.7590 -1.9783 -1.7376
  220MPD1    H2 3346   3.382   3.734   9.070 -0.2961  0.6525  0.7355
  220MPD1    H3 3347   3.530   3.586   9.191 -0.3235  0.2568 -1.4749
  220MPD1     N 3348   3.292   3.663   9.581 -1.2510  0.0968 -0.0977
  220MPD1    H5 3349   3.211   3.710   9.620  0.0524  3.8009 -1.8263
  220MPD1    N1 3350   3.175   3.855   9.157  0.1774  0.2376 -0.8884
  220MPD1    H6 3351   3.076   3.834   9.161  0.5602 -1.0681  1.3821
  220MPD1    H7 3352   3.212   3.853   9.062 -3.1209  2.1433 -2.2139
  221MPD1     C 3353   0.949   2.500  16.839  0.5121 -0.3974  0.1404
  221MPD1    C1 3354   0.971   2.591  16.740  0.4842 -0.5967 -0.3828
  221MPD1    C2 3355   1.094   2.591  16.670  0.2262 -0.8146 -0.1671
  221MPD1    C3 3356   1.190   2.502  16.715  0.1241  0.6351 -0.2918
  221MPD1    C4 3357   1.166   2.420  16.823 -0.1492  0.2306  0.6801
  221MPD1    C5 3358   1.046   2.417  16.890  0.5637 -0.9800  0.3715
  221MPD1     H 3359   1.109   2.667  16.595  0.0346  0.3920  1.0099
  221MPD1    H1 3360   1.242   2.347  16.849  0.8492  0.7328 -0.8638
  221MPD1    H2 3361   0.852   2.500  16.888  0.6042 -0.5695  0.3222
  221MPD1    H3 3362   1.015   2.340  16.959 -3.2016 -0.5472 -0.8023
  221MPD1     N 3363   1.323   2.498  16.666  0.2384  0.2228 -0.1653
  221MPD1    H5 3364   1.390   2.437  16.713  0.9591 -0.5353 -2.1944
  221MPD1    N1 3365   0.859   2.673  16.705 -0.3090 -0.5148 -0.5724
  221MPD1    H6 3366   0.816   2.721  16.784 -0.1921 -1.6890  0.1970
  221MPD1    H7 3367   0.886   2.747  16.641 -1.0256 -1.1534 -1.6061
  222MPD1     C 3368   1.132   0.651   0.716  0.5845 -0.5067 -0.4208
  222MPD1    C1 3369   1.136   0.735   0.598 -0.4248  0.2858  0.1049
  222MPD1    C2 3370   1.101   0.872   0.617 -0.0355 -0.2296  0.9040
  222MPD1    C3 3371   1.058   0.914   0.745 -0.4034 -0.5811 -0.2399
  222MPD1    C4 3372   1.049   0.828   0.846 -0.1131  0.4744  0.5073
  222MPD1    C5 3373   1.082   0.701   0.838  0.1851  0.3044 -0.0592
  222MPD1     H 3374   1.100   0.936   0.529 -1.1568 -1.0609  0.3018
  222MPD1    H1 3375   1.022   0.865   0.945  1.7486 -1.9370  1.9356
  222MPD1    H2 3376   1.154   0.545   0.706  0.5371 -0.7021  1.5388
  222MPD1    H3 3377   1.079   0.633   0.922  1.3844  1.7829  1.1518
  222MPD1     N 3378   1.009   1.044   0.773 -0.1491 -0.0557 -0.4505
  222MPD1    H5 3379   0.961   1.047   0.863  1.3645 -0.9074  0.3866
  222MPD1    N1 3380   1.179   0.677   0.482 -0.3467 -0.2571 -0.2328
  222MPD1    H6 3381   1.146   0.716   0.394 -0.8290 -2.2138 -0.9114
  222MPD1    H7 3382   1.184   0.575   0.486 -1.6294 -0.2319  1.8701
  223MPD1     C 3383   0.548   1.170   1.401  0.0362 -0.3036 -0.1437
  223MPD1    C1 3384   0.676   1.111   1.384 -0.0478 -0.2339  0.3238
  223MPD1    C2 3385   0.746   1.156   1.274  0.1627 -0.3607 -0.2668
  223MPD1    C3 3386   0.710   1.277   1.209  0.0648 -0.2667  0.1848
  223MPD1    C4 3387   0.603   1.349   1.259  0.0747  0.2978  0.4223
  223MPD1    C5 3388   0.522   1.293   1.354 -0.3862 -0.3606  0.4891
  223MPD1     H 3389   0.839   1.111   1.240  0.2228  0.0558 -0.6438
  223MPD1    H1 3390   0.574   1.442   1.210 -1.2359 -1.1089 -1.4960
  223MPD1    H2 3391   0.483   1.127   1.477 -1.7098  1.8617 -0.4210
  223MPD1    H3 3392   0.428   1.344   1.374 -0.8069 -1.0054  0.1622
  223MPD1     N 3393   0.770   1.300   1.089  0.0716 -0.1158 -0.4297
  223MPD1    H5 3394   0.835   1.228   1.060 -0.3055 -0.6340  0.0086
  223MPD1    N1 3395   0.704   0.989   1.444  0.6220 -0.2686  1.1353
  223MPD1    H6 3396   0.803   0.962   1.444  0.2446 -1.6551  0.1838
  223MPD1    H7 3397   0.661   0.978   1.536 -1.3402 -0.1488  0.2136
  224MPD1     C 3398   2.076   2.148   9.170 -1.1984  0.0293  0.3679
  224MPD1    C1 3399   2.165   2.197   9.073 -0.4837  0.0831  0.1815
  224MPD1    C2 3400   2.289   2.235   9.121 -0.2707 -0.1759  0.0216
  224MPD1    C3 3401   2.311   2.253   9.257 -0.6692  0.2654 -0.7251
  224MPD1    C4 3402   2.208   2.230   9.346  0.6905 -0.7129 -0.2805
  224MPD1    C5 3403   2.093   2.167   9.305 -0.2515 -0.2946  0.2315
  224MPD1     H 3404   2.371   2.244   9.051  1.2196  1.2918  1.9664
  224MPD1    H1 3405   2.227   2.242   9.452  0.6379  1.0870 -0.4738
  224MPD1    H2 3406   1.978   2.111   9.145 -0.8053  0.1938 -1.4178
  224MPD1    H3 3407   2.020   2.135   9.379 -0.0428  0.8282  0.9157
  224MPD1     N 3408   2.432   2.307   9.302 -0.5140  0.0170 -0.3998
  224MPD1    H5 3409   2.448   2.300   9.402  2.7586 -1.6328 -1.0143
  224MPD1    N1 3410   2.148   2.167   8.937  0.3091  0.2291 -0.3700
  224MPD1    H6 3411   2.211   2.223   8.880  0.8515 -0.6816 -0.6622
  224MPD1    H7 3412   2.051   2.174   8.905  0.0224 -0.2806  0.3740
  225MPD1     C 3413   3.746   0.046  12.796 -0.0146 -0.0756 -0.0390
  225MPD1    C1 3414   3.736   4.659  12.704 -0.0817 -0.5643  0.3506
  225MPD1    C2 3415   3.613   4.638  12.648  0.3435  0.1775  0.4979
  225MPD1    C3 3416   3.507   0.002  12.681 -0.7169 -0.0455  0.5704
  225MPD1    C4 3417   3.518   0.101  12.769 -0.1637  0.1533 -0.2316
  225MPD1    C5 3418   3.639   0.120  12.829 -0.5140 -0.6350 -0.1702
  225MPD1     H 3419   3.603   4.563  12.571  0.4155  1.4068 -0.7025
  225MPD1    H1 3420   3.440   0.170  12.798 -0.4847  0.6914 -2.3886
  225MPD1    H2 3421   3.842   0.074  12.836 -1.0171  0.8591  1.7154
  225MPD1    H3 3422   3.643   0.199  12.903  2.0053  0.5001 -1.5407
  225MPD1     N 3423   3.385   4.702  12.614 -0.2751 -0.6683 -0.6327
  225MPD1    H5 3424   3.318   0.058  12.630  1.9004  1.6995 -2.5417
  225MPD1    N1 3425   3.848   4.573  12.684 -0.0334 -0.7419 -0.7949
  225MPD1    H6 3426   3.930   4.626  12.711 -2.1712  0.6740  2.9455
  225MPD1    H7 3427   3.866   4.540  12.590 -0.0581 -0.2341 -0.9746
  226MPD1     C 3428   2.104   3.635  10.106  0.2105  0.4215 -0.5292
  226MPD1    C1 3429   2.165   3.688   9.998  0.5029 -0.3928 -0.6118
  226MPD1    C2 3430   2.222   3.607   9.908 -0.9762 -0.9960 -0.9171
  226MPD1    C3 3431   2.220   3.470   9.924  0.4350 -0.4134 -0.4950
  226MPD1    C4 3432   2.149   3.418  10.029  0.2140  0.4032  0.4876
  226MPD1    C5 3433   2.093   3.502  10.120 -0.2385  0.1108 -0.2254
  226MPD1     H 3434   2.273   3.653   9.825  0.7649 -0.2366  0.5739
  226MPD1    H1 3435   2.136   3.313  10.052 -0.1918  0.9010  2.6055
  226MPD1    H2 3436   2.070   3.694  10.191  0.2649  1.7648 -1.4417
  226MPD1    H3 3437   2.047   3.464  10.211 -0.7189 -0.3085 -0.6404
  226MPD1     N 3438   2.297   3.401   9.831 -0.2162 -0.1271  0.2371
  226MPD1    H5 3439   2.337   3.462   9.761  0.7856 -1.2490 -0.1629
  226MPD1    N1 3440   2.175   3.827   9.989  0.0691  0.7587  0.1242
  226MPD1    H6 3441   2.205   3.870  10.076  3.8336 -0.7858 -0.4036
  226MPD1    H7 3442   2.237   3.865   9.917  1.0257  0.6121  0.8686
  227MPD1     C 3443   2.434   2.443   9.907  0.4703  0.6314  0.1235
  227MPD1    C1 3444   2.316   2.510   9.881  0.0884  0.3432 -0.7899
  227MPD1    C2 3445   2.332   2.629   9.811 -0.1179  0.8580 -0.2296
  227MPD1    C3 3446   2.454   2.681   9.772 -0.0454  0.5571  0.0543
  227MPD1    C4 3447   2.563   2.616   9.816 -0.3324  0.0062 -0.2465
  227MPD1    C5 3448   2.555   2.497   9.875 -0.2027 -0.0731 -0.5252
  227MPD1     H 3449   2.244   2.687   9.787 -1.0266  0.1403  1.3712
  227MPD1    H1 3450   2.658   2.660   9.786 -0.5231 -1.5376 -3.0273
  227MPD1    H2 3451   2.431   2.347   9.957  0.1291  0.7594  0.3511
  227MPD1    H3 3452   2.645   2.439   9.888  0.8768  1.9420  0.9347
  227MPD1     N 3453   2.462   2.810   9.710  0.5115 -0.6224 -0.2195
  227MPD1    H5 3454   2.369   2.845   9.688  0.2875 -0.3418  1.1630
  227MPD1    N1 3455   2.190   2.446   9.906 -0.4106  0.3324  0.3460
  227MPD1    H6 3456   2.189   2.382   9.985  1.0271  0.7405  0.7114
  227MPD1    H7 3457   2.110   2.509   9.910 -1.3883 -0.8945 -0.0114
  228MPD1     C 3458   1.211   2.593  12.629  0.0349  0.0562 -0.5170
  228MPD1    C1 3459   1.143   2.554  12.515 -0.4969  0.5233  0.3987
  228MPD1    C2 3460   1.047   2.449  12.531 -0.0382  0.5186  0.2892
  228MPD1    C3 3461   1.004   2.403  12.654  0.6367 -0.0374  0.3137
  228MPD1    C4 3462   1.075   2.444  12.764 -0.4265  0.5920 -0.5424
  228MPD1    C5 3463   1.175   2.532  12.747  0.4242  0.4707  0.4679
  228MPD1     H 3464   0.987   2.415  12.447 -1.3925  0.1918  1.3849
  228MPD1    H1 3465   1.041   2.421  12.864 -0.5902  0.0713 -0.7155
  228MPD1    H2 3466   1.291   2.666  12.637  0.5806 -0.7610  1.5053
  228MPD1    H3 3467   1.248   2.559  12.823  3.1837  1.5733 -2.5490
  228MPD1     N 3468   0.895   2.310  12.645  0.4137 -0.2337 -0.0014
  228MPD1    H5 3469   0.852   2.293  12.555  0.5878 -2.0325  0.2631
  228MPD1    N1 3470   1.152   2.634  12.401 -0.9223  0.1771 -0.0069
  228MPD1    H6 3471   1.117   2.591  12.316  0.6451 -1.9968  0.4506
  228MPD1    H7 3472   1.246   2.665  12.378 -1.2557  2.8200  2.2079
  229MPD1     C 3473   4.556   1.180  15.348 -0.1321  0.7440 -0.7354
  229MPD1    C1 3474   4.662   1.140  15.435 -0.3413  0.2533 -0.3064
  229MPD1    C2 3475   0.065   1.118  15.372 -0.2658 -0.7348 -0.8645
  229MPD1    C3 3476   0.073   1.130  15.231  0.2347 -0.5307  0.0478
  229MPD1    C4 3477   4.687   1.182  15.154  0.6262  0.3494  0.5162
  229MPD1    C5 3478   4.568   1.205  15.213 -0.7159 -0.1430  0.5194
  229MPD1     H 3479   0.139   1.073  15.436 -0.7747 -0.4235 -0.0631
  229MPD1    H1 3480   4.688   1.193  15.046 -0.5653 -0.7831  0.3809
  229MPD1    H2 3481   4.458   1.191  15.392  1.0466  0.5831  1.9118
  229MPD1    H3 3482   4.477   1.228  15.158  0.8312 -0.8766 -2.3364
  229MPD1     N 3483   0.184   1.093  15.154 -0.0746  0.0928 -0.6328
  229MPD1    H5 3484   0.184   1.084  15.053  1.2569 -1.2803 -0.5203
  229MPD1    N1 3485   4.635   1.093  15.560  0.6554 -0.1346 -0.5702
  229MPD1    H6 3486   4.717   1.096  15.619  0.3417  0.8133 -0.1874
  229MPD1    H7 3487   4.557   1.134  15.611  0.1463  0.8633 -2.1517
  230MPD1     C 3488   1.254   0.850  15.041  0.0109 -0.4406  0.7341
  230MPD1    C1 3489   1.186   0.801  14.933 -0.1338 -0.1974 -0.0364
  230MPD1    C2 3490   1.045   0.800  14.950 -0.4890 -0.2200  0.0536
  230MPD1    C3 3491   0.973   0.869  15.041 -0.1661  0.3761  0.0198
  230MPD1    C4 3492   1.043   0.906  15.155  0.3808 -0.2000  0.1137
  230MPD1    C5 3493   1.179   0.890  15.153  0.1650 -0.2454  0.2186
  230MPD1     H 3494   0.986   0.746  14.877 -1.8826  0.1639  0.8905
  230MPD1    H1 3495   0.996   0.947  15.243  0.6565  0.8058 -0.1983
  230MPD1    H2 3496   1.361   0.861  15.029 -0.1070  1.6061  1.6063
  230MPD1    H3 3497   1.237   0.920  15.239  0.0788 -0.2799  0.2879
  230MPD1     N 3498   0.829   0.881  15.028 -0.0180 -0.5426  0.2725
  230MPD1    H5 3499   0.795   0.841  14.941 -0.0358 -3.0457  1.4433
  230MPD1    N1 3500   1.249   0.712  14.849  0.3040  0.2127  0.5584
  230MPD1    H6 3501   1.347   0.733  14.834  0.3934 -0.4776  0.1614
  230MPD1    H7 3502   1.202   0.700  14.759  0.4598 -0.4961  0.5712
  231MPD1     C 3503   3.625   2.564  15.422  0.0262  0.3549 -0.3926
  231MPD1    C1 3504   3.556   2.514  15.315  0.5990  0.1068  0.4039
  231MPD1    C2 3505   3.580   2.573  15.189  0.2539 -0.1862  0.3996
  231MPD1    C3 3506   3.670   2.670  15.181 -0.5777 -0.5723 -0.3070
  231MPD1    C4 3507   3.730   2.730  15.293 -0.4323  0.0139  0.0121
  231MPD1    C5 3508   3.707   2.672  15.411  0.5061 -0.3719 -0.3358
  231MPD1     H 3509   3.523   2.532  15.106  1.4424 -0.2934 -0.3572
  231MPD1    H1 3510   3.790   2.820  15.291 -0.3858  0.0116  2.3495
  231MPD1    H2 3511   3.624   2.519  15.521  1.0598  1.4102  0.0930
  231MPD1    H3 3512   3.749   2.719  15.499 -1.7356 -0.2155  0.6244
  231MPD1     N 3513   3.694   2.719  15.054 -0.3194  0.4016  0.1771
  231MPD1    H5 3514   3.632   2.680  14.984  0.4399 -1.5504  0.5944
  231MPD1    N1 3515   3.473   2.405  15.326  0.0948  0.1770 -0.3076
  231MPD1    H6 3516   3.525   2.317  15.330  0.8601  0.6663  0.7280
  231MPD1    H7 3517   3.413   2.406  15.244 -0.3795  0.4259  0.0379
  232MPD1     C 3518   0.521   3.783   0.763 -0.6085 -0.4781  0.3123
  232MPD1    C1 3519   0.410   3.855   0.779 -0.5521 -0.0533  0.0031
  232MPD1    C2 3520   0.398   3.960   0.698  0.7323 -0.3126 -0.3618
  232MPD1    C3 3521   0.494   4.003   0.610 -0.8461  0.4962  0.5913
  232MPD1    C4 3522   0.620   3.947   0.622 -0.0764 -0.0287  0.7567
  232MPD1    C5 3523   0.624   3.839   0.702 -0.6514 -0.3446 -0.2774
  232MPD1     H 3524   0.312   4.026   0.700  0.3918 -0.7071 -1.8989
  232MPD1    H1 3525   0.713   3.979   0.578 -0.8648  3.4706  1.6044
  232MPD1    H2 3526   0.542   3.689   0.814  0.4514 -0.7190 -0.5770
  232MPD1    H3 3527   0.720   3.790   0.706 -0.3746  0.2797  0.7981
  232MPD1     N 3528   0.469   4.110   0.516  0.5557  0.5696  0.3283
  232MPD1    H5 3529   0.376   4.152   0.518 -0.5286 -1.8443  1.0246
  232MPD1    N1 3530   0.305   3.809   0.849  0.6123  0.3785 -0.2317
  232MPD1    H6 3531   0.242   3.877   0.892  0.4607 -0.9005  1.5740
  232MPD1    H7 3532   0.337   3.750   0.925 -0.8918  0.0235  0.1413
  233MPD1     C 3533   1.136   4.228   0.640  0.2177 -0.0719  0.1427
  233MPD1    C1 3534   1.028   4.145   0.634  0.1344 -0.5413  0.1605
  233MPD1    C2 3535   1.025   4.023   0.706 -0.3981 -0.4506 -0.1474
  233MPD1    C3 3536   1.140   3.982   0.768 -0.7862  1.7367  1.0688
  233MPD1    C4 3537   1.252   4.061   0.760 -0.0309 -0.4900 -1.0388
  233MPD1    C5 3538   1.246   4.185   0.701  0.4365  0.5045  0.5129
  233MPD1     H 3539   0.939   3.957   0.708 -0.3655 -0.4524  0.7783
  233MPD1    H1 3540   1.348   4.034   0.802  0.9394  0.1844 -2.8285
  233MPD1    H2 3541   1.128   4.324   0.592  0.4942  0.6018  1.4498
  233MPD1    H3 3542   1.340   4.238   0.690  1.2178 -0.3832  2.8745
  233MPD1     N 3543   1.146   3.857   0.826 -0.3622 -0.5342 -0.6598
  233MPD1    H5 3544   1.234   3.825   0.865  0.9175  2.8677 -0.7504
  233MPD1    N1 3545   0.903   4.202   0.594  0.0665 -0.5853  0.1370
  233MPD1    H6 3546   0.849   4.134   0.541 -0.2069  0.7304 -1.2844
  233MPD1    H7 3547   0.921   4.276   0.526 -0.3245 -0.8941 -0.2943
  234MPD1     C 3548   2.678   1.106  10.541  0.5414  0.1361  0.1224
  234MPD1    C1 3549   2.770   1.210  10.540 -0.0138 -0.2079  0.2687
  234MPD1    C2 3550   2.761   1.309  10.452  0.2553  0.1692  0.4938
  234MPD1    C3 3551   2.656   1.313  10.363  0.5001 -0.2737 -0.1464
  234MPD1    C4 3552   2.568   1.206  10.357  0.1112  0.3277 -0.3042
  234MPD1    C5 3553   2.572   1.103  10.454 -0.1367 -0.2750  0.0360
  234MPD1     H 3554   2.827   1.394  10.464 -0.3293  0.7570 -0.4607
  234MPD1    H1 3555   2.509   1.195  10.267 -2.4286 -1.2691  1.5577
  234MPD1    H2 3556   2.697   1.023  10.608 -1.4040 -0.7754 -0.4476
  234MPD1    H3 3557   2.509   1.015  10.458 -2.0366  1.1072  0.4063
  234MPD1     N 3558   2.653   1.414  10.265 -0.9918 -0.4378 -0.0731
  234MPD1    H5 3559   2.735   1.474  10.261 -1.2847 -0.0512 -0.2880
  234MPD1    N1 3560   2.868   1.204  10.639  0.2794  0.2387  0.6103
  234MPD1    H6 3561   2.960   1.220  10.598  0.5155  0.6086  1.2736
  234MPD1    H7 3562   2.873   1.117  10.693 -0.6518 -1.0070 -1.2947
  235MPD1     C 3563   4.117   3.162   9.657 -0.0997 -0.1123  0.4363
  235MPD1    C1 3564   4.078   3.253   9.564 -0.0567  0.3506  0.2602
  235MPD1    C2 3565   4.124   3.378   9.572 -0.6310  0.5552  0.1494
  235MPD1    C3 3566   4.207   3.419   9.677 -0.6134  0.0717 -0.2729
  235MPD1    C4 3567   4.246   3.328   9.768  0.0348  0.4391 -0.7407
  235MPD1    C5 3568   4.210   3.194   9.753 -0.1699 -0.2668 -0.4480
  235MPD1     H 3569   4.099   3.460   9.505 -1.0696  1.4469  1.4087
  235MPD1    H1 3570   4.315   3.348   9.850 -2.6060 -2.1591  2.0815
  235MPD1    H2 3571   4.079   3.061   9.649  0.6381 -0.3923  0.4633
  235MPD1    H3 3572   4.240   3.120   9.827  1.2448 -0.0320 -0.7953
  235MPD1     N 3573   4.238   3.556   9.678  0.1530  0.0343  0.3267
  235MPD1    H5 3574   4.203   3.603   9.595  1.0093 -2.1184 -1.2427
  235MPD1    N1 3575   4.012   3.221   9.447 -0.1506 -0.1537 -0.0277
  235MPD1    H6 3576   3.968   3.305   9.410  0.8178  0.1224 -0.5408
  235MPD1    H7 3577   3.941   3.151   9.470 -1.7713  0.6314 -2.6505
  236MPD1     C 3578   3.154   0.524   9.276  0.1172  0.2854 -0.6575
  236MPD1    C1 3579   3.203   0.394   9.255 -0.1000  0.0256  0.0331
  236MPD1    C2 3580   3.303   0.356   9.337  0.4048 -0.3995  0.2656
  236MPD1    C3 3581   3.342   0.420   9.454 -0.8855 -0.1943 -0.6203
  236MPD1    C4 3582   3.276   0.537   9.487 -0.0672  0.0548  0.3782
  236MPD1    C5 3583   3.193   0.593   9.389  0.0629  0.0000  0.7163
  236MPD1     H 3584   3.348   0.260   9.316 -0.3605 -0.8369  0.6516
  236MPD1    H1 3585   3.301   0.594   9.575  0.2158 -1.3824  1.2147
  236MPD1    H2 3586   3.085   0.569   9.205  0.7627  1.0504 -0.7953
  236MPD1    H3 3587   3.156   0.694   9.393 -0.6809 -0.3129  1.9077
  236MPD1     N 3588   3.432   0.365   9.546 -0.4882  1.0678  0.1859
  236MPD1    H5 3589   3.455   0.418   9.630  0.2236 -0.0630  0.7110
  236MPD1    N1 3590   3.173   0.322   9.137  0.4200 -0.4195  0.3190
  236MPD1    H6 3591   3.074   0.322   9.116  0.4102 -2.1383  0.3346
  236MPD1    H7 3592   3.210   0.227   9.134  4.3588  1.1086  0.5549
  237MPD1     C 3593   3.604   3.991  14.849 -0.1630 -0.0968  0.3636
  237MPD1    C1 3594   3.596   3.861  14.885 -0.0097 -0.2315 -0.6967
  237MPD1    C2 3595   3.487   3.813  14.956  0.8924 -0.3226  0.0414
  237MPD1    C3 3596   3.384   3.894  14.974 -0.5999  0.5060 -0.2275
  237MPD1    C4 3597   3.391   4.023  14.939 -0.3311  0.2479 -0.4202
  237MPD1    C5 3598   3.507   4.075  14.892 -0.4356  0.4317 -0.5875
  237MPD1     H 3599   3.480   3.707  14.976  1.4870  0.0128  2.0994
  237MPD1    H1 3600   3.303   4.085  14.951 -1.0327 -0.4899 -1.7679
  237MPD1    H2 3601   3.687   4.039  14.799 -0.3774  2.1592  2.1555
  237MPD1    H3 3602   3.509   4.173  14.847  0.9743  0.8132  0.3368
  237MPD1     N 3603   3.270   3.851  15.045  0.4262 -0.2614  0.1125
  237MPD1    H5 3604   3.191   3.914  15.052  1.1702  0.4472  2.1239
  237MPD1    N1 3605   3.682   3.772  14.812  0.7177 -0.3642  0.4436
  237MPD1    H6 3606   3.767   3.828  14.808  1.1252 -1.1189 -1.5171
  237MPD1    H7 3607   3.701   3.682  14.857  1.4742 -1.3697 -1.8734
  238MPD1     C 3608   4.392   2.973  15.703  0.2883  0.3526  0.2484
  238MPD1    C1 3609   4.426   3.042  15.584 -0.2469 -0.0591 -0.2821
  238MPD1    C2 3610   4.488   2.978  15.477 -0.1384  0.1704 -0.0667
  238MPD1    C3 3611   4.494   2.841  15.493  0.7006 -0.5446 -0.3500
  238MPD1    C4 3612   4.469   2.771  15.614 -0.4232 -0.0927  0.1852
  238MPD1    C5 3613   4.409   2.839  15.718 -0.5498 -0.3348  0.1191
  238MPD1     H 3614   4.480   3.008  15.374  0.4353  0.9218  0.1021
  238MPD1    H1 3615   4.489   2.664  15.618 -0.6307 -0.1418 -0.0379
  238MPD1    H2 3616   4.345   3.020  15.788  1.0692  0.8076  0.4312
  238MPD1    H3 3617   4.375   2.788  15.807 -2.6957  1.5085  0.3710
  238MPD1     N 3618   4.518   2.753  15.391  0.6313  0.1148  0.1599
  238MPD1    H5 3619   4.512   2.655  15.415 -0.0144 -0.1054 -0.9028
  238MPD1    N1 3620   4.381   3.168  15.563 -0.3954  0.4025 -0.1160
  238MPD1    H6 3621   4.382   3.234  15.641 -1.3619 -1.3440  1.3493
  238MPD1    H7 3622   4.420   3.214  15.480  1.4462 -3.4748 -1.3828
  239MPD1     C 3623   1.026   3.424  14.719 -0.1992 -0.2811  0.6216
  239MPD1    C1 3624   1.083   3.449  14.601  0.2322  0.4945 -0.2844
  239MPD1    C2 3625   1.018   3.488  14.490 -0.4375  0.0289 -0.1964
  239MPD1    C3 3626   0.877   3.486  14.499  0.2238  0.7660  0.7018
  239MPD1    C4 3627   0.819   3.468  14.621 -0.2158 -0.3034 -0.3069
  239MPD1    C5 3628   0.894   3.434  14.728 -0.8142 -0.6368 -0.4079
  239MPD1     H 3629   1.070   3.527  14.403 -0.0931  2.2509  1.0049
  239MPD1    H1 3630   0.713   3.471  14.640  0.3832  1.1447  2.8112
  239MPD1    H2 3631   1.088   3.388  14.801 -0.4814  1.1669  1.4599
  239MPD1    H3 3632   0.847   3.395  14.818 -0.3556  0.2386  0.2077
  239MPD1     N 3633   0.799   3.536  14.401  1.0385  0.1428  0.1878
  239MPD1    H5 3634   0.698   3.526  14.411  0.8756  0.8027 -0.7825
  239MPD1    N1 3635   1.222   3.456  14.603  0.1632 -0.5033 -0.4342
  239MPD1    H6 3636   1.269   3.396  14.671  0.3322 -2.0665 -1.9360
  239MPD1    H7 3637   1.266   3.445  14.512  0.2866  1.7407 -0.6610
  240MPD1     C 3638   0.578   2.991  13.987  0.2424 -0.9645  0.8567
  240MPD1    C1 3639   0.456   3.016  13.931  0.9163  0.0512  0.7497
  240MPD1    C2 3640   0.346   3.050  14.011  0.3903 -0.2184  0.4148
  240MPD1    C3 3641   0.354   3.037  14.150  0.0002 -0.0681 -0.4457
  240MPD1    C4 3642   0.470   2.993  14.205 -0.7242  0.6787  0.3196
  240MPD1    C5 3643   0.579   2.971  14.122 -0.3362  0.8597 -0.3977
  240MPD1     H 3644   0.251   3.077  13.967  0.3264 -0.6829  0.2649
  240MPD1    H1 3645   0.490   2.973  14.310 -1.1916  1.9169  0.6503
  240MPD1    H2 3646   0.664   2.968  13.926 -0.0835 -1.5699  0.6358
  240MPD1    H3 3647   0.668   2.925  14.164  0.1739 -0.4726 -2.9273
  240MPD1     N 3648   0.238   3.059  14.223  0.4106 -0.5270 -0.0416
  240MPD1    H5 3649   0.149   3.080  14.180  1.2127 -0.0150 -1.4513
  240MPD1    N1 3650   0.444   3.031  13.789 -0.3098 -0.0952 -0.2027
  240MPD1    H6 3651   0.347   3.036  13.759  0.0994 -0.8213 -1.6723
  240MPD1    H7 3652   0.486   2.958  13.732 -0.5503 -0.7187  0.4113
  241MPD1     C 3653   0.156   3.273  15.208  0.2455  0.9909  0.2045
  241MPD1    C1 3654   0.081   3.160  15.192  0.4414 -0.2256 -0.0172
  241MPD1    C2 3655   0.042   3.117  15.066 -0.2701  0.4667  0.7152
  241MPD1    C3 3656   0.092   3.185  14.956 -0.3133  0.0006  0.2971
  241MPD1    C4 3657   0.178   3.293  14.975 -0.7085 -0.1959 -0.3794
  241MPD1    C5 3658   0.204   3.344  15.098  0.5989 -0.8238  0.5530
  241MPD1     H 3659   4.686   3.038  15.058  1.3509 -0.9292 -0.4562
  241MPD1    H1 3660   0.219   3.337  14.885  0.4828  0.8003  0.6785
  241MPD1    H2 3661   0.176   3.309  15.308 -0.0666 -0.0838  0.6527
  241MPD1    H3 3662   0.267   3.431  15.113  0.5086 -0.8988  1.3883
  241MPD1     N 3663   0.074   3.151  14.817  0.4102  0.0689  0.7214
  241MPD1    H5 3664   0.120   3.207  14.746  0.0867  0.8300  1.1130
  241MPD1    N1 3665   0.029   3.099  15.304  0.1750  0.1088 -0.7738
  241MPD1    H6 3666   4.707   3.008  15.280 -1.7889  0.4501  1.2170
  241MPD1    H7 3667   0.098   3.081  15.376  1.5606 -0.6193 -2.2703
  242MPD1     C 3668   0.044   1.386  15.839 -0.1398  0.1955  0.8838
  242MPD1    C1 3669   4.662   1.412  15.751 -0.3355 -0.0532  0.2699
  242MPD1    C2 3670   4.699   1.441  15.621  0.3764  0.3726 -0.8513
  242MPD1    C3 3671   0.112   1.426  15.574 -0.3785 -0.4993  0.0391
  242MPD1    C4 3672   0.200   1.384  15.666 -0.1156  1.1334 -0.1068
  242MPD1    C5 3673   0.174   1.362  15.798  0.4958 -0.5678 -0.5519
  242MPD1     H 3674   4.619   1.475  15.556  0.0945  2.3125  0.5121
  242MPD1    H1 3675   0.303   1.361  15.641 -0.1459  1.6363 -0.6806
  242MPD1    H2 3676   0.035   1.369  15.946 -0.2761 -1.4058  0.6255
  242MPD1    H3 3677   0.255   1.326  15.860 -0.6269 -0.9992  0.6700
  242MPD1     N 3678   0.155   1.451  15.436 -0.2427 -0.3710  0.1436
  242MPD1    H5 3679   0.245   1.417  15.403 -0.3028 -0.3872 -0.0037
  242MPD1    N1 3680   4.533   1.439  15.799 -0.6420  0.5329  0.6834
  242MPD1    H6 3681   4.507   1.388  15.883  0.0350 -1.0364 -0.0564
  242MPD1    H7 3682   4.457   1.425  15.733  0.2654  1.3852 -0.5351
  243MPD1     C 3683   1.798   1.439  17.125 -0.5114 -0.1409  0.4640
  243MPD1    C1 3684   1.811   1.423  17.265 -0.1897 -0.9187 -0.2537
  243MPD1    C2 3685   1.859   1.301  17.310  0.3583 -0.7237 -0.1007
  243MPD1    C3 3686   1.878   1.200  17.225 -0.3172 -0.4815  1.0562
  243MPD1    C4 3687   1.853   1.216  17.086 -0.0848 -0.1414 -0.7092
  243MPD1    C5 3688   1.818   1.339  17.042 -0.4675  0.6508  0.1033
  243MPD1     H 3689   1.859   1.286  17.418 -2.1892 -0.3391 -0.0479
  243MPD1    H1 3690   1.880   1.142  17.012  0.4385  0.1994 -0.8580
  243MPD1    H2 3691   1.776   1.535  17.079  0.1140 -0.1722  0.0900
  243MPD1    H3 3692   1.799   1.355  16.936  0.8945  1.0410 -0.0893
  243MPD1     N 3693   1.916   1.079  17.280 -0.3292 -0.6566 -0.6671
  243MPD1    H5 3694   1.943   1.076  17.377 -2.1359 -0.7530 -0.1664
  243MPD1    N1 3695   1.799   1.532  17.345  0.4678 -0.1960  0.1215
  243MPD1    H6 3696   1.762   1.509  17.437 -0.4299  0.8164  0.0259
  243MPD1    H7 3697   1.730   1.596  17.305  1.3352  0.2629 -0.6378
  244MPD1     C 3698   2.682   1.072  17.497 -0.1757  0.3500  0.0364
  244MPD1    C1 3699   2.577   1.146  17.535 -0.1516  0.3209  0.5446
  244MPD1    C2 3700   2.450   1.089  17.545  0.2569 -0.1052 -0.5957
  244MPD1    C3 3701   2.438   0.953  17.520 -0.5719 -0.4546  0.4048
  244MPD1    C4 3702   2.543   0.879  17.476  0.1118 -0.5495 -0.2726
  244MPD1    C5 3703   2.663   0.943  17.463  0.1446 -0.2412  0.8388
  244MPD1     H 3704   2.370   1.158  17.571 -1.2347 -1.3046 -2.0703
  244MPD1    H1 3705   2.540   0.776  17.444  0.1631 -0.9543  1.0271
  244MPD1    H2 3706   2.779   1.116  17.474  0.5737 -1.1666  0.2742
  244MPD1    H3 3707   2.746   0.899  17.409 -0.8754 -0.7074 -0.3625
  244MPD1     N 3708   2.306   0.910  17.501  0.1285 -0.3208 -0.1041
  244MPD1    H5 3709   2.227   0.974  17.501  0.9465  0.6864  0.1944
  244MPD1    N1 3710   2.591   1.285  17.554 -0.1280 -0.0561 -0.4352
  244MPD1    H6 3711   2.526   1.332  17.617  0.4863  0.8958 -0.5162
  244MPD1    H7 3712   2.689   1.297  17.575 -0.8227  2.0396  1.5832
  245MPD1     C 3713   2.609   0.513  13.267 -0.3860  0.0109 -0.0810
  245MPD1    C1 3714   2.608   0.646  13.262  0.5481 -0.2503 -0.4168
  245MPD1    C2 3715   2.713   0.711  13.325 -0.6840 -0.6399 -0.9054
  245MPD1    C3 3716   2.824   0.641  13.377 -0.5025 -0.2642  0.3761
  245MPD1    C4 3717   2.813   0.502  13.383 -0.0947  0.0415 -1.0677
  245MPD1    C5 3718   2.707   0.443  13.328 -0.3493  0.3175  0.5848
  245MPD1     H 3719   2.703   0.819  13.323  0.4610 -0.5023  1.0637
  245MPD1    H1 3720   2.901   0.450  13.421 -1.2377 -1.1845 -0.1063
  245MPD1    H2 3721   2.521   0.457  13.237 -1.5695  1.3412  0.8935
  245MPD1    H3 3722   2.700   0.335  13.331  0.2208  0.2709  0.2957
  245MPD1     N 3723   2.938   0.708  13.424 -0.2132  0.2433  0.2286
  245MPD1    H5 3724   2.935   0.808  13.404 -2.2395  0.6073  2.4424
  245MPD1    N1 3725   2.493   0.725  13.228  0.2087 -0.0935  0.5963
  245MPD1    H6 3726   2.441   0.765  13.306  0.5957 -1.5952  1.6319
  245MPD1    H7 3727   2.433   0.661  13.177 -0.1720  1.8501 -1.3799
  246MPD1     C 3728   0.262   1.786   9.164 -0.0435  0.6904  0.0258
  246MPD1    C1 3729   0.227   1.881   9.256  0.1866 -0.4851 -0.0049
  246MPD1    C2 3730   0.097   1.889   9.304 -0.8950 -0.1461 -0.0574
  246MPD1    C3 3731   0.005   1.786   9.286  0.0412 -0.0341  1.0931
  246MPD1    C4 3732   0.043   1.682   9.204  0.7293  0.9856 -0.1738
  246MPD1    C5 3733   0.160   1.692   9.135 -0.3042 -0.2067  0.1391
  246MPD1     H 3734   0.072   1.975   9.364 -2.2327 -1.5609  1.4377
  246MPD1    H1 3735   4.696   1.599   9.176  2.5890 -0.4816 -0.1523
  246MPD1    H2 3736   0.352   1.767   9.106  0.2724  4.0693 -0.6134
  246MPD1    H3 3737   0.196   1.608   9.077  0.7795  0.8820 -0.7562
  246MPD1     N 3738   4.597   1.801   9.351  0.1093  0.4912  1.1315
  246MPD1    H5 3739   4.599   1.882   9.412 -0.1429  0.4999  1.1281
  246MPD1    N1 3740   0.304   1.997   9.268 -0.2830 -0.5158 -0.2101
  246MPD1    H6 3741   0.402   1.978   9.249  0.1139  0.5928  0.7650
  246MPD1    H7 3742   0.294   2.039   9.360  0.2178  1.4889 -1.0838
  247MPD1     C 3743   2.063   0.138  15.889  0.4741  0.4415 -0.6663
  247MPD1    C1 3744   2.105   0.144  16.020 -0.3449 -0.6609 -0.0802
  247MPD1    C2 3745   2.228   0.099  16.051 -0.2530  0.0214 -0.0077
  247MPD1    C3 3746   2.323   0.079  15.954 -0.1514  0.2720 -0.4517
  247MPD1    C4 3747   2.291   0.091  15.819  0.6134  0.4318  0.2157
  247MPD1    C5 3748   2.156   0.106  15.794  0.5195 -0.6274 -0.3437
  247MPD1     H 3749   2.252   0.095  16.157 -0.1172  2.2947  0.0449
  247MPD1    H1 3750   2.358   0.068  15.737  0.6762 -0.9433  0.6546
  247MPD1    H2 3751   1.962   0.146  15.850  0.6554 -1.3662 -1.4936
  247MPD1    H3 3752   2.137   0.093  15.689 -1.8565 -0.1088  0.0136
  247MPD1     N 3753   2.459   0.040  15.989  0.0287  0.1382  0.4497
  247MPD1    H5 3754   2.524   0.037  15.910 -1.0520 -0.8463 -0.4055
  247MPD1    N1 3755   2.020   0.179  16.125  0.1508  0.4617 -0.0260
  247MPD1    H6 3756   2.083   0.210  16.198 -1.0527 -0.2839  1.3395
  247MPD1    H7 3757   1.959   0.254  16.093 -0.3315 -0.4251 -1.1764
  248MPD1     C 3758   3.429   2.335   1.465  0.0354  0.2450 -0.6354
  248MPD1    C1 3759   3.526   2.251   1.515  0.4916 -0.7429 -0.3816
  248MPD1    C2 3760   3.605   2.184   1.417  0.2499 -0.1999  0.5765
  248MPD1    C3 3761   3.558   2.169   1.284  0.6092  0.0641 -0.0250
  248MPD1    C4 3762   3.450   2.248   1.241  0.2085 -1.2756 -0.2834
  248MPD1    C5 3763   3.392   2.327   1.336 -0.0351  0.3861 -0.2797
  248MPD1     H 3764   3.687   2.120   1.446 -0.5395 -1.6171 -0.3282
  248MPD1    H1 3765   3.422   2.257   1.136 -0.7409  0.6878  0.1359
  248MPD1    H2 3766   3.377   2.406   1.529 -1.3398 -0.8129 -0.5856
  248MPD1    H3 3767   3.314   2.389   1.295  1.3354  1.5996 -1.0277
  248MPD1     N 3768   3.610   2.066   1.202 -0.1296 -0.1893  0.2824
  248MPD1    H5 3769   3.694   2.016   1.231  1.0185 -0.5804 -3.5610
  248MPD1    N1 3770   3.562   2.256   1.650 -0.0947  0.1330 -0.2236
  248MPD1    H6 3771   3.601   2.165   1.673  3.0642  1.3052 -1.0316
  248MPD1    H7 3772   3.482   2.279   1.708  0.3042 -2.0687  1.1871
  249MPD1     C 3773   0.366   2.954  10.018  0.0279  0.4561  0.3684
  249MPD1    C1 3774   0.415   3.033   9.921 -1.0200 -0.2372 -0.1717
  249MPD1    C2 3775   0.505   3.131   9.952 -0.4399  0.0671 -0.5535
  249MPD1    C3 3776   0.550   3.147  10.081  0.3901  0.3301  0.2326
  249MPD1    C4 3777   0.503   3.063  10.180 -0.6071  0.0483 -0.2115
  249MPD1    C5 3778   0.411   2.976  10.149  0.1129 -0.2174 -0.7566
  249MPD1     H 3779   0.536   3.204   9.878  0.8123  0.8385  0.7486
  249MPD1    H1 3780   0.537   3.070  10.283  3.1965 -1.3887 -1.3696
  249MPD1    H2 3781   0.294   2.874  10.003  1.4749 -0.9127  0.6691
  249MPD1    H3 3782   0.374   2.917  10.231  0.2776  2.4232  1.2239
  249MPD1     N 3783   0.650   3.237  10.107 -0.2727 -0.4033 -0.6076
  249MPD1    H5 3784   0.678   3.302  10.034  0.2077 -2.4205 -2.2290
  249MPD1    N1 3785   0.361   3.024   9.794  0.2781  0.4106 -1.4573
  249MPD1    H6 3786   0.429   3.043   9.721  2.1056  0.4693  0.2493
  249MPD1    H7 3787   0.320   2.931   9.782 -0.9337  1.1511 -3.0324
  250MPD2     C 3788   1.094   4.625  13.161 -0.1063  0.1596  0.4130
  250MPD2    C1 3789   1.034   4.627  13.037  0.2941 -0.4376 -0.3037
  250MPD2    C2 3790   1.009   4.509  12.974  0.0128 -0.0497  0.3850
  250MPD2    C3 3791   1.017   4.387  13.046  0.0221  0.2541 -0.1960
  250MPD2    C4 3792   1.070   4.385  13.170 -0.0955 -0.5564  0.2625
  250MPD2    C5 3793   1.112   4.500  13.222  0.2870  0.1214 -0.2916
  250MPD2     H 3794   0.958   4.501  12.879 -0.1114  0.2589  0.4262
  250MPD2    H1 3795   1.082   4.292  13.224  1.4626 -0.7425 -0.3862
  250MPD2    H2 3796   1.126   4.717  13.208  0.8460 -0.8548  1.7323
  250MPD2    H3 3797   1.155   4.493  13.321  1.4336  1.2251 -0.7056
  250MPD2     N 3798   0.963   4.269  13.000 -0.5915 -0.3346  0.2805
  250MPD2    H5 3799   0.965   4.195  13.069  1.8701  0.0413  0.6090
  250MPD2    N1 3800   1.015   0.036  12.976  0.1463 -0.3414  0.4548
  250MPD2    H7 3801   1.061   0.112  13.025  0.8142 -0.4471 -0.0123
  251TMC3    C1 3802   0.940   0.199  12.827 -0.5279  0.3468 -0.5846
  251TMC3    C2 3803   0.815   0.252  12.867 -0.4132 -0.1638  0.0201
  251TMC3    C3 3804   0.806   0.370  12.931 -0.7402 -0.7986  0.2407
  251TMC3    C4 3805   1.052   0.271  12.863 -0.5642 -0.0357 -0.2925
  251TMC3    C5 3806   1.034   0.402  12.915 -0.4771 -0.2445  0.6574
  251TMC3    C6 3807   0.915   0.446  12.963  0.0576 -0.7930 -0.6113
  251TMC3     C 3808   0.958   0.059  12.856  0.2617  0.3463  0.4163
  251TMC3     O 3809   0.900   4.714  12.770  0.3072 -0.2245  0.6750
  251TMC3     H 3810   0.734   0.182  12.850 -0.0542 -0.7364  0.7048
  251TMC3    H1 3811   1.146   0.253  12.812 -1.0765  2.3690 -2.0971
  251TMC3    H2 3812   0.905   0.548  13.000  1.0836 -0.5186 -1.0882
  251TMC3    C7 3813   1.143   0.453  12.989  0.6011 -0.0397 -0.3880
  251TMC3    C8 3814   0.705   0.385  13.031  0.0901  0.0241  0.6561
  251TMC3    O1 3815   1.136   0.568  13.017 -0.2079  0.5766  0.6922
  251TMC3    O2 3816   0.732   0.456  13.125  0.1279  0.1154  0.1180
  252TMC3    C1 3817   1.959   0.104   9.078  0.0442 -0.0749  0.4357
  252TMC3    C2 3818   2.060   0.189   9.031 -0.1796 -0.0527  0.4047
  252TMC3    C3 3819   2.150   0.142   8.939  0.1656  0.2951 -0.5408
  252TMC3    C4 3820   1.966   4.689   9.051  0.0794 -0.0290 -0.4465
  252TMC3    C5 3821   2.043   4.651   8.947 -0.2024  0.1749  0.3102
  252TMC3    C6 3822   2.142   0.010   8.896 -0.2538  0.5899 -0.3493
  252TMC3     C 3823   1.870   0.156   9.184 -0.0105 -0.1371 -0.6091
  252TMC3     O 3824   1.894   0.265   9.234 -0.0901 -0.1765  0.1558
  252TMC3     H 3825   2.058   0.294   9.060  0.0236  0.0947 -0.1041
  252TMC3    H1 3826   1.908   4.613   9.102  2.1138 -1.1114  0.2800
  252TMC3    H2 3827   2.224   4.686   8.838  0.7170  1.9969  0.0097
  252TMC3    C7 3828   2.057   4.501   8.922 -0.9166  0.1618 -0.3602
  252TMC3    C8 3829   2.268   0.218   8.913  0.2948  0.3503 -0.2388
  252TMC3    O1 3830   2.118   4.464   8.823 -0.1459 -0.4228  0.0602
  252TMC3    O2 3831   2.343   0.170   8.832  0.0200  0.7182  0.0903
  253MPD2     C 3832   2.896   4.043  15.472  0.6276 -0.5056  0.0323
  253MPD2    C1 3833   2.760   4.005  15.485 -0.8812  0.5256  0.6903
  253MPD2    C2 3834   2.715   3.963  15.606 -0.3029  0.7166  0.2550
  253MPD2    C3 3835   2.793   3.957  15.721 -0.5729 -0.1764 -0.1494
  253MPD2    C4 3836   2.926   3.996  15.707  0.0125 -0.5437 -1.1799
  253MPD2    C5 3837   2.976   4.033  15.583  0.3784 -0.3248 -0.2509
  253MPD2     H 3838   2.607   3.959  15.616 -0.2296 -0.6799  0.5592
  253MPD2    H1 3839   2.993   3.994  15.792 -0.4478 -1.7153 -0.8551
  253MPD2    H2 3840   2.952   4.075  15.385 -0.4511  0.4311 -0.3258
  253MPD2    H3 3841   3.080   4.061  15.568  0.1776  1.0763  0.9129
  253MPD2     N 3842   2.750   3.936  15.850  0.3687 -0.2140 -0.7300
  253MPD2    H5 3843   2.816   3.940  15.927  2.1703  0.2287 -2.3026
  253MPD2    N1 3844   2.669   4.006  15.371 -0.1633  0.2907 -0.1558
  253MPD2    H7 3845   2.577   3.963  15.383  0.2522 -0.6384 -0.3112
  254TMC3    C1 3846   2.598   3.901  16.028 -0.3111 -0.3483  0.1475
  254TMC3    C2 3847   2.473   3.925  16.071 -0.1687 -0.6644 -0.5682
  254TMC3    C3 3848   2.440   3.890  16.202 -0.6152 -0.2324  0.3688
  254TMC3    C4 3849   2.691   3.837  16.112  0.1363  0.0385 -0.0558
  254TMC3    C5 3850   2.661   3.812  16.247  0.2135 -0.5312 -0.2374
  254TMC3    C6 3851   2.529   3.836  16.290  1.2124 -0.6407  0.3137
  254TMC3     C 3852   2.615   3.917  15.888 -0.7372 -0.3572 -0.1699
  254TMC3     O 3853   2.512   3.912  15.820  0.4860 -0.0355 -0.3366
  254TMC3     H 3854   2.404   3.972  16.002 -3.5507 -2.4108  1.6179
  254TMC3    H1 3855   2.792   3.825  16.074  0.0613 -0.6483 -0.0396
  254TMC3    H2 3856   2.521   3.828  16.398  3.9748 -1.1441  0.4700
  254TMC3    C7 3857   2.771   3.816  16.343 -0.1421  0.8494  0.8379
  254TMC3    C8 3858   2.344   3.980  16.259  0.2785  0.6161 -0.4057
  254TMC3    O1 3859   2.749   3.770  16.457 -0.5220  0.0469 -0.1423
  254TMC3    O2 3860   2.347   3.993  16.380  0.3555 -0.5070  0.4399
  255MPD2     C 3861   0.420   1.334  10.102 -0.1367  0.2837 -0.9087
  255MPD2    C1 3862   0.485   1.451  10.079 -0.6438  0.7001 -0.5095
  255MPD2    C2 3863   0.616   1.453  10.049 -0.1507 -0.2638 -0.3435
  255MPD2    C3 3864   0.684   1.335  10.040 -0.7777  0.2476 -0.2158
  255MPD2    C4 3865   0.618   1.216  10.063 -0.3432  0.3317 -0.6791
  255MPD2    C5 3866   0.487   1.216  10.090  1.0564 -0.3998  0.5987
  255MPD2     H 3867   0.670   1.547  10.045  1.2400 -0.8707  4.6627
  255MPD2    H1 3868   0.659   1.119  10.038 -1.4286  0.2038 -1.9456
  255MPD2    H2 3869   0.317   1.336  10.136  0.3841  2.5848  0.5291
  255MPD2    H3 3870   0.431   1.124  10.102  1.8238 -0.9472  0.0550
  255MPD2     N 3871   0.821   1.344  10.012  0.0743 -0.2279 -0.3770
  255MPD2    H5 3872   0.864   1.433   9.990 -1.0448 -0.4916 -3.5507
  255MPD2    N1 3873   0.403   1.563  10.097  0.1517 -0.0979  0.0825
  255MPD2    H7 3874   0.316   1.552  10.149 -0.4106  2.0427 -0.4123
  256TMC3    C1 3875   0.337   1.802  10.058  0.6015  0.1951 -0.1166
  256TMC3    C2 3876   0.324   1.890   9.952  0.6899  0.4027 -0.2775
  256TMC3    C3 3877   0.209   1.966   9.952  0.7639 -0.6593 -0.0305
  256TMC3    C4 3878   0.244   1.792  10.155  0.5206  0.2200  0.2127
  256TMC3    C5 3879   0.124   1.863  10.149 -1.0042  0.2640  0.0471
  256TMC3    C6 3880   0.116   1.964  10.051  0.0573  0.4597 -0.9916
  256TMC3     C 3881   0.436   1.689  10.046 -0.4391  0.2681 -0.2275
  256TMC3     O 3882   0.526   1.714   9.971  0.0744  0.6454 -0.5591
  256TMC3     H 3883   0.404   1.883   9.879  1.3678  1.3925  0.3648
  256TMC3    H1 3884   0.267   1.727  10.238  0.2237  1.3292  1.1699
  256TMC3    H2 3885   0.035   2.037  10.056  0.2905  0.5787  1.2374
  256TMC3    C7 3886   0.037   1.873  10.262 -0.1600 -0.9054 -0.4323
  256TMC3    C8 3887   0.186   2.069   9.848  0.6873 -0.2471 -0.0142
  256TMC3    O1 3888   0.020   1.993  10.299  0.0459 -0.2675  0.0693
  256TMC3    O2 3889   0.071   2.110   9.837  0.1866  0.0698 -0.8422
  257MPD2     C 3890   0.243   4.510  13.108 -0.3875  0.1469  0.5736
  257MPD2    C1 3891   0.216   4.392  13.039  0.4692  0.1603  0.8857
  257MPD2    C2 3892   0.226   4.268  13.111  0.4053  0.3243  1.3111
  257MPD2    C3 3893   0.269   4.256  13.242  0.3098  0.4132 -0.2488
  257MPD2    C4 3894   0.297   4.378  13.299  0.6103  0.2077  0.2324
  257MPD2    C5 3895   0.280   4.501  13.241 -0.2875 -0.3114  0.4259
  257MPD2     H 3896   0.204   4.171  13.068  2.2104  1.0259 -1.1891
  257MPD2    H1 3897   0.313   4.391  13.406 -1.1840 -0.1904  0.5500
  257MPD2    H2 3898   0.220   4.609  13.072 -0.8735  0.3299  1.3936
  257MPD2    H3 3899   0.284   4.593  13.298  0.8470  1.6461 -2.8462
  257MPD2     N 3900   0.290   4.126  13.294  0.0132  0.0779 -0.3175
  257MPD2    H5 3901   0.259   4.051  13.234 -1.2383  0.1097  0.2913
  257MPD2    N1 3902   0.173   4.400  12.906 -0.5241 -0.5018 -0.2167
  257MPD2    H7 3903   0.158   4.495  12.873  1.0521  0.6709  2.4125
  258TMC3    C1 3904   0.345   3.953  13.412  0.3620 -0.0263  0.5315
  258TMC3    C2 3905   0.379   3.877  13.299  0.3190 -0.1131  0.0249
  258TMC3    C3 3906   0.388   3.745  13.335  0.3464  0.2482 -0.0133
  258TMC3    C4 3907   0.348   3.910  13.539  0.2087 -0.2410  0.9065
  258TMC3    C5 3908   0.376   3.777  13.565 -0.2519  0.2986  0.0870
  258TMC3    C6 3909   0.396   3.693  13.463 -0.2860 -0.1908  1.0822
  258TMC3     C 3910   0.348   4.091  13.412  0.0486 -0.5556 -0.9601
  258TMC3     O 3911   0.373   4.162  13.508 -0.4617  0.0422 -0.0350
  258TMC3     H 3912   0.363   3.917  13.200  0.7656  0.1209  0.0451
  258TMC3    H1 3913   0.316   3.971  13.622  2.4824  0.9920  0.8756
  258TMC3    H2 3914   0.399   3.586  13.475  1.5571 -0.5872 -3.0034
  258TMC3    C7 3915   0.376   3.733  13.705 -0.1356 -0.3836 -0.7583
  258TMC3    C8 3916   0.369   3.644  13.233  0.2766 -0.5462  0.5441
  258TMC3    O1 3917   0.301   3.798  13.779  0.2602  0.4321 -0.0420
  258TMC3    O2 3918   0.329   3.531  13.273  0.0601  0.1236  0.2731
  259MPD2     C 3919   4.055   0.625   0.649  0.2573 -0.3041  0.4645
  259MPD2    C1 3920   4.123   0.712   0.727 -0.1018 -0.4883 -0.7361
  259MPD2    C2 3921   4.265   0.725   0.713  0.1263 -0.6104 -0.8877
  259MPD2    C3 3922   4.331   0.640   0.622  0.0670  0.0154 -0.0529
  259MPD2    C4 3923   4.258   0.557   0.539  0.0172  0.6967  0.4787
  259MPD2    C5 3924   4.125   0.544   0.563  0.2125 -0.3093  0.0196
  259MPD2     H 3925   4.322   0.797   0.770  0.7786 -0.5901 -1.5630
  259MPD2    H1 3926   4.302   0.484   0.472 -0.9820  0.1756  0.3847
  259MPD2    H2 3927   3.952   0.607   0.678 -0.0848  0.7954 -0.0716
  259MPD2    H3 3928   4.073   0.464   0.511  3.3350 -0.4568 -2.9507
  259MPD2     N 3929   4.478   0.651   0.604 -0.3010  0.3267 -0.0664
  259MPD2    H5 3930   4.527   0.730   0.645  0.3079 -0.5207  0.8472
  259MPD2    N1 3931   4.046   0.795   0.809 -0.2618  0.3553 -0.1706
  259MPD2    H7 3932   3.945   0.781   0.807 -0.3220  0.5278  1.3054
  260TMC3    C1 3933   4.690   0.611   0.524 -0.4164  0.0454  0.4208
  260TMC3    C2 3934   0.053   0.537   0.437  0.1846 -0.7715  0.0521
  260TMC3    C3 3935   0.182   0.514   0.478 -0.7871 -0.2608  1.1174
  260TMC3    C4 3936   0.021   0.659   0.638  0.5365  0.2689  0.5339
  260TMC3    C5 3937   0.148   0.625   0.677  0.4785  0.1920  0.1380
  260TMC3    C6 3938   0.235   0.561   0.596 -0.1950  0.0930  0.4167
  260TMC3     C 3939   4.549   0.582   0.504 -0.0564  0.3349  1.1020
  260TMC3     O 3940   4.509   0.508   0.417 -0.6598  0.1957 -0.1911
  260TMC3     H 3941   0.014   0.483   0.352 -2.3214 -0.1609  0.8272
  260TMC3    H1 3942   4.675   0.706   0.712 -0.8664  1.1981 -1.2683
  260TMC3    H2 3943   0.335   0.537   0.629  0.1726  1.3930  0.2784
  260TMC3    C7 3944   0.177   0.634   0.822 -0.3160  0.5061  0.0765
  260TMC3    C8 3945   0.265   0.430   0.397  0.2311 -0.5205 -0.3132
  260TMC3    O1 3946   0.296   0.643   0.846  0.3816 -0.3638 -0.4982
  260TMC3    O2 3947   0.217   0.364   0.306  0.3342 -0.3828 -0.5980
  261MPD2     C 3948   0.540   3.859  12.338  0.5343 -0.6463  0.7861
  261MPD2    C1 3949   0.619   3.975  12.377 -0.1112  0.0490  0.3418
  261MPD2    C2 3950   0.660   4.058  12.274 -0.4565 -0.1643 -0.9194
  261MPD2    C3 3951   0.634   4.038  12.136 -0.0804 -0.0202 -0.7265
  261MPD2    C4 3952   0.551   3.932  12.109  0.3253  0.6897  0.4650
  261MPD2    C5 3953   0.505   3.847  12.204  0.7251 -0.2061 -0.2147
  261MPD2     H 3954   0.723   4.141  12.305  0.2618 -1.3342  0.7260
  261MPD2    H1 3955   0.496   3.911  12.018 -0.3514 -3.4650  1.8315
  261MPD2    H2 3956   0.514   3.777  12.404  0.1052 -1.1371  0.0101
  261MPD2    H3 3957   0.456   3.754  12.177 -0.1118 -0.0200  0.6971
  261MPD2     N 3958   0.683   4.126  12.039 -0.2033  0.9297 -0.6299
  261MPD2    H5 3959   0.740   4.206  12.065  2.5062 -0.7920 -1.2812
  261MPD2    N1 3960   0.671   3.998  12.509  0.4453 -0.0652 -0.1339
  261MPD2    H7 3961   0.744   4.069  12.515  1.2205 -0.6949 -2.0739
  262TMC3    C1 3962   0.689   4.238  11.838  0.0197 -0.8525 -0.8689
  262TMC3    C2 3963   0.721   4.351  11.910  0.3063 -0.0042  0.2400
  262TMC3    C3 3964   0.797   4.451  11.846  0.2744  0.2009 -0.7171
  262TMC3    C4 3965   0.728   4.220  11.708 -0.2747 -0.2502  0.0279
  262TMC3    C5 3966   0.800   4.320  11.648 -0.5411  0.0056  0.3143
  262TMC3    C6 3967   0.846   4.426  11.723  0.2037 -0.3448  0.0536
  262TMC3     C 3968   0.658   4.121  11.906  0.1309 -1.3259 -0.1323
  262TMC3     O 3969   0.608   4.025  11.851 -0.4050  0.3961 -0.1760
  262TMC3     H 3970   0.670   4.377  12.002  2.4587 -0.6707  1.6151
  262TMC3    H1 3971   0.717   4.125  11.658 -1.7046  1.1548 -2.3691
  262TMC3    H2 3972   0.910   4.503  11.680 -0.1545  0.5037  1.0298
  262TMC3    C7 3973   0.856   4.288  11.518 -0.0510  0.2008  0.1625
  262TMC3    C8 3974   0.773   4.591  11.872 -0.0072 -0.0502  0.3307
  262TMC3    O1 3975   0.812   4.186  11.467 -0.0994 -0.8274 -0.2982
  262TMC3    O2 3976   0.858   4.680  11.865  0.0134 -0.2031 -0.0763
  263MPD2     C 3977   1.595   3.378  11.698  0.8454 -0.1476  0.1323
  263MPD2    C1 3978   1.695   3.367  11.604  0.4290 -0.3619 -0.2101
  263MPD2    C2 3979   1.660   3.395  11.474 -0.2486 -0.1948 -0.8565
  263MPD2    C3 3980   1.530   3.438  11.437  0.0920 -0.7924  0.0417
  263MPD2    C4 3981   1.433   3.447  11.537 -0.2024 -0.2539 -0.2151
  263MPD2    C5 3982   1.465   3.413  11.663  0.1532 -0.0397 -1.1960
  263MPD2     H 3983   1.735   3.392  11.396  0.0834  0.2655 -0.5592
  263MPD2    H1 3984   1.331   3.483  11.525 -0.5530 -1.0441  0.3524
  263MPD2    H2 3985   1.617   3.354  11.801 -2.0376 -2.2654  0.2507
  263MPD2    H3 3986   1.392   3.418  11.744  0.2780 -2.9160 -0.9077
  263MPD2     N 3987   1.507   3.483  11.308 -0.0441  0.2825 -0.8652
  263MPD2    H5 3988   1.573   3.453  11.237 -0.4889 -1.9302 -0.3617
  263MPD2    N1 3989   1.823   3.319  11.639  0.0781  0.1062  1.0921
  263MPD2    H7 3990   1.840   3.289  11.735  1.8011 -0.2413  0.6735
  264TMC3    C1 3991   1.432   3.635  11.139  0.0991  0.0863 -0.7924
  264TMC3    C2 3992   1.393   3.773  11.139  0.2155 -0.1845 -0.3534
  264TMC3    C3 3993   1.427   3.842  11.028 -0.9268  0.1828  1.2641
  264TMC3    C4 3994   1.507   3.569  11.039 -0.9324 -0.0114 -1.5519
  264TMC3    C5 3995   1.538   3.648  10.929  0.2389  0.0794  0.3816
  264TMC3    C6 3996   1.488   3.777  10.922 -0.2626 -0.5264  0.0733
  264TMC3     C 3997   1.407   3.566  11.262  0.2050  0.2182  0.8744
  264TMC3     O 3998   1.308   3.606  11.326  0.0862 -0.0398  0.0976
  264TMC3     H 3999   1.341   3.825  11.218 -0.2854  0.7403 -1.2793
  264TMC3    H1 4000   1.539   3.466  11.041  0.8848  0.5471 -2.1109
  264TMC3    H2 4001   1.501   3.836  10.831  1.3543  0.6575  1.0765
  264TMC3    C7 4002   1.654   3.622  10.845  0.2661  0.4480  0.0571
  264TMC3    C8 4003   1.514   3.945  11.061 -0.2410  0.1749 -0.3104
  264TMC3    O1 4004   1.675   3.504  10.816  0.2795  0.5731 -0.3983
  264TMC3    O2 4005   1.627   3.926  11.013 -0.2503 -0.3325  0.2759
  265MPD2     C 4006   4.643   4.000  15.640  0.1283 -0.1952  0.2030
  265MPD2    C1 4007   4.529   3.964  15.571  0.6353  0.5545  0.1067
  265MPD2    C2 4008   4.534   3.879  15.461 -0.1586 -0.5430 -0.3452
  265MPD2    C3 4009   4.658   3.832  15.413 -0.4324 -0.1446 -0.1281
  265MPD2    C4 4010   0.049   3.869  15.479 -0.8825  0.4262  0.4538
  265MPD2    C5 4011   0.042   3.952  15.592 -0.0686  0.2440 -0.5521
  265MPD2     H 4012   4.443   3.856  15.406  0.3743 -0.5505 -1.2192
  265MPD2    H1 4013   0.151   3.841  15.454 -0.4840 -0.0977  2.6871
  265MPD2    H2 4014   4.646   4.062  15.728 -0.7144  2.0861 -1.3604
  265MPD2    H3 4015   0.137   3.982  15.636  0.3280  2.1132 -2.6766
  265MPD2     N 4016   4.678   3.744  15.309  0.3836 -0.3287 -0.5554
  265MPD2    H5 4017   0.057   3.712  15.301  0.3059 -0.7247  0.0849
  265MPD2    N1 4018   4.396   4.019  15.603 -0.3295  0.4528  0.1294
  265MPD2    H7 4019   4.318   3.980  15.551  0.5555 -0.0743 -0.8094
  266TMC3    C1 4020   4.242   4.133  15.740 -0.2942  0.4311  0.0831
  266TMC3    C2 4021   4.216   4.210  15.855  0.0320 -0.1151 -0.2512
  266TMC3    C3 4022   4.099   4.274  15.868  0.7249 -0.6727 -0.8225
  266TMC3    C4 4023   4.146   4.109  15.641 -0.0872  0.1305 -0.8346
  266TMC3    C5 4024   4.025   4.171  15.672 -0.2456  0.2455  0.0952
  266TMC3    C6 4025   4.003   4.257  15.774 -0.5400 -0.3717 -0.1555
  266TMC3     C 4026   4.376   4.090  15.714  0.4702 -0.1630 -0.7660
  266TMC3     O 4027   4.455   4.130  15.802 -0.3518  0.2793 -0.3996
  266TMC3     H 4028   4.293   4.237  15.926 -0.1594  2.4337 -1.0024
  266TMC3    H1 4029   4.164   4.069  15.542 -0.6094 -1.0597 -0.4376
  266TMC3    H2 4030   3.909   4.309  15.782  0.8308  2.1996 -0.7057
  266TMC3    C7 4031   3.912   4.138  15.578 -0.7765  0.3075  0.2845
  266TMC3    C8 4032   4.087   4.369  15.973 -0.2490  0.5935 -0.0337
  266TMC3    O1 4033   3.808   4.199  15.593  0.6734 -0.3709 -0.2703
  266TMC3    O2 4034   4.143   4.338  16.079 -0.0009 -0.5462  0.0343
  267MPD2     C 4035   1.530   1.578   0.164  0.2067  0.0707 -0.0743
  267MPD2    C1 4036   1.560   1.445   0.141 -0.2760 -0.0836  0.3820
  267MPD2    C2 4037   1.532   1.393   0.012 -0.2709  0.5713  0.3684
  267MPD2    C3 4038   1.475   1.471  17.587 -0.0276 -0.5238  0.3832
  267MPD2    C4 4039   1.445   1.602  17.617 -0.1482 -0.0418 -0.2760
  267MPD2    C5 4040   1.470   1.655   0.065 -0.4612 -1.2077 -0.0174
  267MPD2     H 4041   1.578   1.299  17.659 -0.1116 -0.0060  2.6235
  267MPD2    H1 4042   1.391   1.668  17.551 -1.9970 -0.7041  0.5753
  267MPD2    H2 4043   1.539   1.622   0.263 -0.6623  0.2365 -0.0653
  267MPD2    H3 4044   1.443   1.755   0.097  0.0910 -1.1650  0.3135
  267MPD2     N 4045   1.464   1.429  17.453  0.2871 -0.1197  0.7937
  267MPD2    H5 4046   1.460   1.503  17.384  1.0351 -0.6221  0.2103
  267MPD2    N1 4047   1.625   1.375   0.243  0.3139  0.3823 -0.5222
  267MPD2    H7 4048   1.637   1.416   0.335 -1.6167  0.7358 -0.4413
  268TMC3    C1 4049   1.722   1.185   0.355 -0.0428 -0.3684  0.6244
  268TMC3    C2 4050   1.842   1.251   0.378  0.2509  0.6264 -0.1832
  268TMC3    C3 4051   1.944   1.179   0.440 -0.1135 -0.1641 -0.1107
  268TMC3    C4 4052   1.709   1.047   0.379 -0.0851  0.2317  0.8019
  268TMC3    C5 4053   1.816   0.983   0.439  0.1687 -0.5631  0.2337
  268TMC3    C6 4054   1.935   1.044   0.467 -0.1318 -0.1459  0.2903
  268TMC3     C 4055   1.644   1.239   0.242  0.0850 -0.2749 -0.8244
  268TMC3     O 4056   1.598   1.157   0.165 -0.2760 -0.1172 -0.3509
  268TMC3     H 4057   1.859   1.356   0.359 -1.2563  0.2678 -3.3385
  268TMC3    H1 4058   1.611   1.004   0.361 -0.7990  1.7404  1.0694
  268TMC3    H2 4059   2.022   0.994   0.509 -0.6800 -1.1969  0.1499
  268TMC3    C7 4060   1.813   0.844   0.462  0.7569 -0.1360  0.1622
  268TMC3    C8 4061   2.077   1.238   0.420  0.2584 -0.4056 -0.2963
  268TMC3    O1 4062   1.920   0.806   0.501  0.5621  0.1261  0.1369
  268TMC3    O2 4063   2.166   1.222   0.507  0.4785 -0.1744  0.6410
  269MPD2     C 4064   1.922   4.249  15.844 -0.1583  0.3332 -0.0265
  269MPD2    C1 4065   1.783   4.266  15.826  0.3809 -0.3305 -0.1100
  269MPD2    C2 4066   1.735   4.381  15.762 -0.0064  0.1080 -0.2986
  269MPD2    C3 4067   1.818   4.481  15.727 -0.1555  0.1163 -0.1410
  269MPD2    C4 4068   1.951   4.462  15.735 -0.2587  0.6171  0.5397
  269MPD2    C5 4069   2.005   4.351  15.805 -0.2189 -0.4092  0.2109
  269MPD2     H 4070   1.631   4.400  15.739  0.2077  2.5856  0.8020
  269MPD2    H1 4071   2.017   4.537  15.694  0.1070 -1.0386 -1.9263
  269MPD2    H2 4072   1.959   4.154  15.881 -0.1988  1.6637  3.4934
  269MPD2    H3 4073   2.113   4.341  15.807 -0.2297 -0.2183  2.2679
  269MPD2     N 4074   1.753   4.592  15.665  0.7175 -0.0130 -0.4060
  269MPD2    H5 4075   1.652   4.599  15.661  0.7736  1.2182  0.3177
  269MPD2    N1 4076   1.693   4.163  15.866 -0.1076  0.2240  0.0404
  269MPD2    H7 4077   1.742   4.086  15.911  0.2993  0.6753  0.3565
  270TMC3    C1 4078   1.514   4.006  15.849  0.6699 -0.0152 -0.4166
  270TMC3    C2 4079   1.402   3.965  15.777  0.2059 -0.2592  0.1143
  270TMC3    C3 4080   1.355   3.843  15.809 -0.4410 -0.7558  0.9888
  270TMC3    C4 4081   1.561   3.942  15.955  0.5775  0.8366  0.1570
  270TMC3    C5 4082   1.509   3.817  15.989  0.1350 -0.2876  0.4243
  270TMC3    C6 4083   1.407   3.764  15.911  0.0259  0.3840 -0.0791
  270TMC3     C 4084   1.556   4.146  15.835 -0.4428 -0.2890  0.6447
  270TMC3     O 4085   1.477   4.213  15.776  0.4785 -0.0306 -0.1611
  270TMC3     H 4086   1.354   4.025  15.701 -0.3343  0.6395  1.1578
  270TMC3    H1 4087   1.650   3.975  16.007  0.2621  0.0869  1.1803
  270TMC3    H2 4088   1.375   3.664  15.938  0.8335  0.1137 -0.1167
  270TMC3    C7 4089   1.612   3.720  16.021  0.4845 -0.4632  0.6929
  270TMC3    C8 4090   1.272   3.771  15.713 -0.1290  0.5955  0.2415
  270TMC3    O1 4091   1.723   3.749  15.983  0.0173  0.2277  0.1371
  270TMC3    O2 4092   1.209   3.676  15.757 -0.0511  0.1971  0.3737
  271MPD2     C 4093   0.711   4.168  14.019 -0.4758 -0.1960  0.0594
  271MPD2    C1 4094   0.667   4.124  14.143 -0.1670 -0.1081  0.1672
  271MPD2    C2 4095   0.534   4.136  14.174 -0.8047 -0.1438  0.2342
  271MPD2    C3 4096   0.436   4.184  14.080 -0.2901  0.0695 -0.0994
  271MPD2    C4 4097   0.484   4.220  13.959  0.1423 -0.3584  0.5575
  271MPD2    C5 4098   0.619   4.218  13.930  0.1495 -0.5883 -0.1428
  271MPD2     H 4099   0.498   4.102  14.270  1.5444 -0.4173  1.0140
  271MPD2    H1 4100   0.419   4.260  13.882 -1.0104 -1.7819  0.7768
  271MPD2    H2 4101   0.810   4.151  13.978 -0.4699  2.8331 -1.1804
  271MPD2    H3 4102   0.670   4.233  13.836 -1.1992 -1.2778 -0.9848
  271MPD2     N 4103   0.292   4.188  14.109  0.2558  0.5522  0.1205
  271MPD2    H5 4104   0.229   4.212  14.033  0.7867  0.9723 -0.1873
  271MPD2    N1 4105   0.753   4.071  14.243  0.4954 -0.2757 -0.3676
  271MPD2    H7 4106   0.709   4.037  14.328 -0.6582 -1.1730 -1.3204
  272TMC3    C1 4107   0.957   3.969  14.330  0.2425 -0.0564 -0.6462
  272TMC3    C2 4108   1.086   3.938  14.297 -0.1157 -0.2561 -0.3828
  272TMC3    C3 4109   1.158   3.849  14.384 -0.1298  0.0324  0.1656
  272TMC3    C4 4110   0.904   3.912  14.442 -0.3140  0.4870  0.5916
  272TMC3    C5 4111   0.979   3.831  14.529  0.6894 -0.3841  1.2522
  272TMC3    C6 4112   1.111   3.800  14.506  0.0487  0.2698  0.2688
  272TMC3     C 4113   0.892   4.060  14.229  0.5502 -0.1844  0.0021
  272TMC3     O 4114   0.962   4.117  14.149 -0.5768 -0.5208 -0.0066
  272TMC3     H 4115   1.126   3.962  14.200 -0.5015  0.0676 -0.4659
  272TMC3    H1 4116   0.800   3.926  14.467 -0.6895 -0.7322 -0.3367
  272TMC3    H2 4117   1.166   3.737  14.574  1.5942  0.0772 -1.1477
  272TMC3    C7 4118   0.937   3.828  14.667  0.0007  0.3081 -0.6723
  272TMC3    C8 4119   1.290   3.819  14.333  0.5156  0.0234 -0.0632
  272TMC3    O1 4120   0.816   3.812  14.684  0.2090  1.1207 -0.0596
  272TMC3    O2 4121   1.324   3.865  14.224  0.1670  0.1737  0.4445
  273MPD2     C 4122   2.252   2.201  12.165 -0.5276  0.2055  0.2880
  273MPD2    C1 4123   2.365   2.242  12.098 -0.1821 -0.2674  0.3357
  273MPD2    C2 4124   2.365   2.252  11.956 -0.1842  0.3294 -0.8370
  273MPD2    C3 4125   2.247   2.218  11.891  0.2474  0.1460 -0.6764
  273MPD2    C4 4126   2.135   2.178  11.961 -0.0181  0.7867 -0.0033
  273MPD2    C5 4127   2.136   2.170  12.093  1.3973  1.0232 -0.3860
  273MPD2     H 4128   2.456   2.271  11.901  0.9625 -0.9847  0.6302
  273MPD2    H1 4129   2.041   2.166  11.908 -0.7476  0.4356  1.3706
  273MPD2    H2 4130   2.258   2.188  12.272  1.9152  0.0134  0.1229
  273MPD2    H3 4131   2.051   2.133  12.150  0.6721  0.5484 -1.7970
  273MPD2     N 4132   2.237   2.216  11.749  0.4218  0.4003 -0.1953
  273MPD2    H5 4133   2.162   2.163  11.706  2.2950 -0.0872 -2.8438
  273MPD2    N1 4134   2.471   2.291  12.176  0.2915  0.2484 -0.7574
  273MPD2    H7 4135   2.476   2.269  12.275  0.6269 -0.7044 -0.9879
  274TMC3    C1 4136   2.287   2.269  11.519  0.1862 -1.0628 -0.1346
  274TMC3    C2 4137   2.166   2.219  11.478  1.0867 -0.7718 -0.1607
  274TMC3    C3 4138   2.138   2.223  11.343  0.7964  0.3358  0.3470
  274TMC3    C4 4139   2.371   2.344  11.436 -0.6636 -0.2289 -0.4846
  274TMC3    C5 4140   2.325   2.365  11.308  0.2298 -0.6670 -0.0211
  274TMC3    C6 4141   2.220   2.291  11.257  0.0144 -0.1815  0.1470
  274TMC3     C 4142   2.323   2.275  11.662  0.1151  0.1492 -0.1703
  274TMC3     O 4143   2.433   2.331  11.686 -0.1549  0.5536 -0.0473
  274TMC3     H 4144   2.101   2.161  11.542  0.4732  1.3182  1.1126
  274TMC3    H1 4145   2.466   2.381  11.473 -0.5741 -0.4731 -0.4741
  274TMC3    H2 4146   2.191   2.327  11.159 -1.4850 -1.3816  0.1452
  274TMC3    C7 4147   2.361   2.490  11.240 -0.1716 -0.0462  0.4007
  274TMC3    C8 4148   2.024   2.150  11.289 -0.2557 -0.1242  0.0144
  274TMC3    O1 4149   2.349   2.494  11.120  0.0714  0.1288  0.7947
  274TMC3    O2 4150   1.930   2.144  11.369  0.0227  0.2963 -0.1164
  275MPD2     C 4151   2.430   0.181  14.418 -0.8473  0.6337 -0.3238
  275MPD2    C1 4152   2.370   0.223  14.534 -0.3220  0.4365  1.0171
  275MPD2    C2 4153   2.238   0.182  14.550 -0.3176 -0.0937 -0.3577
  275MPD2    C3 4154   2.167   0.121  14.446  0.1543 -0.0158  0.6073
  275MPD2    C4 4155   2.226   0.095  14.325 -0.5211  0.1049  0.0860
  275MPD2    C5 4156   2.358   0.125  14.317  0.2760  0.4417 -0.1092
  275MPD2     H 4157   2.197   0.209  14.647 -1.2136 -0.5367 -0.6050
  275MPD2    H1 4158   2.174   0.057  14.238  0.1472 -0.8272  0.0827
  275MPD2    H2 4159   2.534   0.205  14.400 -0.3724 -1.7946 -0.7321
  275MPD2    H3 4160   2.408   0.103  14.223  0.7325  1.0597 -0.0082
  275MPD2     N 4161   2.034   0.090  14.455  0.0344  0.2760 -0.7146
  275MPD2    H5 4162   1.989   0.046  14.375  0.0838 -0.7333 -0.1795
  275MPD2    N1 4163   2.433   0.298  14.642 -0.5092  0.7381 -0.0615
  275MPD2    H7 4164   2.368   0.315  14.719 -0.8859 -0.8236 -0.0280
  276TMC3    C1 4165   2.591   0.407  14.779  0.4435 -0.1921  0.1265
  276TMC3    C2 4166   2.533   0.363  14.899  0.8017 -0.2235 -0.7090
  276TMC3    C3 4167   2.590   0.407  15.016  0.3300  0.3557  0.2444
  276TMC3    C4 4168   2.705   0.474  14.781 -0.1688  1.0239  0.2266
  276TMC3    C5 4169   2.742   0.528  14.899  0.1995 -0.5712 -0.1334
  276TMC3    C6 4170   2.683   0.509  15.022  0.2791  0.0862  0.3266
  276TMC3     C 4171   2.563   0.336  14.653 -0.0087 -0.0851 -0.3200
  276TMC3     O 4172   2.661   0.311  14.584 -0.0432  0.3252 -0.0328
  276TMC3     H 4173   2.453   0.292  14.885 -0.0093  0.6507 -0.4490
  276TMC3    H1 4174   2.753   0.505  14.689  1.4009 -1.0247  0.3499
  276TMC3    H2 4175   2.740   0.547  15.105 -2.3640  2.1425  1.1985
  276TMC3    C7 4176   2.883   0.544  14.914 -0.0349 -0.7027  0.0146
  276TMC3    C8 4177   2.545   0.342  15.138 -0.1466 -0.1139  0.2697
  276TMC3    O1 4178   2.917   0.638  14.985 -0.0632  0.1846 -0.7913
  276TMC3    O2 4179   2.569   0.409  15.242  0.2476 -0.6385 -0.0608
  277MPD2     C 4180   4.344   3.886  13.261 -0.0697  0.9293 -0.0030
  277MPD2    C1 4181   4.230   3.928  13.332 -0.1905 -0.0011 -0.1289
  277MPD2    C2 4182   4.162   3.831  13.409  0.2355  0.2611  0.1108
  277MPD2    C3 4183   4.205   3.699  13.418 -0.5041 -0.0480  0.5176
  277MPD2    C4 4184   4.317   3.663  13.344 -0.1190 -0.1480  0.0194
  277MPD2    C5 4185   4.387   3.753  13.273  0.4770  0.4559 -0.3359
  277MPD2     H 4186   4.077   3.856  13.470  0.2003 -1.6911  0.8375
  277MPD2    H1 4187   4.348   3.560  13.343  1.0123  0.1867  1.7496
  277MPD2    H2 4188   4.395   3.953  13.193 -0.1439  2.4779  1.4613
  277MPD2    H3 4189   4.473   3.716  13.218 -1.7111 -1.7996 -2.2307
  277MPD2     N 4190   4.117   3.612  13.481  0.1661  0.4772 -0.0433
  277MPD2    H5 4191   4.043   3.659  13.533  0.6285  1.9529 -0.7212
  277MPD2    N1 4192   4.181   4.060  13.308 -0.4150 -0.3284  0.6357
  277MPD2    H7 4193   4.232   4.119  13.242  0.6272  1.3439  2.9339
  278TMC3    C1 4194   4.003   3.435  13.554  0.0678 -0.2920  0.2138
  278TMC3    C2 4195   3.948   3.313  13.530  0.1640 -0.0537 -0.5656
  278TMC3    C3 4196   3.812   3.302  13.568 -0.5949 -0.2975  0.2658
  278TMC3    C4 4197   3.936   3.537  13.616 -0.8275  0.1476  0.3261
  278TMC3    C5 4198   3.805   3.523  13.647 -0.2801  0.0125 -0.8856
  278TMC3    C6 4199   3.736   3.406  13.619 -0.2978 -0.0013 -0.7553
  278TMC3     C 4200   4.111   3.476  13.474 -0.5966 -0.5611 -0.0616
  278TMC3     O 4201   4.163   3.409  13.387  0.5743  0.1301 -0.1595
  278TMC3     H 4202   4.006   3.229  13.492 -1.0738 -1.6085  0.9470
  278TMC3    H1 4203   3.981   3.631  13.646 -0.1242  1.1912 -3.9664
  278TMC3    H2 4204   3.634   3.392  13.655 -0.9592 -0.6009 -2.8747
  278TMC3    C7 4205   3.736   3.655  13.667  0.2331 -0.3236  0.2736
  278TMC3    C8 4206   3.740   3.177  13.542 -0.2918 -0.9725  0.0050
  278TMC3    O1 4207   3.802   3.761  13.674  0.4722  0.2254 -0.1066
  278TMC3    O2 4208   3.813   3.081  13.516 -0.2426 -0.4836  0.0122
  279MPD2     C 4209   3.696   3.803   0.324 -0.4216  0.1230  0.1584
  279MPD2    C1 4210   3.638   3.921   0.364 -0.2316  0.9924  0.5662
  279MPD2    C2 4211   3.667   4.042   0.304  0.4231 -0.2249 -0.4768
  279MPD2    C3 4212   3.761   4.044   0.203  0.3613  0.4007  1.1418
  279MPD2    C4 4213   3.807   3.925   0.149  0.0273  0.1929 -0.3028
  279MPD2    C5 4214   3.767   3.809   0.209 -0.1672 -0.0402 -0.1888
  279MPD2     H 4215   3.631   4.133   0.348 -2.1129 -1.3355 -0.2356
  279MPD2    H1 4216   3.883   3.925   0.072 -0.5864  1.3942 -0.8999
  279MPD2    H2 4217   3.672   3.704   0.360 -1.1782  0.4918  0.6619
  279MPD2    H3 4218   3.816   3.717   0.179 -0.8122 -0.9955  1.6510
  279MPD2     N 4219   3.791   4.160   0.128 -0.2689 -0.3438 -0.0903
  279MPD2    H5 4220   3.827   4.151   0.033  2.7367  1.9107  0.8178
  279MPD2    N1 4221   3.543   3.903   0.468  0.4824 -0.3722  0.0548
  279MPD2    H7 4222   3.528   3.807   0.498  0.2213  0.1304  1.5663
  280TMC3    C1 4223   3.371   3.973   0.620 -0.3437  0.1608  0.2345
  280TMC3    C2 4224   3.290   3.865   0.609  0.3367 -0.4759 -0.8492
  280TMC3    C3 4225   3.221   3.835   0.720 -0.8129  0.5276 -0.3666
  280TMC3    C4 4226   3.353   4.067   0.712  0.7572 -0.7240 -0.6209
  280TMC3    C5 4227   3.269   4.043   0.815  0.6811  0.2737 -0.2126
  280TMC3    C6 4228   3.204   3.921   0.828  0.5132 -0.1858  0.3788
  280TMC3     C 4229   3.463   4.010   0.510  0.4856 -0.9365  0.2243
  280TMC3     O 4230   3.461   4.129   0.483 -0.1622  0.0026  0.2480
  280TMC3     H 4231   3.303   3.802   0.522  1.0497 -1.9485  0.3159
  280TMC3    H1 4232   3.397   4.165   0.697 -0.3288 -0.4494 -1.9716
  280TMC3    H2 4233   3.145   3.905   0.917 -1.6393  0.9475 -0.8419
  280TMC3    C7 4234   3.214   4.156   0.883  0.1592 -0.4682  0.0293
  280TMC3    C8 4235   3.123   3.740   0.713  0.5427  0.2573  0.0564
  280TMC3    O1 4236   3.209   4.148   1.007  0.4427 -0.0763 -0.1114
  280TMC3    O2 4237   3.039   3.746   0.802 -0.1372  0.3146  0.5010
  281TMC3    C1 4238   1.698   4.549  13.534  0.1113  0.0770 -0.0472
  281TMC3    C2 4239   1.637   4.657  13.489  0.3644  0.0099 -0.8030
  281TMC3    C3 4240   1.503   4.648  13.460  0.0406  0.2993 -0.7161
  281TMC3    C4 4241   1.633   4.425  13.557 -0.1444  0.3579  0.6092
  281TMC3    C5 4242   1.495   4.430  13.530  0.1429  0.6718 -0.6777
  281TMC3    C6 4243   1.430   4.543  13.488  0.8943 -0.3957 -0.1630
  281TMC3     C 4244   1.838   4.546  13.565 -0.4283 -0.5981 -0.0559
  281TMC3     O 4245   1.901   4.441  13.583 -0.5189 -0.2402  0.2122
  281TMC3     H 4246   1.693   0.027  13.458 -0.3243  0.7925  0.1719
  281TMC3    H1 4247   1.685   4.337  13.594 -0.8427  0.7334  2.4431
  281TMC3    H2 4248   1.325   4.551  13.462  1.2739 -1.3515 -1.9255
  281TMC3    C7 4249   1.418   4.324  13.587 -0.2947 -0.1772 -0.1293
  281TMC3    C8 4250   1.446   0.033  13.374  0.1713 -0.6379 -0.1018
  281TMC3    O1 4251   1.300   4.347  13.595 -0.2054 -0.1252  0.1409
  281TMC3    O2 4252   1.350   4.715  13.308 -0.5766 -0.0233 -0.0027
  282MPD2     C 4253   3.742   0.903  15.227 -0.0854  0.5229 -0.5308
  282MPD2    C1 4254   3.607   0.926  15.228  0.2731  0.4110 -0.0630
  282MPD2    C2 4255   3.542   0.941  15.104 -0.1866 -0.2722  0.1380
  282MPD2    C3 4256   3.617   0.945  14.985  0.1720  0.2154 -0.6937
  282MPD2    C4 4257   3.755   0.927  14.983  0.4566 -0.0277  0.4688
  282MPD2    C5 4258   3.812   0.912  15.107 -0.4196 -0.6362 -0.8787
  282MPD2     H 4259   3.435   0.960  15.105 -0.5627 -2.2510 -2.4755
  282MPD2    H1 4260   3.813   0.925  14.892 -2.0933  1.2036 -1.1908
  282MPD2    H2 4261   3.802   0.899  15.317 -1.2910  0.0108  0.2381
  282MPD2    H3 4262   3.917   0.883  15.110 -0.0854  0.7122  0.4255
  282MPD2     N 4263   3.539   0.955  14.863  0.2262 -0.1850  0.1207
  282MPD2    H5 4264   3.441   0.975  14.880  0.6329  0.6035  1.5611
  282MPD2    N1 4265   3.528   0.925  15.347 -0.3128  0.2949  0.0107
  282MPD2    H7 4266   3.430   0.948  15.338 -0.6018 -1.3042 -1.0330
  283TMC3    C1 4267   3.488   0.920  15.573  0.6232 -0.1534 -0.1408
  283TMC3    C2 4268   3.416   1.037  15.560  0.2818  0.4030 -0.7781
  283TMC3    C3 4269   3.325   1.067  15.665 -0.6004  0.4892 -0.7187
  283TMC3    C4 4270   3.478   0.853  15.694 -0.1773 -0.1556  0.7776
  283TMC3    C5 4271   3.384   0.878  15.787 -0.4078  0.6482  1.1477
  283TMC3    C6 4272   3.305   0.991  15.777 -0.6767  0.5605 -0.0394
  283TMC3     C 4273   3.582   0.884  15.470  0.0359 -0.0621  0.5775
  283TMC3     O 4274   3.685   0.817  15.491  0.0766  0.1557  0.3242
  283TMC3     H 4275   3.427   1.095  15.470  0.2309  0.8737 -0.4785
  283TMC3    H1 4276   3.539   0.763  15.701 -1.9855 -1.5425 -1.6449
  283TMC3    H2 4277   3.247   1.019  15.864  0.3595  0.2511  0.7585
  283TMC3    C7 4278   3.331   0.767  15.855 -0.0480 -0.1793 -0.1891
  283TMC3    C8 4279   3.287   1.203  15.667 -0.7558 -0.1987 -0.4960
  283TMC3    O1 4280   3.214   0.771  15.891  0.3504 -0.6507  0.0669
  283TMC3    O2 4281   3.188   1.239  15.730  0.0827 -0.3740 -0.6964
  284MPD2     C 4282   1.529   0.589  11.575  0.0070  0.2272  0.3047
  284MPD2    C1 4283   1.637   0.509  11.576 -0.5928 -0.1341  0.2995
  284MPD2    C2 4284   1.632   0.393  11.655 -0.1270 -0.6268 -0.1706
  284MPD2    C3 4285   1.529   0.377  11.743 -0.7001  0.3741 -0.7373
  284MPD2    C4 4286   1.436   0.472  11.756  0.1095 -0.0320 -0.3804
  284MPD2    C5 4287   1.431   0.576  11.672 -0.0157 -0.0324  0.1434
  284MPD2     H 4288   1.722   0.332  11.655 -1.7898 -3.0653  2.9713
  284MPD2    H1 4289   1.355   0.465  11.827  2.0837 -1.0868  1.7509
  284MPD2    H2 4290   1.495   0.659  11.499 -0.1236  0.4574  0.5761
  284MPD2    H3 4291   1.346   0.643  11.676 -0.0437 -0.0961  0.7525
  284MPD2     N 4292   1.531   0.273  11.843  0.3413  0.3187  0.7201
  284MPD2    H5 4293   1.470   0.267  11.924 -0.7383 -1.1071 -0.2009
  284MPD2    N1 4294   1.752   0.532  11.495  0.2147  0.3614  0.4080
  284MPD2    H7 4295   1.836   0.477  11.511 -0.4609 -0.8096 -0.0858
  285TMC3    C1 4296   1.910   0.631  11.355  0.6926  0.6753  0.4692
  285TMC3    C2 4297   1.994   0.527  11.396  0.4925  0.7113 -0.4378
  285TMC3    C3 4298   2.125   0.531  11.356 -0.2292  0.4228  0.2484
  285TMC3    C4 4299   1.962   0.751  11.310  0.7218 -0.4023 -0.2823
  285TMC3    C5 4300   2.099   0.755  11.284 -0.4593  0.0500  0.5752
  285TMC3    C6 4301   2.178   0.647  11.308 -0.0847 -0.0571 -0.1491
  285TMC3     C 4302   1.773   0.633  11.406 -0.3271 -0.0421 -0.3211
  285TMC3     O 4303   1.695   0.726  11.378  0.2742 -0.5417  0.4800
  285TMC3     H 4304   1.951   0.431  11.424 -0.5330  1.6082  1.0983
  285TMC3    H1 4305   1.896   0.834  11.284 -0.1386 -1.0102 -0.0343
  285TMC3    H2 4306   2.284   0.650  11.287  0.3975  0.2289  2.3856
  285TMC3    C7 4307   2.160   0.883  11.249  0.4040 -0.5906  0.2436
  285TMC3    C8 4308   2.179   0.407  11.309  0.0280 -0.3215 -0.7893
  285TMC3    O1 4309   2.282   0.895  11.267  0.5952  0.3816  0.2617
  285TMC3    O2 4310   2.108   0.305  11.312  0.2451  0.8629  0.8583
  286MPD2     C 4311   1.737   3.346   1.172  0.0269 -0.6756  0.3590
  286MPD2    C1 4312   1.833   3.439   1.215  0.5426  0.3550 -0.1104
  286MPD2    C2 4313   1.961   3.390   1.234  0.4822 -0.2265 -0.3759
  286MPD2    C3 4314   1.988   3.257   1.214 -0.6796  0.1244 -0.1178
  286MPD2    C4 4315   1.896   3.168   1.173 -0.6712  0.5195  0.2752
  286MPD2    C5 4316   1.771   3.214   1.164 -0.6461  0.2929  0.3459
  286MPD2     H 4317   2.036   3.459   1.270 -1.9697  2.2539 -0.0059
  286MPD2    H1 4318   1.899   3.060   1.166  0.0037  0.6274 -1.1251
  286MPD2    H2 4319   1.632   3.369   1.160  0.0128 -2.3900 -2.9724
  286MPD2    H3 4320   1.693   3.142   1.143  0.1294 -0.5961  0.5481
  286MPD2     N 4321   2.109   3.199   1.245 -0.4025  0.0692  0.0106
  286MPD2    H5 4322   2.122   3.103   1.216  0.0015 -0.0011  0.4267
  286MPD2    N1 4323   1.797   3.579   1.230 -0.0874 -0.2227  0.1168
  286MPD2    H7 4324   1.867   3.650   1.248 -0.9854  0.7900 -0.3599
  287TMC3    C1 4325   2.327   3.170   1.311  0.1779 -0.2477  0.9346
  287TMC3    C2 4326   2.364   3.131   1.187 -0.4250 -0.4278  0.8277
  287TMC3    C3 4327   2.497   3.113   1.160 -0.1953  1.1576  0.1485
  287TMC3    C4 4328   2.425   3.193   1.406 -0.5072  0.4356  0.0571
  287TMC3    C5 4329   2.558   3.177   1.375  0.3049 -0.5372 -0.7648
  287TMC3    C6 4330   2.600   3.143   1.250  1.2146  0.1663 -1.0004
  287TMC3     C 4331   2.211   3.249   1.325 -0.5376 -0.4597  0.5101
  287TMC3     O 4332   2.221   3.361   1.365 -0.0504  0.0616  0.0347
  287TMC3     H 4333   2.297   3.115   1.103 -2.2206  1.4875  1.8882
  287TMC3    H1 4334   2.389   3.227   1.503 -3.0786 -0.4534 -0.5766
  287TMC3    H2 4335   2.706   3.126   1.234  1.3165 -0.1035 -0.0357
  287TMC3    C7 4336   2.652   3.229   1.464 -0.2520  0.4049  0.4769
  287TMC3    C8 4337   2.530   3.013   1.057 -0.7110 -0.5936 -0.1808
  287TMC3    O1 4338   2.609   3.319   1.535  0.2447  0.3398  0.2114
  287TMC3    O2 4339   2.435   2.953   1.012  0.6936 -0.4195 -0.4765
  288TMC3    C1 4340   4.422   3.016  13.803  0.3205 -0.2929 -0.0218
  288TMC3    C2 4341   4.416   3.064  13.930  0.4933  0.0517  0.1996
  288TMC3    C3 4342   4.391   3.197  13.942  0.2107  0.4122 -0.3481
  288TMC3    C4 4343   4.420   3.097  13.692  0.4068 -0.7438  0.5599
  288TMC3    C5 4344   4.395   3.231  13.709  0.5217 -0.8493 -0.4968
  288TMC3    C6 4345   4.383   3.284  13.831 -0.4686 -0.1348  0.4930
  288TMC3     C 4346   4.508   2.905  13.781 -0.3948  0.0978 -0.2919
  288TMC3     O 4347   4.482   2.840  13.678  0.4236 -0.0681 -0.0323
  288TMC3     H 4348   4.424   3.005  14.020  1.3370  2.0516  1.4389
  288TMC3    H1 4349   4.443   3.060  13.593  1.7139 -0.5384  0.7882
  288TMC3    H2 4350   4.361   3.389  13.843 -2.7826 -0.6184  0.4883
  288TMC3    C7 4351   4.460   3.312  13.615 -0.0891  0.4080 -0.5226
  288TMC3    C8 4352   4.372   3.249  14.075  0.3939  0.1479 -0.8314
  288TMC3    O1 4353   4.532   3.400  13.666  0.3888 -0.0173 -0.2378
  288TMC3    O2 4354   4.405   3.367  14.090  0.1971 -0.4629 -0.6707
  289MPD2     C 4355   4.213   2.747  14.482 -0.8044  0.4046  0.1794
  289MPD2    C1 4356   4.293   2.813  14.390  0.2055 -0.1070  0.7386
  289MPD2    C2 4357   4.243   2.810  14.264 -0.5299 -0.0926 -0.3742
  289MPD2    C3 4358   4.119   2.765  14.222  0.2846 -0.1048 -0.2845
  289MPD2    C4 4359   4.054   2.687  14.309  0.6177 -0.0647  0.1065
  289MPD2    C5 4360   4.092   2.691  14.441 -0.0491  0.5243  0.1276
  289MPD2     H 4361   4.301   2.863  14.189 -2.4796  2.8535  0.2028
  289MPD2    H1 4362   3.952   2.665  14.279  0.5503  1.1715 -0.5925
  289MPD2    H2 4363   4.245   2.727  14.584  1.9103  0.3617 -0.6652
  289MPD2    H3 4364   4.030   2.642  14.515 -0.5330  0.2408 -0.4618
  289MPD2     N 4365   4.067   2.781  14.101  0.4464 -0.1589 -0.0095
  289MPD2    H5 4366   3.992   2.715  14.081  1.8904 -1.7481 -0.1196
  289MPD2    N1 4367   4.415   2.875  14.435 -0.1499 -0.2326  0.2088
  289MPD2    H7 4368   4.423   2.874  14.536 -1.2514  0.9619  0.3128
  290TMC3    C1 4369   4.007   2.868  13.901 -0.1100 -0.1632 -0.0905
  290TMC3    C2 4370   3.927   2.978  13.905  0.3693  0.2070  1.0698
  290TMC3    C3 4371   3.810   2.971  13.836  0.1631 -0.6261 -0.3204
  290TMC3    C4 4372   3.982   2.750  13.840 -0.0146  0.3033 -0.4162
  290TMC3    C5 4373   3.862   2.744  13.775 -0.1506  0.0110  0.2341
  290TMC3    C6 4374   3.772   2.852  13.768 -0.6654  0.4547  0.1556
  290TMC3     C 4375   4.098   2.876  14.014  0.7608 -0.4369 -0.0741
  290TMC3     O 4376   4.145   2.984  14.042  0.0014  0.3153 -0.3086
  290TMC3     H 4377   3.962   3.073  13.945  4.1794 -0.7404 -0.0577
  290TMC3    H1 4378   4.056   2.671  13.847  1.5632  1.7069 -1.3997
  290TMC3    H2 4379   3.682   2.838  13.709 -0.6015  0.1851  0.1258
  290TMC3    C7 4380   3.808   2.633  13.692 -0.4423  0.0483 -0.2773
  290TMC3    C8 4381   3.700   3.059  13.862 -1.0132 -0.2909 -0.1175
  290TMC3    O1 4382   3.758   2.657  13.585 -0.6600 -0.1037  0.3061
  290TMC3    O2 4383   3.593   3.010  13.833 -0.3842  0.1022  0.4043
  291MPD2     C 4384   4.380   2.355   0.734  0.0620  0.5265  0.1870
  291MPD2    C1 4385   4.291   2.263   0.684 -0.5210  0.4582  0.6258
  291MPD2    C2 4386   4.340   2.141   0.664  1.1255  0.1583  0.2778
  291MPD2    C3 4387   4.475   2.108   0.679  0.5088 -0.1561  0.7366
  291MPD2    C4 4388   4.567   2.201   0.731  0.0737 -0.0703  0.5828
  291MPD2    C5 4389   4.515   2.325   0.749 -0.2163 -0.7623 -0.2365
  291MPD2     H 4390   4.274   2.058   0.644 -0.3278  1.4610 -0.3296
  291MPD2    H1 4391   4.674   2.186   0.745  0.2219 -1.5773 -2.1627
  291MPD2    H2 4392   4.356   2.454   0.771 -0.8009  0.3641  0.0671
  291MPD2    H3 4393   4.576   2.408   0.781  0.5581 -0.6336 -2.0097
  291MPD2     N 4394   4.530   1.980   0.668  0.1538 -0.5387  0.0822
  291MPD2    H5 4395   4.614   1.959   0.721 -0.2606  1.3932  1.4918
  291MPD2    N1 4396   4.149   2.281   0.673  0.1146 -0.5527 -0.3816
  291MPD2    H7 4397   4.101   2.196   0.646 -1.3051  0.5132 -1.2634
  292TMC3    C1 4398   3.949   2.387   0.673 -0.5669 -0.9227  0.5501
  292TMC3    C2 4399   3.875   2.490   0.707 -0.1638  0.7380 -0.4310
  292TMC3    C3 4400   3.742   2.485   0.691 -0.7072  0.3972  0.1340
  292TMC3    C4 4401   3.899   2.270   0.626 -0.0190 -0.0395 -0.1225
  292TMC3    C5 4402   3.763   2.265   0.617  0.2343  0.0256  0.5343
  292TMC3    C6 4403   3.685   2.371   0.644  0.0464  0.5209 -0.6086
  292TMC3     C 4404   4.085   2.397   0.698  0.4459  0.5962 -0.2144
  292TMC3     O 4405   4.119   2.507   0.743 -0.1019  0.5319  0.0647
  292TMC3     H 4406   3.924   2.576   0.753  0.7302  0.1721 -0.3252
  292TMC3    H1 4407   3.959   2.188   0.589 -0.7991  0.8171 -3.3791
  292TMC3    H2 4408   3.581   2.359   0.615  0.4743 -0.8699 -1.5807
  292TMC3    C7 4409   3.695   2.148   0.570  0.1059 -0.2682 -0.3370
  292TMC3    C8 4410   3.650   2.572   0.758 -0.0744 -0.2656 -0.0652
  292TMC3    O1 4411   3.756   2.077   0.495 -0.6618  0.4121 -0.8275
  292TMC3    O2 4412   3.702   2.677   0.791  0.4548  0.3010 -0.6288
  293MPD2     C 4413   0.509   4.559  12.467 -0.6735 -0.1821 -0.1960
  293MPD2    C1 4414   0.500   4.427  12.515  0.2906 -0.0116  0.5812
  293MPD2    C2 4415   0.546   4.399  12.645 -0.0710  0.2519 -0.5513
  293MPD2    C3 4416   0.568   4.505  12.733 -0.3963 -0.5920  1.0012
  293MPD2    C4 4417   0.572   4.639  12.681 -0.0018  0.1071  0.1981
  293MPD2    C5 4418   0.545   4.662  12.551  1.1157  0.0446 -0.9048
  293MPD2     H 4419   0.566   4.297  12.678 -1.8761  0.4784  1.2540
  293MPD2    H1 4420   0.600   0.007  12.741 -0.1924  0.9364 -0.9008
  293MPD2    H2 4421   0.477   4.590  12.368 -0.5152 -0.1597 -0.2407
  293MPD2    H3 4422   0.554   0.045  12.515 -0.7551  1.3172  2.1467
  293MPD2     N 4423   0.604   4.474  12.869 -0.0476 -0.4237  0.3966
  293MPD2    H5 4424   0.608   4.376  12.892 -2.7053 -1.1696 -2.2649
  293MPD2    N1 4425   0.434   4.335  12.433 -0.4282 -0.0138 -0.1537
  293MPD2    H7 4426   0.413   4.359  12.337 -1.9433  1.2277  0.5002
  294TMC3    C1 4427   0.322   4.123  12.388  0.1777  0.4984 -0.2621
  294TMC3    C2 4428   0.234   4.039  12.446  0.0560  0.4122 -0.1638
  294TMC3    C3 4429   0.150   3.965  12.368 -0.6106  0.3566 -1.3213
  294TMC3    C4 4430   0.326   4.133  12.252  0.4948 -0.4155 -0.1144
  294TMC3    C5 4431   0.240   4.056  12.180 -0.3095 -0.1426  0.0674
  294TMC3    C6 4432   0.155   3.959  12.229  0.0322  0.1615 -0.2126
  294TMC3     C 4433   0.393   4.209  12.482 -0.0988  0.7592  0.0649
  294TMC3     O 4434   0.398   4.169  12.601 -0.5748  0.1394 -0.0033
  294TMC3     H 4435   0.223   4.028  12.553 -2.7066  1.7265 -0.3162
  294TMC3    H1 4436   0.408   4.189  12.210  1.7365 -2.9581 -1.0784
  294TMC3    H2 4437   0.068   3.913  12.184  0.2888 -0.6377  0.0991
  294TMC3    C7 4438   0.246   4.076  12.037 -0.6056 -0.6125  0.2857
  294TMC3    C8 4439   0.041   3.892  12.439 -0.0625  0.1765 -0.4779
  294TMC3    O1 4440   0.305   4.177  11.997 -0.6840  0.9835 -0.2285
  294TMC3    O2 4441   0.005   3.933  12.550  0.6021 -0.3541 -0.0246
  295MPD2     C 4442   1.808   2.186   0.395  0.0463  0.7144  0.7578
  295MPD2    C1 4443   1.674   2.206   0.403 -0.1107 -0.6406  0.6836
  295MPD2    C2 4444   1.608   2.219   0.525  0.0448 -0.1784 -0.5279
  295MPD2    C3 4445   1.683   2.205   0.641 -0.0287  0.3990  0.3659
  295MPD2    C4 4446   1.824   2.195   0.634  0.2687 -0.2155 -0.3791
  295MPD2    C5 4447   1.886   2.182   0.512  0.0829  0.2427  0.3353
  295MPD2     H 4448   1.501   2.226   0.532  0.2013 -0.5269  2.2774
  295MPD2    H1 4449   1.881   2.195   0.726 -0.5589  2.4035  0.1640
  295MPD2    H2 4450   1.856   2.170   0.300  1.5800  2.6305  1.2015
  295MPD2    H3 4451   1.993   2.172   0.497  0.2572  0.2793  1.5358
  295MPD2     N 4452   1.618   2.217   0.766  0.1176 -0.5879  0.6005
  295MPD2    H5 4453   1.521   2.246   0.760  0.6149  0.8424 -0.6240
  295MPD2    N1 4454   1.587   2.205   0.293  0.0198 -0.0304  0.2254
  295MPD2    H7 4455   1.489   2.225   0.308  0.3225  1.0661  0.7188
  296TMC3    C1 4456   1.567   2.148   0.984 -0.7319 -0.9649 -0.1484
  296TMC3    C2 4457   1.465   2.236   1.009 -0.0247  0.5420 -0.4208
  296TMC3    C3 4458   1.374   2.217   1.106  0.8694  0.1550  0.5896
  296TMC3    C4 4459   1.573   2.034   1.054 -0.1183  0.4242 -0.1117
  296TMC3    C5 4460   1.467   2.006   1.144  0.2177  0.4434  0.4610
  296TMC3    C6 4461   1.369   2.098   1.176  0.4985 -0.3471 -0.4210
  296TMC3     C 4462   1.673   2.164   0.883 -0.4665 -0.3549  0.4058
  296TMC3     O 4463   1.781   2.115   0.908  0.5210  0.4421  0.2886
  296TMC3     H 4464   1.464   2.332   0.961 -0.1684 -0.3066 -2.1134
  296TMC3    H1 4465   1.645   1.956   1.033  0.0523  0.8806 -1.2359
  296TMC3    H2 4466   1.315   2.088   1.269  0.4808 -2.1066 -0.6232
  296TMC3    C7 4467   1.462   1.870   1.200 -0.1467  0.3300 -0.1403
  296TMC3    C8 4468   1.325   2.338   1.171  0.8483 -0.5679 -0.4516
  296TMC3    O1 4469   1.567   1.806   1.204 -0.1575 -0.1899 -0.6317
  296TMC3    O2 4470   1.272   2.423   1.102 -0.4489  0.5936 -0.0166
  297MPD2     C 4471   3.098   4.314  16.736  0.2610  0.4963  0.7356
  297MPD2    C1 4472   3.007   4.394  16.665 -0.1014  0.4140  0.2559
  297MPD2    C2 4473   3.046   4.518  16.618  0.1871 -0.4442  0.2218
  297MPD2    C3 4474   3.172   4.562  16.656 -0.1724 -0.1572  0.7325
  297MPD2    C4 4475   3.255   4.483  16.737  0.1077  0.0021 -0.0425
  297MPD2    C5 4476   3.220   4.359  16.769 -0.9540 -0.5842  0.6389
  297MPD2     H 4477   2.977   4.578  16.560 -0.0976 -3.3954 -2.5113
  297MPD2    H1 4478   3.352   4.514  16.774  0.8435 -0.2181 -1.7925
  297MPD2    H2 4479   3.064   4.213  16.760  0.2348  0.7197  1.6437
  297MPD2    H3 4480   3.290   4.298  16.825  1.3094  1.2160 -0.2232
  297MPD2     N 4481   3.208   4.691  16.621  0.0470 -1.0164 -0.4687
  297MPD2    H5 4482   3.137   0.031  16.579 -0.3981  1.4255  3.6613
  297MPD2    N1 4483   2.886   4.338  16.627  0.7563 -0.5988  0.3473
  297MPD2    H7 4484   2.830   4.382  16.555  2.1117 -0.7312 -0.7779
  298TMC3    C1 4485   2.686   4.214  16.642  0.1015  0.5207  0.5871
  298TMC3    C2 4486   2.690   4.198  16.506  0.1408  0.2165  0.7134
  298TMC3    C3 4487   2.578   4.232  16.439 -0.5428 -0.3257  0.3068
  298TMC3    C4 4488   2.583   4.273  16.705 -0.3262  0.0807 -0.4951
  298TMC3    C5 4489   2.480   4.317  16.630  0.2091 -0.5381 -0.0886
  298TMC3    C6 4490   2.477   4.310  16.491  0.2366 -0.7313  0.1266
  298TMC3     C 4491   2.818   4.236  16.695  0.8856 -0.2999  0.1706
  298TMC3     O 4492   2.847   4.185  16.804 -0.5852  0.0283  0.4774
  298TMC3     H 4493   2.773   4.147  16.458 -1.0672 -0.0149 -1.1713
  298TMC3    H1 4494   2.587   4.284  16.813 -0.4310 -0.3789 -0.4444
  298TMC3    H2 4495   2.383   4.325  16.441  0.4141  5.5422  1.6660
  298TMC3    C7 4496   2.394   4.413  16.700  0.6149 -1.0812  0.6690
  298TMC3    C8 4497   2.588   4.223  16.291 -0.9635 -0.4731 -0.3910
  298TMC3    O1 4498   2.413   4.434  16.815  0.3670 -0.3290  0.1033
  298TMC3    O2 4499   2.689   4.188  16.230 -0.3022  0.2093  0.2498
  299MPD2     C 4500   3.329   3.403  10.489  0.4239  0.2223 -0.6544
  299MPD2    C1 4501   3.333   3.521  10.415  0.7444 -0.2738  0.1488
  299MPD2    C2 4502   3.208   3.568  10.358  0.2803  0.2254  0.5419
  299MPD2    C3 4503   3.097   3.494  10.375  0.9931  0.3961 -0.4946
  299MPD2    C4 4504   3.103   3.377  10.440 -0.3696 -0.0506 -0.0649
  299MPD2    C5 4505   3.216   3.319  10.492  0.0905  0.4770 -0.8662
  299MPD2     H 4506   3.210   3.665  10.311 -0.2925  0.7940  1.7029
  299MPD2    H1 4507   3.011   3.321  10.456  0.0386 -0.6853  0.0108
  299MPD2    H2 4508   3.418   3.369  10.540 -1.3327 -1.2737  1.4608
  299MPD2    H3 4509   3.208   3.228  10.551  0.6878  0.7074 -0.4350
  299MPD2     N 4510   2.965   3.542  10.343  0.4572  0.0142  0.0916
  299MPD2    H5 4511   2.885   3.481  10.357  0.2479  0.8899  2.8226
  299MPD2    N1 4512   3.457   3.595  10.416 -0.6682 -0.4814  0.1663
  299MPD2    H7 4513   3.530   3.566  10.480 -0.9779 -0.1432  0.6746
  300TMC3    C1 4514   2.788   3.680  10.287 -0.6449 -0.3254 -0.1596
  300TMC3    C2 4515   2.738   3.788  10.213 -0.6287 -0.2082  0.0652
  300TMC3    C3 4516   2.616   3.852  10.240 -0.4565  0.8528 -0.4348
  300TMC3    C4 4517   2.720   3.645  10.402 -0.3821  0.0776 -0.0730
  300TMC3    C5 4518   2.601   3.712  10.434  0.5732  0.1542  0.0797
  300TMC3    C6 4519   2.548   3.811  10.350 -0.0772  0.7298 -0.6739
  300TMC3     C 4520   2.932   3.660  10.277  0.6125  0.5772 -0.1537
  300TMC3     O 4521   3.000   3.751  10.228  0.2593  0.2097 -0.6704
  300TMC3     H 4522   2.789   3.821  10.123  1.4273 -1.1079  0.9030
  300TMC3    H1 4523   2.771   3.580  10.473 -1.4560  0.3382  0.9182
  300TMC3    H2 4524   2.453   3.852  10.384 -0.5485 -1.4148  0.5830
  300TMC3    C7 4525   2.552   3.695  10.569 -0.6009  0.5891  0.8139
  300TMC3    C8 4526   2.600   3.982  10.182 -0.2334 -0.0205 -0.4095
  300TMC3    O1 4527   2.563   3.582  10.619  0.1193  0.1504 -0.9650
  300TMC3    O2 4528   2.682   4.032  10.106 -0.2229  0.4622 -0.0682
  301MPD2     C 4529   1.848   1.209   1.196  0.7236 -0.0903 -0.7541
  301MPD2    C1 4530   1.729   1.137   1.176 -0.1580 -0.2000  0.3582
  301MPD2    C2 4531   1.747   0.998   1.159 -0.7504 -0.2962 -0.0329
  301MPD2    C3 4532   1.871   0.936   1.174  1.1262 -0.3409 -0.6384
  301MPD2    C4 4533   1.981   1.012   1.212  0.3839 -0.9030 -0.5888
  301MPD2    C5 4534   1.970   1.150   1.216  0.1905 -1.5865 -0.8036
  301MPD2     H 4535   1.654   0.944   1.144  0.3555 -1.7453 -1.6844
  301MPD2    H1 4536   2.075   0.963   1.230  0.5982  0.2195  1.3463
  301MPD2    H2 4537   1.841   1.317   1.204 -0.0594  0.1408 -4.4881
  301MPD2    H3 4538   2.059   1.210   1.231 -0.5563 -0.9689  1.1003
  301MPD2     N 4539   1.888   0.793   1.176  0.6286  0.1350 -0.3965
  301MPD2    H5 4540   1.986   0.767   1.175  0.1749 -1.5595 -0.3461
  301MPD2    N1 4541   1.598   1.188   1.167 -0.3296 -0.1168 -0.1890
  301MPD2    H7 4542   1.524   1.124   1.139 -0.2421 -0.9128  1.3630
  302TMC3    C1 4543   1.839   0.564   1.138 -0.3559 -0.3417  0.2861
  302TMC3    C2 4544   1.951   0.532   1.207 -0.3910 -0.3535 -0.4475
  302TMC3    C3 4545   1.989   0.397   1.193  0.7348 -1.0293 -0.1427
  302TMC3    C4 4546   1.775   0.477   1.056 -0.1014 -0.4966 -0.1815
  302TMC3    C5 4547   1.809   0.346   1.064 -0.3508 -0.1377  0.2838
  302TMC3    C6 4548   1.920   0.305   1.121  0.0953 -0.4926  0.0621
  302TMC3     C 4549   1.790   0.702   1.141  0.3739  0.4836 -0.2597
  302TMC3     O 4550   1.689   0.724   1.075  0.6038  0.2880 -0.0958
  302TMC3     H 4551   2.013   0.607   1.255 -0.6387 -0.3844 -0.0741
  302TMC3    H1 4552   1.703   0.508   0.981 -0.3170  0.4647  0.4282
  302TMC3    H2 4553   1.957   0.205   1.101 -0.1992 -0.4373 -0.7586
  302TMC3    C7 4554   1.733   0.255   0.985 -0.3157  0.0193  0.0470
  302TMC3    C8 4555   2.101   0.344   1.275  0.2902  0.3947 -0.0831
  302TMC3    O1 4556   1.785   0.157   0.937 -0.0407  0.5644  0.7818
  302TMC3    O2 4557   2.133   0.237   1.238  0.1813 -0.3217  0.2957
  303MPD2     C 4558   1.210   3.497  10.343  0.5161  0.2189  0.2957
  303MPD2    C1 4559   1.158   3.370  10.359 -0.4538 -0.0577 -0.2847
  303MPD2    C2 4560   1.121   3.297  10.250 -0.0068  0.2379 -0.0222
  303MPD2    C3 4561   1.154   3.346  10.124 -0.2967  0.1444 -1.0877
  303MPD2    C4 4562   1.220   3.462  10.106 -0.2603  0.3570 -0.6061
  303MPD2    C5 4563   1.250   3.534  10.220 -0.0283 -0.0572  0.6217
  303MPD2     H 4564   1.083   3.196  10.262 -0.6553  0.5647  0.7189
  303MPD2    H1 4565   1.260   3.485  10.008 -0.4652 -0.6886 -0.9237
  303MPD2    H2 4566   1.242   3.562  10.424  3.1678  0.6577 -1.1185
  303MPD2    H3 4567   1.302   3.629  10.214 -2.9257  1.6138  1.8101
  303MPD2     N 4568   1.126   3.277  10.006 -0.2123 -0.1334 -0.4481
  303MPD2    H5 4569   1.176   3.312   9.925  0.9102 -2.2450 -0.6543
  303MPD2    N1 4570   1.134   3.320  10.490 -0.3094  0.2029 -0.7094
  303MPD2    H7 4571   1.144   3.378  10.573  0.5585 -0.0425 -0.6402
  304TMC3    C1 4572   1.055   3.189  10.658  0.1074 -0.1689 -0.4837
  304TMC3    C2 4573   0.951   3.276  10.692 -0.4808  0.5700 -0.5721
  304TMC3    C3 4574   0.866   3.221  10.785  0.3544  0.3216  0.3893
  304TMC3    C4 4575   1.062   3.060  10.710 -0.2468  0.0285 -0.2004
  304TMC3    C5 4576   0.977   3.018  10.806  0.1994 -0.6092  0.5065
  304TMC3    C6 4577   0.881   3.104  10.850  0.1842 -0.3689  0.1216
  304TMC3     C 4578   1.094   3.196  10.522  0.5604 -0.2062  0.3724
  304TMC3     O 4579   1.119   3.099  10.456 -0.2673  0.4640  0.6841
  304TMC3     H 4580   0.932   3.365  10.634  0.3313  2.0911  1.4928
  304TMC3    H1 4581   1.141   2.995  10.673 -2.2609 -2.5518 -0.0131
  304TMC3    H2 4582   0.805   3.063  10.915  0.8959 -0.2841  1.0164
  304TMC3    C7 4583   0.925   2.885  10.789 -0.2376  0.1302  0.4265
  304TMC3    C8 4584   0.730   3.241  10.737  0.3787  0.1750 -0.9427
  304TMC3    O1 4585   0.803   2.882  10.799  0.8289 -0.1396 -0.0619
  304TMC3    O2 4586   0.705   3.349  10.686  0.4238 -0.0020 -0.0154
  305MPD2     C 4587   3.939   1.524  13.871 -0.3971 -0.7573 -0.4698
  305MPD2    C1 4588   3.938   1.433  13.971 -0.1457 -0.1093 -0.7513
  305MPD2    C2 4589   3.920   1.300  13.946  0.2175 -0.0196  0.5380
  305MPD2    C3 4590   3.893   1.251  13.816 -0.6569  0.0715  0.6180
  305MPD2    C4 4591   3.884   1.345  13.717 -0.4488 -0.0648  0.2096
  305MPD2    C5 4592   3.903   1.481  13.746 -0.2792 -0.2695 -0.2326
  305MPD2     H 4593   3.933   1.230  14.028  0.7341  1.1922  1.4964
  305MPD2    H1 4594   3.870   1.310  13.615 -0.4949  0.7343 -0.0580
  305MPD2    H2 4595   3.961   1.627  13.897 -3.8366  0.1012 -1.0116
  305MPD2    H3 4596   3.897   1.549  13.662 -0.1005 -1.9932 -1.6518
  305MPD2     N 4597   3.877   1.111  13.787  0.9609 -0.3175  0.8562
  305MPD2    H5 4598   3.861   1.088  13.689 -1.5803  1.4145  0.8796
  305MPD2    N1 4599   3.981   1.471  14.104 -0.4241 -0.3255  0.2270
  305MPD2    H7 4600   4.033   1.557  14.112 -0.2508 -0.5117  1.0726
  306TMC3    C1 4601   4.002   1.487  14.336 -1.1733 -0.3935 -0.2012
  306TMC3    C2 4602   3.939   1.507  14.455 -0.1808  1.1503 -0.8480
  306TMC3    C3 4603   3.997   1.582  14.551 -0.2111  0.4201 -0.1092
  306TMC3    C4 4604   4.120   1.552  14.309 -0.1310 -1.2004 -0.0903
  306TMC3    C5 4605   4.176   1.628  14.407  0.1382 -0.1333 -0.4690
  306TMC3    C6 4606   4.127   1.635  14.535 -0.2027  0.3938 -0.5623
  306TMC3     C 4607   3.946   1.412  14.226 -0.6752  1.0777  0.4333
  306TMC3     O 4608   3.855   1.332  14.245 -0.5372  0.4453  0.0066
  306TMC3     H 4609   3.847   1.453  14.475  0.5137  1.1416  2.2857
  306TMC3    H1 4610   4.182   1.537  14.222  0.9145 -3.4930  1.0421
  306TMC3    H2 4611   4.178   1.700  14.604  1.5207 -1.0355 -0.4817
  306TMC3    C7 4612   4.312   1.689  14.383  0.0292 -0.0173 -0.0158
  306TMC3    C8 4613   3.967   1.556  14.691  0.6509  0.6489 -0.0864
  306TMC3    O1 4614   4.340   1.739  14.275 -0.4460 -0.3628 -0.1149
  306TMC3    O2 4615   4.055   1.585  14.768 -0.1344 -0.1534 -0.5167
  307MPD2     C 4616   2.327   3.586   0.066 -0.0324 -0.3095 -0.1012
  307MPD2    C1 4617   2.233   3.663   0.005  0.2844  0.3631  0.0502
  307MPD2    C2 4618   2.117   3.692   0.075  0.5779 -0.4959  0.1636
  307MPD2    C3 4619   2.103   3.657   0.211 -0.0572  0.6679 -0.4003
  307MPD2    C4 4620   2.203   3.575   0.263  0.0662 -0.9510 -0.5725
  307MPD2    C5 4621   2.315   3.552   0.198 -0.6833 -0.9508  0.6512
  307MPD2     H 4622   2.040   3.748   0.022  1.5336  2.5610  2.0283
  307MPD2    H1 4623   2.212   3.549   0.368 -0.5355  2.1333  0.2428
  307MPD2    H2 4624   2.424   3.560   0.023 -0.1808  0.7360 -1.0895
  307MPD2    H3 4625   2.393   3.489   0.239 -2.4965 -1.7460  2.8406
  307MPD2     N 4626   1.982   3.680   0.283 -0.0443 -0.7434 -0.2675
  307MPD2    H5 4627   1.915   3.745   0.244  0.9936  0.9332  0.7535
  307MPD2    N1 4628   2.248   3.719  17.549  0.3343 -0.9703  0.1134
  307MPD2    H7 4629   2.183   3.787  17.510 -2.3843 -2.5813  1.8793
  308TMC3    C1 4630   1.595   3.624   0.504  0.4264  0.3460 -0.2301
  308TMC3    C2 4631   1.572   3.755   0.539  0.0437  0.0982  0.8525
  308TMC3    C3 4632   1.675   3.845   0.535  0.2043 -1.2193  0.0732
  308TMC3    C4 4633   1.719   3.582   0.468 -0.5499  0.1924  0.1742
  308TMC3    C5 4634   1.816   3.675   0.456  0.2887 -0.8923  0.0517
  308TMC3    C6 4635   1.801   3.805   0.508 -0.8192 -0.6947  0.9965
  308TMC3     C 4636   1.489   3.522   0.519  0.1261  0.2228 -0.0746
  308TMC3     O 4637   1.519   3.405   0.485  0.1142 -0.7487 -0.5174
  308TMC3     H 4638   1.479   3.793   0.581 -0.9126  0.7482 -1.8347
  308TMC3    H1 4639   1.735   3.481   0.433  1.1071  0.8830 -1.0386
  308TMC3    H2 4640   1.883   3.873   0.490  1.5779 -3.7687  0.3133
  308TMC3    C7 4641   1.950   3.633   0.414 -0.1433 -1.1013 -0.2076
  308TMC3    C8 4642   1.657   3.970   0.604 -0.6030  0.1555  0.1137
  308TMC3    O1 4643   2.006   3.545   0.481  0.0554  0.5812 -0.0915
  308TMC3    O2 4644   1.573   3.978   0.690  0.2822  0.0243 -0.2041
  309MPD2     C 4645   0.998   3.896  16.981 -0.1197  0.3622 -0.0428
  309MPD2    C1 4646   0.963   4.026  16.949 -0.0057  0.4807 -0.1194
  309MPD2    C2 4647   0.872   4.089  17.031  0.0965 -1.2552 -0.1402
  309MPD2    C3 4648   0.825   4.022  17.150 -0.4256  0.3067 -0.2800
  309MPD2    C4 4649   0.848   3.886  17.176 -0.2247  0.3217  0.1696
  309MPD2    C5 4650   0.932   3.828  17.080 -0.1139  0.0423 -0.0838
  309MPD2     H 4651   0.851   4.192  17.006 -1.3981 -1.2322  1.2186
  309MPD2    H1 4652   0.830   3.821  17.261 -1.0144 -0.7208 -0.7906
  309MPD2    H2 4653   1.075   3.841  16.928 -0.2094  2.6912 -2.5622
  309MPD2    H3 4654   0.957   3.724  17.096 -0.8064  0.2339  2.3131
  309MPD2     N 4655   0.750   4.086  17.250 -0.0341 -0.4632 -0.5489
  309MPD2    H5 4656   0.734   4.022  17.327  0.8992 -0.4416 -0.3333
  309MPD2    N1 4657   1.014   4.095  16.841 -0.0764  0.0293  0.5099
  309MPD2    H7 4658   1.088   4.041  16.796  0.7854  0.9373  0.8168
  310TMC3    C1 4659   1.037   4.242  16.659 -0.1491  0.5364 -0.5679
  310TMC3    C2 4660   0.974   4.327  16.579  0.2197 -0.2416 -0.0545
  310TMC3    C3 4661   1.024   4.357  16.459 -0.0102 -0.3929  0.2631
  310TMC3    C4 4662   1.141   4.172  16.613 -0.7238 -0.4733  0.3346
  310TMC3    C5 4663   1.186   4.202  16.488 -0.0068 -0.1257 -0.2045
  310TMC3    C6 4664   1.133   4.288  16.403 -0.0235 -0.5064 -0.0083
  310TMC3     C 4665   0.978   4.221  16.790  0.0005  0.7072 -0.1207
  310TMC3     O 4666   0.892   4.302  16.821 -0.0001  0.5297  0.1822
  310TMC3     H 4667   0.884   4.373  16.615  0.9465  0.7857  0.4482
  310TMC3    H1 4668   1.199   4.109  16.681  3.2468  1.2144 -1.5259
  310TMC3    H2 4669   1.170   4.305  16.302  0.4803 -1.8654 -0.0595
  310TMC3    C7 4670   1.291   4.119  16.440 -0.1983  0.3898  0.3056
  310TMC3    C8 4671   0.983   4.476  16.387  0.4956  0.0968  0.0950
  310TMC3    O1 4672   1.309   4.013  16.503  0.4514  0.5506  0.9771
  310TMC3    O2 4673   1.039   4.501  16.276  0.3673 -0.1770  0.1205
  311MPD2     C 4674   3.226   0.726  13.116  0.5274  0.6914 -0.9215
  311MPD2    C1 4675   3.206   0.830  13.028  0.4885  0.1264  0.3534
  311MPD2    C2 4676   3.088   0.838  12.959  0.3610 -1.1360 -0.3501
  311MPD2    C3 4677   2.985   0.750  12.982 -0.3744  0.3010  0.2116
  311MPD2    C4 4678   3.002   0.644  13.067  1.1811  0.1167  0.4976
  311MPD2    C5 4679   3.128   0.635  13.135  0.1999  0.0680  0.4560
  311MPD2     H 4680   3.063   0.916  12.888  2.3715 -1.3050 -1.2623
  311MPD2    H1 4681   2.926   0.569  13.090 -2.2678  2.0222 -4.6494
  311MPD2    H2 4682   3.318   0.711  13.170 -1.4342  1.7640  2.7080
  311MPD2    H3 4683   3.146   0.547  13.196 -1.0782 -0.8971 -0.5666
  311MPD2     N 4684   2.861   0.774  12.925 -0.0781  0.4282  0.5856
  311MPD2    H5 4685   2.843   0.868  12.892  1.2268  0.2276 -0.6748
  311MPD2    N1 4686   3.309   0.913  12.990 -0.6747  0.1291 -0.1710
  311MPD2    H7 4687   3.296   0.987  12.922  0.1766 -1.6528 -2.2860
  312TMC3    C1 4688   2.627   0.759  12.896  0.4815  0.1335 -0.1581
  312TMC3    C2 4689   2.531   0.706  12.811  0.6687  0.1083  0.1262
  312TMC3    C3 4690   2.423   0.782  12.779  0.6166 -0.1515  0.1073
  312TMC3    C4 4691   2.606   0.879  12.956 -0.0432  0.6628  0.1046
  312TMC3    C5 4692   2.495   0.952  12.925  0.0609  0.5931 -0.0731
  312TMC3    C6 4693   2.402   0.907  12.836  0.1432  0.1989  0.2911
  312TMC3     C 4694   2.753   0.691  12.914  0.0023 -0.1432 -0.5531
  312TMC3     O 4695   2.751   0.568  12.915 -0.2611  0.3284 -0.7359
  312TMC3     H 4696   2.556   0.618  12.752 -0.2708 -0.5656  0.7163
  312TMC3    H1 4697   2.670   0.912  13.037  0.1557 -0.1605  0.2856
  312TMC3    H2 4698   2.308   0.959  12.829 -0.6897 -1.6526 -2.2565
  312TMC3    C7 4699   2.444   1.048  13.016 -0.3079  0.6227 -0.8618
  312TMC3    C8 4700   2.330   0.734  12.683 -0.6063  0.1640  0.0982
  312TMC3    O1 4701   2.349   1.118  12.988  0.4877  0.1050 -0.7337
  312TMC3    O2 4702   2.331   0.616  12.655  0.3540 -0.0750  0.1835
  313MPD2     C 4703   2.276   4.337  10.615 -0.5783 -0.6452  0.2084
  313MPD2    C1 4704   2.176   4.428  10.582 -0.1630  0.5221  1.1636
  313MPD2    C2 4705   2.066   4.380  10.517 -0.1385 -0.5377  0.2794
  313MPD2    C3 4706   2.050   4.239  10.494  0.7995 -0.6213  0.6213
  313MPD2    C4 4707   2.156   4.160  10.530  0.6249  0.1146 -0.3410
  313MPD2    C5 4708   2.263   4.205  10.588  0.3297  0.2694 -0.5473
  313MPD2     H 4709   1.983   4.442  10.484  0.3066  0.0971  0.3395
  313MPD2    H1 4710   2.165   4.053  10.512 -0.4086 -0.6475  3.6790
  313MPD2    H2 4711   2.368   4.366  10.666 -0.7702 -0.6603  0.5665
  313MPD2    H3 4712   2.347   4.139  10.606 -0.3209 -0.8087 -1.4641
  313MPD2     N 4713   1.939   4.183  10.428  0.0401 -0.0121 -0.6355
  313MPD2    H5 4714   1.853   4.236  10.415  0.2532  0.5582  0.3049
  313MPD2    N1 4715   2.192   4.576  10.596 -0.2195  0.0040  0.4384
  313MPD2    H7 4716   2.120   4.638  10.561  0.1032  0.1320  0.0072
  314TMC3    C1 4717   2.329   0.053  10.602  0.6521 -0.6725  0.7602
  314TMC3    C2 4718   2.448   0.104  10.651  0.5675  0.0440  0.2511
  314TMC3    C3 4719   2.483   0.225  10.617  0.2663  0.5257  0.6372
  314TMC3    C4 4720   2.253   0.120  10.503  0.6057 -0.7420  0.2290
  314TMC3    C5 4721   2.304   0.235  10.456 -0.3462  0.5713  0.0059
  314TMC3    C6 4722   2.414   0.290  10.508 -0.7862  0.3226  0.0866
  314TMC3     C 4723   2.312   4.630  10.639  0.0581 -0.0668 -0.1107
  314TMC3     O 4724   2.391   4.584  10.720  0.4068  0.2731  0.0913
  314TMC3     H 4725   2.507   0.049  10.724  2.6172  0.1957 -1.3026
  314TMC3    H1 4726   2.157   0.082  10.471  0.7938 -0.9466 -0.0917
  314TMC3    H2 4727   2.450   0.388  10.479 -1.0230 -0.0013 -1.2980
  314TMC3    C7 4728   2.240   0.295  10.338  0.3093  0.7953  0.1631
  314TMC3    C8 4729   2.529   0.313  10.724 -0.1539  0.2598  0.3012
  314TMC3    O1 4730   2.127   0.267  10.304  0.5966  0.0442  0.4516
  314TMC3    O2 4731   2.464   0.410  10.750  0.4641  0.7901  0.2634
  315MPD2     C 4732   2.316   4.135   0.291  0.0325  0.2325  0.1342
  315MPD2    C1 4733   2.415   4.135   0.390  0.3306  0.5639 -0.1795
  315MPD2    C2 4734   2.496   4.244   0.405 -0.2868 -0.0895  0.4902
  315MPD2    C3 4735   2.487   4.355   0.315  0.7252  0.1533  0.1096
  315MPD2    C4 4736   2.391   4.354   0.215  0.4212 -0.0137 -0.0745
  315MPD2    C5 4737   2.308   4.243   0.204 -0.5664 -0.2871  0.3061
  315MPD2     H 4738   2.566   4.245   0.488  1.7028 -1.2838 -1.1486
  315MPD2    H1 4739   2.361   4.438   0.154 -0.0384  0.8420  1.3362
  315MPD2    H2 4740   2.256   4.047   0.274  0.2649  0.1828 -0.4172
  315MPD2    H3 4741   2.236   4.234   0.123  0.7340  0.3487 -0.9236
  315MPD2     N 4742   2.573   4.463   0.327 -0.0814 -0.0464  0.7774
  315MPD2    H5 4743   2.645   4.451   0.397 -0.0895 -0.0526  0.7847
  315MPD2    N1 4744   2.432   4.029   0.485  0.3650 -0.0259  0.3030
  315MPD2    H7 4745   2.501   4.050   0.556 -1.1203  0.0760  1.7120
  316TMC3    C1 4746   2.659   4.678   0.315  0.4594  0.7902 -0.0409
  316TMC3    C2 4747   2.713   4.668   0.440  0.1173 -0.1410 -0.2226
  316TMC3    C3 4748   2.793   0.049   0.490 -0.1877  0.1642 -0.5219
  316TMC3    C4 4749   2.698   0.062   0.232  0.1422  0.0685 -0.1699
  316TMC3    C5 4750   2.778   0.165   0.281  0.1487  0.2624 -0.6633
  316TMC3    C6 4751   2.827   0.156   0.409  0.4427 -0.5299  0.2677
  316TMC3     C 4752   2.574   4.582   0.256  0.0813 -0.3150 -0.0335
  316TMC3     O 4753   2.516   4.610   0.152  0.5042 -0.2141  0.2548
  316TMC3     H 4754   2.686   4.591   0.510  0.2504  1.4958  1.6124
  316TMC3    H1 4755   2.663   0.061   0.129 -0.1526 -1.5921 -0.0574
  316TMC3    H2 4756   2.890   0.232   0.454 -0.2071  0.5168 -0.5649
  316TMC3    C7 4757   2.827   0.266   0.191  0.0135  0.2436 -0.2870
  316TMC3    C8 4758   2.878   0.025   0.604  0.2304  0.7669  0.3139
  316TMC3    O1 4759   2.927   0.330   0.222  0.3133  0.0955 -0.6699
  316TMC3    O2 4760   2.924   0.120   0.660  0.0778  0.2026  0.5634
  317MPD2     C 4761   4.366   2.460  12.342  0.3468 -0.2598 -0.3447
  317MPD2    C1 4762   4.438   2.346  12.370  0.1519  0.0009  0.2288
  317MPD2    C2 4763   4.484   2.318  12.495  0.2339  0.0241  0.6917
  317MPD2    C3 4764   4.468   2.409  12.596  0.2128 -0.2652 -0.3539
  317MPD2    C4 4765   4.403   2.529  12.561 -0.4471  0.0726  0.5763
  317MPD2    C5 4766   4.355   2.556  12.435 -0.1015  0.0229 -0.0645
  317MPD2     H 4767   4.526   2.221  12.517 -0.1448 -0.0849  0.9373
  317MPD2    H1 4768   4.396   2.609  12.633  0.0045 -1.3808  2.2137
  317MPD2    H2 4769   4.347   2.494  12.241 -0.8057  2.3889  0.7750
  317MPD2    H3 4770   4.308   2.653  12.422  0.8790  0.6705  1.1440
  317MPD2     N 4771   4.506   2.381  12.730 -0.2322 -0.1690 -0.4469
  317MPD2    H5 4772   4.553   2.295  12.757  0.4609  0.2514 -0.3169
  317MPD2    N1 4773   4.461   2.240  12.271 -0.7620  0.3184  0.7179
  317MPD2    H7 4774   4.521   2.164  12.301  0.6859  2.2373  2.6837
  318TMC3    C1 4775   4.519   2.407  12.961 -0.5131 -0.3105  0.0351
  318TMC3    C2 4776   4.434   2.384  13.063 -0.2339  0.7789  0.3393
  318TMC3    C3 4777   4.483   2.308  13.167  0.0326 -0.3856 -0.3993
  318TMC3    C4 4778   4.653   2.368  12.961  0.2179 -0.4933 -0.3229
  318TMC3    C5 4779   4.703   2.298  13.070 -0.5467 -0.1690 -0.5834
  318TMC3    C6 4780   4.617   2.269  13.173 -0.0445 -0.1989  0.0833
  318TMC3     C 4781   4.462   2.452  12.838 -0.0843  0.0040  0.5469
  318TMC3     O 4782   4.365   2.528  12.845 -0.4769  0.0764 -0.0412
  318TMC3     H 4783   4.332   2.421  13.058  0.3846  2.3208 -0.6906
  318TMC3    H1 4784   4.713   2.375  12.870 -1.0140  0.5277 -1.0487
  318TMC3    H2 4785   4.654   2.207  13.253  0.8653  0.6772  0.3343
  318TMC3    C7 4786   0.124   2.258  13.087  0.4092  0.2669 -0.4441
  318TMC3    C8 4787   4.383   2.243  13.252 -0.3899 -1.3161  0.2245
  318TMC3    O1 4788   0.153   2.203  13.196 -0.2064 -0.2525 -0.3595
  318TMC3    O2 4789   4.417   2.199  13.360  0.0690  0.1302 -0.0474
  319MPD2     C 4790   0.474   3.891  17.103  0.2093 -0.6713  0.1688
  319MPD2    C1 4791   0.342   3.913  17.117 -0.3043  0.0897 -0.7167
  319MPD2    C2 4792   0.277   3.977  17.011  0.0187 -0.2931 -0.3501
  319MPD2    C3 4793   0.341   4.012  16.890  0.0380 -0.3276 -0.2954
  319MPD2    C4 4794   0.471   3.989  16.889  0.6681 -0.3716 -0.0876
  319MPD2    C5 4795   0.536   3.930  16.992 -0.2734  0.0648  0.5304
  319MPD2     H 4796   0.170   3.991  17.024  0.1840 -0.4062  1.0631
  319MPD2    H1 4797   0.533   4.012  16.802 -0.8515  2.5376 -0.4045
  319MPD2    H2 4798   0.533   3.842  17.179  1.8653 -0.3382 -0.8951
  319MPD2    H3 4799   0.643   3.908  16.990 -0.8068 -2.1450 -3.8945
  319MPD2     N 4800   0.270   4.043  16.771  0.1804  0.1041 -0.0889
  319MPD2    H5 4801   0.169   4.034  16.774 -0.0319  2.8151  0.9452
  319MPD2    N1 4802   0.266   3.864  17.228  0.0847 -0.1421  0.6332
  319MPD2    H7 4803   0.165   3.871  17.217  0.3085  1.8021 -0.2636
  320TMC3    C1 4804   0.231   4.111  16.549  0.1724 -0.0075 -0.2222
  320TMC3    C2 4805   0.257   4.209  16.462  0.3036 -0.5357 -0.0999
  320TMC3    C3 4806   0.167   4.230  16.359  0.8732 -0.4301  0.3160
  320TMC3    C4 4807   0.114   4.039  16.539  0.3778 -0.5569 -0.2202
  320TMC3    C5 4808   0.026   4.062  16.439  0.0947 -0.1322  0.0621
  320TMC3    C6 4809   0.052   4.154  16.342 -0.4456  0.2539  0.5361
  320TMC3     C 4810   0.329   4.088  16.657  0.5085  0.4071  0.0257
  320TMC3     O 4811   0.443   4.096  16.623  0.0746 -0.0667 -0.0686
  320TMC3     H 4812   0.339   4.278  16.476  1.1651 -1.3441 -1.1546
  320TMC3    H1 4813   0.103   3.946  16.595 -1.0366 -0.0296  0.3699
  320TMC3    H2 4814   4.700   4.157  16.258  1.1122  1.1614 -0.7311
  320TMC3    C7 4815   4.611   4.000  16.433 -0.4877 -0.2088  0.6468
  320TMC3    C8 4816   0.169   4.362  16.318  0.2285  0.1530  0.2316
  320TMC3    O1 4817   4.559   3.983  16.326  0.5769  0.5225  0.4059
  320TMC3    O2 4818   0.205   4.453  16.392 -0.0523  0.5695 -0.2002
  321TMC3    C1 4819   0.204   3.779  17.428  0.4537 -0.1060 -0.1133
  321TMC3    C2 4820   0.106   3.702  17.384 -0.4772  0.1486  0.1424
  321TMC3    C3 4821   0.040   3.630  17.476 -0.1938  0.4810  0.2050
  321TMC3    C4 4822   0.245   3.788  17.555 -0.0162  0.4500 -0.4197
  321TMC3    C5 4823   0.180   3.713  17.650  0.0067  0.2718 -0.3801
  321TMC3    C6 4824   0.059   3.645  17.613  0.3015 -0.0570 -0.5161
  321TMC3     C 4825   0.311   3.818  17.341 -0.6840 -0.3165  0.0130
  321TMC3     O 4826   0.426   3.812  17.384 -0.1557  0.2850 -0.2450
  321TMC3     H 4827   0.077   3.699  17.279  0.5014 -1.0270 -0.0961
  321TMC3    H1 4828   0.328   3.854  17.578 -0.3158  0.9004 -0.6346
  321TMC3    H2 4829   4.705   3.608   0.012  1.9322 -0.4604  0.8826
  321TMC3    C7 4830   0.266   3.623   0.046  0.4929 -0.2790  0.1933
  321TMC3    C8 4831   0.002   3.495  17.442 -0.8537 -0.1450  0.9917
  321TMC3    O1 4832   0.384   3.632   0.010  0.5112  0.8452  0.2104
  321TMC3    O2 4833   0.002   3.420  17.538 -0.6993 -0.0061  0.0179
  322MPD2     C 4834   4.138   0.632  14.001  0.2865 -0.0332  0.0899
  322MPD2    C1 4835   4.012   0.590  14.041  0.6619  0.4367 -0.4521
  322MPD2    C2 4836   3.950   0.483  13.989 -0.3599  0.3309  0.3050
  322MPD2    C3 4837   4.012   0.412  13.890 -0.1494 -0.5373 -0.2597
  322MPD2    C4 4838   4.128   0.463  13.837  0.1706 -0.0879  0.2407
  322MPD2    C5 4839   4.193   0.564  13.894 -0.1291 -0.0389  0.9060
  322MPD2     H 4840   3.847   0.458  14.011  0.1786  1.0388  3.5730
  322MPD2    H1 4841   4.169   0.430  13.741 -1.0727  0.4163 -0.4614
  322MPD2    H2 4842   4.190   0.721  14.032 -0.0458 -0.0177  0.6176
  322MPD2    H3 4843   4.286   0.596  13.848  0.7514 -1.8623  1.3892
  322MPD2     N 4844   3.944   0.303  13.830  0.1631 -0.2129  0.3115
  322MPD2    H5 4845   3.852   0.284  13.869 -1.1880 -0.2306 -2.9587
  322MPD2    N1 4846   3.957   0.664  14.152 -0.2543 -0.1314  0.4229
  322MPD2    H7 4847   4.015   0.735  14.195  0.9752  0.2273 -1.8154
  323TMC3    C1 4848   3.799   0.739  14.312  0.1240 -0.0133 -1.0169
  323TMC3    C2 4849   3.885   0.845  14.311  0.0422 -0.6308  0.3075
  323TMC3    C3 4850   3.950   0.887  14.423  0.1131  0.0844 -0.4280
  323TMC3    C4 4851   3.786   0.665  14.428  0.1795 -0.0959 -0.2968
  323TMC3    C5 4852   3.861   0.704  14.538  0.6624 -0.9304 -0.0939
  323TMC3    C6 4853   3.935   0.818  14.540  0.2094 -0.4097 -0.4274
  323TMC3     C 4854   3.833   0.641  14.212  0.1185 -0.0699  0.1947
  323TMC3     O 4855   3.755   0.547  14.187  0.2641 -0.0016  0.1226
  323TMC3     H 4856   3.922   0.887  14.218  2.0914 -2.6520  0.2154
  323TMC3    H1 4857   3.732   0.571  14.419  0.2899 -0.2239  0.3593
  323TMC3    H2 4858   4.002   0.841  14.622 -0.9077  0.9689  0.1011
  323TMC3    C7 4859   3.876   0.610  14.648 -0.0636  0.1410  0.4418
  323TMC3    C8 4860   4.076   0.948  14.403 -0.0316 -0.3691  0.2292
  323TMC3    O1 4861   3.817   0.498  14.637 -0.5641  0.2166 -0.2776
  323TMC3    O2 4862   4.143   0.928  14.302  0.4630 -0.0155 -0.3212
  324MPD2     C 4863   1.073   1.453  14.590  0.1146  0.1921 -0.0713
  324MPD2    C1 4864   1.119   1.570  14.528 -0.5660  0.0816  0.1931
  324MPD2    C2 4865   1.028   1.655  14.458  0.5117  0.1817  0.7932
  324MPD2    C3 4866   0.892   1.620  14.463 -0.0438 -0.7013  0.3112
  324MPD2    C4 4867   0.848   1.513  14.536 -0.1871 -0.0935  0.5293
  324MPD2    C5 4868   0.941   1.424  14.590 -0.0617  1.2077  0.2088
  324MPD2     H 4869   1.060   1.749  14.413 -1.1825  0.9900  1.2620
  324MPD2    H1 4870   0.742   1.491  14.544 -0.4693  1.5382  1.1327
  324MPD2    H2 4871   1.143   1.397  14.652 -1.1142 -0.3089  0.8460
  324MPD2    H3 4872   0.909   1.333  14.641  2.3434 -0.3491 -1.1045
  324MPD2     N 4873   0.786   1.679  14.388 -0.6208  0.2703 -0.1904
  324MPD2    H5 4874   0.692   1.645  14.407 -0.8365  0.4517 -0.9237
  324MPD2    N1 4875   1.250   1.612  14.535  0.3740 -0.1102  0.0104
  324MPD2    H7 4876   1.269   1.709  14.513 -1.0373  0.1177 -0.2020
  325TMC3    C1 4877   0.655   1.814  14.256 -0.4435  0.5702  0.0848
  325TMC3    C2 4878   0.591   1.695  14.225  0.4618  0.7158 -0.2771
  325TMC3    C3 4879   0.456   1.692  14.227 -0.1149 -0.6007 -0.9685
  325TMC3    C4 4880   0.592   1.928  14.292  0.2828  0.0791 -0.5115
  325TMC3    C5 4881   0.453   1.918  14.305 -0.1949 -0.4912  0.3700
  325TMC3    C6 4882   0.383   1.806  14.269  0.4788  0.3628 -0.0789
  325TMC3     C 4883   0.789   1.789  14.309  0.3313  0.6861  0.1298
  325TMC3     O 4884   0.881   1.867  14.288 -0.6795 -0.1380 -0.3497
  325TMC3     H 4885   0.642   1.610  14.180 -3.6042 -2.0722  0.4061
  325TMC3    H1 4886   0.653   2.010  14.329 -1.2956  1.0731 -0.1174
  325TMC3    H2 4887   0.276   1.801  14.285  0.3351 -3.4331 -2.2116
  325TMC3    C7 4888   0.378   2.026  14.368  0.1993  0.5232 -0.1293
  325TMC3    C8 4889   0.387   1.585  14.159  0.2361 -0.2651  0.0293
  325TMC3    O1 4890   0.426   2.079  14.470 -0.1767  0.0252  0.0612
  325TMC3    O2 4891   0.455   1.485  14.135  0.3754  0.1765  0.1576
  326MPD2     C 4892   1.603   2.407  11.528  0.3633 -0.1347  0.3305
  326MPD2    C1 4893   1.619   2.363  11.399  0.1459 -0.1123  0.6525
  326MPD2    C2 4894   1.732   2.398  11.332 -0.5663  0.2033 -0.1934
  326MPD2    C3 4895   1.821   2.493  11.377  0.4339  0.1573 -0.1848
  326MPD2    C4 4896   1.805   2.545  11.505 -0.5637 -0.1859  0.0213
  326MPD2    C5 4897   1.700   2.492  11.582  0.0161  0.0237  0.2719
  326MPD2     H 4898   1.746   2.368  11.229 -3.5798  1.4895 -0.9833
  326MPD2    H1 4899   1.885   2.605  11.548 -0.3037 -1.0182  0.6839
  326MPD2    H2 4900   1.518   2.387  11.592 -1.6301  1.4321 -1.8102
  326MPD2    H3 4901   1.690   2.528  11.684 -3.9002 -1.6155  0.4622
  326MPD2     N 4902   1.923   2.544  11.289 -0.3269  0.1925 -0.2183
  326MPD2    H5 4903   1.916   2.520  11.191 -0.3707  0.0518 -0.1795
  326MPD2    N1 4904   1.509   2.318  11.316 -0.1310 -0.1064  0.2843
  326MPD2    H7 4905   1.538   2.308  11.219 -2.0795 -1.8958 -0.1042
  327TMC3    C1 4906   1.305   2.302  11.224 -0.2375 -0.3828  0.4069
  327TMC3    C2 4907   1.266   2.418  11.163  0.0007 -0.1208  0.4055
  327TMC3    C3 4908   1.277   2.418  11.024  0.3432  0.3301  0.0883
  327TMC3    C4 4909   1.354   2.193  11.157 -0.3359 -0.4604  0.0161
  327TMC3    C5 4910   1.364   2.195  11.025 -0.0997  0.2445 -0.5510
  327TMC3    C6 4911   1.319   2.307  10.963  0.3487  0.0609  0.8837
  327TMC3     C 4912   1.380   2.322  11.351 -0.1801 -0.4312 -0.4963
  327TMC3     O 4913   1.327   2.396  11.432  0.0789  0.0022  0.2682
  327TMC3     H 4914   1.251   2.499  11.233 -1.9678 -1.8832  2.0422
  327TMC3    H1 4915   1.369   2.101  11.213 -1.4525  1.6055  3.6834
  327TMC3    H2 4916   1.344   2.315  10.857 -1.2047 -1.3714  0.4236
  327TMC3    C7 4917   1.472   2.124  10.960 -0.1905  0.2210  0.0995
  327TMC3    C8 4918   1.295   2.541  10.955 -0.0946 -0.1826 -0.1459
  327TMC3    O1 4919   1.477   2.133  10.838 -0.4966  0.1286 -0.0163
  327TMC3    O2 4920   1.368   2.540  10.855  0.6445 -0.1126  0.1840
  328MPD2     C 4921   4.552   2.176  17.209  0.5008  0.7445  0.2819
  328MPD2    C1 4922   4.446   2.110  17.147  0.4814  0.4397  0.2657
  328MPD2    C2 4923   4.349   2.187  17.082  0.6556  0.8052 -0.0437
  328MPD2    C3 4924   4.373   2.322  17.070  0.7661 -0.0687 -0.0168
  328MPD2    C4 4925   4.474   2.391  17.125 -0.5091 -0.3193  0.5212
  328MPD2    C5 4926   4.561   2.309  17.194  0.1134  0.3343  0.3059
  328MPD2     H 4927   4.265   2.139  17.034  1.2395 -0.7091  0.4471
  328MPD2    H1 4928   4.490   2.498  17.109 -2.2390 -0.1749 -0.2435
  328MPD2    H2 4929   4.639   2.124  17.247  0.7715  0.1318 -1.2159
  328MPD2    H3 4930   4.644   2.357  17.244  2.5290 -2.1195 -1.3768
  328MPD2     N 4931   4.287   2.402  16.988  0.8554  0.3083  0.0712
  328MPD2    H5 4932   4.312   2.500  16.981  1.5834  0.0721 -0.5961
  328MPD2    N1 4933   4.426   1.970  17.159 -0.2104  0.5647 -0.2375
  328MPD2    H7 4934   4.352   1.936  17.097  0.3480 -3.1755  1.1340
  329TMC3    C1 4935   4.451   1.744  17.230  0.1175 -0.1435 -0.0491
  329TMC3    C2 4936   4.482   1.662  17.332  0.3431 -0.7230 -0.2699
  329TMC3    C3 4937   4.481   1.527  17.302  0.3437  0.7352 -0.8441
  329TMC3    C4 4938   4.422   1.701  17.101  0.4107 -0.5931  0.2668
  329TMC3    C5 4939   4.417   1.569  17.079 -0.0689  0.4747  0.1869
  329TMC3    C6 4940   4.459   1.478  17.173  0.1181 -0.1983 -0.4433
  329TMC3     C 4941   4.488   1.887  17.251  0.3691  0.2657 -0.1384
  329TMC3     O 4942   4.552   1.913  17.356 -0.5728  0.3672 -0.0614
  329TMC3     H 4943   4.502   1.696  17.433  0.7802  1.4063 -1.0821
  329TMC3    H1 4944   4.413   1.764  17.013  2.7124 -0.4475  0.1404
  329TMC3    H2 4945   4.431   1.374  17.163  0.8952 -0.3798 -0.7208
  329TMC3    C7 4946   4.396   1.516  16.950 -0.1260 -0.3554 -0.1188
  329TMC3    C8 4947   4.535   1.438  17.409  0.4970  0.5634 -0.4329
  329TMC3    O1 4948   4.307   1.570  16.888 -0.0443 -0.1591  0.4783
  329TMC3    O2 4949   4.579   1.331  17.366  0.3238 -0.7040 -0.4718
  330TMC3    C1 4950   2.536   1.084   9.996  0.5009  0.1962 -0.5381
  330TMC3    C2 4951   2.411   1.112   9.944 -0.3790  0.3586  0.6044
  330TMC3    C3 4952   2.309   1.022   9.969  0.0901 -0.1021 -0.2735
  330TMC3    C4 4953   2.560   0.974  10.076  0.2193 -0.0749  0.6070
  330TMC3    C5 4954   2.453   0.891  10.098  0.0190  0.0666 -0.3619
  330TMC3    C6 4955   2.332   0.902  10.039  0.1257 -1.1012 -0.0386
  330TMC3     C 4956   2.650   1.159   9.948  0.3169  0.2197 -0.2879
  330TMC3     O 4957   2.763   1.130   9.986  0.1119 -0.1650 -0.0577
  330TMC3     H 4958   2.391   1.208   9.897  0.0306 -0.0820 -0.4817
  330TMC3    H1 4959   2.656   0.953  10.120  1.0240  1.6942 -0.3152
  330TMC3    H2 4960   2.259   0.823  10.054  0.5904 -1.1515  1.9473
  330TMC3    C7 4961   2.457   0.829  10.237 -1.1017 -0.0242 -0.2061
  330TMC3    C8 4962   2.231   1.002   9.851 -0.3131  0.2815 -0.4194
  330TMC3    O1 4963   2.350   0.814  10.294  0.3793 -0.4111  0.0939
  330TMC3    O2 4964   2.273   1.044   9.747 -0.0045 -0.0744 -0.3852
  331MPD2     C 4965   1.328   1.251  12.644  0.1727 -0.2283  0.3937
  331MPD2    C1 4966   1.223   1.257  12.551  0.0819 -0.7198  0.4284
  331MPD2    C2 4967   1.122   1.167  12.555  0.4060 -0.4160  0.4303
  331MPD2    C3 4968   1.126   1.062  12.639 -0.8380  0.2491  0.5794
  331MPD2    C4 4969   1.224   1.055  12.727 -0.1895  0.2000 -0.2702
  331MPD2    C5 4970   1.323   1.146  12.733  0.0899  0.1214  0.3623
  331MPD2     H 4971   1.043   1.164  12.480  0.3310  0.1709  0.4884
  331MPD2    H1 4972   1.237   0.972  12.796 -0.2187 -1.4846 -2.2903
  331MPD2    H2 4973   1.403   1.330  12.647  2.1897 -2.1384  0.3380
  331MPD2    H3 4974   1.402   1.139  12.807  3.0295 -2.9971 -3.1079
  331MPD2     N 4975   1.029   0.962  12.634 -0.2386 -0.2113 -0.0323
  331MPD2    H5 4976   0.969   0.964  12.552 -2.5079 -0.7312  1.6355
  331MPD2    N1 4977   1.213   1.364  12.457  0.4814 -0.0830  0.2972
  331MPD2    H7 4978   1.133   1.356  12.394  0.7848  2.8065 -0.4461
  332TMC3    C1 4979   0.888   0.785  12.673  0.3954 -0.5141  0.0564
  332TMC3    C2 4980   0.782   0.855  12.616 -0.4723  0.2732 -0.3297
  332TMC3    C3 4981   0.678   0.782  12.559 -0.7661  0.6104  0.4205
  332TMC3    C4 4982   0.886   0.646  12.672  0.0457  0.8448  0.6723
  332TMC3    C5 4983   0.779   0.579  12.617  1.0108 -0.6338 -0.4764
  332TMC3    C6 4984   0.676   0.648  12.558 -0.1382 -0.6587 -0.1773
  332TMC3     C 4985   1.006   0.853  12.716 -0.0646  0.0665  0.0896
  332TMC3     O 4986   1.083   0.795  12.789  0.0673 -0.0970 -0.0682
  332TMC3     H 4987   0.794   0.962  12.607 -1.4509  0.3575 -0.6514
  332TMC3    H1 4988   0.968   0.587  12.712  0.6100  0.6011 -0.8381
  332TMC3    H2 4989   0.607   0.597  12.492 -2.4244  0.9991  0.8912
  332TMC3    C7 4990   0.815   0.453  12.567  0.8216  0.7516 -0.4638
  332TMC3    C8 4991   0.629   0.841  12.438 -0.7515 -0.0165  0.1678
  332TMC3    O1 4992   0.734   0.365  12.599  0.4574  0.3850  0.2910
  332TMC3    O2 4993   0.700   0.921  12.378  0.1371  0.2239 -0.5497
  333MPD2     C 4994   0.516   0.604  11.095  0.6019 -0.0658  0.6575
  333MPD2    C1 4995   0.600   0.518  11.016  1.0399  0.0634 -0.0625
  333MPD2    C2 4996   0.633   0.390  11.061  0.3115  0.0450  0.3209
  333MPD2    C3 4997   0.575   0.347  11.178 -0.2172 -0.3946  0.7637
  333MPD2    C4 4998   0.494   0.429  11.260 -0.2144  0.9834 -0.2592
  333MPD2    C5 4999   0.472   0.559  11.212 -0.4890  0.0764 -0.0038
  333MPD2     H 5000   0.697   0.319  11.009 -1.6532 -1.0083 -0.6650
  333MPD2    H1 5001   0.455   0.388  11.352  1.2853 -0.2191 -0.1579
  333MPD2    H2 5002   0.489   0.706  11.070  1.1010 -0.0324  0.2482
  333MPD2    H3 5003   0.418   0.622  11.283  1.6595  1.5930  0.2762
  333MPD2     N 5004   0.604   0.212  11.213  0.4739 -0.2610  0.4226
  333MPD2    H5 5005   0.672   0.156  11.162  0.7926  2.2907 -1.9988
  333MPD2    N1 5006   0.662   0.585  10.899  0.1352 -0.4447 -0.3897
  333MPD2    H7 5007   0.650   0.686  10.897  2.3307 -0.2323 -2.1333
  334TMC3    C1 5008   0.788   0.592  10.692  0.5126 -0.6337 -0.5706
  334TMC3    C2 5009   0.901   0.547  10.627  1.1689 -0.0248  0.2970
  334TMC3    C3 5010   0.969   0.638  10.550 -0.5419 -0.9016  0.7027
  334TMC3    C4 5011   0.739   0.716  10.668 -0.0501 -0.2075  0.2228
  334TMC3    C5 5012   0.813   0.803  10.600  0.5687  0.7023  0.9602
  334TMC3    C6 5013   0.934   0.769  10.542 -0.4676  0.3098  0.1443
  334TMC3     C 5014   0.746   0.523  10.809  0.3134  0.3812  0.4637
  334TMC3     O 5015   0.778   0.404  10.814  0.4912 -0.1648 -0.1121
  334TMC3     H 5016   0.937   0.445  10.636  1.5724  0.2434  1.6955
  334TMC3    H1 5017   0.640   0.754  10.686  0.0518  0.6482 -1.0663
  334TMC3    H2 5018   0.987   0.844  10.485 -0.2462  1.2184  1.5566
  334TMC3    C7 5019   0.748   0.919  10.552  0.1417 -1.0722  0.5442
  334TMC3    C8 5020   1.102   0.607  10.487 -0.1229  0.1642 -0.2611
  334TMC3    O1 5021   0.629   0.908  10.518  0.0657 -0.6009 -0.2663
  334TMC3    O2 5022   1.113   0.491  10.444 -0.2833  0.5559  1.0470
  335TMC3    C1 5023   0.179   2.628  17.193 -0.1580 -0.5120  0.2529
  335TMC3    C2 5024   0.118   2.542  17.109  0.8284 -0.2420 -0.2607
  335TMC3    C3 5025   0.192   2.480  17.009 -0.1775 -0.2978  0.1971
  335TMC3    C4 5026   0.317   2.631  17.208 -0.1755 -0.3593  0.7149
  335TMC3    C5 5027   0.392   2.567  17.107 -0.2500  0.6048 -0.1422
  335TMC3    C6 5028   0.332   2.492  17.012  0.0409  0.5389  0.5514
  335TMC3     C 5029   0.097   2.722  17.267  0.1624 -0.3886  0.5787
  335TMC3     O 5030   4.703   2.748  17.221 -0.1188 -0.0676  0.8847
  335TMC3     H 5031   0.011   2.527  17.106  0.6933  0.7557 -0.4941
  335TMC3    H1 5032   0.367   2.704  17.269  1.7332  1.2772 -2.7812
  335TMC3    H2 5033   0.387   2.426  16.945 -2.0995  0.2883 -0.9598
  335TMC3    C7 5034   0.536   2.533  17.128  0.2399 -0.2013 -0.0298
  335TMC3    C8 5035   0.129   2.360  16.971 -0.2998  0.5595  0.0401
  335TMC3    O1 5036   0.605   2.524  17.028 -0.1533  0.1211  0.4329
  335TMC3    O2 5037   0.024   2.386  16.913 -0.3043  0.3739 -0.3634
  336MPD2     C 5038   0.097   0.528  16.351 -0.0244  0.2978 -0.0139
  336MPD2    C1 5039   0.124   0.465  16.238  0.1086 -0.2456 -1.0114
  336MPD2    C2 5040   0.212   0.352  16.249 -0.0352 -0.3898  0.7494
  336MPD2    C3 5041   0.263   0.306  16.368  0.3392 -0.0398  0.0710
  336MPD2    C4 5042   0.237   0.382  16.480  0.1703  0.1875 -0.2395
  336MPD2    C5 5043   0.161   0.497  16.465  0.2372 -0.2924 -0.1117
  336MPD2     H 5044   0.234   0.309  16.152 -0.7864  1.8954 -0.4468
  336MPD2    H1 5045   0.271   0.349  16.578  1.1907  0.3409 -0.5440
  336MPD2    H2 5046   0.023   0.608  16.353 -0.1587  0.1760 -0.0990
  336MPD2    H3 5047   0.132   0.548  16.557 -1.0535 -0.2436 -0.5449
  336MPD2     N 5048   0.346   0.184  16.381 -0.0330 -0.0707 -0.4289
  336MPD2    H5 5049   0.372   0.151  16.473  0.3281  1.9460  0.1866
  336MPD2    N1 5050   0.064   0.492  16.111 -0.8128  0.1480  0.3139
  336MPD2    H7 5051   0.087   0.419  16.045  0.2604 -1.4244  2.4109
  337TMC3    C1 5052   4.620   0.551  15.963  0.2518  0.2569 -0.3324
  337TMC3    C2 5053   4.483   0.544  15.955  0.9708 -0.3613 -0.1168
  337TMC3    C3 5054   4.422   0.494  15.840  0.1198  0.3672 -0.0296
  337TMC3    C4 5055   4.698   0.516  15.856  0.0808 -0.7025 -0.0137
  337TMC3    C5 5056   4.640   0.472  15.741  0.3544  0.3044  0.1278
  337TMC3    C6 5057   4.504   0.461  15.732 -0.2736  0.3805 -0.0988
  337TMC3     C 5058   4.684   0.580  16.086  0.6230 -0.1711  0.1451
  337TMC3     O 5059   4.639   0.666  16.163  0.3144  0.2590 -0.2198
  337TMC3     H 5060   4.431   0.575  16.045  0.9221  0.7367 -0.5127
  337TMC3    H1 5061   0.088   0.513  15.869 -0.0109 -0.6970  0.7608
  337TMC3    H2 5062   4.456   0.422  15.643 -1.1429 -1.8534  1.3628
  337TMC3    C7 5063   4.714   0.449  15.614  0.1111  0.0751  0.5303
  337TMC3    C8 5064   4.274   0.504  15.848 -0.4344  0.2233 -0.2250
  337TMC3    O1 5065   4.658   0.407  15.513 -0.1533 -0.6917  0.1195
  337TMC3    O2 5066   4.241   0.589  15.924 -0.2659  0.9926  0.1894
  338MPD2     C 5067   0.027   3.334   0.757  0.2610  0.1213 -0.2146
  338MPD2    C1 5068   0.044   3.432   0.662 -0.3606 -0.2244  0.2731
  338MPD2    C2 5069   4.658   3.511   0.624 -0.0417  0.3205  0.9312
  338MPD2    C3 5070   4.543   3.516   0.700 -0.5555 -0.3320 -0.2058
  338MPD2    C4 5071   4.514   3.410   0.783 -0.1345  0.4794 -0.6352
  338MPD2    C5 5072   4.616   3.319   0.807 -0.1738 -0.0324 -0.6901
  338MPD2     H 5073   4.689   3.585   0.551 -0.3599  1.5044  1.9908
  338MPD2    H1 5074   4.418   3.397   0.832  0.1008 -0.9322 -0.5444
  338MPD2    H2 5075   0.102   3.261   0.786 -0.7165  0.3526  2.8420
  338MPD2    H3 5076   4.593   3.228   0.860  0.0382 -0.2160 -0.9126
  338MPD2     N 5077   4.457   3.631   0.679 -0.6726  0.0367  0.1433
  338MPD2    H5 5078   4.494   3.696   0.611  1.8118 -1.4588  0.0627
  338MPD2    N1 5079   0.171   3.475   0.613 -0.6056 -0.4301 -0.5430
  338MPD2    H7 5080   0.175   3.567   0.570  0.3372 -1.2184 -2.1492
  339TMC3    C1 5081   4.322   3.808   0.732  0.2679 -1.2131  0.2988
  339TMC3    C2 5082   4.231   3.863   0.821 -0.3408  0.4152 -0.1900
  339TMC3    C3 5083   4.212   3.992   0.806  0.0226  1.0134 -1.2238
  339TMC3    C4 5084   4.375   3.885   0.628 -1.0195  0.4957 -0.5347
  339TMC3    C5 5085   4.338   4.018   0.615 -0.1711  0.8316 -0.1183
  339TMC3    C6 5086   4.260   4.073   0.706  0.6458  0.3031 -0.0155
  339TMC3     C 5087   4.364   3.672   0.760  0.2733  0.3550  0.0386
  339TMC3     O 5088   4.321   3.609   0.856 -0.4672  0.1779  0.1389
  339TMC3     H 5089   4.175   3.808   0.896  1.4677  1.0245  1.5940
  339TMC3    H1 5090   4.446   3.845   0.557  1.4849  0.9249  1.7109
  339TMC3    H2 5091   4.239   4.179   0.697  0.8773  0.4725  1.5588
  339TMC3    C7 5092   4.432   4.098   0.537 -0.2452 -0.2440  0.5398
  339TMC3    C8 5093   4.120   4.059   0.897  0.7016 -0.0454  0.4983
  339TMC3    O1 5094   4.506   4.035   0.461 -0.2655  0.4172 -0.2315
  339TMC3    O2 5095   4.053   4.154   0.859 -0.1770  0.4171 -0.1465
  340MPD2     C 5096   4.685   1.347  10.224  0.3224 -1.0394 -0.3566
  340MPD2    C1 5097   0.023   1.430  10.135 -0.4665 -0.2845 -0.0267
  340MPD2    C2 5098   0.028   1.570  10.158  0.8974  0.4197  0.0588
  340MPD2    C3 5099   4.688   1.623  10.274 -0.4853 -0.3900  0.1005
  340MPD2    C4 5100   4.618   1.540  10.359  0.0987 -0.4796  0.0156
  340MPD2    C5 5101   4.612   1.401  10.323 -0.2542 -0.7369  0.3852
  340MPD2     H 5102   0.061   1.631  10.075 -1.0947 -0.1831 -1.1647
  340MPD2    H1 5103   4.573   1.568  10.454  1.8554  3.3295 -0.2821
  340MPD2    H2 5104   4.677   1.239  10.220 -0.3905 -1.0342  0.9504
  340MPD2    H3 5105   4.558   1.332  10.387 -0.1695  0.9446  2.2598
  340MPD2     N 5106   4.707   1.760  10.324 -0.1690  0.1123 -0.2953
  340MPD2    H5 5107   4.655   1.778  10.410  1.6879  1.2498  0.5875
  340MPD2    N1 5108   0.085   1.377  10.018  0.4325  0.8262 -0.2475
  340MPD2    H7 5109   0.077   1.276  10.008 -0.1877  0.8890 -0.3750
  341TMC3    C1 5110   0.178   1.356   9.802  0.1716  0.4717  0.1994
  341TMC3    C2 5111   0.136   1.224   9.800 -0.4918 -0.8474  0.2457
  341TMC3    C3 5112   0.160   1.160   9.685  0.3095 -0.2709  0.3268
  341TMC3    C4 5113   0.222   1.419   9.696 -0.2963 -0.8341 -0.3853
  341TMC3    C5 5114   0.234   1.351   9.573 -0.4075 -0.0452  0.0616
  341TMC3    C6 5115   0.207   1.214   9.569  0.3770  0.5524  0.4817
  341TMC3     C 5116   0.129   1.448   9.909 -0.7692 -0.2015  0.7645
  341TMC3     O 5117   0.149   1.567   9.896 -0.4473 -1.0211 -0.0117
  341TMC3     H 5118   0.078   1.172   9.876 -0.7139 -0.5830  0.2569
  341TMC3    H1 5119   0.260   1.521   9.694  0.4156 -1.1013 -0.8450
  341TMC3    H2 5120   0.242   1.156   9.484 -1.7727 -0.7826  0.5106
  341TMC3    C7 5121   0.279   1.405   9.448  0.7781 -0.3902 -0.4615
  341TMC3    C8 5122   0.122   1.021   9.686 -0.0644 -0.8818 -0.2201
  341TMC3    O1 5123   0.363   1.495   9.451  0.1023 -0.4659 -0.1272
  341TMC3    O2 5124   0.125   0.968   9.797 -0.4606  0.5052  0.5004
  342MPD2     C 5125   3.148   0.796  17.653  0.6215 -0.0481 -0.2465
  342MPD2    C1 5126   3.286   0.803  17.665  0.2945 -0.5278 -0.5962
  342MPD2    C2 5127   3.350   0.932  17.661  0.0267 -0.5810 -0.0542
  342MPD2    C3 5128   3.273   1.047  17.651  0.0822 -0.9335 -0.4064
  342MPD2    C4 5129   3.136   1.036  17.639 -0.3078  0.1270 -0.1971
  342MPD2    C5 5130   3.075   0.909  17.639 -0.5812 -0.3034  0.8498
  342MPD2     H 5131   3.457   0.940  17.670 -0.2008  1.3459  0.9687
  342MPD2    H1 5132   3.078   1.125  17.617  1.4817  2.0197  2.8390
  342MPD2    H2 5133   3.094   0.704  17.637 -0.5733  0.6493 -0.1870
  342MPD2    H3 5134   2.969   0.903  17.614 -0.2809  0.1998 -0.5371
  342MPD2     N 5135   3.339   1.170  17.654 -0.4501  0.5090  0.5823
  342MPD2    H5 5136   3.440   1.169  17.644 -0.3479  0.5229  1.6542
  342MPD2    N1 5137   3.375   0.689  17.668 -0.3604 -0.4350 -0.7184
  342MPD2    H7 5138   3.473   0.709   0.009 -0.9770  2.5143 -0.6782
  343TMC3    C1 5139   3.441   0.472  17.606 -0.7572  0.8848 -0.1868
  343TMC3    C2 5140   3.549   0.521  17.531 -0.3380  0.3624  0.2910
  343TMC3    C3 5141   3.615   0.439  17.444  0.2846  0.2109 -0.2170
  343TMC3    C4 5142   3.419   0.340  17.616 -0.8118  1.0571  0.1079
  343TMC3    C5 5143   3.493   0.267  17.529 -0.7177  0.4668  0.5016
  343TMC3    C6 5144   3.577   0.309  17.432  0.2951 -0.0173  0.4707
  343TMC3     C 5145   3.334   0.561  17.649  0.3950  0.0021 -0.3903
  343TMC3     O 5146   3.227   0.505  17.670  0.4133  0.4842  0.3753
  343TMC3     H 5147   3.559   0.628  17.514  1.9152  0.3029  1.3252
  343TMC3    H1 5148   3.353   0.299   0.017 -0.2524 -2.2955 -1.2540
  343TMC3    H2 5149   3.639   0.239  17.378 -0.2560  0.6851 -1.0894
  343TMC3    C7 5150   3.459   0.130  17.535  0.6071 -0.6967  0.0518
  343TMC3    C8 5151   3.740   0.497  17.398 -1.1120  0.3524 -0.5047
  343TMC3    O1 5152   3.484   0.064  17.434 -0.6117 -0.4287 -0.2872
  343TMC3    O2 5153   3.761   0.615  17.428  0.1958  0.1023 -1.1847
  344MPD2     C 5154   4.025   4.065   9.976 -0.0332 -0.2538  0.1282
  344MPD2    C1 5155   4.022   4.114  10.109 -0.1028  0.1866  0.4395
  344MPD2    C2 5156   4.089   4.231  10.133 -0.1339 -0.1269 -0.4487
  344MPD2    C3 5157   4.149   4.298  10.026 -0.8362 -0.3038  0.8229
  344MPD2    C4 5158   4.151   4.251   9.898 -0.4369 -0.2820  0.0796
  344MPD2    C5 5159   4.078   4.141   9.875 -0.2597 -0.2208  0.9947
  344MPD2     H 5160   4.095   4.267  10.236 -0.8636 -0.1751 -0.3928
  344MPD2    H1 5161   4.209   4.297   9.819  1.4741 -0.5979  1.3071
  344MPD2    H2 5162   3.983   3.973   9.939  2.6179 -2.6669  3.0830
  344MPD2    H3 5163   4.072   4.105   9.773 -0.3163 -1.9786  1.6346
  344MPD2     N 5164   4.247   4.398  10.038  0.1278 -0.6085 -0.9497
  344MPD2    H5 5165   4.281   4.449   9.957 -0.9408  0.4961 -0.6986
  344MPD2    N1 5166   3.957   4.047  10.212 -1.0067  0.5256  0.1060
  344MPD2    H7 5167   3.950   4.106  10.295  1.8448  0.4278  0.4087
  345TMC3    C1 5168   4.343   4.583  10.165  0.1850  0.3823 -1.0110
  345TMC3    C2 5169   4.402   4.627  10.285  0.1501 -0.3602 -0.4503
  345TMC3    C3 5170   4.409   0.047  10.305  0.4191  0.3138 -0.1480
  345TMC3    C4 5171   4.298   4.669  10.064  0.1455 -0.1650 -0.0412
  345TMC3    C5 5172   4.326   0.086  10.085  0.8168 -0.0311  0.4355
  345TMC3    C6 5173   4.374   0.136  10.200  0.6586 -0.2503 -0.7708
  345TMC3     C 5174   4.278   4.454  10.164  0.3949  0.6005  0.3174
  345TMC3     O 5175   4.256   4.406  10.276  0.2868 -0.8205  0.8381
  345TMC3     H 5176   4.436   4.551  10.355  3.0510  0.4838 -0.9445
  345TMC3    H1 5177   4.246   4.643   9.972  0.2059  4.7642 -1.4588
  345TMC3    H2 5178   4.350   0.239  10.227  1.3308 -0.5781  1.0371
  345TMC3    C7 5179   4.255   0.191  10.005 -0.6004 -0.0861 -0.1608
  345TMC3    C8 5180   4.379   0.105  10.434  0.1817  0.4746 -0.3194
  345TMC3    O1 5181   4.230   0.300  10.056  0.5364  0.3408 -0.1598
  345TMC3    O2 5182   4.382   0.225  10.455  0.1981  0.2872  0.2954
  346MPD2     C 5183   4.423   1.663  13.529 -0.4475 -0.2774 -0.5162
  346MPD2    C1 5184   4.484   1.675  13.652 -0.4288 -0.2501 -0.0034
  346MPD2    C2 5185   4.445   1.779  13.728 -0.9372  0.0700 -0.0336
  346MPD2    C3 5186   4.344   1.863  13.693  0.0444  0.7022  0.8252
  346MPD2    C4 5187   4.278   1.844  13.572 -0.4199  0.2452 -0.4104
  346MPD2    C5 5188   4.321   1.744  13.486  0.1559 -0.0511  0.2106
  346MPD2     H 5189   4.496   1.807  13.819  0.2221  0.0814 -0.6906
  346MPD2    H1 5190   4.198   1.909  13.538 -2.2960 -1.4429  0.7948
  346MPD2    H2 5191   4.457   1.590  13.457 -0.1487 -2.0696  1.4236
  346MPD2    H3 5192   4.275   1.723  13.390  3.0039 -0.8226 -0.9958
  346MPD2     N 5193   4.313   1.969  13.788 -0.1611  0.1660  0.7117
  346MPD2    H5 5194   4.367   1.975  13.874 -2.0837 -0.0274  1.9232
  346MPD2    N1 5195   4.603   1.602  13.687 -0.9853 -0.4195  0.1864
  346MPD2    H7 5196   4.639   1.618  13.780 -0.4604 -1.0953  0.0966
  347TMC3    C1 5197   4.234   2.165  13.877 -0.5322  0.6706 -0.2320
  347TMC3    C2 5198   4.360   2.160  13.934  0.3307  0.1075 -0.3127
  347TMC3    C3 5199   4.370   2.176  14.070  0.4394 -0.1076 -0.4156
  347TMC3    C4 5200   4.122   2.191  13.948  0.1126  0.0307  0.6740
  347TMC3    C5 5201   4.135   2.204  14.087  1.1458  0.1474  0.0630
  347TMC3    C6 5202   4.259   2.185  14.146 -0.0623  0.0733 -0.5754
  347TMC3     C 5203   4.215   2.065  13.771  0.4369  0.5153  0.5393
  347TMC3     O 5204   4.118   2.078  13.700  0.0669  0.1293 -0.2112
  347TMC3     H 5205   4.445   2.147  13.868 -0.3133 -2.5140 -0.6247
  347TMC3    H1 5206   4.023   2.190  13.904  1.2228  0.6505 -1.8340
  347TMC3    H2 5207   4.265   2.187  14.254  2.5740  2.1642 -0.7454
  347TMC3    C7 5208   4.014   2.246  14.165  0.1111  0.3995  0.1065
  347TMC3    C8 5209   4.506   2.148  14.122  0.9393  0.1079 -0.4823
  347TMC3    O1 5210   3.912   2.217  14.111  0.5042  0.1016  0.5218
  347TMC3    O2 5211   4.580   2.088  14.049 -0.0441 -0.6950 -0.2596
  348MPD2     C 5212   2.630   1.712  12.267 -0.4334  0.1885  0.7994
  348MPD2    C1 5213   2.660   1.619  12.167 -0.0285 -0.0825  0.2597
  348MPD2    C2 5214   2.668   1.663  12.037  0.4966  0.1343 -0.2012
  348MPD2    C3 5215   2.636   1.796  11.999 -0.1241 -0.0919  0.3860
  348MPD2    C4 5216   2.610   1.882  12.098  0.5608  0.2201 -0.4160
  348MPD2    C5 5217   2.596   1.839  12.232 -0.0629 -0.4744 -0.2432
  348MPD2     H 5218   2.687   1.587  11.962  0.0644 -0.1386 -0.0326
  348MPD2    H1 5219   2.583   1.985  12.078 -0.4102  0.5191  2.4885
  348MPD2    H2 5220   2.614   1.683  12.370  0.7502  0.8287  1.1686
  348MPD2    H3 5221   2.553   1.904  12.308  2.7138  0.9362  0.1336
  348MPD2     N 5222   2.642   1.827  11.859  0.3082  0.1648 -0.5214
  348MPD2    H5 5223   2.656   1.748  11.796 -0.7060 -1.2624  1.0456
  348MPD2    N1 5224   2.690   1.481  12.188 -0.0029 -0.2754  0.0319
  348MPD2    H7 5225   2.711   1.425  12.106 -0.9399 -1.5696  0.6883
  349TMC3    C1 5226   2.756   1.284  12.292  0.6206 -0.0683  0.2237
  349TMC3    C2 5227   2.882   1.249  12.336 -0.2335 -0.1688  0.1711
  349TMC3    C3 5228   2.954   1.157  12.273  0.2484  0.3344 -0.1287
  349TMC3    C4 5229   2.708   1.228  12.176  0.3029 -0.1533  0.4853
  349TMC3    C5 5230   2.792   1.151  12.105  0.2748 -0.6174  0.7962
  349TMC3    C6 5231   2.909   1.099  12.155 -0.4761 -0.3190  0.2531
  349TMC3     C 5232   2.710   1.423  12.312  0.4994 -0.3030  1.1592
  349TMC3     O 5233   2.715   1.476  12.424  0.1410  0.3792  0.0266
  349TMC3     H 5234   2.926   1.299  12.422 -0.5678 -0.8357  0.7319
  349TMC3    H1 5235   2.611   1.251  12.133  0.0530 -1.6448  0.2542
  349TMC3    H2 5236   2.957   1.017  12.103 -0.8737 -0.2832 -0.1687
  349TMC3    C7 5237   2.801   1.200  11.972  0.1375 -0.0227  0.2139
  349TMC3    C8 5238   3.044   1.075  12.350 -1.3048  0.0658  0.6616
  349TMC3    O1 5239   2.708   1.270  11.942  0.7659 -0.0821 -0.3401
  349TMC3    O2 5240   3.037   0.956  12.318  0.2828 -0.0849 -0.5398
  350MPD2     C 5241   1.783   3.400   9.836 -0.2958  0.7833  0.2689
  350MPD2    C1 5242   1.875   3.503   9.792 -0.1472 -0.1957  0.3290
  350MPD2    C2 5243   1.860   3.627   9.861  0.6173 -0.0203  0.4256
  350MPD2    C3 5244   1.761   3.649   9.957  0.0054  0.9313  0.5969
  350MPD2    C4 5245   1.694   3.541  10.016  0.1068  0.6470  0.3406
  350MPD2    C5 5246   1.706   3.419   9.949  0.0494 -0.2341 -0.4175
  350MPD2     H 5247   1.901   3.720   9.824 -1.4442  0.8574  0.3162
  350MPD2    H1 5248   1.636   3.549  10.107  1.0152 -2.2760  1.1667
  350MPD2    H2 5249   1.781   3.304   9.786  1.6346  1.1903 -0.6074
  350MPD2    H3 5250   1.639   3.341   9.983  0.9629 -0.0929  1.7221
  350MPD2     N 5251   1.732   3.776  10.009 -0.0719  0.0320 -0.0400
  350MPD2    H5 5252   1.805   3.846  10.000 -1.0298  0.8705 -1.2963
  350MPD2    N1 5253   1.972   3.490   9.683 -0.2634  0.2940  0.0769
  350MPD2    H7 5254   2.044   3.560   9.672  1.2744 -1.4099 -0.7134
  351TMC3    C1 5255   2.103   3.387   9.515 -0.0697  0.0007 -0.2945
  351TMC3    C2 5256   2.176   3.274   9.489  0.5880  0.3649  0.5023
  351TMC3    C3 5257   2.281   3.282   9.399  0.6638 -0.4636  0.1115
  351TMC3    C4 5258   2.117   3.502   9.447 -0.2676 -0.6684 -0.3051
  351TMC3    C5 5259   2.213   3.499   9.343  0.3660 -0.0048  0.3129
  351TMC3    C6 5260   2.294   3.395   9.317  0.3952 -0.1750 -0.3689
  351TMC3     C 5261   2.002   3.373   9.617 -0.0975 -0.7999  0.5855
  351TMC3     O 5262   1.959   3.260   9.637  0.0266  0.0240  0.4647
  351TMC3     H 5263   2.179   3.190   9.558 -0.4243 -1.8543 -2.1155
  351TMC3    H1 5264   2.053   3.588   9.462  1.1750  0.2984  0.3506
  351TMC3    H2 5265   2.351   3.388   9.225 -0.3425  1.3764 -0.9479
  351TMC3    C7 5266   2.236   3.636   9.281 -0.8241 -0.1523  0.4280
  351TMC3    C8 5267   2.360   3.165   9.377  0.7496  0.1661  0.4806
  351TMC3    O1 5268   2.156   3.727   9.308 -0.5290  0.5250  0.1178
  351TMC3    O2 5269   2.310   3.059   9.413  0.2530 -0.2658  0.3823
  352MPD2     C 5270   1.194   2.027   0.787 -1.0704  0.1158 -0.3456
  352MPD2    C1 5271   1.098   1.975   0.873  0.7794 -0.1211  0.1058
  352MPD2    C2 5272   1.112   1.847   0.915 -0.5497  0.0420 -0.0902
  352MPD2    C3 5273   1.219   1.772   0.874  0.7644 -0.3617  0.2037
  352MPD2    C4 5274   1.317   1.821   0.793 -0.2741  0.1903  0.6367
  352MPD2    C5 5275   1.293   1.947   0.745  0.2326 -0.8652 -0.3053
  352MPD2     H 5276   1.038   1.809   0.984 -1.0575 -0.2511 -0.7978
  352MPD2    H1 5277   1.397   1.756   0.759 -0.7548  0.0485 -0.2165
  352MPD2    H2 5278   1.190   2.126   0.742 -2.1953  0.6302  0.8936
  352MPD2    H3 5279   1.355   1.989   0.666  0.9519  0.0944  0.7551
  352MPD2     N 5280   1.250   1.645   0.922  0.4373  0.5414 -0.2014
  352MPD2    H5 5281   1.336   1.609   0.882  0.0231  0.7267 -1.2754
  352MPD2    N1 5282   0.993   2.067   0.903  0.0331 -0.1286  0.5541
  352MPD2    H7 5283   0.995   2.155   0.853 -0.9213 -1.3268 -1.6115
  353TMC3    C1 5284   1.237   1.460   1.061  0.2766 -0.2736  0.5164
  353TMC3    C2 5285   1.370   1.452   1.082  0.4982 -0.1090  0.0200
  353TMC3    C3 5286   1.414   1.334   1.140  0.5167 -0.4418 -0.1499
  353TMC3    C4 5287   1.152   1.365   1.103 -0.2128  0.2285  0.0721
  353TMC3    C5 5288   1.196   1.261   1.182  0.4788  0.4529  0.7441
  353TMC3    C6 5289   1.331   1.234   1.179  1.2269  0.6119 -0.1555
  353TMC3     C 5290   1.179   1.582   1.015  0.3545  0.3449  0.2932
  353TMC3     O 5291   1.074   1.608   1.068  0.5038 -0.1981 -0.0060
  353TMC3     H 5292   1.440   1.521   1.038  0.7192 -0.1247  0.3441
  353TMC3    H1 5293   1.047   1.383   1.083 -0.7938 -0.5106  2.3731
  353TMC3    H2 5294   1.362   1.154   1.245 -0.5778 -1.0376 -1.2734
  353TMC3    C7 5295   1.109   1.151   1.179  0.0611 -0.4355 -0.4375
  353TMC3    C8 5296   1.560   1.320   1.161 -0.0769 -0.0214  0.4296
  353TMC3    O1 5297   1.021   1.141   1.092 -0.6160  0.1027  0.8749
  353TMC3    O2 5298   1.617   1.420   1.195  0.9483  0.5692 -0.0853
  354TMC3    C1 5299   2.167   2.667  13.354 -0.0978  0.4901 -0.3327
  354TMC3    C2 5300   2.123   2.790  13.310  0.8970 -0.2705  0.5690
  354TMC3    C3 5301   2.170   2.835  13.190 -0.0825  0.5002  0.2204
  354TMC3    C4 5302   2.248   2.580  13.280  1.0875 -0.2725 -0.7096
  354TMC3    C5 5303   2.297   2.640  13.161  0.2792  0.0974 -0.0459
  354TMC3    C6 5304   2.257   2.766  13.117  0.5479 -0.1929  0.0650
  354TMC3     C 5305   2.117   2.622  13.478  0.8107  0.5626 -0.4497
  354TMC3     O 5306   2.108   2.501  13.491 -0.2491  0.2998  0.2214
  354TMC3     H 5307   2.031   2.830  13.351  0.2364  0.2818 -1.4196
  354TMC3    H1 5308   2.283   2.489  13.328  1.2763  1.7272  2.9720
  354TMC3    H2 5309   2.285   2.805  13.020 -3.8809 -1.0839 -1.5913
  354TMC3    C7 5310   2.421   2.590  13.101 -0.3387 -0.5208 -0.1552
  354TMC3    C8 5311   2.159   2.978  13.166  0.1220  0.0656  0.1124
  354TMC3    O1 5312   2.437   2.472  13.112 -0.4157 -0.0216  0.4461
  354TMC3    O2 5313   2.196   3.009  13.055 -0.2385  0.3060  0.2149
  355MPD2     C 5314   1.751   3.729  11.932  0.0364  0.6511 -0.3668
  355MPD2    C1 5315   1.837   3.702  11.830 -0.0013 -0.4197  0.1277
  355MPD2    C2 5316   1.976   3.689  11.858  0.2963  0.4663  0.1732
  355MPD2    C3 5317   2.015   3.691  11.991  0.1259  0.1220  0.4807
  355MPD2    C4 5318   1.926   3.710  12.087  0.4830 -0.0584  0.4097
  355MPD2    C5 5319   1.789   3.726  12.060  0.5322 -0.7987  0.0728
  355MPD2     H 5320   2.040   3.657  11.777 -0.2712  0.9291 -0.4632
  355MPD2    H1 5321   1.957   3.705  12.191 -2.5172 -2.9049  1.1801
  355MPD2    H2 5322   1.646   3.750  11.913 -0.7359 -2.5704  0.4132
  355MPD2    H3 5323   1.726   3.758  12.142 -0.0289 -0.0571 -0.6512
  355MPD2     N 5324   2.148   3.661  12.039 -0.4024  0.1049 -0.2092
  355MPD2    H5 5325   2.162   3.652  12.139  0.5468 -1.0579 -0.4571
  355MPD2    N1 5326   1.781   3.705  11.700  0.5416 -0.4179 -0.0790
  355MPD2    H7 5327   1.684   3.731  11.688  0.8802  1.4457  1.2021
  356TMC3    C1 5328   2.385   3.639  12.022  0.4809  0.6226  0.5320
  356TMC3    C2 5329   2.484   3.608  11.936 -0.7117  0.5211  0.1590
  356TMC3    C3 5330   2.606   3.673  11.956  0.2771 -0.1512  0.4103
  356TMC3    C4 5331   2.405   3.718  12.134 -0.5941 -0.3416 -0.0179
  356TMC3    C5 5332   2.531   3.765  12.162 -0.2725 -0.4272  0.5184
  356TMC3    C6 5333   2.633   3.744  12.070 -0.2079  0.2363 -0.7486
  356TMC3     C 5334   2.258   3.650  11.957  0.0317  0.8133 -0.1826
  356TMC3     O 5335   2.261   3.637  11.836 -0.0919  0.6957 -0.9878
  356TMC3     H 5336   2.472   3.547  11.847  1.3128 -0.6051  0.6470
  356TMC3    H1 5337   2.326   3.746  12.203 -1.7818  0.2531 -1.6217
  356TMC3    H2 5338   2.729   3.791  12.089 -2.3287  2.6552  3.6877
  356TMC3    C7 5339   2.569   3.811  12.299  0.1108 -0.0442 -0.4124
  356TMC3    C8 5340   2.683   3.694  11.835 -0.5168  0.7957 -0.1215
  356TMC3    O1 5341   2.513   3.756  12.393 -0.1906 -0.1234  0.1123
  356TMC3    O2 5342   2.664   3.610  11.743 -0.3789  0.2357  0.7743
  357MPD2     C 5343   1.917   3.509   0.799  0.5273 -0.0568  0.0046
  357MPD2    C1 5344   1.840   3.403   0.823  0.0411  0.2550 -0.2784
  357MPD2    C2 5345   1.709   3.417   0.838  0.0913 -0.2197 -0.4701
  357MPD2    C3 5346   1.650   3.537   0.857 -0.2005  0.3163 -0.2433
  357MPD2    C4 5347   1.727   3.652   0.840 -0.1593 -0.0285 -0.2741
  357MPD2    C5 5348   1.864   3.637   0.815 -0.3238  0.2364  0.9321
  357MPD2     H 5349   1.647   3.330   0.859  1.3166 -1.3577 -1.5863
  357MPD2    H1 5350   1.691   3.754   0.840 -0.5624 -0.1680  0.2336
  357MPD2    H2 5351   2.016   3.500   0.758 -0.0036  0.7545 -1.4439
  357MPD2    H3 5352   1.927   3.718   0.780 -1.2996  0.4884 -0.2721
  357MPD2     N 5353   1.511   3.563   0.880 -0.1016 -0.7126 -0.3144
  357MPD2    H5 5354   1.484   3.659   0.895  0.7358  0.0030 -3.3962
  357MPD2    N1 5355   1.879   3.269   0.794  0.7937 -0.4075 -0.1457
  357MPD2    H7 5356   1.807   3.200   0.775  0.2766  0.1420 -0.1871
  358TMC3    C1 5357   2.022   3.093   0.760 -0.2415 -0.1407  0.0386
  358TMC3    C2 5358   1.898   3.023   0.749  0.4959  0.5404  0.4083
  358TMC3    C3 5359   1.888   2.940   0.643  0.1304 -0.3039  0.0373
  358TMC3    C4 5360   2.116   3.068   0.667 -0.1825 -0.2227 -0.0360
  358TMC3    C5 5361   2.099   2.980   0.562  0.1135  0.4442 -0.0485
  358TMC3    C6 5362   1.977   2.919   0.545 -0.5387  0.1667 -0.3483
  358TMC3     C 5363   2.009   3.232   0.796  0.2708  0.4236  0.3037
  358TMC3     O 5364   2.113   3.291   0.810  0.0104 -0.3598 -0.7550
  358TMC3     H 5365   1.811   3.039   0.812 -1.2094 -1.7872 -1.3692
  358TMC3    H1 5366   2.210   3.122   0.671 -0.0181 -0.4372 -0.9139
  358TMC3    H2 5367   1.961   2.826   0.491 -0.8459 -0.0617  0.1411
  358TMC3    C7 5368   2.219   2.911   0.494  0.0577  0.3221  0.2836
  358TMC3    C8 5369   1.750   2.903   0.616 -0.1250 -0.0828 -0.2365
  358TMC3    O1 5370   2.322   2.915   0.553 -0.4317 -0.4146  0.4937
  358TMC3    O2 5371   1.666   2.908   0.703 -0.3079  0.2944 -0.4074
  359MPD2     C 5372   2.871   1.885  12.635 -0.0186 -0.5468  0.3975
  359MPD2    C1 5373   2.758   1.932  12.579  0.0826  0.0239 -0.2133
  359MPD2    C2 5374   2.632   1.897  12.626 -0.2496 -1.1322 -0.6489
  359MPD2    C3 5375   2.617   1.809  12.732 -0.0012 -0.0176  0.4762
  359MPD2    C4 5376   2.733   1.749  12.781 -0.4521  0.2842 -0.1290
  359MPD2    C5 5377   2.850   1.787  12.727 -0.2427  0.0519  0.4856
  359MPD2     H 5378   2.553   1.942  12.567  1.2619  1.0544 -0.9974
  359MPD2    H1 5379   2.741   1.672  12.857 -0.1901  0.8798  0.4535
  359MPD2    H2 5380   2.971   1.920  12.609 -0.3381  0.1229  0.0673
  359MPD2    H3 5381   2.934   1.733  12.769  0.1023  0.9031  0.8874
  359MPD2     N 5382   2.492   1.775  12.773 -0.0818  0.1970  0.5535
  359MPD2    H5 5383   2.481   1.747  12.870 -1.8209  1.9213  0.8729
  359MPD2    N1 5384   2.765   2.027  12.475  0.6553 -0.5160  0.3662
  359MPD2    H7 5385   2.686   2.086  12.450  0.1482 -2.3895 -2.4535
  360TMC3    C1 5386   2.850   2.159  12.296  0.6432  0.9024  0.6347
  360TMC3    C2 5387   2.963   2.232  12.273 -0.1223  0.2307  0.7460
  360TMC3    C3 5388   2.934   2.361  12.222 -0.2703  0.4741  0.0672
  360TMC3    C4 5389   2.727   2.200  12.250  0.1060 -0.2541  0.7160
  360TMC3    C5 5390   2.705   2.324  12.204 -0.4621  0.3722  0.5206
  360TMC3    C6 5391   2.809   2.411  12.181 -0.2639  0.1684  0.3663
  360TMC3     C 5392   2.872   2.050  12.395  0.8471 -0.2560  0.1889
  360TMC3     O 5393   2.986   2.012  12.405 -0.2072 -0.6594  0.1934
  360TMC3     H 5394   3.057   2.210  12.322 -0.7038  1.1624  2.2643
  360TMC3    H1 5395   2.642   2.136  12.269 -0.6592  0.4569 -0.3031
  360TMC3    H2 5396   2.801   2.512  12.143  0.9111 -0.9025 -2.7022
  360TMC3    C7 5397   2.590   2.337  12.114  0.4675 -0.0402 -0.2206
  360TMC3    C8 5398   3.041   2.427  12.167 -0.0500  0.1511 -1.0633
  360TMC3    O1 5399   2.619   2.393  12.010 -0.1770  0.0057  0.5336
  360TMC3    O2 5400   3.046   2.546  12.153 -0.1326 -0.2080  0.3749
  361MPD2     C 5401   4.302   0.950  16.815 -0.5153 -0.8884  0.5491
  361MPD2    C1 5402   4.314   1.017  16.933 -0.2908 -0.3107  0.2090
  361MPD2    C2 5403   4.417   0.981  17.021  0.0246 -0.5978 -0.1519
  361MPD2    C3 5404   4.516   0.893  16.983  0.4710 -0.3039 -0.2624
  361MPD2    C4 5405   4.501   0.829  16.862  1.4844 -0.2807 -0.8362
  361MPD2    C5 5406   4.394   0.858  16.776  0.8211 -0.4124 -0.0112
  361MPD2     H 5407   4.418   1.022  17.121  0.0602  0.7261 -0.7019
  361MPD2    H1 5408   4.573   0.758  16.822  0.3617 -1.5819 -0.5781
  361MPD2    H2 5409   4.221   0.970  16.745 -0.6720 -0.5656  0.8206
  361MPD2    H3 5410   4.388   0.798  16.686  3.0553  0.3654 -0.6883
  361MPD2     N 5411   4.622   0.849  17.066  0.2240  0.0078 -0.7180
  361MPD2    H5 5412   4.685   0.785  17.019  1.5013  0.4710  0.3632
  361MPD2    N1 5413   4.220   1.119  16.962 -0.7419  0.2473  0.6841
  361MPD2    H7 5414   4.157   1.139  16.885  1.1543 -0.0968 -0.9471
  362TMC3    C1 5415   4.108   1.277  17.074 -0.5743 -0.0461  0.2041
  362TMC3    C2 5416   4.004   1.271  17.163 -0.0594  0.2357  0.1459
  362TMC3    C3 5417   3.898   1.361  17.154  0.3154 -0.3883  0.1395
  362TMC3    C4 5418   4.098   1.357  16.964  0.3864 -0.5614 -0.6357
  362TMC3    C5 5419   3.993   1.443  16.961 -0.3215  0.9908  0.5666
  362TMC3    C6 5420   3.891   1.442  17.050 -0.0578 -0.2295 -0.0986
  362TMC3     C 5421   4.206   1.178  17.084 -0.0245 -0.1953  0.9651
  362TMC3     O 5422   4.250   1.146  17.189  0.8939 -0.6769 -0.2050
  362TMC3     H 5423   3.999   1.183  17.225  1.2468  0.5171  0.6580
  362TMC3    H1 5424   4.175   1.356  16.888 -0.0792 -0.9168 -1.1041
  362TMC3    H2 5425   3.812   1.513  17.033 -1.1057 -1.0350  1.3858
  362TMC3    C7 5426   3.965   1.516  16.838 -0.5239 -1.0126  0.4867
  362TMC3    C8 5427   3.768   1.318  17.193  0.0264  0.2183 -0.7473
  362TMC3    O1 5428   3.874   1.594  16.838 -0.3182 -0.0110 -0.3298
  362TMC3    O2 5429   3.751   1.196  17.208  0.3911  0.3235  0.4061
  363TMC3    C1 5430   3.747   3.263   9.812 -0.4644  0.3626 -0.3820
  363TMC3    C2 5431   3.784   3.177   9.916  0.6242 -0.0162 -1.2045
  363TMC3    C3 5432   3.685   3.094   9.966  0.9592  0.1968 -0.0180
  363TMC3    C4 5433   3.617   3.258   9.770 -0.1250  0.3125 -0.3607
  363TMC3    C5 5434   3.524   3.172   9.816 -0.1842  0.3619  0.6064
  363TMC3    C6 5435   3.555   3.093   9.927  0.8580 -0.4027  0.5173
  363TMC3     C 5436   3.827   3.381   9.793  1.1331 -0.3809  0.7421
  363TMC3     O 5437   3.909   3.392   9.885  0.3863 -0.2665  0.4727
  363TMC3     H 5438   3.887   3.173   9.948 -0.2721 -0.4624  1.6624
  363TMC3    H1 5439   3.596   3.323   9.685  0.9977  0.7229 -0.3320
  363TMC3    H2 5440   3.479   3.030   9.973 -1.9047  0.5162 -2.8135
  363TMC3    C7 5441   3.385   3.184   9.775  0.4948 -0.5723 -0.0358
  363TMC3    C8 5442   3.722   2.990  10.059  0.1921 -0.6319 -0.6065
  363TMC3    O1 5443   3.303   3.128   9.848  0.2170 -0.0342  0.4486
  363TMC3    O2 5444   3.817   3.013  10.132  0.5080  0.0193  0.5536
  364MPD2     C 5445   1.317   3.052  10.940  0.0807 -0.5383 -0.0325
  364MPD2    C1 5446   1.368   2.956  10.856 -0.4171 -0.3100  0.0984
  364MPD2    C2 5447   1.346   2.826  10.884 -0.0420 -0.3027  0.6934
  364MPD2    C3 5448   1.276   2.784  10.998 -0.0586 -0.0576 -0.1643
  364MPD2    C4 5449   1.213   2.876  11.078  0.2213  0.9514  0.3069
  364MPD2    C5 5450   1.238   3.012  11.044  0.3212 -0.1859 -0.6015
  364MPD2     H 5451   1.399   2.747  10.832 -2.3806 -1.1000 -0.4822
  364MPD2    H1 5452   1.156   2.850  11.167  0.1964  4.2748  1.2822
  364MPD2    H2 5453   1.320   3.159  10.928  0.0238 -0.6094 -0.6844
  364MPD2    H3 5454   1.213   3.092  11.112  1.9113  1.2532 -1.6908
  364MPD2     N 5455   1.248   2.649  11.025 -0.5247  0.3108  0.0022
  364MPD2    H5 5456   1.193   2.634  11.109 -0.4649 -1.9529 -0.3721
  364MPD2    N1 5457   1.423   3.000  10.736 -0.1090  0.4068 -0.6658
  364MPD2    H7 5458   1.450   3.098  10.738  1.1530  0.0532 -0.4476
  365TMC3    C1 5459   1.472   3.009  10.502 -0.4645  0.2979 -0.2834
  365TMC3    C2 5460   1.420   2.972  10.382 -0.1013  0.1883 -0.1422
  365TMC3    C3 5461   1.441   3.062  10.279  0.7573  0.2125 -0.1880
  365TMC3    C4 5462   1.546   3.123  10.521 -0.4090 -0.6591  0.0332
  365TMC3    C5 5463   1.575   3.196  10.416  0.6342  0.2690 -0.3188
  365TMC3    C6 5464   1.527   3.168  10.287  0.5595 -0.5285  0.7177
  365TMC3     C 5465   1.427   2.933  10.614  0.3886  1.1242  0.4407
  365TMC3     O 5466   1.380   2.822  10.596  0.4041 -0.0965  0.9163
  365TMC3     H 5467   1.359   2.883  10.372 -0.9598  0.7943 -0.2647
  365TMC3    H1 5468   1.606   3.144  10.609 -0.4195 -0.1330 -0.0864
  365TMC3    H2 5469   1.539   3.246  10.212  0.2028 -1.0449  0.1195
  365TMC3    C7 5470   1.617   3.333  10.432 -0.9518  0.4105 -0.3848
  365TMC3    C8 5471   1.367   3.053  10.156 -0.3959  0.1638  0.0929
  365TMC3    O1 5472   1.693   3.380  10.349  0.0675  0.4790 -0.7494
  365TMC3    O2 5473   1.410   3.125  10.065 -0.2820  0.1387  0.0820
  366MPD2     C 5474   0.178   3.985  14.900 -0.0555  0.1701  0.4162
  366MPD2    C1 5475   0.215   4.021  15.030 -0.8417 -0.5981  0.6019
  366MPD2    C2 5476   0.347   4.048  15.064  0.4296 -0.0490  0.9078
  366MPD2    C3 5477   0.444   4.056  14.967 -0.3873  0.5008 -0.1438
  366MPD2    C4 5478   0.416   4.005  14.844  0.3226 -0.2919 -0.4182
  366MPD2    C5 5479   0.281   3.977  14.811  0.2972 -0.1912 -0.2512
  366MPD2     H 5480   0.370   4.069  15.168  2.9878 -2.1737  0.8040
  366MPD2    H1 5481   0.482   3.994  14.759  0.8632 -1.7823  0.2069
  366MPD2    H2 5482   0.077   3.954  14.876 -0.5969  2.6152 -0.4984
  366MPD2    H3 5483   0.271   3.932  14.713  1.1267 -1.0149  0.0501
  366MPD2     N 5484   0.578   4.100  14.980  0.9507  0.0216  0.3159
  366MPD2    H5 5485   0.651   4.082  14.911 -0.4035  0.7351 -1.3120
  366MPD2    N1 5486   0.117   4.042  15.133  0.3519  0.7286 -0.7348
  366MPD2    H7 5487   0.160   4.084  15.215  1.4899 -1.0719 -0.4212
  367TMC3    C1 5488   4.627   4.128  15.223  0.1746 -0.0149  0.2619
  367TMC3    C2 5489   4.698   4.189  15.316  0.6495  0.0041 -0.0462
  367TMC3    C3 5490   4.643   4.274  15.402  0.9702  0.1762 -0.1946
  367TMC3    C4 5491   4.492   4.141  15.218  0.3191  0.1234 -0.1569
  367TMC3    C5 5492   4.436   4.211  15.323 -0.5723  0.3256  0.4040
  367TMC3    C6 5493   4.507   4.287  15.415  0.3229  0.5687  0.2283
  367TMC3     C 5494   4.694   4.044  15.115  0.1727 -0.8793 -0.5007
  367TMC3     O 5495   4.625   3.996  15.023 -0.2959  0.5720 -0.3839
  367TMC3     H 5496   0.087   4.180  15.326  0.7502  2.4618  1.1741
  367TMC3    H1 5497   4.442   4.078  15.145 -1.2567 -0.4447  1.4158
  367TMC3    H2 5498   4.461   4.336  15.500  1.1401  1.2210  0.2926
  367TMC3    C7 5499   4.290   4.224  15.337  0.0369  0.0063  0.3746
  367TMC3    C8 5500   0.003   4.355  15.492 -1.0642  0.1706 -0.2734
  367TMC3    O1 5501   4.248   4.306  15.418  0.3057  0.0215 -0.2145
  367TMC3    O2 5502   0.109   4.310  15.523 -1.1220  0.1418  0.6528
  368MPD2     C 5503   1.238   0.837  13.336  0.1128 -0.0980 -0.0336
  368MPD2    C1 5504   1.285   0.969  13.315 -0.7767 -0.4881 -0.7654
  368MPD2    C2 5505   1.386   1.019  13.397 -0.6786  0.4960 -0.6428
  368MPD2    C3 5506   1.449   0.930  13.485  0.7269 -0.1612  0.5275
  368MPD2    C4 5507   1.401   0.802  13.509  0.0803  0.3670 -0.0243
  368MPD2    C5 5508   1.283   0.758  13.440  1.2577  0.2337  0.6631
  368MPD2     H 5509   1.430   1.116  13.380  0.7736 -0.1663 -0.6434
  368MPD2    H1 5510   1.458   0.732  13.569 -1.5115 -2.2674 -1.5263
  368MPD2    H2 5511   1.160   0.795  13.274  0.0032  1.3696 -0.9054
  368MPD2    H3 5512   1.255   0.656  13.465 -0.5811  1.1158  2.2117
  368MPD2     N 5513   1.570   0.965  13.549 -0.1657 -0.3098 -0.3569
  368MPD2    H5 5514   1.617   0.887  13.593  0.6647 -0.2323 -1.0850
  368MPD2    N1 5515   1.232   1.041  13.205  0.1081  0.3529 -0.2817
  368MPD2    H7 5516   1.148   1.011  13.156  0.9980  0.4820 -1.8873
  369TMC3    C1 5517   1.186   1.230  13.064  0.2625  0.4410 -0.1149
  369TMC3    C2 5518   1.211   1.357  13.019 -0.2216  0.0350  0.1314
  369TMC3    C3 5519   1.115   1.417  12.951  0.0785  0.7797  0.5460
  369TMC3    C4 5520   1.072   1.168  13.032 -0.5128 -0.3217 -0.3134
  369TMC3    C5 5521   0.974   1.235  12.959  0.8079 -0.1592  0.4632
  369TMC3    C6 5522   0.993   1.361  12.917  0.2467  0.1567 -0.5182
  369TMC3     C 5523   1.272   1.165  13.166 -0.0046  0.0789  0.5363
  369TMC3     O 5524   1.372   1.228  13.202 -0.0526  0.1545 -0.3619
  369TMC3     H 5525   1.307   1.399  13.046  0.1017 -1.2707  1.0357
  369TMC3    H1 5526   1.055   1.063  13.055  1.6346 -1.0833 -2.2760
  369TMC3    H2 5527   0.921   1.415  12.857  1.8351  0.9277 -1.6901
  369TMC3    C7 5528   0.843   1.199  13.001 -0.6516  0.4280  0.4034
  369TMC3    C8 5529   1.152   1.537  12.872  0.1841  0.5355 -0.7907
  369TMC3    O1 5530   0.835   1.104  13.080 -0.1309 -0.2623 -0.3075
  369TMC3    O2 5531   1.064   1.583  12.802 -0.1646  0.1701  0.4471
  370TMC3    C1 5532   0.466   1.928  16.174 -0.5807  0.2496 -0.3549
  370TMC3    C2 5533   0.462   1.862  16.294  0.2916  0.2953  0.5840
  370TMC3    C3 5534   0.471   1.722  16.300 -0.2331  0.4140  0.0594
  370TMC3    C4 5535   0.478   1.860  16.053 -0.0800  0.0089 -0.0991
  370TMC3    C5 5536   0.498   1.723  16.067 -0.2646  0.1688 -0.3950
  370TMC3    C6 5537   0.491   1.655  16.186  0.1665 -0.3907  0.0434
  370TMC3     C 5538   0.434   2.065  16.184  0.0881 -0.8200 -0.3591
  370TMC3     O 5539   0.371   2.094  16.288  0.1593  0.4447 -0.1025
  370TMC3     H 5540   0.458   1.925  16.383  1.1768 -1.2007  1.6741
  370TMC3    H1 5541   0.483   1.918  15.962 -1.1521  0.4327  0.1030
  370TMC3    H2 5542   0.508   1.548  16.199  1.4694 -0.2387 -0.4063
  370TMC3    C7 5543   0.528   1.654  15.940 -0.1166 -0.7427 -0.0620
  370TMC3    C8 5544   0.463   1.660  16.429 -0.1864 -0.4890 -0.0913
  370TMC3    O1 5545   0.508   1.699  15.826 -0.7116 -0.2263  0.0414
  370TMC3    O2 5546   0.446   1.539  16.425 -0.4547 -0.3318 -0.3745
  371TMC3    C1 5547   1.719   0.067  15.544  0.5818 -0.2729  0.1874
  371TMC3    C2 5548   1.611   0.109  15.621  0.6665 -0.3780 -0.3725
  371TMC3    C3 5549   1.576   0.239  15.612  0.5224  0.2158 -0.8427
  371TMC3    C4 5550   1.791   0.157  15.465 -0.2268 -0.5677  0.3988
  371TMC3    C5 5551   1.753   0.288  15.463  0.6588 -0.4422 -0.8317
  371TMC3    C6 5552   1.644   0.331  15.536 -0.0411 -0.5115 -0.0576
  371TMC3     C 5553   1.811   4.697  15.603  0.2388 -0.7148  0.2667
  371TMC3     O 5554   1.928   4.704  15.563 -0.1818 -0.4436 -0.1767
  371TMC3     H 5555   1.543   0.035  15.662  0.6464 -1.3696 -2.1911
  371TMC3    H1 5556   1.873   0.121  15.403  0.8152 -0.2019  1.5781
  371TMC3    H2 5557   1.615   0.435  15.532 -0.4945 -0.5763  1.3463
  371TMC3    C7 5558   1.831   0.386  15.391 -0.3112  0.1229  0.4017
  371TMC3    C8 5559   1.453   0.290  15.681  0.7325  0.4850  0.5130
  371TMC3    O1 5560   1.777   0.495  15.404 -0.1646 -0.0076 -0.0726
  371TMC3    O2 5561   1.415   0.392  15.627  0.2406 -0.1374 -0.7173
  372MPD2     C 5562   1.047   1.463  13.293 -0.1103  0.6505  0.4074
  372MPD2    C1 5563   1.174   1.480  13.359  0.2079 -1.1498  0.0445
  372MPD2    C2 5564   1.213   1.384  13.458 -0.1341 -0.1608 -0.0637
  372MPD2    C3 5565   1.129   1.281  13.486 -0.1451 -0.5199 -0.4851
  372MPD2    C4 5566   1.012   1.270  13.413 -0.4913  0.3619 -0.2699
  372MPD2    C5 5567   0.965   1.364  13.326 -0.3337 -0.1426 -0.1334
  372MPD2     H 5568   1.296   1.399  13.525 -1.0866  0.3751  0.9889
  372MPD2    H1 5569   0.934   1.198  13.434  0.1403 -0.9615 -2.4505
  372MPD2    H2 5570   1.014   1.526  13.211  0.0858  0.6226  0.3068
  372MPD2    H3 5571   0.867   1.347  13.283  0.0848 -3.0279  0.0290
  372MPD2     N 5572   1.146   1.184  13.596 -0.4031  0.0787  0.0430
  372MPD2    H5 5573   1.232   1.200  13.646  0.3398 -0.5165 -1.0486
  372MPD2    N1 5574   1.260   1.588  13.329 -0.2597  1.3785  0.2705
  372MPD2    H7 5575   1.338   1.602  13.393 -0.0347  0.2415  0.2430
  373TMC3    C1 5576   1.127   1.005  13.747 -0.0783 -0.8050 -0.4293
  373TMC3    C2 5577   1.052   0.923  13.824  0.1683 -0.6156  0.4074
  373TMC3    C3 5578   1.107   0.866  13.938 -0.8388  0.9077 -0.1254
  373TMC3    C4 5579   1.253   1.016  13.774 -0.2064  0.1271 -0.9542
  373TMC3    C5 5580   1.318   0.950  13.877  0.4283 -0.1825 -0.3084
  373TMC3    C6 5581   1.246   0.864  13.956 -0.4195  0.3593  0.2537
  373TMC3     C 5582   1.063   1.080  13.632  0.0693  0.0362  0.5632
  373TMC3     O 5583   0.950   1.051  13.600  0.6091 -0.1924  0.0045
  373TMC3     H 5584   0.944   0.915  13.814  0.4761 -4.5283  0.4012
  373TMC3    H1 5585   1.326   1.061  13.708 -1.4361  1.7103 -1.2369
  373TMC3    H2 5586   1.294   0.835  14.048 -0.8348  2.0231  1.0074
  373TMC3    C7 5587   1.462   0.948  13.892  0.8764 -0.0820  0.0366
  373TMC3    C8 5588   1.032   0.871  14.063 -0.6819 -0.3615 -0.4201
  373TMC3    O1 5589   1.501   0.853  13.955 -0.1564  0.6164 -0.1602
  373TMC3    O2 5590   1.095   0.847  14.170  1.1354  0.3241 -0.0922
  374TMC3    C1 5591   1.616   1.052   9.966  0.1798 -0.1160  0.2248
  374TMC3    C2 5592   1.739   1.112   9.955 -0.2888  0.1873  0.1838
  374TMC3    C3 5593   1.800   1.114   9.832  0.0702 -0.3262  0.4138
  374TMC3    C4 5594   1.555   0.999   9.857 -0.4745 -0.1999  0.2494
  374TMC3    C5 5595   1.621   1.000   9.739  0.4087 -0.3872 -0.3333
  374TMC3    C6 5596   1.742   1.050   9.726  0.5282  0.3618 -0.1292
  374TMC3     C 5597   1.534   1.086  10.083 -0.2382  0.2760 -0.3003
  374TMC3     O 5598   1.567   1.180  10.151  0.2272  0.3689 -0.3025
  374TMC3     H 5599   1.781   1.144  10.050 -0.5423  0.1676  0.3028
  374TMC3    H1 5600   1.446   0.996   9.852 -0.5234 -0.5357  1.5774
  374TMC3    H2 5601   1.781   1.063   9.626  0.4999  2.3409  0.1110
  374TMC3    C7 5602   1.545   0.959   9.618 -0.2511 -0.0423  0.0051
  374TMC3    C8 5603   1.896   1.220   9.803  0.2574 -0.3160  0.1166
  374TMC3    O1 5604   1.598   0.987   9.510  0.0534  0.0195  0.4094
  374TMC3    O2 5605   1.926   1.243   9.684  0.2919 -0.0462 -0.5649
  375MPD2     C 5606   1.879   2.232  17.120 -0.5607  0.4358  0.5621
  375MPD2    C1 5607   1.780   2.236  17.031 -0.2065 -0.0942  0.0082
  375MPD2    C2 5608   1.803   2.190  16.903 -0.3897  0.0794 -0.2106
  375MPD2    C3 5609   1.919   2.121  16.869 -0.2039 -0.8793  0.7872
  375MPD2    C4 5610   2.008   2.098  16.969 -0.0545  0.0312 -0.0855
  375MPD2    C5 5611   1.984   2.156  17.093  0.6980 -0.1422 -0.2789
  375MPD2     H 5612   1.719   2.209  16.837 -1.0264 -0.2591  0.4959
  375MPD2    H1 5613   2.088   2.026  16.958 -0.1929 -0.1894  0.3624
  375MPD2    H2 5614   1.870   2.271  17.221  3.0216  3.5642 -0.3529
  375MPD2    H3 5615   2.064   2.136  17.164  2.0737  1.8752 -1.2584
  375MPD2     N 5616   1.943   2.076  16.735  0.0786  0.2328 -0.3219
  375MPD2    H5 5617   2.037   2.046  16.710 -0.2878  0.2336 -1.7007
  375MPD2    N1 5618   1.665   2.322  17.056 -0.0775 -0.2347 -0.0494
  375MPD2    H7 5619   1.605   2.338  16.975  0.1627  2.3283  0.2853
  376TMC3    C1 5620   1.932   2.153  16.515 -0.2062 -0.5362 -0.1944
  376TMC3    C2 5621   2.061   2.203  16.532  0.0113 -0.8090 -0.4718
  376TMC3    C3 5622   2.120   2.258  16.424  0.0508  0.0545  0.4615
  376TMC3    C4 5623   1.867   2.152  16.393 -0.4342 -0.7821  0.1554
  376TMC3    C5 5624   1.936   2.216  16.290 -0.5427 -0.6832 -1.1127
  376TMC3    C6 5625   2.059   2.266  16.305 -0.3800  0.2727 -0.5897
  376TMC3     C 5626   1.860   2.106  16.628  0.5892  0.5232  0.4731
  376TMC3     O 5627   1.736   2.100  16.630  0.2452 -0.0076 -0.3436
  376TMC3     H 5628   2.105   2.214  16.630  0.8667 -1.7464 -0.7458
  376TMC3    H1 5629   1.773   2.100  16.386 -1.3962  0.8003  1.2167
  376TMC3    H2 5630   2.101   2.337  16.234  0.1930  1.8629  1.3505
  376TMC3    C7 5631   1.895   2.209  16.155  0.6571  0.3051  0.1062
  376TMC3    C8 5632   2.267   2.244  16.413  0.5147 -0.5015  0.1120
  376TMC3    O1 5633   1.973   2.234  16.067 -1.5641  0.0128 -0.8398
  376TMC3    O2 5634   2.306   2.253  16.298  0.1012 -0.2113 -0.3227
  377MPD2     C 5635   0.290   1.703  12.781 -0.3464  0.1713  0.8164
  377MPD2    C1 5636   0.212   1.667  12.664 -0.3376  0.0298 -0.1667
  377MPD2    C2 5637   0.083   1.620  12.687  0.6345 -0.4196 -0.5150
  377MPD2    C3 5638   0.040   1.599  12.819 -0.3838  0.1159  0.0737
  377MPD2    C4 5639   0.117   1.623  12.923 -0.2118  0.1017  0.4646
  377MPD2    C5 5640   0.244   1.672  12.903  0.0493  0.0664  0.1001
  377MPD2     H 5641   0.019   1.592  12.605 -0.3006  1.4395 -0.4189
  377MPD2    H1 5642   0.089   1.610  13.027 -2.7589  1.1991 -0.0854
  377MPD2    H2 5643   0.387   1.750  12.772 -1.9003  3.0099 -1.4070
  377MPD2    H3 5644   0.309   1.676  12.989 -1.2368  2.1930  0.9430
  377MPD2     N 5645   4.630   1.552  12.857 -0.4134 -0.2530  0.5326
  377MPD2    H5 5646   4.621   1.535  12.957  0.6010  0.0146  0.6682
  377MPD2    N1 5647   0.249   1.688  12.534  0.6072 -0.4736  0.3048
  377MPD2    H7 5648   0.193   1.641  12.464  0.5063  0.6140 -0.3307
  378TMC3    C1 5649   0.313   1.718  12.129  0.1502 -0.6265 -0.5732
  378TMC3    C2 5650   0.285   1.705  12.262 -0.2709 -0.0033 -0.4889
  378TMC3    C3 5651   0.384   1.746  12.350 -0.5306  0.1894  0.4891
  378TMC3    C4 5652   0.423   1.782  12.076 -0.0061  0.1357 -0.1203
  378TMC3    C5 5653   0.515   1.814  12.171  0.4044 -0.4101  1.0914
  378TMC3    C6 5654   0.499   1.798  12.308 -0.6809 -0.1136  0.3184
  378TMC3     C 5655   0.209   1.676  12.033  0.4082 -0.5648 -0.4593
  378TMC3     O 5656   0.101   1.652  12.084  0.6699  0.5179 -0.1781
  378TMC3     H 5657   0.199   1.647  12.294 -1.1441  1.5189 -0.0765
  378TMC3    H1 5658   0.450   1.794  11.971  0.5678 -0.5611 -0.0574
  378TMC3    H2 5659   0.580   1.822  12.376 -0.5030 -0.4444  0.2232
  378TMC3    C7 5660   0.649   1.858  12.127 -0.0879 -0.9376 -0.0010
  378TMC3    C8 5661   0.363   1.751  12.493 -0.7915  0.5599  0.8362
  378TMC3    O1 5662   0.714   1.919  12.212  0.4477 -0.2058  0.1275
  378TMC3    O2 5663   0.446   1.818  12.557  0.2841 -0.4847 -0.8748
  379MPD2     C 5664   0.724   0.180  16.295  0.6240 -0.1162  0.2393
  379MPD2    C1 5665   0.775   0.096  16.204  0.2290 -0.0554 -0.4342
  379MPD2    C2 5666   0.845   4.703  16.262 -0.1023  0.5795 -0.3160
  379MPD2    C3 5667   0.863   4.689  16.401 -0.0117  0.4002 -0.1006
  379MPD2    C4 5668   0.813   0.071  16.479  0.4887  0.2337 -0.2817
  379MPD2    C5 5669   0.743   0.178  16.431  0.5735 -0.5912 -0.2473
  379MPD2     H 5670   0.873   4.624  16.193  1.0610 -1.5436  2.6269
  379MPD2    H1 5671   0.829   0.065  16.586  0.4508  0.6190 -0.2563
  379MPD2    H2 5672   0.657   0.256  16.255 -0.2497  0.0899  2.1077
  379MPD2    H3 5673   0.687   0.243  16.497  2.4449 -0.6382  1.3831
  379MPD2     N 5674   0.910   4.568  16.464  0.4861 -0.0420 -0.1528
  379MPD2    H5 5675   0.907   4.563  16.565  1.6617 -2.4873 -0.2334
  379MPD2    N1 5676   0.741   0.114  16.068  0.0122  0.0637  0.1596
  379MPD2    H7 5677   0.664   0.178  16.049 -1.1764 -1.1276  0.9153
  380TMC3    C1 5678   0.718   0.031  15.848 -0.3024  0.0283 -0.0083
  380TMC3    C2 5679   0.775   4.707  15.737 -0.0353 -0.2658 -0.0546
  380TMC3    C3 5680   0.703   0.005  15.621  0.5320  0.5531  0.1056
  380TMC3    C4 5681   0.587   0.068  15.854  0.8490  0.1080  0.1207
  380TMC3    C5 5682   0.519   0.081  15.736  0.3114  1.0446  0.2124
  380TMC3    C6 5683   0.576   0.049  15.615  0.9551 -0.1727  0.0792
  380TMC3     C 5684   0.797   0.031  15.972 -0.0069 -0.6644 -0.1385
  380TMC3     O 5685   0.905   4.695  15.969  0.0382  0.0420 -0.0680
  380TMC3     H 5686   0.883   4.694  15.733  0.1126  1.3622 -1.2220
  380TMC3    H1 5687   0.530   0.081  15.945  3.0696  0.7808  1.4150
  380TMC3    H2 5688   0.529   0.083  15.524  0.1863 -1.7469 -0.1201
  380TMC3    C7 5689   0.378   0.098  15.743 -0.4506  0.6774  0.6694
  380TMC3    C8 5690   0.756   4.682  15.495  0.0832  0.5871  0.4998
  380TMC3    O1 5691   0.332   0.186  15.815  0.6050 -0.1120  0.4616
  380TMC3    O2 5692   0.715   0.032  15.403 -0.7181  0.2147  0.2070
  381TMC3    C1 5693   0.439   0.903  16.215  0.6261 -0.5222  0.5496
  381TMC3    C2 5694   0.486   1.028  16.201 -0.0785  0.3483  0.3258
  381TMC3    C3 5695   0.517   1.094  16.319 -0.1607  0.3115  0.1846
  381TMC3    C4 5696   0.396   0.857  16.339 -0.1212  0.2902 -0.7223
  381TMC3    C5 5697   0.405   0.935  16.448  0.4536 -0.4592 -0.7294
  381TMC3    C6 5698   0.475   1.053  16.441 -0.1777  0.7134  0.4498
  381TMC3     C 5699   0.494   0.797  16.129  0.0342  0.6116 -0.2617
  381TMC3     O 5700   0.453   0.686  16.160  1.0160 -0.1122  0.1025
  381TMC3     H 5701   0.507   1.077  16.106 -3.1890 -0.8314 -0.9427
  381TMC3    H1 5702   0.344   0.762  16.340  0.2385  0.1170  1.2861
  381TMC3    H2 5703   0.513   1.100  16.531 -1.1079  2.2699  0.0301
  381TMC3    C7 5704   0.357   0.891  16.581  0.5375 -0.2135 -0.0106
  381TMC3    C8 5705   0.642   1.165  16.304 -0.0247 -0.9195  0.6207
  381TMC3    O1 5706   0.341   0.769  16.604 -0.4358 -0.2128 -0.3302
  381TMC3    O2 5707   0.697   1.144  16.194 -0.0202 -0.1392  0.4061
  382MPD2     C 5708   4.532   3.730  17.148 -0.3955  0.3339  0.1882
  382MPD2    C1 5709   4.479   3.752  17.276 -0.2440  0.6458 -0.3396
  382MPD2    C2 5710   4.391   3.659  17.331 -0.0231 -0.5522  0.0332
  382MPD2    C3 5711   4.348   3.545  17.260 -0.5335 -0.5368 -0.4792
  382MPD2    C4 5712   4.392   3.532  17.134 -0.0802  0.2460  0.2553
  382MPD2    C5 5713   4.477   3.623  17.075  0.6750 -0.3683 -0.2393
  382MPD2     H 5714   4.353   3.671  17.432  0.0830  0.8978 -0.0929
  382MPD2    H1 5715   4.366   3.447  17.071  0.5138 -0.7829  1.3839
  382MPD2    H2 5716   4.597   3.797  17.094 -1.7520  1.1215 -0.4729
  382MPD2    H3 5717   4.498   3.601  16.971 -2.1815  0.5851 -0.9908
  382MPD2     N 5718   4.272   3.445  17.315  0.0267  0.1651 -0.1355
  382MPD2    H5 5719   4.259   3.360  17.260 -0.7044  1.0784 -1.3724
  382MPD2    N1 5720   4.506   3.869  17.361 -0.0592  0.1883  0.2023
  382MPD2    H7 5721   4.435   3.894  17.429 -2.0832  0.1513 -1.8918
  383TMC3    C1 5722   4.163   3.316  17.473 -0.0817  0.1265 -0.2202
  383TMC3    C2 5723   4.122   3.236  17.371  0.2141  0.5075  0.0741
  383TMC3    C3 5724   4.125   3.098  17.388  0.3750  0.0320  0.1757
  383TMC3    C4 5725   4.203   3.262  17.599 -0.2433  0.1911 -0.5501
  383TMC3    C5 5726   4.220   3.126  17.601 -0.4329  0.2411 -0.4716
  383TMC3    C6 5727   4.179   3.046  17.500 -0.0471 -0.7836 -0.1279
  383TMC3     C 5728   4.215   3.442  17.441  0.0644  0.5569  0.4036
  383TMC3     O 5729   4.216   3.518  17.532 -0.4428  0.1268  0.1168
  383TMC3     H 5730   4.079   3.284  17.284 -2.7758 -0.8814  0.7966
  383TMC3    H1 5731   4.235   3.329   0.004  0.5272  0.5462 -1.1613
  383TMC3    H2 5732   4.171   2.939  17.513  2.0771 -0.6199  2.5394
  383TMC3    C7 5733   4.298   3.065   0.031  0.5053 -0.3580 -0.0604
  383TMC3    C8 5734   4.057   3.014  17.289 -0.1814  0.3154  0.8808
  383TMC3    O1 5735   4.282   2.944   0.047 -0.3820  0.0540  0.2849
  383TMC3    O2 5736   3.963   3.060  17.235  0.1486 -0.0416  0.1196
  384MPD2     C 5737   1.079   0.365  11.690  0.0360  0.8876 -0.0312
  384MPD2    C1 5738   1.051   0.243  11.753 -0.3351  0.2994  0.9066
  384MPD2    C2 5739   1.120   0.129  11.713  0.1332  0.4041 -0.1048
  384MPD2    C3 5740   1.215   0.136  11.610  0.4568 -0.5519  0.0943
  384MPD2    C4 5741   1.239   0.255  11.550  0.0650  0.1428 -0.0379
  384MPD2    C5 5742   1.173   0.367  11.587 -0.5524 -0.1700  0.1528
  384MPD2     H 5743   1.101   0.041  11.773 -0.1782  2.2161  2.4905
  384MPD2    H1 5744   1.304   0.260  11.463 -0.1528  0.1687 -0.1991
  384MPD2    H2 5745   1.031   0.457  11.720 -2.4101 -0.1838 -0.6333
  384MPD2    H3 5746   1.202   0.457  11.535  1.9530 -1.2397 -0.3421
  384MPD2     N 5747   1.303   0.030  11.565 -0.0228 -0.1247  0.2198
  384MPD2    H5 5748   1.381   0.063  11.509  1.2608 -0.0175  2.1046
  384MPD2    N1 5749   0.962   0.230  11.858 -0.1200 -0.2347 -0.5060
  384MPD2    H7 5750   0.958   0.135  11.894  0.5454  0.3316  1.0270
  385TMC3    C1 5751   1.407   4.545  11.583 -0.5383 -1.2749 -0.4051
  385TMC3    C2 5752   1.389   4.421  11.526 -0.2815 -0.2949  0.2915
  385TMC3    C3 5753   1.446   4.314  11.594  0.3242  0.1374 -0.7869
  385TMC3    C4 5754   1.473   4.562  11.700  0.5549 -0.1035  0.4273
  385TMC3    C5 5755   1.528   4.454  11.766 -0.3980  0.2432 -0.2309
  385TMC3    C6 5756   1.516   4.328  11.714  0.3211  0.7797  0.2579
  385TMC3     C 5757   1.283   4.616  11.589 -0.1458 -0.2208 -0.3078
  385TMC3     O 5758   1.185   4.553  11.627  0.2138 -0.2870  0.1975
  385TMC3     H 5759   1.314   4.410  11.448  0.8470 -0.0354 -0.8219
  385TMC3    H1 5760   1.450   4.655  11.752 -0.5791  1.0285 -2.0967
  385TMC3    H2 5761   1.558   4.241  11.763 -2.1766 -0.6470 -0.1078
  385TMC3    C7 5762   1.456   4.459  11.894 -0.2418  0.1246 -0.1851
  385TMC3    C8 5763   1.366   4.190  11.601 -0.1725  0.2966 -0.0622
  385TMC3    O1 5764   1.455   4.554  11.969  0.5625  0.0363  1.0857
  385TMC3    O2 5765   1.367   4.136  11.713 -0.1738  0.7245  0.1776
  386TMC3    C1 5766   1.913   1.932  11.582 -0.9943 -0.0951 -0.1964
  386TMC3    C2 5767   1.854   1.866  11.482  0.3302  0.3808 -0.3059
  386TMC3    C3 5768   1.727   1.905  11.452  0.0517  0.1513 -0.3923
  386TMC3    C4 5769   1.844   2.004  11.680  0.5225  0.4555  0.2539
  386TMC3    C5 5770   1.714   2.042  11.647 -0.2385  0.2752  0.2858
  386TMC3    C6 5771   1.662   1.999  11.531 -0.3528 -0.8622 -0.0398
  386TMC3     C 5772   2.032   1.873  11.640 -0.2180  0.3109 -0.4340
  386TMC3     O 5773   2.095   1.946  11.714 -0.1772  0.0511  0.4610
  386TMC3     H 5774   1.908   1.802  11.414 -0.2271 -1.3857  0.9128
  386TMC3    H1 5775   1.883   2.028  11.778  0.1317  0.4743  0.4052
  386TMC3    H2 5776   1.555   2.005  11.518 -0.3179 -1.4003 -0.5398
  386TMC3    C7 5777   1.638   2.127  11.738  0.1725  0.0515 -0.2263
  386TMC3    C8 5778   1.659   1.862  11.329  0.4565 -0.0815 -0.1584
  386TMC3    O1 5779   1.516   2.115  11.733  0.2058  0.3927 -0.2786
  386TMC3    O2 5780   1.558   1.927  11.291 -0.1121  0.1907  0.1990
  387MPD2     C 5781   3.328   1.424   9.889 -0.7333  0.6031 -0.6028
  387MPD2    C1 5782   3.445   1.418   9.957  0.6564  0.0354 -0.8762
  387MPD2    C2 5783   3.515   1.300   9.947  0.9343  0.3670 -0.0934
  387MPD2    C3 5784   3.473   1.193   9.870 -0.0429  0.2270  0.2514
  387MPD2    C4 5785   3.355   1.197   9.805 -0.3520 -0.7235  0.6065
  387MPD2    C5 5786   3.285   1.312   9.823 -0.2661  0.2183 -0.1273
  387MPD2     H 5787   3.604   1.284  10.007 -0.4292  1.1103  2.0804
  387MPD2    H1 5788   3.308   1.124   9.741 -0.4217  0.2537 -0.4516
  387MPD2    H2 5789   3.268   1.514   9.889 -1.8334 -0.1349 -0.0459
  387MPD2    H3 5790   3.196   1.323   9.762 -0.2965 -0.1575 -0.1512
  387MPD2     N 5791   3.567   1.090   9.873  0.1771 -0.0876  0.0866
  387MPD2    H5 5792   3.639   1.094   9.945 -0.1786  1.2890  0.3591
  387MPD2    N1 5793   3.504   1.523  10.031 -0.3130 -0.0327 -0.1708
  387MPD2    H7 5794   3.595   1.502  10.069 -0.2839 -1.0489 -0.8322
  388TMC3    C1 5795   3.578   1.737  10.057  0.8351  0.3097  0.6032
  388TMC3    C2 5796   3.567   1.865  10.013 -0.2001 -0.6559  0.7874
  388TMC3    C3 5797   3.673   1.952   9.994  0.6224  0.4106  0.2195
  388TMC3    C4 5798   3.701   1.692  10.069 -1.0171  0.2329  0.5843
  388TMC3    C5 5799   3.810   1.770  10.034  0.3287 -0.0444  0.0404
  388TMC3    C6 5800   3.801   1.904  10.011 -0.5895  0.3487 -0.0568
  388TMC3     C 5801   3.467   1.649  10.008  0.2714 -0.2862  0.3203
  388TMC3     O 5802   3.386   1.703   9.937 -0.0572  0.0203 -0.2742
  388TMC3     H 5803   3.467   1.899   9.990  0.0891 -0.3705 -0.0747
  388TMC3    H1 5804   3.705   1.602  10.130  1.6173  0.7233  1.1278
  388TMC3    H2 5805   3.891   1.962   9.993 -1.1407  1.5473  1.0571
  388TMC3    C7 5806   3.933   1.704   9.983 -0.0078  0.1274 -0.2145
  388TMC3    C8 5807   3.656   2.085   9.945 -0.0333 -0.9744  0.2535
  388TMC3    O1 5808   4.022   1.772   9.934 -0.0198 -0.2275  0.2199
  388TMC3    O2 5809   3.555   2.096   9.879  0.4195 -0.5950  0.0930
  389MPD2     C 5810   3.172   4.694  10.954 -0.6865  0.1674  0.0406
  389MPD2    C1 5811   3.044   4.665  10.903  0.0049  0.5740 -0.3681
  389MPD2    C2 5812   2.942   4.632  10.982  0.2205 -0.0621  0.8656
  389MPD2    C3 5813   2.959   4.642  11.117 -0.0195 -0.4416  0.1608
  389MPD2    C4 5814   3.086   4.652  11.168 -0.5243  1.0504  0.0786
  389MPD2    C5 5815   3.193   4.681  11.086 -0.3371 -1.2865 -0.2303
  389MPD2     H 5816   2.845   4.605  10.941  0.5090  3.4889 -2.1975
  389MPD2    H1 5817   3.092   4.639  11.275  1.1657 -3.0512 -0.5030
  389MPD2    H2 5818   3.252   4.709  10.883 -1.0424 -0.7570 -0.5596
  389MPD2    H3 5819   3.295   4.698  11.118 -0.4687 -0.3996 -0.2796
  389MPD2     N 5820   2.853   4.636  11.206  0.1938 -0.7223 -0.5958
  389MPD2    H5 5821   2.879   4.639  11.304 -0.5878 -0.7493 -0.3923
  389MPD2    N1 5822   3.023   4.678  10.767  0.8200  0.1139  0.0026
  389MPD2    H7 5823   3.107   4.697  10.713  0.8794  0.6474  0.2829
  390TMC3    C1 5824   2.647   4.577  11.311 -0.6059  0.0256 -0.3374
  390TMC3    C2 5825   2.539   4.498  11.304  0.3306  0.2363  0.1319
  390TMC3    C3 5826   2.429   4.522  11.384 -0.4772 -0.6793  0.0949
  390TMC3    C4 5827   2.649   4.689  11.399  0.1049  0.2538 -0.3289
  390TMC3    C5 5828   2.538   0.003  11.468 -0.0127  0.7380  0.5385
  390TMC3    C6 5829   2.428   4.635  11.461 -0.1155  0.0989 -0.0808
  390TMC3     C 5830   2.728   4.579  11.186  1.0138 -0.2623 -0.6271
  390TMC3     O 5831   2.691   4.516  11.089 -0.6580  0.6966  0.1165
  390TMC3     H 5832   2.529   4.414  11.235  2.6280 -0.6021  0.7923
  390TMC3    H1 5833   2.733   0.040  11.393  0.1165  0.2023 -0.7603
  390TMC3    H2 5834   2.339   4.660  11.517  0.7942  0.4939  1.1804
  390TMC3    C7 5835   2.522   0.129  11.530 -0.3575 -0.3652 -0.0859
  390TMC3    C8 5836   2.310   4.451  11.362  0.6090  0.4625  0.1708
  390TMC3    O1 5837   2.579   0.224  11.480  0.4234  0.2459 -0.5089
  390TMC3    O2 5838   2.328   4.334  11.332 -0.0860 -0.0593  0.1603
  391MPD2     C 5839   2.208   1.623  11.281  0.2544 -0.3354  0.6762
  391MPD2    C1 5840   2.302   1.707  11.216 -0.8688 -0.5574 -0.5248
  391MPD2    C2 5841   2.283   1.740  11.085 -0.2336  0.0066 -0.3155
  391MPD2    C3 5842   2.187   1.681  11.009 -0.7480 -0.2194  0.0428
  391MPD2    C4 5843   2.090   1.605  11.072  0.1946  0.3453 -0.4130
  391MPD2    C5 5844   2.099   1.583  11.207 -0.1490  0.3859 -0.3224
  391MPD2     H 5845   2.366   1.793  11.040  0.6791 -0.6913  0.5462
  391MPD2    H1 5846   2.003   1.572  11.016 -0.1021 -0.3710  0.4740
  391MPD2    H2 5847   2.202   1.613  11.389 -0.1787  0.1893  0.6997
  391MPD2    H3 5848   2.018   1.527  11.253  0.1057  0.7458  0.5649
  391MPD2     N 5849   2.185   1.720  10.868  0.5252 -0.0281 -0.1764
  391MPD2    H5 5850   2.252   1.791  10.842  1.4476 -1.0596 -0.6292
  391MPD2    N1 5851   2.404   1.781  11.285  0.7752 -0.0701  0.5955
  391MPD2    H7 5852   2.456   1.851  11.235  0.0465 -1.0131 -1.4951
  392TMC3    C1 5853   2.127   1.730  10.641  0.0309  0.8912  0.5602
  392TMC3    C2 5854   2.105   1.644  10.530  0.1850 -0.0842  0.1257
  392TMC3    C3 5855   2.157   1.676  10.407 -0.0206  0.0837  0.0487
  392TMC3    C4 5856   2.219   1.828  10.627 -0.1022 -0.0523  0.0889
  392TMC3    C5 5857   2.276   1.839  10.504  0.4734  0.2184 -0.0434
  392TMC3    C6 5858   2.251   1.767  10.393  0.0155  0.4459 -0.2838
  392TMC3     C 5859   2.097   1.675  10.772  0.1676 -0.7556 -0.0521
  392TMC3     O 5860   2.009   1.590  10.779 -0.2854  0.5528 -0.2495
  392TMC3     H 5861   2.049   1.551  10.536  2.0801 -0.9828  3.5590
  392TMC3    H1 5862   2.237   1.907  10.698 -1.0508  0.8443 -0.6687
  392TMC3    H2 5863   2.327   1.758  10.316 -0.2936 -1.0353 -0.4061
  392TMC3    C7 5864   2.364   1.955  10.487 -0.1195  0.4519  0.3691
  392TMC3    C8 5865   2.143   1.573  10.304  0.4215 -0.3032 -0.0973
  392TMC3    O1 5866   2.423   1.990  10.591 -0.1264  0.2385 -0.0291
  392TMC3    O2 5867   2.122   1.456  10.336  0.1100 -0.0535  0.3754
  393TMC3    C1 5868   0.625   4.103  10.448  0.4076  0.2997  0.3890
  393TMC3    C2 5869   0.508   4.098  10.523 -0.1213 -0.1397  0.4048
  393TMC3    C3 5870   0.523   4.134  10.655 -0.6359 -0.4310  0.4764
  393TMC3    C4 5871   0.745   4.136  10.500 -0.0809 -0.3705 -0.2842
  393TMC3    C5 5872   0.755   4.138  10.633  0.0527  0.0280 -0.1800
  393TMC3    C6 5873   0.644   4.131  10.713 -0.0929  0.5753 -0.1307
  393TMC3     C 5874   0.616   4.108  10.301  0.7467  0.7021 -0.7365
  393TMC3     O 5875   0.695   4.186  10.246 -0.2872  0.7244 -0.3057
  393TMC3     H 5876   0.414   4.114  10.471 -0.0957  1.8481  0.9500
  393TMC3    H1 5877   0.826   4.148  10.428 -0.6702 -1.6635 -1.1791
  393TMC3    H2 5878   0.650   4.162  10.817 -0.9321 -0.8394  0.3428
  393TMC3    C7 5879   0.884   4.132  10.702 -0.1421  0.4667  0.3425
  393TMC3    C8 5880   0.427   4.236  10.692 -0.2694 -0.1150 -0.0273
  393TMC3    O1 5881   0.866   4.115  10.820  0.3097 -0.3302 -0.1236
  393TMC3    O2 5882   0.358   4.288  10.604  0.0625  0.0884 -0.0671
  394TMC3    C1 5883   2.919   4.702  10.552  0.6746 -0.2234  0.6443
  394TMC3    C2 5884   2.800   4.696  10.494  0.1208 -0.7311  0.0579
  394TMC3    C3 5885   2.802   4.652  10.364  0.3549  0.3309  0.1945
  394TMC3    C4 5886   3.038   4.662  10.492 -0.4162  0.4596 -0.6182
  394TMC3    C5 5887   3.031   4.616  10.360 -0.0828  0.1631  0.6922
  394TMC3    C6 5888   2.912   4.622  10.292  0.6140 -0.5036  0.6124
  394TMC3     C 5889   2.906   4.680  10.700  0.6718  0.8160 -0.2726
  394TMC3     O 5890   2.793   4.685  10.751  0.1443  0.2356  0.1022
  394TMC3     H 5891   2.705   0.005  10.540  0.5221  0.6094  0.0772
  394TMC3    H1 5892   3.129   4.676  10.549 -0.2113 -2.0808 -0.3373
  394TMC3    H2 5893   2.914   4.584  10.191  0.7004  1.2453 -0.0453
  394TMC3    C7 5894   3.143   4.626  10.275  0.3413 -0.2441  1.2824
  394TMC3    C8 5895   2.674   4.614  10.312 -0.0224  0.1414  0.0326
  394TMC3    O1 5896   3.233   4.710  10.289 -0.1532 -0.3963 -0.2285
  394TMC3    O2 5897   2.584   4.696  10.318 -0.3354 -0.1011  0.1788
  395TMC3    C1 5898   2.855   2.193  14.953  0.0422 -0.5090 -0.1430
  395TMC3    C2 5899   2.765   2.126  14.868 -0.4097 -0.0737 -0.5936
  395TMC3    C3 5900   2.804   2.131  14.733  0.0918 -0.1519 -0.8793
  395TMC3    C4 5901   2.974   2.255  14.922 -0.7646  0.5677 -0.6800
  395TMC3    C5 5902   3.004   2.245  14.792 -0.5482 -0.4940  0.4676
  395TMC3    C6 5903   2.927   2.182  14.695 -0.3624 -0.2542 -0.2961
  395TMC3     C 5904   2.824   2.178  15.088  0.7097  0.2526  0.0873
  395TMC3     O 5905   2.876   2.270  15.148  0.4214  0.1189  0.3479
  395TMC3     H 5906   2.670   2.090  14.905 -0.1147 -0.5544 -0.3163
  395TMC3    H1 5907   3.039   2.303  14.994  1.3720  0.1741 -2.3458
  395TMC3    H2 5908   2.942   2.182  14.588  2.3265 -0.9524  0.0698
  395TMC3    C7 5909   3.115   2.325  14.755 -0.2518 -0.1234 -0.1760
  395TMC3    C8 5910   2.731   2.047  14.636  0.0633  0.0155 -0.5917
  395TMC3    O1 5911   3.161   2.412  14.833  0.2549  0.7006 -0.0873
  395TMC3    O2 5912   2.785   2.013  14.529 -0.2235  0.1280 -0.0995
  396MPD2     C 5913   2.678   3.260  17.290  0.1495 -0.7953 -0.5782
  396MPD2    C1 5914   2.803   3.299  17.337 -0.7760  0.0960  0.7883
  396MPD2    C2 5915   2.855   3.427  17.321  0.0840 -0.5285 -0.6694
  396MPD2    C3 5916   2.790   3.510  17.236  0.7385 -0.3947 -0.6115
  396MPD2    C4 5917   2.663   3.470  17.191 -0.0540 -0.1947  0.6962
  396MPD2    C5 5918   2.609   3.352  17.227 -0.1089  0.3377  0.2039
  396MPD2     H 5919   2.951   3.456  17.363 -0.8063  0.5845  0.6389
  396MPD2    H1 5920   2.602   3.537  17.131 -1.7540 -0.7598  1.7817
  396MPD2    H2 5921   2.640   3.161  17.313  1.8961 -1.8251 -2.0168
  396MPD2    H3 5922   2.519   3.319  17.177  0.8741 -1.9749 -0.0532
  396MPD2     N 5923   2.835   3.637  17.196 -0.2465 -0.3521  0.1605
  396MPD2    H5 5924   2.784   3.690  17.127 -0.8303  0.5671  1.2913
  396MPD2    N1 5925   2.876   3.196  17.401 -0.0650 -0.4640  0.1825
  396MPD2    H7 5926   2.834   3.104  17.407 -0.5627 -0.3677 -1.9362
  397TMC3    C1 5927   3.060   3.082  17.477 -0.2174 -0.7090  0.4615
  397TMC3    C2 5928   3.143   3.025  17.380 -0.5130  0.4732 -0.4024
  397TMC3    C3 5929   3.141   2.899  17.343  0.0708 -0.7679 -0.2400
  397TMC3    C4 5930   2.966   3.003  17.533  0.0110  0.1613 -1.0091
  397TMC3    C5 5931   2.982   2.874  17.502 -0.1183 -0.1606  0.2319
  397TMC3    C6 5932   3.071   2.813  17.424  0.4272  0.2967  0.4783
  397TMC3     C 5933   3.007   3.205  17.439  0.3511 -0.5257 -0.5708
  397TMC3     O 5934   3.084   3.294  17.450 -0.5146  0.4381 -0.0729
  397TMC3     H 5935   3.176   3.102  17.311 -2.1392  0.5446 -1.0929
  397TMC3    H1 5936   2.890   3.037  17.603 -1.1604  0.5246 -2.4751
  397TMC3    H2 5937   3.078   2.706  17.405 -1.2202  0.1477  0.7383
  397TMC3    C7 5938   2.879   2.795  17.567 -0.1724  0.0598 -0.6167
  397TMC3    C8 5939   3.154   2.856  17.196  0.0961 -0.3626  0.3865
  397TMC3    O1 5940   2.821   2.837  17.670 -0.6257  0.1809  0.4583
  397TMC3    O2 5941   3.114   2.741  17.171 -1.0292  0.3330  0.4230
  398MPD2     C 5942   1.002   4.086   0.209 -0.1826  0.3885  0.2487
  398MPD2    C1 5943   1.121   4.037   0.164  0.1641  0.1883  0.0132
  398MPD2    C2 5944   1.219   4.130   0.112 -0.4064 -0.3033 -0.1441
  398MPD2    C3 5945   1.194   4.261   0.116 -0.7549 -0.5078  0.7629
  398MPD2    C4 5946   1.073   4.310   0.168 -0.1238 -0.2306  0.1808
  398MPD2    C5 5947   0.979   4.224   0.217 -0.6753 -0.4258 -0.4736
  398MPD2     H 5948   1.317   4.100   0.078 -0.8127 -1.0294 -0.6738
  398MPD2    H1 5949   1.032   4.410   0.165  0.1138 -0.0805  1.9475
  398MPD2    H2 5950   0.919   4.028   0.248  0.5116 -1.5599 -1.2116
  398MPD2    H3 5951   0.887   4.273   0.246  0.6825  1.1216  1.2066
  398MPD2     N 5952   1.294   4.350   0.070 -0.3143  0.4916 -0.4120
  398MPD2    H5 5953   1.380   4.312   0.031  2.4812  4.7494  1.5603
  398MPD2    N1 5954   1.152   3.904   0.166 -0.6299 -0.0627 -0.4798
  398MPD2    H7 5955   1.248   3.883   0.142 -0.8202  0.4469 -1.6826
  399TMC3    C1 5956   1.141   3.671   0.196 -0.5388  0.0746 -1.0190
  399TMC3    C2 5957   1.268   3.659   0.146  0.2193  0.0423  0.4715
  399TMC3    C3 5958   1.329   3.535   0.153 -0.6531 -0.1386 -0.8954
  399TMC3    C4 5959   1.067   3.559   0.233 -0.4932  0.4881 -0.0187
  399TMC3    C5 5960   1.129   3.432   0.225  0.3453 -0.4778  1.1403
  399TMC3    C6 5961   1.257   3.424   0.192  0.6333 -0.0632 -0.4596
  399TMC3     C 5962   1.072   3.798   0.196 -0.0102 -0.5947  0.1419
  399TMC3     O 5963   0.955   3.800   0.233  0.3023 -0.1014 -0.2386
  399TMC3     H 5964   1.321   3.736   0.091  1.0325 -0.4478  0.5663
  399TMC3    H1 5965   0.970   3.567   0.281  0.0773 -0.7708  1.3551
  399TMC3    H2 5966   1.305   3.327   0.201 -0.1652 -0.4158  0.0623
  399TMC3    C7 5967   1.067   3.316   0.272 -0.1869 -0.0286 -0.3071
  399TMC3    C8 5968   1.466   3.526   0.107 -0.4616 -0.2585 -0.0764
  399TMC3    O1 5969   1.133   3.213   0.269 -0.0063 -0.2247 -0.0982
  399TMC3    O2 5970   1.505   3.604   0.023 -0.4435  0.2678  0.8499
  400TMC3    C1 5971   4.093   2.466  16.877 -0.6450  0.2703  0.0959
  400TMC3    C2 5972   3.962   2.442  16.859  0.2284 -0.9225  0.4537
  400TMC3    C3 5973   3.886   2.544  16.811  0.0242  0.4943  0.2654
  400TMC3    C4 5974   4.148   2.587  16.842 -0.1924 -0.6021  0.0067
  400TMC3    C5 5975   4.066   2.684  16.802  0.1510  0.3636  0.4881
  400TMC3    C6 5976   3.929   2.664  16.798 -0.1797  0.0175 -0.2565
  400TMC3     C 5977   4.170   2.364  16.930 -0.3274  0.0537 -0.1986
  400TMC3     O 5978   4.101   2.263  16.933  0.0925 -0.3774  0.1844
  400TMC3     H 5979   3.916   2.347  16.884  1.4360 -2.6575 -3.9072
  400TMC3    H1 5980   4.256   2.596  16.845 -0.1366 -1.4161  0.4182
  400TMC3    H2 5981   3.865   2.744  16.762  0.5385  0.3431 -0.8150
  400TMC3    C7 5982   4.120   2.822  16.814 -0.5901 -0.0883  0.5193
  400TMC3    C8 5983   3.736   2.508  16.786  0.1415 -1.0553 -0.3630
  400TMC3    O1 5984   4.244   2.843  16.815  0.3303  0.2820 -0.7443
  400TMC3    O2 5985   3.659   2.597  16.758 -0.1157 -0.5056 -0.1956
  401MPD2     C 5986   2.754   1.785   0.546 -0.7352  0.4473  0.0891
  401MPD2    C1 5987   2.880   1.765   0.589  0.4140  0.2468 -0.6475
  401MPD2    C2 5988   2.955   1.659   0.552  0.5238 -0.5925  0.1961
  401MPD2    C3 5989   2.894   1.563   0.465 -0.1134 -0.2966  0.0430
  401MPD2    C4 5990   2.765   1.582   0.419  0.3201  0.6422  0.0632
  401MPD2    C5 5991   2.697   1.697   0.462 -0.1764  1.1357  1.3210
  401MPD2     H 5992   3.054   1.650   0.594  0.5791 -3.1931 -0.4475
  401MPD2    H1 5993   2.724   1.534   0.331 -1.5963  0.7204  0.9074
  401MPD2    H2 5994   2.700   1.874   0.575  2.4620  2.4381 -0.0074
  401MPD2    H3 5995   2.596   1.707   0.425 -0.0681  2.2509  1.3283
  401MPD2     N 5996   2.965   1.444   0.439  0.5223  0.5559 -0.0553
  401MPD2    H5 5997   3.062   1.437   0.466 -0.0671 -0.6337  1.7612
  401MPD2    N1 5998   2.943   1.844   0.691 -0.0275  0.0264 -0.2127
  401MPD2    H7 5999   3.032   1.810   0.728  0.5115 -1.1627 -2.6028
  402TMC3    C1 6000   3.019   1.239   0.342 -0.1163 -0.8619 -0.2380
  402TMC3    C2 6001   2.981   1.113   0.316  0.4604 -0.6685  0.1288
  402TMC3    C3 6002   3.073   1.014   0.303 -0.6871 -0.2673  0.8881
  402TMC3    C4 6003   3.152   1.271   0.364 -0.4831  0.4217  1.1819
  402TMC3    C5 6004   3.247   1.167   0.341  0.1273 -0.3560 -0.3161
  402TMC3    C6 6005   3.211   1.036   0.306  0.6829 -0.3153 -0.6622
  402TMC3     C 6006   2.914   1.340   0.371 -0.5384 -0.5318 -0.1942
  402TMC3     O 6007   2.804   1.315   0.325 -0.3492  0.0069 -0.0454
  402TMC3     H 6008   2.875   1.094   0.315 -0.1246  2.7985 -2.8871
  402TMC3    H1 6009   3.180   1.375   0.372  1.4735 -0.3001  3.6303
  402TMC3    H2 6010   3.283   0.955   0.313  1.2722  0.4685  1.9849
  402TMC3    C7 6011   3.389   1.192   0.358 -0.1900 -0.4684  0.0122
  402TMC3    C8 6012   3.026   0.877   0.324 -0.6994  0.0758  0.1585
  402TMC3    O1 6013   3.461   1.108   0.307  0.6244 -0.4266 -0.0961
  402TMC3    O2 6014   3.107   0.794   0.366 -0.6932 -0.7184 -0.7077
  403MPD2     C 6015   0.951   0.251  13.324  0.2020  0.3660 -0.3009
  403MPD2    C1 6016   0.923   0.132  13.392  0.4599 -0.4566  0.3545
  403MPD2    C2 6017   0.999   0.104  13.504  0.1051 -0.4758 -0.1357
  403MPD2    C3 6018   1.107   0.183  13.544 -0.7410  0.2441 -0.2382
  403MPD2    C4 6019   1.128   0.298  13.474  0.0962 -0.6903 -0.4851
  403MPD2    C5 6020   1.045   0.337  13.373  0.6147 -0.5060  0.0767
  403MPD2     H 6021   0.986   0.016  13.566  0.7327  0.1942  0.9424
  403MPD2    H1 6022   1.215   0.360  13.498 -1.1061  0.7182  0.2410
  403MPD2    H2 6023   0.891   0.277  13.237 -0.5064  0.7111  0.2836
  403MPD2    H3 6024   1.066   0.424  13.313 -0.9089  0.1333  0.4568
  403MPD2     N 6025   1.191   0.144  13.653  0.1372 -0.1425  0.6762
  403MPD2    H5 6026   1.166   0.054  13.691  0.0744  0.1143  1.2449
  403MPD2    N1 6027   0.816   0.050  13.344 -0.4704  0.0070 -0.1103
  403MPD2    H7 6028   0.773   0.074  13.256 -1.0803 -1.5195 -0.2234
  404TMC3    C1 6029   0.704   4.569  13.322 -0.5097  0.5870 -0.0005
  404TMC3    C2 6030   0.700   4.437  13.340 -0.2632  0.2686  0.8592
  404TMC3    C3 6031   0.649   4.355  13.247 -0.2518  0.1202  0.9376
  404TMC3    C4 6032   0.666   4.618  13.196 -0.6212 -0.0259 -0.2851
  404TMC3    C5 6033   0.611   4.524  13.105 -0.5425 -1.0446  1.1402
  404TMC3    C6 6034   0.602   4.390  13.124 -0.1634 -0.5161  0.5151
  404TMC3     C 6035   0.781   4.651  13.400  0.7088  1.1390  0.8850
  404TMC3     O 6036   0.811   4.604  13.510  0.3168 -0.5612  0.1033
  404TMC3     H 6037   0.739   4.398  13.433 -3.7910 -2.3254  1.2341
  404TMC3    H1 6038   0.665   0.006  13.173 -2.4403 -0.3882 -1.8539
  404TMC3    H2 6039   0.562   4.316  13.056 -2.0780  1.4457 -0.4730
  404TMC3    C7 6040   0.604   4.571  12.971  0.0445  0.3986 -0.2864
  404TMC3    C8 6041   0.650   4.213  13.280 -0.0612 -0.0326  0.1351
  404TMC3    O1 6042   0.598   4.693  12.966  0.1301  0.1746 -0.0630
  404TMC3    O2 6043   0.647   4.130  13.187 -0.4794 -0.3793 -0.2379
  405MPD2     C 6044   0.785   0.319  14.227  0.4679 -0.1079 -0.0783
  405MPD2    C1 6045   0.663   0.254  14.230  0.9438 -0.7123  0.0059
  405MPD2    C2 6046   0.561   0.305  14.309 -0.0316  0.6542  0.5072
  405MPD2    C3 6047   0.576   0.423  14.381  0.7777  0.1109 -0.3840
  405MPD2    C4 6048   0.705   0.483  14.381 -0.4783 -1.0862 -0.0505
  405MPD2    C5 6049   0.807   0.435  14.302 -0.0800  1.0253 -0.1954
  405MPD2     H 6050   0.463   0.259  14.315 -0.9039  2.2154 -2.0577
  405MPD2    H1 6051   0.720   0.572  14.441 -0.3740 -0.1780 -1.4322
  405MPD2    H2 6052   0.870   0.284  14.168  0.9078  2.7336 -1.1490
  405MPD2    H3 6053   0.901   0.485  14.285  0.5333 -0.1378 -0.1454
  405MPD2     N 6054   0.470   0.463  14.464 -0.1594 -0.0873  0.3207
  405MPD2    H5 6055   0.386   0.406  14.467 -0.7492  0.6081 -2.7328
  405MPD2    N1 6056   0.651   0.143  14.148  0.2549 -0.1359  0.0478
  405MPD2    H7 6057   0.737   0.094  14.126  1.0228  0.7247  1.1710
  406TMC3    C1 6058   0.153   0.692  14.696  0.2253 -0.4174 -1.1501
  406TMC3    C2 6059   0.076   0.577  14.700 -1.2380  0.2406  0.3100
  406TMC3    C3 6060   0.130   0.451  14.669  0.2783  0.6535  0.7788
  406TMC3    C4 6061   0.281   0.686  14.651  0.1732  0.1805 -0.0755
  406TMC3    C5 6062   0.334   0.563  14.620  0.9848  0.2591 -0.2841
  406TMC3    C6 6063   0.264   0.445  14.632 -0.1725  0.6471 -0.0468
  406TMC3     C 6064   0.098   0.827  14.709 -0.0767 -0.0305 -0.1374
  406TMC3     O 6065   0.167   0.922  14.675  0.1476  0.6687  0.5971
  406TMC3     H 6066   4.686   0.589  14.711 -1.2306  1.1973 -0.6636
  406TMC3    H1 6067   0.345   0.771  14.632  1.8767 -1.2878 -0.9585
  406TMC3    H2 6068   0.297   0.344  14.613 -1.1881  0.9877 -3.6680
  406TMC3    C7 6069   0.459   0.571  14.546 -0.0230 -0.1853  0.5687
  406TMC3    C8 6070   0.036   0.358  14.606  0.0392  0.4751  0.2782
  406TMC3    O1 6071   0.545   0.661  14.561  0.4063  0.0730 -0.4919
  406TMC3    O2 6072   4.637   0.395  14.585 -0.0488 -0.1303  0.3866
  407MPD2     C 6073   3.043   0.950   9.509  0.3166  0.4412 -0.4885
  407MPD2    C1 6074   3.151   0.921   9.585 -0.5655  0.5330 -0.1614
  407MPD2    C2 6075   3.143   0.942   9.718  0.6209 -0.5557 -0.4790
  407MPD2    C3 6076   3.025   0.977   9.784 -0.0162  0.8513  0.9188
  407MPD2    C4 6077   2.910   0.986   9.713 -0.2448 -0.7363  0.2815
  407MPD2    C5 6078   2.923   0.983   9.572  0.3263 -0.0769  0.7210
  407MPD2     H 6079   3.240   0.942   9.767  1.1452 -0.7365 -1.5245
  407MPD2    H1 6080   2.816   0.998   9.765 -0.2142 -1.5431  0.5085
  407MPD2    H2 6081   3.049   0.956   9.401 -3.3023  0.0112 -0.7129
  407MPD2    H3 6082   2.832   0.998   9.515 -0.5771 -0.1147  2.1558
  407MPD2     N 6083   3.027   1.008   9.919  0.3872  0.0003  0.3897
  407MPD2    H5 6084   2.948   1.057   9.961  0.1054  1.7532 -2.2113
  407MPD2    N1 6085   3.279   0.918   9.536  0.1895 -0.2472 -0.5817
  407MPD2    H7 6086   3.356   0.928   9.601 -1.4871  0.3105  1.2956
  408TMC3    C1 6087   3.447   0.985   9.393  0.0097 -0.1856  0.2004
  408TMC3    C2 6088   3.534   0.889   9.352  0.7379  0.0328  0.0102
  408TMC3    C3 6089   3.668   0.915   9.350  0.4499 -0.4552 -0.2530
  408TMC3    C4 6090   3.493   1.093   9.463  0.4716  0.1511 -0.2470
  408TMC3    C5 6091   3.623   1.122   9.456 -0.3726 -0.4883 -0.0432
  408TMC3    C6 6092   3.715   1.031   9.400  0.1638 -0.0125 -0.0650
  408TMC3     C 6093   3.317   0.939   9.408 -1.0411  0.1001 -0.4411
  408TMC3     O 6094   3.251   0.926   9.305 -0.3801 -0.6410  0.7092
  408TMC3     H 6095   3.491   0.795   9.321  0.0203 -0.0383  1.2156
  408TMC3    H1 6096   3.424   1.163   9.509  0.5969  0.8136 -1.0856
  408TMC3    H2 6097   3.819   1.060   9.394  0.4390 -0.8179  0.7242
  408TMC3    C7 6098   3.685   1.238   9.515  0.2139 -0.2996  0.6089
  408TMC3    C8 6099   3.755   0.796   9.347 -0.2436 -0.0687 -0.1000
  408TMC3    O1 6100   3.807   1.229   9.529  0.2277  0.0145  0.0775
  408TMC3    O2 6101   3.714   0.692   9.299  0.0110  0.4517 -0.3584
  409MPD2     C 6102   2.895   2.188  17.313  0.8969 -0.7447  0.1585
  409MPD2    C1 6103   3.032   2.184  17.343  0.1407 -0.3042 -0.1069
  409MPD2    C2 6104   3.118   2.244  17.256  0.2882  0.5668  0.4358
  409MPD2    C3 6105   3.071   2.324  17.151 -1.3295  0.0151 -0.7837
  409MPD2    C4 6106   2.932   2.325  17.120 -0.3601 -0.4134  0.6535
  409MPD2    C5 6107   2.850   2.252  17.195 -0.2017 -0.2097  0.7440
  409MPD2     H 6108   3.225   2.243  17.272  0.5203 -1.2516 -1.2455
  409MPD2    H1 6109   2.892   2.368  17.029  0.0965  0.9066  1.0697
  409MPD2    H2 6110   2.819   2.130  17.364  1.2398 -0.7790  0.6347
  409MPD2    H3 6111   2.743   2.257  17.178 -0.4168 -1.1165  1.8535
  409MPD2     N 6112   3.163   2.404  17.080 -0.1470  0.4331  0.2352
  409MPD2    H5 6113   3.128   2.437  16.991  1.2394 -1.0417 -0.8653
  409MPD2    N1 6114   3.090   2.119  17.454 -0.5906 -0.3928 -0.2289
  409MPD2    H7 6115   3.191   2.126  17.467 -0.6538 -0.3119  0.2204
  410TMC3    C1 6116   3.333   2.569  17.056  0.3045  0.1891  0.8125
  410TMC3    C2 6117   3.450   2.613  17.103  0.7250  0.1082 -0.1624
  410TMC3    C3 6118   3.509   2.709  17.022  0.1353  0.4304 -0.6308
  410TMC3    C4 6119   3.278   2.611  16.934 -0.3281 -0.3305 -0.7947
  410TMC3    C5 6120   3.344   2.708  16.861  0.2390  1.1700 -0.3631
  410TMC3    C6 6121   3.455   2.765  16.912  0.0761 -0.5264  1.0252
  410TMC3     C 6122   3.284   2.453  17.125  0.3628  0.1994 -0.3371
  410TMC3     O 6123   3.352   2.407  17.214 -0.3091 -0.3374 -0.5753
  410TMC3     H 6124   3.495   2.584  17.197  2.5873  1.6152 -0.5786
  410TMC3    H1 6125   3.187   2.579  16.885 -0.8216  0.9251 -0.7067
  410TMC3    H2 6126   3.516   2.831  16.852 -0.3475 -0.1942  0.9594
  410TMC3    C7 6127   3.321   2.714  16.722 -0.5582 -0.0735 -0.5150
  410TMC3    C8 6128   3.648   2.745  17.046  0.1760  0.1714 -0.0174
  410TMC3    O1 6129   3.259   2.623  16.671  0.2415  0.0156  0.1204
  410TMC3    O2 6130   3.694   2.838  16.985 -0.3320 -0.1193  0.5718
  411MPD2     C 6131   3.744   3.086  14.278  0.3495 -0.3660  0.1412
  411MPD2    C1 6132   3.608   3.122  14.273 -0.0260 -1.0197 -0.4651
  411MPD2    C2 6133   3.511   3.026  14.243  0.2306  0.2304  0.4456
  411MPD2    C3 6134   3.549   2.896  14.212 -0.6061 -0.5064 -0.0363
  411MPD2    C4 6135   3.683   2.869  14.195 -0.5831  0.0767  0.0274
  411MPD2    C5 6136   3.777   2.961  14.235 -0.4686 -0.4902  0.6255
  411MPD2     H 6137   3.406   3.053  14.252 -0.0303 -0.3340 -0.9755
  411MPD2    H1 6138   3.721   2.770  14.175 -1.4049  0.1478 -1.9183
  411MPD2    H2 6139   3.819   3.161  14.300 -0.5827 -0.0198  2.1771
  411MPD2    H3 6140   3.883   2.938  14.227 -0.0371  1.7341 -0.1246
  411MPD2     N 6141   3.459   2.800  14.169 -0.3224 -0.6410  0.3808
  411MPD2    H5 6142   3.498   2.710  14.139 -3.2715 -1.0727 -2.1766
  411MPD2    N1 6143   3.574   3.253  14.315 -0.3710  0.2716 -0.0948
  411MPD2    H7 6144   3.653   3.315  14.331 -1.0734  0.9444  0.7914
  412TMC3    C1 6145   3.255   2.682  14.224 -0.6421 -0.1615  0.2512
  412TMC3    C2 6146   3.182   2.666  14.344  0.0968  0.5679 -0.6843
  412TMC3    C3 6147   3.106   2.555  14.358 -0.2023 -0.3741  0.7882
  412TMC3    C4 6148   3.241   2.591  14.125 -0.5606  0.2311  0.6377
  412TMC3    C5 6149   3.155   2.481  14.142  0.1480 -0.0373 -0.4959
  412TMC3    C6 6150   3.099   2.461  14.263 -0.5637 -0.2431 -1.0396
  412TMC3     C 6151   3.319   2.811  14.195  0.5843  1.2478 -0.2851
  412TMC3     O 6152   3.243   2.901  14.226 -0.2534 -0.1122  0.5759
  412TMC3     H 6153   3.190   2.745  14.417  0.9856 -0.3070  0.1654
  412TMC3    H1 6154   3.290   2.618  14.032  3.4927 -2.2375  2.0628
  412TMC3    H2 6155   3.047   2.370  14.291  0.0590 -0.9188 -2.0885
  412TMC3    C7 6156   3.056   2.460  14.041 -0.1717 -0.4527 -0.8069
  412TMC3    C8 6157   2.983   2.585  14.425 -0.5324 -0.5700  0.4677
  412TMC3    O1 6158   2.947   2.425  14.085  0.3551  0.5977 -0.5627
  412TMC3    O2 6159   2.977   2.644  14.526 -0.0348 -0.1798 -0.7716
  413MPD2     C 6160   0.707   1.383  15.252  0.0506 -0.2308 -0.3140
  413MPD2    C1 6161   0.637   1.361  15.135 -0.2007  0.3496 -0.4902
  413MPD2    C2 6162   0.696   1.293  15.028 -0.4880 -0.2645 -0.8037
  413MPD2    C3 6163   0.833   1.259  15.035 -0.4371  0.4611  0.4972
  413MPD2    C4 6164   0.903   1.284  15.148 -0.1159 -0.5297 -0.1891
  413MPD2    C5 6165   0.840   1.339  15.263  0.6544  0.2489 -0.1896
  413MPD2     H 6166   0.632   1.266  14.945 -0.3929  0.3439 -1.0751
  413MPD2    H1 6167   1.005   1.252  15.165 -0.1004  0.3135  1.3064
  413MPD2    H2 6168   0.661   1.427  15.340  1.2903 -0.2598  0.3529
  413MPD2    H3 6169   0.897   1.360  15.352  0.3056  0.6389 -0.0545
  413MPD2     N 6170   0.900   1.196  14.930  0.1395  0.1699  0.1574
  413MPD2    H5 6171   0.852   1.177  14.843  0.9790  1.3153 -0.5683
  413MPD2    N1 6172   0.503   1.404  15.128 -0.7813  0.6002 -0.5642
  413MPD2    H7 6173   0.475   1.452  15.213  2.1263  2.0286 -0.3947
  414TMC3    C1 6174   1.070   1.132  14.782 -0.0569 -0.0159  0.3050
  414TMC3    C2 6175   0.989   1.052  14.713  0.5923 -0.3588 -0.0751
  414TMC3    C3 6176   1.031   1.006  14.592  0.9954  0.4874 -0.0438
  414TMC3    C4 6177   1.199   1.164  14.740 -0.1452  0.2087 -0.0871
  414TMC3    C5 6178   1.228   1.144  14.611  0.2777  0.1290  0.7330
  414TMC3    C6 6179   1.140   1.064  14.534  0.3947 -0.1136  0.0513
  414TMC3     C 6180   1.035   1.184  14.912 -0.4698  0.3965 -0.2564
  414TMC3     O 6181   1.122   1.233  14.980  0.1678  0.9717 -0.6600
  414TMC3     H 6182   0.899   1.011  14.757  1.2592 -0.2961  1.3652
  414TMC3    H1 6183   1.266   1.219  14.805 -0.1936  0.3193 -0.1300
  414TMC3    H2 6184   1.144   1.061  14.426 -0.5660 -0.3735  0.0267
  414TMC3    C7 6185   1.369   1.107  14.599 -0.7679 -0.4408 -0.4674
  414TMC3    C8 6186   1.022   0.860  14.578 -0.4774  0.7860 -0.1476
  414TMC3    O1 6187   1.447   1.137  14.690  0.4608  0.1513  0.3404
  414TMC3    O2 6188   0.938   0.789  14.632 -0.2839 -0.9697 -0.0242
  415TMC3    C1 6189   1.023   3.131   9.859  0.9597 -0.1058  1.2093
  415TMC3    C2 6190   1.112   3.164   9.764 -0.7401 -0.2710 -0.0052
  415TMC3    C3 6191   1.071   3.132   9.634 -0.0848 -0.2651 -0.1010
  415TMC3    C4 6192   0.898   3.069   9.836 -0.5599 -0.1247  0.4000
  415TMC3    C5 6193   0.875   3.030   9.704 -0.2752 -0.7637 -0.1642
  415TMC3    C6 6194   0.960   3.059   9.602  0.5023  0.4320 -0.0125
  415TMC3     C 6195   1.036   3.177   9.997 -0.6082  0.6699 -0.2087
  415TMC3     O 6196   0.955   3.139  10.080  0.2050 -0.0703  0.4922
  415TMC3     H 6197   1.213   3.189   9.795 -0.7563  0.0781 -0.2272
  415TMC3    H1 6198   0.832   3.047   9.919 -1.0874  0.9655  0.2701
  415TMC3    H2 6199   0.943   3.021   9.502  0.8143  1.0060 -0.2861
  415TMC3    C7 6200   0.782   2.916   9.673  0.4869  0.1879  0.1213
  415TMC3    C8 6201   1.181   3.138   9.539  0.4986 -0.9474 -0.2953
  415TMC3    O1 6202   0.784   2.871   9.560  0.3110  0.0662  0.0324
  415TMC3    O2 6203   1.177   3.058   9.448 -0.1102 -0.0137 -0.2713
  416MPD2     C 6204   2.420   2.993  11.224  0.2894 -0.8217 -0.0011
  416MPD2    C1 6205   2.386   2.957  11.346  1.1086  0.6539 -0.2353
  416MPD2    C2 6206   2.398   2.821  11.386  0.0735  0.1740 -0.2639
  416MPD2    C3 6207   2.413   2.724  11.292 -0.5962 -0.4754 -0.0311
  416MPD2    C4 6208   2.456   2.765  11.171 -0.5395  0.2354  0.1100
  416MPD2    C5 6209   2.461   2.896  11.141  0.6226 -0.1348  0.1922
  416MPD2     H 6210   2.386   2.794  11.490  1.9278 -0.5850 -0.2578
  416MPD2    H1 6211   2.482   2.693  11.094  0.9889  1.7166 -0.7538
  416MPD2    H2 6212   2.430   3.099  11.201 -0.4140 -0.5900  0.8091
  416MPD2    H3 6213   2.496   2.925  11.043 -1.9233  0.7465 -0.4525
  416MPD2     N 6214   2.392   2.588  11.329 -0.2987  0.4641 -0.2922
  416MPD2    H5 6215   2.380   2.571  11.429 -0.2065  1.1572 -0.1608
  416MPD2    N1 6216   2.334   3.056  11.424 -1.1627  0.3314  0.2032
  416MPD2    H7 6217   2.315   3.143  11.376  1.9258  1.2874  0.7071
  417TMC3    C1 6218   2.275   3.179  11.607 -0.2789  0.0194  0.0806
  417TMC3    C2 6219   2.292   3.206  11.736 -0.1588  0.6831 -0.0562
  417TMC3    C3 6220   2.196   3.272  11.804 -0.0691 -0.2176 -0.1987
  417TMC3    C4 6221   2.160   3.210  11.545 -0.0142 -0.2818 -0.0935
  417TMC3    C5 6222   2.062   3.274  11.618  0.2646 -0.2209  0.3046
  417TMC3    C6 6223   2.074   3.305  11.751  0.0372  0.8795  0.4615
  417TMC3     C 6224   2.338   3.060  11.558  0.2240  1.0544  0.0614
  417TMC3     O 6225   2.378   2.975  11.634 -0.1358 -0.5421 -0.2147
  417TMC3     H 6226   2.387   3.182  11.782 -0.8098  1.3820  1.6511
  417TMC3    H1 6227   2.124   3.170  11.451 -0.8705 -0.1316  0.1701
  417TMC3    H2 6228   2.001   3.364  11.806 -1.5907 -0.5565 -0.1649
  417TMC3    C7 6229   1.929   3.292  11.556  0.1680  0.1782 -0.0993
  417TMC3    C8 6230   2.217   3.304  11.942 -0.7156 -1.0361  0.6200
  417TMC3    O1 6231   1.925   3.284  11.435 -0.5019 -0.0083  0.1830
  417TMC3    O2 6232   2.113   3.324  12.009 -0.0907 -0.1747 -0.4292
  418TMC3    C1 6233   1.572   4.468  17.551  0.6999 -0.9294  0.2346
  418TMC3    C2 6234   1.437   4.490  17.588 -0.6795  0.0342  0.2706
  418TMC3    C3 6235   1.422   4.534   0.038 -0.2269  0.1807  0.2459
  418TMC3    C4 6236   1.671   4.483  17.638  1.5023 -0.9754 -0.0821
  418TMC3    C5 6237   1.649   4.549   0.081  0.2088  0.6313  0.1198
  418TMC3    C6 6238   1.523   4.582   0.117  0.3626  0.0768  0.0167
  418TMC3     C 6239   1.583   4.372  17.438 -0.7229 -0.0605 -0.2720
  418TMC3     O 6240   1.477   4.322  17.399  0.0740  0.6230  0.1147
  418TMC3     H 6241   1.358   4.445  17.530 -0.4456 -1.7115  1.2980
  418TMC3    H1 6242   1.773   4.464  17.606  2.0123 -0.4910  1.2511
  418TMC3    H2 6243   1.505   4.630   0.213  0.9809  0.0182  0.1661
  418TMC3    C7 6244   1.710   4.457   0.174 -0.2451 -0.4821  0.1709
  418TMC3    C8 6245   1.301   4.481   0.103 -0.2886  0.7392  0.2570
  418TMC3    O1 6246   1.738   4.345   0.129  0.8725  0.2878  1.0008
  418TMC3    O2 6247   1.281   4.528   0.213 -0.0750  0.0535  0.2027
  419MPD2     C 6248   4.704   2.740  12.351  0.4121 -1.2583 -0.0975
  419MPD2    C1 6249   4.619   2.846  12.371  0.2376 -0.0101  0.9757
  419MPD2    C2 6250   4.574   2.870  12.503  0.2321 -0.3896 -0.3638
  419MPD2    C3 6251   4.614   2.800  12.609 -0.5608 -0.0978  0.4599
  419MPD2    C4 6252   4.684   2.685  12.589  0.1060 -0.3845 -0.1526
  419MPD2    C5 6253   0.017   2.665  12.465 -0.1607 -0.0553  0.2140
  419MPD2     H 6254   4.507   2.951  12.531  3.2410  1.4397  1.5953
  419MPD2    H1 6255   4.702   2.610  12.665 -1.9502 -2.0876 -1.3533
  419MPD2    H2 6256   0.022   2.699  12.257 -0.1051 -1.4035 -0.2324
  419MPD2    H3 6257   0.087   2.584  12.455 -0.6158 -0.5686  1.1364
  419MPD2     N 6258   4.561   2.834  12.734 -0.1747  0.4141  0.1418
  419MPD2    H5 6259   4.497   2.912  12.736 -0.8918 -0.1770  0.3076
  419MPD2    N1 6260   4.579   2.927  12.268 -0.3853 -0.2466 -0.6223
  419MPD2    H7 6261   4.524   3.009  12.291 -1.0955 -1.4139  1.8859
  420TMC3    C1 6262   4.521   2.825  12.973 -0.8703 -0.3244 -0.1080
  420TMC3    C2 6263   4.440   2.934  12.968  0.0113  0.1092 -0.3788
  420TMC3    C3 6264   4.341   2.939  13.054  0.1170 -0.8820  0.0845
  420TMC3    C4 6265   4.529   2.738  13.077  0.8830 -0.8882  0.1034
  420TMC3    C5 6266   4.429   2.745  13.163 -0.1320 -0.3815 -0.0723
  420TMC3    C6 6267   4.326   2.840  13.153 -0.2442  0.3892 -0.2772
  420TMC3     C 6268   4.602   2.785  12.858 -0.9252 -0.0301  0.0584
  420TMC3     O 6269   4.691   2.699  12.876 -0.5558  0.1368  0.0646
  420TMC3     H 6270   4.436   3.005  12.886 -1.8477  1.3736  0.8013
  420TMC3    H1 6271   4.610   2.666  13.084 -0.4479 -2.6412 -2.2309
  420TMC3    H2 6272   4.252   2.851  13.232 -1.2344 -1.3942 -0.9373
  420TMC3    C7 6273   4.424   2.647  13.276 -0.6448 -0.4297 -0.5959
  420TMC3    C8 6274   4.245   3.041  13.043  0.0950  0.9567 -0.3405
  420TMC3    O1 6275   4.530   2.614  13.323  0.5205  0.2424 -0.8701
  420TMC3    O2 6276   4.264   3.144  12.982  0.1410  0.5536 -0.6369
  421TMC3    C1 6277   1.356   0.164  13.816  0.3838 -0.0886 -1.0095
  421TMC3    C2 6278   1.412   0.253  13.903  0.3581  0.0992  0.2231
  421TMC3    C3 6279   1.518   0.206  13.982 -0.0260 -0.3749 -1.1088
  421TMC3    C4 6280   1.401   0.032  13.804 -0.4640 -0.1400  0.2404
  421TMC3    C5 6281   1.512   4.717  13.879 -0.1151 -0.5534 -0.5380
  421TMC3    C6 6282   1.572   0.081  13.964 -0.4749 -0.2359 -0.0539
  421TMC3     C 6283   1.281   0.229  13.714 -0.0517  0.1652  0.3914
  421TMC3     O 6284   1.304   0.346  13.695  0.2652 -0.1796 -0.4275
  421TMC3     H 6285   1.376   0.354  13.918  0.3679 -0.1645  1.9525
  421TMC3    H1 6286   1.351   4.677  13.740 -0.4521  0.1865 -0.1432
  421TMC3    H2 6287   1.650   0.034  14.023  0.2907 -0.0481 -0.9127
  421TMC3    C7 6288   1.553   4.580  13.873  0.0278 -0.3597 -0.3410
  421TMC3    C8 6289   1.557   0.276  14.106 -0.5677  0.2662  0.7671
  421TMC3    O1 6290   1.676   4.553  13.870  0.0031 -0.0810 -0.3433
  421TMC3    O2 6291   1.479   0.372  14.130 -0.5743  0.5974  0.7096
  422TMC3    C1 6292   3.746   1.051  12.908 -0.3618  0.1428 -0.3996
  422TMC3    C2 6293   3.693   1.174  12.863 -0.1987  0.0236 -0.3660
  422TMC3    C3 6294   3.571   1.215  12.902  0.8085 -0.5881  1.0059
  422TMC3    C4 6295   3.659   0.971  12.969  0.4804  0.6893  0.3302
  422TMC3    C5 6296   3.526   1.007  12.988 -0.6067  0.3164 -0.1078
  422TMC3    C6 6297   3.479   1.135  12.962  0.2190  1.1216  0.3554
  422TMC3     C 6298   3.840   0.994  12.815  0.7254 -0.5354 -0.4878
  422TMC3     O 6299   3.847   1.057  12.712  0.1626  0.5894  0.0285
  422TMC3     H 6300   3.759   1.245  12.814  0.1322  0.4369  0.6898
  422TMC3    H1 6301   3.679   0.871  13.006  1.0395  1.1783  1.3642
  422TMC3    H2 6302   3.377   1.167  12.977 -0.1891  0.3389 -0.7430
  422TMC3    C7 6303   3.438   0.908  13.038  0.4718  0.2466  0.0129
  422TMC3    C8 6304   3.534   1.352  12.869 -0.2320 -0.4634 -0.4442
  422TMC3    O1 6305   3.484   0.843  13.124 -0.0534  0.0792  0.3181
  422TMC3    O2 6306   3.629   1.430  12.852 -0.4194 -0.3872  1.1143
  423MPD2     C 6307   0.463   2.337   0.551 -0.4537 -0.2231 -0.1497
  423MPD2    C1 6308   0.509   2.223   0.600 -0.2550  0.1866 -0.3212
  423MPD2    C2 6309   0.495   2.103   0.532 -0.6949  0.0302  0.2080
  423MPD2    C3 6310   0.432   2.101   0.413  0.0549  0.0841 -0.2921
  423MPD2    C4 6311   0.381   2.221   0.368 -0.0107  0.3304  0.5653
  423MPD2    C5 6312   0.399   2.338   0.432  0.3398 -0.7191  0.1349
  423MPD2     H 6313   0.549   2.017   0.570 -1.5058 -2.0134 -3.2346
  423MPD2    H1 6314   0.328   2.221   0.273 -1.1316 -2.3601  1.1703
  423MPD2    H2 6315   0.486   2.434   0.593 -0.7987  1.0782 -2.9280
  423MPD2    H3 6316   0.366   2.433   0.393  0.8738 -0.5528  0.0821
  423MPD2     N 6317   0.412   1.986   0.338 -0.4336 -0.8320  0.3359
  423MPD2    H5 6318   0.374   2.003   0.246  2.7523  1.7185 -0.4978
  423MPD2    N1 6319   0.575   2.225   0.727 -0.3118  0.4709 -0.2921
  423MPD2    H7 6320   0.594   2.137   0.772  1.3149  0.7236 -0.5017
  424TMC3    C1 6321   0.651   2.291   0.927 -0.4951  0.0842  0.5822
  424TMC3    C2 6322   0.762   2.216   0.914 -0.4222 -0.5970  0.9904
  424TMC3    C3 6323   0.801   2.153   1.026  0.0285  0.6559  0.4593
  424TMC3    C4 6324   0.577   2.304   1.039 -0.1065  0.4959 -0.1311
  424TMC3    C5 6325   0.614   2.231   1.148 -0.7331  0.9037 -0.1917
  424TMC3    C6 6326   0.724   2.156   1.148 -0.1001 -0.5364  0.6224
  424TMC3     C 6327   0.600   2.335   0.804  0.4586  0.0344 -0.6247
  424TMC3     O 6328   0.557   2.451   0.805  0.4749 -0.0333 -0.2714
  424TMC3     H 6329   0.803   2.200   0.815 -3.1647 -0.9765 -0.0942
  424TMC3    H1 6330   0.485   2.362   1.036 -0.5116 -0.1128  1.0643
  424TMC3    H2 6331   0.746   2.081   1.224 -0.7028 -1.6628 -0.3101
  424TMC3    C7 6332   0.550   2.249   1.275  0.5815 -0.0263  0.4192
  424TMC3    C8 6333   0.905   2.048   1.010 -0.6679  0.4106 -0.3966
  424TMC3    O1 6334   0.600   2.186   1.366 -0.3624 -0.0827  0.2696
  424TMC3    O2 6335   0.911   1.969   1.098 -0.1876  0.2467  0.0644
  425MPD2     C 6336   4.162   1.306  17.494  0.1567  0.0330 -0.1795
  425MPD2    C1 6337   4.080   1.199  17.510  0.1772  0.5475 -0.4059
  425MPD2    C2 6338   3.950   1.217  17.555  0.7830 -0.3767 -0.3029
  425MPD2    C3 6339   3.908   1.342  17.597 -0.3925  0.4751  0.4534
  425MPD2    C4 6340   3.997   1.448  17.599 -0.1467 -0.5323 -0.3444
  425MPD2    C5 6341   4.124   1.429  17.551  0.2404 -0.2773  0.6343
  425MPD2     H 6342   3.875   1.138  17.551  0.6887 -0.3131  0.2230
  425MPD2    H1 6343   3.968   1.548  17.628  1.1043 -0.4309  0.5481
  425MPD2    H2 6344   4.261   1.288  17.454  0.5005 -0.3346  0.8255
  425MPD2    H3 6345   4.192   1.513  17.559 -0.2088  0.0306  1.1521
  425MPD2     N 6346   3.772   1.365  17.635 -0.2013  0.4772  0.0124
  425MPD2    H5 6347   3.709   1.289  17.614  0.1719  0.3997 -0.8497
  425MPD2    N1 6348   4.131   1.080  17.465  0.2414 -0.2256 -0.0557
  425MPD2    H7 6349   4.224   1.083  17.426  0.3807 -0.6599  0.2361
  426TMC3    C1 6350   4.142   0.868  17.372 -0.3606  0.7602  0.6980
  426TMC3    C2 6351   4.118   0.813  17.252 -0.2572  0.4838 -0.2607
  426TMC3    C3 6352   4.218   0.730  17.202  0.9454 -0.1182  0.5732
  426TMC3    C4 6353   4.259   0.857  17.435  0.2256 -0.2652  0.4930
  426TMC3    C5 6354   4.355   0.774  17.383  0.5550 -0.8078 -0.0530
  426TMC3    C6 6355   4.328   0.696  17.275  0.2329  0.2538 -0.8075
  426TMC3     C 6356   4.058   0.972  17.421 -0.2597  0.8313  0.6169
  426TMC3     O 6357   3.934   0.968  17.406  0.3095 -0.3559  0.1253
  426TMC3     H 6358   4.016   0.822  17.217  0.0682  1.3817 -0.9658
  426TMC3    H1 6359   4.265   0.898  17.534  0.2533  3.0995 -0.9196
  426TMC3    H2 6360   4.417   0.650  17.233 -0.4442  0.3474 -2.3679
  426TMC3    C7 6361   4.473   0.736  17.463  0.1308 -0.1928  0.3470
  426TMC3    C8 6362   4.189   0.658  17.082  0.4713  0.4914 -0.1442
  426TMC3    O1 6363   4.529   0.628  17.440 -0.8058  0.1857 -0.3200
  426TMC3    O2 6364   4.251   0.555  17.053  0.0594  0.1015  0.0605
  427MPD2     C 6365   2.608   3.201  14.596 -0.3136 -0.7187 -0.1178
  427MPD2    C1 6366   2.578   3.213  14.730  0.3134  0.6357 -0.0953
  427MPD2    C2 6367   2.448   3.248  14.769  0.0165 -0.1366  0.0957
  427MPD2    C3 6368   2.340   3.249  14.683 -0.1414  0.7157 -0.6395
  427MPD2    C4 6369   2.371   3.231  14.544  0.6274  0.1664 -0.0677
  427MPD2    C5 6370   2.502   3.200  14.505 -0.0350  0.2016  0.6322
  427MPD2     H 6371   2.430   3.271  14.874 -2.3375  4.1089 -1.2430
  427MPD2    H1 6372   2.297   3.243  14.466 -0.1004  0.9907  0.7520
  427MPD2    H2 6373   2.709   3.196  14.555  0.2353 -2.0062  1.4142
  427MPD2    H3 6374   2.522   3.196  14.398 -2.6308  0.2647  0.1470
  427MPD2     N 6375   2.209   3.281  14.727 -0.5230  0.0284  0.1318
  427MPD2    H5 6376   2.137   3.280  14.656  1.1715 -1.6343 -1.5565
  427MPD2    N1 6377   2.669   3.197  14.834 -0.4425 -0.6350  0.1609
  427MPD2    H7 6378   2.630   3.201  14.928 -0.9697 -0.2404 -0.0791
  428TMC3    C1 6379   2.866   3.119  14.940  0.2052 -0.6651  0.7655
  428TMC3    C2 6380   2.792   3.102  15.055 -0.4680  0.6607 -0.1992
  428TMC3    C3 6381   2.854   3.039  15.163 -0.4458 -0.6791  0.5463
  428TMC3    C4 6382   3.000   3.087  14.935 -0.2061 -0.1145 -0.0892
  428TMC3    C5 6383   3.056   3.029  15.047  0.3637  0.8303  0.1550
  428TMC3    C6 6384   2.988   3.019  15.165  0.1247 -0.0057  0.8841
  428TMC3     C 6385   2.807   3.175  14.817 -0.4642  0.5135  0.1899
  428TMC3     O 6386   2.873   3.172  14.717  0.0785  0.1153 -0.1364
  428TMC3     H 6387   2.688   3.128  15.067 -0.5725  0.4263 -0.5868
  428TMC3    H1 6388   3.060   3.092  14.844  0.0941 -2.0575  0.0108
  428TMC3    H2 6389   3.034   3.002  15.262 -0.9198 -1.6237  1.1022
  428TMC3    C7 6390   3.198   2.997  15.054 -0.4405  0.4300  0.3252
  428TMC3    C8 6391   2.783   3.040  15.288 -0.1191  0.1248  0.1536
  428TMC3    O1 6392   3.235   2.959  15.163 -0.4498  0.3548 -0.2848
  428TMC3    O2 6393   2.679   2.981  15.292  0.5904  0.0084  0.3619
  429MPD2     C 6394   3.952   3.203   0.232 -0.0405  0.8868  0.6967
  429MPD2    C1 6395   3.924   3.102   0.144  0.6286 -0.2420 -0.6654
  429MPD2    C2 6396   3.867   3.126   0.023  0.8538 -0.1144  0.2950
  429MPD2    C3 6397   3.833   3.260  17.658 -0.0891 -0.2366 -0.0379
  429MPD2    C4 6398   3.861   3.361   0.075  0.8362 -0.0056  0.4880
  429MPD2    C5 6399   3.921   3.331   0.195  0.3572  0.2563 -0.4070
  429MPD2     H 6400   3.840   3.038  17.640  2.2924  1.1545 -2.3563
  429MPD2    H1 6401   3.836   3.466   0.067 -1.9756 -0.6964 -0.0807
  429MPD2    H2 6402   3.978   3.189   0.337  2.6202 -0.2093 -0.0986
  429MPD2    H3 6403   3.928   3.408   0.271 -0.3169 -0.5838  0.5148
  429MPD2     N 6404   3.776   3.289  17.534  0.6698 -0.1735 -0.0792
  429MPD2    H5 6405   3.774   3.213  17.466  0.1592  0.2147 -0.4957
  429MPD2    N1 6406   3.947   2.968   0.166 -0.3223  0.0086  0.5017
  429MPD2    H7 6407   3.930   2.914   0.082 -0.2189 -1.0541  1.1509
  430TMC3    C1 6408   3.672   3.419  17.372  0.3797 -0.1323 -0.9548
  430TMC3    C2 6409   3.579   3.524  17.338  0.6243 -0.0937  0.5582
  430TMC3    C3 6410   3.603   3.599  17.228  0.0394 -0.1514 -0.0512
  430TMC3    C4 6411   3.775   3.386  17.281  1.1346  0.0071  0.4872
  430TMC3    C5 6412   3.790   3.477  17.176 -0.0090 -0.2616  0.0333
  430TMC3    C6 6413   3.706   3.572  17.146 -0.4602  0.2269 -0.3274
  430TMC3     C 6414   3.698   3.397  17.514 -0.5137 -0.0367  0.3548
  430TMC3     O 6415   3.673   3.488  17.592 -0.4617 -0.1029  0.7953
  430TMC3     H 6416   3.494   3.549  17.400 -1.3400 -0.0910 -2.1542
  430TMC3    H1 6417   3.850   3.312  17.307  2.2145  1.8861  2.7120
  430TMC3    H2 6418   3.713   3.647  17.068 -1.3329 -0.4448 -1.0427
  430TMC3    C7 6419   3.896   3.448  17.082  0.9629 -0.3165 -0.8208
  430TMC3    C8 6420   3.481   3.634  17.156  0.2525  0.1316  0.0338
  430TMC3    O1 6421   3.922   3.549  17.022 -0.4848  0.2887  0.2895
  430TMC3    O2 6422   3.483   3.728  17.081 -0.4705 -0.3806 -0.0009
  431MPD2     C 6423   4.522   3.705  12.493 -0.8825 -0.1929 -0.4396
  431MPD2    C1 6424   4.600   3.698  12.381 -0.0913  0.2054 -0.0678
  431MPD2    C2 6425   4.579   3.601  12.284  0.4967  0.2005 -0.2633
  431MPD2    C3 6426   4.482   3.501  12.312  0.0035 -0.3638  0.4680
  431MPD2    C4 6427   4.406   3.503  12.432  0.3597 -0.0526 -0.2550
  431MPD2    C5 6428   4.435   3.601  12.529 -0.3337  0.5567 -1.1857
  431MPD2     H 6429   4.634   3.595  12.191 -0.2452 -0.7915 -0.6509
  431MPD2    H1 6430   4.334   3.424  12.450  0.1512  0.5125  1.3425
  431MPD2    H2 6431   4.528   3.797  12.552 -1.7987  0.7256 -1.7803
  431MPD2    H3 6432   4.380   3.598  12.623 -0.3942  0.6526 -1.2179
  431MPD2     N 6433   4.462   3.390  12.231  0.3375  0.1463  0.1838
  431MPD2    H5 6434   4.427   3.304  12.272 -3.1606  0.9813 -1.0102
  431MPD2    N1 6435   4.706   3.793  12.357  0.1946  0.0004 -0.7805
  431MPD2    H7 6436   0.046   3.769  12.277  0.7517 -0.7705 -0.1406
  432TMC3    C1 6437   4.475   3.253  12.045  0.1607  0.2501  0.0236
  432TMC3    C2 6438   4.499   3.261  11.909  0.4497  0.1273  0.0469
  432TMC3    C3 6439   4.570   3.157  11.855  0.3116 -0.3087 -0.5726
  432TMC3    C4 6440   4.509   3.144  12.119 -0.1802 -0.0976 -0.3242
  432TMC3    C5 6441   4.571   3.039  12.058  0.5721  0.3928 -0.6917
  432TMC3    C6 6442   4.608   3.048  11.926  0.9925 -0.3250 -0.0354
  432TMC3     C 6443   4.482   3.381  12.102  0.1876 -0.5728  0.3931
  432TMC3     O 6444   4.510   3.469  12.021  0.1201  0.3202  0.0720
  432TMC3     H 6445   4.473   3.343  11.843 -1.0444 -2.0957 -2.1343
  432TMC3    H1 6446   4.509   3.154  12.227  1.5850 -1.7665 -0.1755
  432TMC3    H2 6447   4.657   2.962  11.882 -1.7868 -0.8915 -1.9850
  432TMC3    C7 6448   4.624   2.931  12.135  0.0363  0.5032  0.1185
  432TMC3    C8 6449   4.633   3.171  11.722 -0.4459  0.3985 -0.0880
  432TMC3    O1 6450   0.001   2.862  12.091 -0.5513 -0.2355 -0.1228
  432TMC3    O2 6451   4.568   3.222  11.631 -0.1405 -0.0738 -0.4041
  433MPD2     C 6452   3.040   1.711  10.958  0.1742  0.1493  0.4208
  433MPD2    C1 6453   3.071   1.599  11.031  1.2901 -0.2122 -0.2334
  433MPD2    C2 6454   3.147   1.615  11.149 -0.0336  0.2773 -0.2603
  433MPD2    C3 6455   3.168   1.745  11.195  0.5839 -0.1394 -0.6664
  433MPD2    C4 6456   3.138   1.852  11.117 -0.2809 -0.4897  0.3986
  433MPD2    C5 6457   3.076   1.841  10.997 -0.1906 -0.0400 -0.5524
  433MPD2     H 6458   3.168   1.530  11.213 -2.0680 -1.9459 -2.5841
  433MPD2    H1 6459   3.168   1.953  11.143 -0.6358 -0.3974  0.4524
  433MPD2    H2 6460   2.984   1.694  10.866 -1.0336  2.0750  0.7940
  433MPD2    H3 6461   3.051   1.932  10.943 -1.2960 -0.4882 -0.7914
  433MPD2     N 6462   3.267   1.754  11.296  0.3312  0.0088  0.0124
  433MPD2    H5 6463   3.315   1.671  11.328  2.0310  1.3727  0.9920
  433MPD2    N1 6464   3.042   1.477  10.971 -0.1693  0.0864 -0.0905
  433MPD2    H7 6465   3.015   1.493  10.874  1.4420  0.0457 -0.5486
  434TMC3    C1 6466   3.113   1.251  10.947  0.0822 -0.1827  0.3328
  434TMC3    C2 6467   3.193   1.159  11.010 -0.4416 -0.1443  0.7796
  434TMC3    C3 6468   3.302   1.109  10.940 -0.3170 -0.1695 -0.6135
  434TMC3    C4 6469   3.126   1.275  10.814 -0.0558  0.4143  0.3078
  434TMC3    C5 6470   3.227   1.204  10.747 -0.6402 -0.8172 -0.0104
  434TMC3    C6 6471   3.329   1.135  10.807 -0.0893 -0.0256 -1.1305
  434TMC3     C 6472   3.067   1.353  11.035  0.5267 -0.2345  0.2059
  434TMC3     O 6473   3.073   1.325  11.158  0.2194 -0.7754  0.4609
  434TMC3     H 6474   3.172   1.127  11.111  0.3026 -0.8268  0.7182
  434TMC3    H1 6475   3.055   1.337  10.761  0.5721  0.0237 -0.9758
  434TMC3    H2 6476   3.417   1.097  10.756 -0.3305 -1.3799 -0.5531
  434TMC3    C7 6477   3.192   1.164  10.611 -0.0600 -0.0526 -0.0853
  434TMC3    C8 6478   3.407   1.059  11.025 -0.1589 -0.2417 -0.0735
  434TMC3    O1 6479   3.124   1.249  10.554  0.1703  0.2173 -0.2330
  434TMC3    O2 6480   3.397   1.065  11.146 -0.0489  0.1764  0.5427
  435MPD2     C 6481   0.671   1.789  15.385  0.0186  0.0748 -0.4960
  435MPD2    C1 6482   0.679   1.813  15.525 -0.6143 -0.6522  0.2974
  435MPD2    C2 6483   0.762   1.746  15.609 -0.3445 -0.0494 -0.0483
  435MPD2    C3 6484   0.857   1.665  15.554  0.1742 -0.0956 -0.2721
  435MPD2    C4 6485   0.847   1.639  15.415 -0.2071 -0.4045 -0.2507
  435MPD2    C5 6486   0.761   1.699  15.334  0.1338  0.2603  0.0081
  435MPD2     H 6487   0.753   1.765  15.716 -0.7558 -1.0718  0.0988
  435MPD2    H1 6488   0.918   1.575  15.364 -1.4060 -0.6297 -1.6385
  435MPD2    H2 6489   0.600   1.841  15.322  0.8136  0.5746 -0.9782
  435MPD2    H3 6490   0.766   1.687  15.226 -1.3613 -1.5700  0.1578
  435MPD2     N 6491   0.940   1.594  15.646  0.4405  0.5965  0.8780
  435MPD2    H5 6492   0.928   1.612  15.745  0.9510  1.2020  0.8257
  435MPD2    N1 6493   0.594   1.908  15.585  0.5264  0.1230 -0.2386
  435MPD2    H7 6494   0.595   1.917  15.686 -3.6742  0.0729 -0.1710
  436TMC3    C1 6495   0.234   2.068  15.734 -0.3587  0.3998  0.1591
  436TMC3    C2 6496   0.359   2.020  15.699 -0.4730 -0.2079 -0.2357
  436TMC3    C3 6497   0.424   2.080  15.594  0.1276  0.6395  0.5177
  436TMC3    C4 6498   0.179   2.177  15.676 -0.1374  0.3661 -0.6090
  436TMC3    C5 6499   0.249   2.228  15.569 -0.3888  0.1179 -0.6880
  436TMC3    C6 6500   0.367   2.182  15.523 -0.1925  0.2426  0.3402
  436TMC3     C 6501   0.182   2.037  15.872  0.0251 -0.1142 -0.4247
  436TMC3     O 6502   0.197   1.921  15.904 -0.0816 -0.0034  0.2759
  436TMC3     H 6503   0.390   1.927  15.747  1.3606 -0.7778 -2.5384
  436TMC3    H1 6504   0.077   2.207  15.694 -0.7276 -1.0859 -1.5505
  436TMC3    H2 6505   0.429   2.239  15.454  0.1565  0.6598  0.9966
  436TMC3    C7 6506   0.190   2.352  15.518  0.6746  0.6240  0.1884
  436TMC3    C8 6507   0.522   2.004  15.517 -0.5063 -0.9872 -0.3785
  436TMC3    O1 6508   0.108   2.421  15.577  0.3096  0.0367  0.8883
  436TMC3    O2 6509   0.533   2.035  15.398  0.2530  0.1787 -0.0372
  437TMC3    C1 6510   4.099   3.445  12.168 -1.0201 -0.2461 -0.1708
  437TMC3    C2 6511   4.054   3.474  12.300  0.5013  0.3486  0.2041
  437TMC3    C3 6512   4.075   3.600  12.355  0.8915 -0.6269  0.2209
  437TMC3    C4 6513   4.169   3.538  12.100 -0.7120 -0.6271 -0.2871
  437TMC3    C5 6514   4.187   3.660  12.157  0.0875 -0.3155  0.3454
  437TMC3    C6 6515   4.135   3.701  12.277 -0.2287  0.5741  0.3889
  437TMC3     C 6516   4.100   3.310  12.112 -0.0677 -0.5600 -0.4171
  437TMC3     O 6517   4.079   3.215  12.187  0.2245 -0.4772 -0.3143
  437TMC3     H 6518   3.997   3.401  12.356  0.2259 -0.5677 -1.2694
  437TMC3    H1 6519   4.240   3.509  12.024 -1.5013 -0.0353 -1.2537
  437TMC3    H2 6520   4.140   3.803  12.314  0.3867  1.4022 -1.9971
  437TMC3    C7 6521   4.272   3.745  12.080  0.6523  0.3216  0.0704
  437TMC3    C8 6522   3.996   3.647  12.462  0.4603  0.4507 -0.2426
  437TMC3    O1 6523   4.298   3.710  11.968  0.0555 -0.3186 -0.1609
  437TMC3    O2 6524   3.969   3.766  12.465 -0.6638 -0.3887 -0.3196
  438MPD2     C 6525   1.569   4.566  17.103  0.3990 -0.1281  0.2102
  438MPD2    C1 6526   1.699   4.608  17.138  0.4672 -0.3006 -0.1223
  438MPD2    C2 6527   1.717   4.695  17.240 -0.8745  0.8020 -0.3847
  438MPD2    C3 6528   1.615   0.026  17.312  0.7611  0.2143  0.5445
  438MPD2    C4 6529   1.488   4.706  17.275 -1.7582 -0.0211  0.3440
  438MPD2    C5 6530   1.469   4.615  17.172  0.9201  0.0953  0.1483
  438MPD2     H 6531   1.818   0.017  17.251 -1.4651  2.5476 -1.2448
  438MPD2    H1 6532   1.398   0.028  17.322 -1.6236  0.2482  0.3725
  438MPD2    H2 6533   1.547   4.488  17.031 -0.5025 -2.2039  2.7012
  438MPD2    H3 6534   1.368   4.592  17.138  1.4220 -0.6404 -0.8276
  438MPD2     N 6535   1.632   0.122  17.413  0.7095  0.1653  0.1751
  438MPD2    H5 6536   1.542   0.164  17.434 -1.2088 -2.9841 -1.7927
  438MPD2    N1 6537   1.810   4.554  17.062 -0.0932 -0.7336  0.0687
  438MPD2    H7 6538   1.897   4.573  17.111 -1.6821  2.6460  1.5548
  439TMC3    C1 6539   1.935   4.422  16.913  0.2181  0.9700 -0.7632
  439TMC3    C2 6540   1.940   4.358  16.794  1.0263 -0.4032 -0.2776
  439TMC3    C3 6541   2.037   4.272  16.769 -0.4589  0.1916 -0.2718
  439TMC3    C4 6542   2.029   4.400  17.006 -0.2376 -0.6118 -0.4688
  439TMC3    C5 6543   2.130   4.315  16.978 -0.3923 -0.2826 -0.5124
  439TMC3    C6 6544   2.136   4.252  16.861  0.0119 -0.7269  0.5320
  439TMC3     C 6545   1.803   4.468  16.952  0.3053  0.0771  0.9529
  439TMC3     O 6546   1.711   4.434  16.877  0.1989  0.2939  0.2887
  439TMC3     H 6547   1.865   4.362  16.716  0.4618 -1.9178  0.1818
  439TMC3    H1 6548   2.007   4.418  17.111 -0.3720 -0.8062 -0.4623
  439TMC3    H2 6549   2.222   4.192  16.836  0.1895 -0.0790 -0.3928
  439TMC3    C7 6550   2.250   4.330  17.055  0.4114  0.0080 -0.4405
  439TMC3    C8 6551   2.059   4.201  16.640  0.9962  1.2181  0.1097
  439TMC3    O1 6552   2.332   4.238  17.042 -0.3158 -0.1372 -0.2155
  439TMC3    O2 6553   2.143   4.110  16.642 -0.6793 -0.2331  0.2979
  440MPD2     C 6554   0.336   0.383  14.970 -0.5514 -0.0995  0.0612
  440MPD2    C1 6555   0.444   0.457  14.918 -0.4729 -0.2898 -0.0653
  440MPD2    C2 6556   0.547   0.386  14.860 -0.6789  0.1405  0.2673
  440MPD2    C3 6557   0.547   0.250  14.849  0.2408  0.1157 -0.3050
  440MPD2    C4 6558   0.455   0.180  14.916  0.2685  0.4040 -0.0910
  440MPD2    C5 6559   0.348   0.246  14.977 -0.0738  0.0343  0.2682
  440MPD2     H 6560   0.627   0.441  14.811 -0.2273 -0.1734  0.6504
  440MPD2    H1 6561   0.469   0.073  14.912  1.5716  0.5566  0.3177
  440MPD2    H2 6562   0.258   0.430  15.029 -1.9913  0.2501 -2.1069
  440MPD2    H3 6563   0.270   0.190  15.028  1.7412 -2.0739  0.7445
  440MPD2     N 6564   0.638   0.172  14.776  0.2189 -0.1544  0.0407
  440MPD2    H5 6565   0.622   0.072  14.774  1.2030 -0.3098 -0.1283
  440MPD2    N1 6566   0.460   0.594  14.929 -0.2406 -0.7501 -0.0992
  440MPD2    H7 6567   0.544   0.627  14.882 -0.1845 -0.2528  0.3522
  441TMC3    C1 6568   0.845   0.115  14.686  0.1209 -0.6336 -0.1085
  441TMC3    C2 6569   0.938   0.155  14.599 -0.6875  0.1811  0.0601
  441TMC3    C3 6570   1.070   0.115  14.615 -0.1868  0.3783  0.1181
  441TMC3    C4 6571   0.875   0.040  14.800  0.4877 -0.2007  0.5468
  441TMC3    C5 6572   1.003   4.716  14.805 -0.0527 -0.2661 -0.7621
  441TMC3    C6 6573   1.098   0.028  14.715 -0.3195  0.1618 -0.7634
  441TMC3     C 6574   0.742   0.215  14.701 -0.3698  0.1530 -0.0160
  441TMC3     O 6575   0.791   0.328  14.691 -0.5738 -0.1057  0.2656
  441TMC3     H 6576   0.908   0.228  14.524  1.2918 -0.3861 -1.2669
  441TMC3    H1 6577   0.799   0.004  14.868  0.5436 -0.4581  0.4762
  441TMC3    H2 6578   1.198   4.708  14.732 -0.3186  0.7995  0.6546
  441TMC3    C7 6579   1.035   4.625  14.917 -0.8044 -0.1354  0.3649
  441TMC3    C8 6580   1.169   0.211  14.576  0.6048  0.8396  0.2490
  441TMC3    O1 6581   1.133   4.556  14.898 -0.3771 -0.4649  0.2032
  441TMC3    O2 6582   1.278   0.176  14.616 -0.4557 -0.0242  0.0451
  442MPD2     C 6583   3.059   0.938  16.377  0.1365  0.1278  0.5551
  442MPD2    C1 6584   3.019   0.868  16.492  0.5077 -0.1721  0.5531
  442MPD2    C2 6585   3.069   0.742  16.506  0.4533  0.3224  0.3990
  442MPD2    C3 6586   3.148   0.684  16.408  0.4876 -0.5967  0.5420
  442MPD2    C4 6587   3.182   0.758  16.296  0.6909 -0.3251  0.2108
  442MPD2    C5 6588   3.133   0.885  16.278 -0.3674 -0.1179  0.8422
  442MPD2     H 6589   3.050   0.695  16.602 -3.5122  1.7999  0.3638
  442MPD2    H1 6590   3.241   0.723  16.212  1.5689  1.4765  0.0679
  442MPD2    H2 6591   3.042   1.045  16.379 -0.7327  0.0234 -1.0660
  442MPD2    H3 6592   3.151   0.946  16.190 -1.4568 -2.5331 -1.0487
  442MPD2     N 6593   3.210   0.559  16.417 -0.8770  0.2860  0.2846
  442MPD2    H5 6594   3.263   0.528  16.337 -0.0807 -0.6408  1.1858
  442MPD2    N1 6595   2.955   0.932  16.596  0.3853  0.0532 -0.4582
  442MPD2    H7 6596   2.942   0.872  16.676  1.7801  0.1017 -0.1964
  443TMC3    C1 6597   2.773   1.047  16.685  1.0573 -0.3497  0.0899
  443TMC3    C2 6598   2.644   1.045  16.635  0.1808 -0.7562 -0.2886
  443TMC3    C3 6599   2.545   0.993  16.715  0.3898 -0.6309 -0.2953
  443TMC3    C4 6600   2.806   1.007  16.811  0.1653 -0.3611  0.5769
  443TMC3    C5 6601   2.702   0.974  16.888 -0.2021 -0.7456 -0.0689
  443TMC3    C6 6602   2.574   0.952  16.845  0.0998  0.2333 -0.4207
  443TMC3     C 6603   2.874   1.043  16.587  0.4847  1.3043  0.0142
  443TMC3     O 6604   2.856   1.107  16.485 -0.4956  0.1161 -1.0194
  443TMC3     H 6605   2.629   1.069  16.530 -1.2925 -0.7434 -0.0878
  443TMC3    H1 6606   2.909   1.003  16.842  1.0392 -0.6086 -2.3849
  443TMC3    H2 6607   2.502   0.910  16.915 -2.6182  0.9840 -2.7618
  443TMC3    C7 6608   2.741   0.904  17.012  0.6938 -0.7574  0.3811
  443TMC3    C8 6609   2.483   0.883  16.645  0.0359  0.8104 -0.2896
  443TMC3    O1 6610   2.702   0.791  17.030  0.4862 -0.1198  0.1296
  443TMC3    O2 6611   2.475   0.772  16.693 -0.2898  0.3213  0.3585
  444MPD2     C 6612   4.028   0.497  17.405 -0.2157  0.2504  0.7902
  444MPD2    C1 6613   3.962   0.406  17.329  0.4628  0.1564  0.2647
  444MPD2    C2 6614   4.030   0.306  17.253 -0.0705 -0.8886 -0.3837
  444MPD2    C3 6615   4.166   0.287  17.266 -0.1833  0.7424  1.4827
  444MPD2    C4 6616   4.233   0.379  17.353 -0.5177  0.6327 -0.2500
  444MPD2    C5 6617   4.164   0.470  17.422  0.5002 -0.0275  0.3144
  444MPD2     H 6618   3.972   0.232  17.200 -2.4541  0.4935  0.3255
  444MPD2    H1 6619   4.342   0.379  17.357 -0.5859  3.6050  1.5616
  444MPD2    H2 6620   3.986   0.581  17.459 -1.2667  1.1677 -1.4472
  444MPD2    H3 6621   4.225   0.539  17.480  0.6858  1.5175 -1.7103
  444MPD2     N 6622   4.225   0.169  17.213 -0.3357  0.2602 -0.0442
  444MPD2    H5 6623   4.157   0.106  17.172  0.7951 -0.7866 -0.3266
  444MPD2    N1 6624   3.821   0.410  17.324  0.1389  0.1191  0.2583
  444MPD2    H7 6625   3.769   0.334  17.283 -0.2766  1.0820 -1.0141
  445TMC3    C1 6626   4.400   0.023  17.146 -0.1386 -0.5469  0.1318
  445TMC3    C2 6627   4.356   4.627  17.213  0.3172  0.2658  0.3262
  445TMC3    C3 6628   4.419   4.511  17.181  0.2971 -0.3220 -1.1945
  445TMC3    C4 6629   4.514   0.022  17.070 -0.6906 -0.2540  0.1287
  445TMC3    C5 6630   4.581   4.622  17.053 -0.5156  0.6474 -0.6382
  445TMC3    C6 6631   4.531   4.504  17.095  0.1622  0.6471 -0.3221
  445TMC3     C 6632   4.362   0.150  17.197  0.5466  0.7554  0.1182
  445TMC3     O 6633   4.448   0.238  17.206  0.1185 -0.0512  0.6730
  445TMC3     H 6634   4.283   4.635  17.293 -1.4876 -0.0418 -1.2636
  445TMC3    H1 6635   4.558   0.113  17.031 -0.1026 -1.0474 -1.0511
  445TMC3    H2 6636   4.575   4.406  17.083 -0.8594  0.2076 -0.4346
  445TMC3    C7 6637   4.708   4.615  16.979  0.0235  0.7037 -0.0054
  445TMC3    C8 6638   4.378   4.385  17.244 -0.1689 -1.1216  0.2266
  445TMC3    O1 6639   0.009   4.712  16.905  0.0099 -0.3491  0.0963
  445TMC3    O2 6640   4.408   4.284  17.184 -0.5370  0.2252  0.1170
  446MPD2     C 6641   3.165   1.016  11.519  0.6151 -0.0938  0.0174
  446MPD2    C1 6642   3.149   1.097  11.412 -0.4057 -0.0795  0.1421
  446MPD2    C2 6643   3.250   1.192  11.387 -0.3011 -0.2543  0.7420
  446MPD2    C3 6644   3.374   1.177  11.440 -0.8870 -0.2925  0.0705
  446MPD2    C4 6645   3.389   1.093  11.548  0.2107  0.6507  0.6785
  446MPD2    C5 6646   3.285   1.013  11.580 -0.1011 -0.4459  0.2368
  446MPD2     H 6647   3.235   1.264  11.307 -0.5133 -1.2344 -0.1016
  446MPD2    H1 6648   3.478   1.090  11.610 -0.0511 -1.1906  0.9490
  446MPD2    H2 6649   3.086   0.956  11.563 -1.3981  1.7549 -1.1004
  446MPD2    H3 6650   3.303   0.947  11.664 -1.4239  1.7358  2.2332
  446MPD2     N 6651   3.480   1.253  11.381  0.4546  0.4936 -0.3142
  446MPD2    H5 6652   3.459   1.324  11.312 -1.5432  1.7784  1.6399
  446MPD2    N1 6653   3.026   1.101  11.340 -0.4847  0.0427  0.1714
  446MPD2    H7 6654   3.005   1.186  11.289  2.1397  0.2708 -0.5327
  447TMC3    C1 6655   3.699   1.282  11.297 -0.1625 -0.5961  0.1510
  447TMC3    C2 6656   3.638   1.296  11.174  1.1449  0.2250  0.1937
  447TMC3    C3 6657   3.718   1.311  11.066 -0.5405  0.4444  0.5792
  447TMC3    C4 6658   3.837   1.276  11.302  0.2797 -0.1580 -0.8215
  447TMC3    C5 6659   3.915   1.314  11.198 -0.4893  0.1550  0.3761
  447TMC3    C6 6660   3.859   1.332  11.073  0.0610  0.4443 -0.2450
  447TMC3     C 6661   3.619   1.225  11.403  0.1065 -0.0583 -0.5720
  447TMC3     O 6662   3.680   1.159  11.488 -0.1611  0.5063  0.3676
  447TMC3     H 6663   3.531   1.280  11.162  0.7813  2.7888  0.1403
  447TMC3    H1 6664   3.880   1.270  11.401  0.2440  3.1396 -0.6019
  447TMC3    H2 6665   3.911   1.384  10.994  0.8368  0.5063  0.3080
  447TMC3    C7 6666   4.051   1.271  11.189 -0.3337  0.5410 -0.2962
  447TMC3    C8 6667   3.664   1.307  10.934 -0.3366  0.0835 -0.0551
  447TMC3    O1 6668   4.089   1.245  11.076 -0.4197 -0.1472  0.5768
  447TMC3    O2 6669   3.543   1.312  10.914 -0.0644  0.2155 -0.4323
  448TMC3    C1 6670   2.166   1.629  17.223  0.5896  0.1292  0.4083
  448TMC3    C2 6671   2.150   1.506  17.167  0.0742  0.3569  0.0212
  448TMC3    C3 6672   2.215   1.401  17.232  1.2294  0.8157  0.0042
  448TMC3    C4 6673   2.252   1.650  17.332 -0.2770 -0.3164  0.0565
  448TMC3    C5 6674   2.329   1.542  17.383  0.4669  0.0761 -0.7799
  448TMC3    C6 6675   2.303   1.415  17.332  0.3288  0.9732  0.0600
  448TMC3     C 6676   2.067   1.732  17.201  0.3948 -0.2375 -0.2852
  448TMC3     O 6677   2.062   1.823  17.288  0.2780  0.9754 -0.2875
  448TMC3     H 6678   2.077   1.491  17.088  0.1497  2.3715 -0.4230
  448TMC3    H1 6679   2.259   1.743  17.387  0.7370 -0.0953 -0.4611
  448TMC3    H2 6680   2.365   1.334  17.369  1.3275  2.2732  1.2430
  448TMC3    C7 6681   2.386   1.550  17.508  0.1336  0.0820  0.4374
  448TMC3    C8 6682   2.208   1.265  17.180 -0.5445  0.1494  0.1517
  448TMC3    O1 6683   2.494   1.598  17.532 -0.3993  0.2653 -0.6135
  448TMC3    O2 6684   2.256   1.173  17.250  0.0890 -0.3836  0.4024
  449MPD2     C 6685   3.138   0.078  14.404  0.4799  0.1850  0.1313
  449MPD2    C1 6686   3.110   0.020  14.280  0.2906  0.1759 -0.2537
  449MPD2    C2 6687   3.066   4.608  14.273 -0.1827 -0.0263  0.8774
  449MPD2    C3 6688   3.074   4.525  14.376 -0.2563 -0.1892 -0.3169
  449MPD2    C4 6689   3.114   4.581  14.497 -0.5520  0.2463  0.3071
  449MPD2    C5 6690   3.128   4.717  14.513  0.6888 -0.1801 -0.3462
  449MPD2     H 6691   3.028   4.574  14.178  1.1267 -0.7209  0.5999
  449MPD2    H1 6692   3.132   4.526  14.588  0.1820  0.2574  0.1641
  449MPD2    H2 6693   3.139   0.185  14.416 -1.1313  0.1361  0.6380
  449MPD2    H3 6694   3.158   0.035  14.611  0.2136 -1.6182  0.3097
  449MPD2     N 6695   3.053   4.390  14.358 -0.1121 -0.4730 -0.2910
  449MPD2    H5 6696   3.012   4.372  14.267 -1.2015  0.9033 -0.0608
  449MPD2    N1 6697   3.105   0.096  14.163  0.0270  0.1902 -0.0351
  449MPD2    H7 6698   3.053   0.047  14.091  0.7414 -0.9511  0.2203
  450TMC3    C1 6699   3.156   0.240  13.995  0.3408  0.2761  0.5137
  450TMC3    C2 6700   3.287   0.247  13.944  0.4488 -0.3256 -0.6796
  450TMC3    C3 6701   3.305   0.161  13.835 -0.0222 -0.3070 -0.8224
  450TMC3    C4 6702   3.055   0.176  13.934  0.0763 -0.1230  0.3820
  450TMC3    C5 6703   3.077   0.094  13.827  0.3428  0.7220  0.4483
  450TMC3    C6 6704   3.205   0.084  13.775  0.2069  0.4357 -0.4280
  450TMC3     C 6705   3.150   0.222  14.140 -0.1865  0.6667 -0.0673
  450TMC3     O 6706   3.236   0.279  14.208 -0.7133  0.7829  0.5400
  450TMC3     H 6707   3.377   0.275  13.998  0.6140 -2.2000  0.0266
  450TMC3    H1 6708   2.961   0.176  13.988  0.0243  2.3467  0.2914
  450TMC3    H2 6709   3.226   0.015  13.694  2.5138 -0.1526  0.6482
  450TMC3    C7 6710   3.016   4.682  13.846  0.2385  0.0524  0.2012
  450TMC3    C8 6711   3.429   0.178  13.762  0.1196  0.0869 -0.3423
  450TMC3    O1 6712   2.986   4.660  13.963 -0.2837  0.3671 -0.2524
  450TMC3    O2 6713   3.484   0.284  13.794  0.2850 -0.0332 -0.0958
  451MPD2     C 6714   4.534   3.551   1.555  0.2003  0.6757 -0.0135
  451MPD2    C1 6715   4.558   3.464   1.458  0.3353 -0.0418  0.0820
  451MPD2    C2 6716   4.685   3.410   1.434  0.0784  0.6467  0.6505
  451MPD2    C3 6717   0.075   3.450   1.516  0.6797 -0.7823  0.1606
  451MPD2    C4 6718   0.053   3.548   1.609 -0.2499  0.6291  0.1603
  451MPD2    C5 6719   4.643   3.598   1.624 -0.4926 -0.0891  0.4035
  451MPD2     H 6720   4.700   3.337   1.355 -0.8591  0.9276  0.2159
  451MPD2    H1 6721   0.139   3.579   1.668 -0.7988 -1.3170  1.9867
  451MPD2    H2 6722   4.434   3.591   1.566  1.0142  2.4038  1.0248
  451MPD2    H3 6723   4.628   3.671   1.702 -0.7417 -1.3416  1.5291
  451MPD2     N 6724   0.206   3.398   1.500  0.1487  0.4665  0.0199
  451MPD2    H5 6725   0.286   3.439   1.547  0.5191 -1.7462  1.3351
  451MPD2    N1 6726   4.448   3.405   1.393  0.3821  0.5505 -0.0119
  451MPD2    H7 6727   4.358   3.425   1.436  0.0727 -0.0452 -0.3744
  452TMC3    C1 6728   0.362   3.215   1.476  0.7999  0.1462 -0.2748
  452TMC3    C2 6729   0.419   3.244   1.595 -0.8941  0.7666  0.1363
  452TMC3    C3 6730   0.509   3.155   1.654 -0.4355 -0.9000  0.3307
  452TMC3    C4 6731   0.411   3.111   1.400  0.4829 -0.3440  0.3830
  452TMC3    C5 6732   0.502   3.026   1.460  0.1470  0.0262  0.5673
  452TMC3    C6 6733   0.553   3.039   1.587 -0.3494 -0.1017  0.0080
  452TMC3     C 6734   0.234   3.276   1.434 -0.1462  0.4730  0.6567
  452TMC3     O 6735   0.167   3.221   1.348 -0.1558 -0.4583  1.4864
  452TMC3     H 6736   0.383   3.328   1.654  0.4269  0.2649  1.6693
  452TMC3    H1 6737   0.373   3.095   1.300 -1.8627 -0.0250  1.2236
  452TMC3    H2 6738   0.634   2.980   1.627  0.1481  1.5337  1.4270
  452TMC3    C7 6739   0.557   2.921   1.372  0.2693  0.4529  0.7000
  452TMC3    C8 6740   0.553   3.188   1.792 -1.1881  0.5174 -0.2547
  452TMC3    O1 6741   0.541   2.938   1.253  0.7495  0.3335  0.3860
  452TMC3    O2 6742   0.536   3.301   1.827  0.0127 -0.1076  0.3414
  453TMC3    C1 6743   0.904   0.701  11.559  0.1031 -0.2938 -0.5752
  453TMC3    C2 6744   0.815   0.636  11.634 -0.4151 -0.0306 -0.5623
  453TMC3    C3 6745   0.755   0.529  11.572  0.6288  0.6140 -0.0635
  453TMC3    C4 6746   0.942   0.659  11.434  0.7017  0.0926  0.7102
  453TMC3    C5 6747   0.877   0.547  11.382  0.7447  0.0117  0.3096
  453TMC3    C6 6748   0.785   0.469  11.450  0.2296 -0.1124 -0.5384
  453TMC3     C 6749   1.002   0.772  11.625 -0.2088 -0.1806  0.2921
  453TMC3     O 6750   1.079   0.840  11.562 -0.7481  0.3063  0.1990
  453TMC3     H 6751   0.783   0.681  11.727  2.5107  1.5333 -0.2938
  453TMC3    H1 6752   1.021   0.704  11.375  0.0035  2.1629  1.3687
  453TMC3    H2 6753   0.748   0.373  11.416 -1.0436  1.1184 -2.5721
  453TMC3    C7 6754   0.921   0.505  11.244 -0.3479  0.8007  0.4107
  453TMC3    C8 6755   0.652   0.456  11.654  0.4721 -0.0281  0.3779
  453TMC3    O1 6756   0.929   0.385  11.217  0.4683 -0.0968  0.0606
  453TMC3    O2 6757   0.589   0.522  11.734  0.3167  0.0409 -0.1307
  454MPD2     C 6758   4.516   4.516  16.644  0.3546  0.1104 -0.8565
  454MPD2    C1 6759   4.431   4.619  16.677  0.1559  0.4501 -0.0619
  454MPD2    C2 6760   4.326   4.585  16.758 -0.1233 -0.6024  0.0350
  454MPD2    C3 6761   4.298   4.451  16.793  0.9959  0.1189  0.0141
  454MPD2    C4 6762   4.382   4.352  16.759 -0.7607 -0.2500  0.5617
  454MPD2    C5 6763   4.498   4.384  16.685  0.2669  0.4635  0.4367
  454MPD2     H 6764   4.261   4.668  16.786 -0.3635 -1.2573  1.3914
  454MPD2    H1 6765   4.369   4.249  16.792  0.0556 -0.8585 -0.9886
  454MPD2    H2 6766   4.608   4.527  16.587  0.6255 -2.2209 -0.8767
  454MPD2    H3 6767   4.569   4.307  16.656 -0.8377  0.1994 -1.5468
  454MPD2     N 6768   4.185   4.416  16.871 -0.6287 -0.0450  0.3894
  454MPD2    H5 6769   4.179   4.323  16.911  1.1174  0.0231  0.7865
  454MPD2    N1 6770   4.449   0.031  16.635 -0.3436 -0.4815 -0.9485
  454MPD2    H7 6771   4.374   0.096  16.656 -1.1056 -1.1555 -1.5971
  455TMC3    C1 6772   4.032   4.588  16.821 -0.4301  0.3183 -0.6170
  455TMC3    C2 6773   3.994   4.711  16.863 -0.1091 -0.4347  0.3741
  455TMC3    C3 6774   3.964   0.091  16.769 -0.1184 -0.1338 -0.1011
  455TMC3    C4 6775   4.034   4.559  16.691  0.3518  0.3935  0.4822
  455TMC3    C5 6776   4.002   4.661  16.597  0.0376  0.0641 -0.2405
  455TMC3    C6 6777   3.974   0.070  16.634 -0.0081 -0.7985 -0.0955
  455TMC3     C 6778   4.091   4.501  16.921 -0.0400 -0.3339 -0.3150
  455TMC3     O 6779   4.031   4.487  17.030 -0.3348  0.4724  0.0463
  455TMC3     H 6780   3.989   0.018  16.968  0.4475  1.5647 -0.0565
  455TMC3    H1 6781   4.068   4.464  16.651  1.9623  1.4034 -0.5580
  455TMC3    H2 6782   3.956   0.150  16.563 -0.9053 -1.2760 -0.4020
  455TMC3    C7 6783   3.993   4.618  16.462 -0.2036  0.2738 -0.0303
  455TMC3    C8 6784   3.971   0.232  16.819 -0.7996 -0.7674  0.6129
  455TMC3    O1 6785   4.025   4.501  16.433 -0.0038 -0.3681  0.5998
  455TMC3    O2 6786   4.025   0.238  16.930 -0.2793 -0.2227  0.2131
  456MPD2     C 6787   2.121   4.622  16.584 -0.2812 -0.6734  0.8679
  456MPD2    C1 6788   2.232   4.594  16.658 -0.0853  0.1806 -0.7997
  456MPD2    C2 6789   2.274   4.674  16.770 -0.4926  0.2283 -0.5834
  456MPD2    C3 6790   2.208   0.075  16.798 -1.1623  0.1530  0.8680
  456MPD2    C4 6791   2.091   0.097  16.718 -0.4551  0.0499  0.2543
  456MPD2    C5 6792   2.051   0.015  16.616  0.4157  0.5204  0.5948
  456MPD2     H 6793   2.364   4.654  16.828  2.2883  1.3814 -4.5637
  456MPD2    H1 6794   2.021   0.180  16.723 -1.8498 -1.1296  0.1471
  456MPD2    H2 6795   2.082   4.561  16.503 -1.0270 -0.0990  0.7987
  456MPD2    H3 6796   1.953   0.030  16.574  0.7647 -3.4240 -1.6058
  456MPD2     N 6797   2.255   0.174  16.886 -0.3775  0.0946  0.1428
  456MPD2    H5 6798   2.342   0.146  16.930  0.5482  0.0025 -1.7924
  456MPD2    N1 6799   2.308   4.480  16.618  0.7700 -0.2215  0.4015
  456MPD2    H7 6800   2.289   4.440  16.527  3.6529 -0.5501 -0.0471
  457TMC3    C1 6801   2.282   0.388  16.989  0.1126 -0.1034  0.5526
  457TMC3    C2 6802   2.279   0.520  16.960  0.1233 -0.1378  0.1463
  457TMC3    C3 6803   2.345   0.602  17.042 -0.5957  0.0310 -0.3319
  457TMC3    C4 6804   2.354   0.329  17.088 -0.7570 -0.7326  0.2082
  457TMC3    C5 6805   2.406   0.420  17.182  0.2369  0.3142 -0.5656
  457TMC3    C6 6806   2.396   0.551  17.166  0.7145  0.1379  0.1854
  457TMC3     C 6807   2.209   0.305  16.898 -0.4742  0.0569 -0.0929
  457TMC3     O 6808   2.124   0.360  16.831 -0.1586 -0.5112 -0.4053
  457TMC3     H 6809   2.247   0.555  16.863 -0.5099 -1.2925 -0.0634
  457TMC3    H1 6810   2.359   0.222  17.106  1.8934 -0.7044 -0.4334
  457TMC3    H2 6811   2.412   0.615  17.253 -1.9000 -0.2524  0.9716
  457TMC3    C7 6812   2.486   0.379  17.297 -0.2085  0.3578  0.3512
  457TMC3    C8 6813   2.301   0.743  17.054 -0.3439  0.9813  0.1802
  457TMC3    O1 6814   2.450   0.274  17.349  0.5092 -0.0710 -0.3435
  457TMC3    O2 6815   2.350   0.810  17.142  0.1616  0.6898 -0.0968
  458MPD2     C 6816   4.598   4.140  12.063 -0.4215 -0.5567  0.9021
  458MPD2    C1 6817   4.555   4.127  12.191  0.4914  0.0317  0.9391
  458MPD2    C2 6818   4.460   4.028  12.219 -0.3487  0.1057 -0.8175
  458MPD2    C3 6819   4.409   3.949  12.113 -0.0506 -0.0859  0.1149
  458MPD2    C4 6820   4.451   3.964  11.989 -0.6826 -0.3822  0.0861
  458MPD2    C5 6821   4.537   4.068  11.960 -0.1576 -0.8942  0.0647
  458MPD2     H 6822   4.433   3.998  12.320 -1.6750  2.4718 -0.4560
  458MPD2    H1 6823   4.406   3.929  11.897 -0.1359 -0.8520 -0.0040
  458MPD2    H2 6824   4.670   4.214  12.030 -0.8245 -0.0813  1.0885
  458MPD2    H3 6825   4.552   4.097  11.857  1.2019 -0.5750  0.3589
  458MPD2     N 6826   4.325   3.845  12.156 -0.0350 -0.3491  0.3256
  458MPD2    H5 6827   4.295   3.852  12.253 -1.3123  0.6236 -0.1499
  458MPD2    N1 6828   4.617   4.214  12.289  1.0063 -0.9436 -0.3360
  458MPD2    H7 6829   4.693   4.274  12.258  0.3880  1.4921  2.9032
  459TMC3    C1 6830   4.700   4.297  12.498  0.8273 -0.6015  0.4929
  459TMC3    C2 6831   4.717   4.427  12.454  0.5548  0.1446 -0.2609
  459TMC3    C3 6832   0.077   4.510  12.526  0.8128 -0.9592  0.2105
  459TMC3    C4 6833   0.023   4.259  12.619 -0.5918  0.3724  0.2373
  459TMC3    C5 6834   0.102   4.346  12.688 -0.4193 -0.2701 -0.5142
  459TMC3    C6 6835   0.132   4.475  12.647 -0.5221 -0.1051 -1.0130
  459TMC3     C 6836   4.609   4.206  12.424 -0.2591 -0.0000 -0.3166
  459TMC3     O 6837   4.523   4.141  12.488 -0.2900 -0.3717  0.4013
  459TMC3     H 6838   4.676   4.460  12.359 -1.0558 -2.2463 -0.3868
  459TMC3    H1 6839   0.032   4.154  12.645  2.8861  0.5711 -0.1266
  459TMC3    H2 6840   0.198   4.545  12.697  0.3864 -1.9591  0.3801
  459TMC3    C7 6841   0.132   4.301  12.823  0.7653  0.2203  0.2134
  459TMC3    C8 6842   0.137   4.628  12.447  0.4814 -0.2614 -0.1062
  459TMC3    O1 6843   0.114   4.184  12.854 -0.1145  0.0756 -0.3803
  459TMC3    O2 6844   0.143   4.618  12.327  0.4211 -0.0301  0.2404
  460MPD2     C 6845   3.842   1.130  10.676  0.3230  0.0141  0.4412
  460MPD2    C1 6846   3.748   1.225  10.710  0.8858  0.5435 -0.1082
  460MPD2    C2 6847   3.639   1.248  10.627  0.8033 -0.6181 -0.5936
  460MPD2    C3 6848   3.626   1.181  10.507  0.9092  0.0753 -0.6096
  460MPD2    C4 6849   3.720   1.086  10.475 -0.2807  0.2166 -0.2741
  460MPD2    C5 6850   3.830   1.069  10.550  0.8518  0.4552 -0.3250
  460MPD2     H 6851   3.560   1.313  10.660  1.2301 -1.2605  1.6531
  460MPD2    H1 6852   3.721   1.029  10.383 -0.8905  0.5978 -0.5193
  460MPD2    H2 6853   3.925   1.100  10.739  1.4397  1.7141 -0.2152
  460MPD2    H3 6854   3.896   0.993  10.509  0.5366  0.8932 -1.6333
  460MPD2     N 6855   3.514   1.211  10.424 -0.1911 -0.2437 -0.5381
  460MPD2    H5 6856   3.450   1.281  10.460 -0.0352  0.3471 -1.4230
  460MPD2    N1 6857   3.763   1.266  10.847  0.4560 -0.3877 -0.5784
  460MPD2    H7 6858   3.851   1.245  10.893 -0.6522  0.5872  1.9933
  461TMC3    C1 6859   3.333   1.153  10.265  0.7248  0.2238  0.5527
  461TMC3    C2 6860   3.296   1.070  10.165 -0.2445 -0.4784 -0.0304
  461TMC3    C3 6861   3.181   1.094  10.094  0.0805  0.7000 -0.6492
  461TMC3    C4 6862   3.263   1.266  10.294 -0.2827  0.2373 -0.0268
  461TMC3    C5 6863   3.139   1.279  10.230 -0.4497  0.3903  0.1536
  461TMC3    C6 6864   3.102   1.198  10.127 -0.4321 -0.2966  0.3695
  461TMC3     C 6865   3.473   1.141  10.313 -0.5606 -0.3641  0.2649
  461TMC3     O 6866   3.544   1.055  10.262 -0.0680  0.8659 -0.7648
  461TMC3     H 6867   3.348   0.975  10.157  3.0846  1.3165  0.2443
  461TMC3    H1 6868   3.306   1.341  10.360 -1.5987  1.0375 -0.0868
  461TMC3    H2 6869   3.021   1.220  10.059 -0.0395  0.2837  0.0921
  461TMC3    C7 6870   3.070   1.407  10.247 -0.7211  0.0641  0.0869
  461TMC3    C8 6871   3.144   0.991  10.000 -0.1702 -0.3232 -0.0637
  461TMC3    O1 6872   3.008   1.448  10.145 -0.0429  0.0895  0.0024
  461TMC3    O2 6873   3.225   0.905   9.974 -0.2629  0.0535 -0.8552
  462TMC3    C1 6874   4.583   1.598   0.782  0.8139 -0.0396  0.5951
  462TMC3    C2 6875   4.602   1.502   0.685  0.1174  0.0178 -0.9855
  462TMC3    C3 6876   4.555   1.533   0.557 -0.0078 -0.4599  0.4978
  462TMC3    C4 6877   4.541   1.719   0.754  0.4013  0.3566 -0.3098
  462TMC3    C5 6878   4.502   1.750   0.627  0.1199  0.0469  0.4776
  462TMC3    C6 6879   4.512   1.662   0.528 -0.7323  0.6402  0.4746
  462TMC3     C 6880   4.646   1.583   0.917 -0.7585 -0.4429 -0.0397
  462TMC3     O 6881   0.024   1.511   0.905 -0.3170 -0.4602 -0.0174
  462TMC3     H 6882   4.624   1.401   0.717 -1.3923 -0.2646 -0.8481
  462TMC3    H1 6883   4.505   1.781   0.836  0.9089 -0.7143  0.7271
  462TMC3    H2 6884   4.496   1.704   0.429  3.3089  0.1400 -0.3885
  462TMC3    C7 6885   4.467   1.884   0.600 -0.1343  0.4606 -0.3736
  462TMC3    C8 6886   4.589   1.440   0.457 -0.0341 -0.3833  0.3711
  462TMC3    O1 6887   4.378   1.897   0.515  0.8445 -0.0395 -0.2589
  462TMC3    O2 6888   4.660   1.349   0.495  0.1178 -0.6539  0.8087
  463MPD2     C 6889   0.115   1.144   1.782  0.2305 -0.4360  0.3339
  463MPD2    C1 6890   0.101   1.280   1.796 -0.6141  0.4689 -0.6524
  463MPD2    C2 6891   0.220   1.356   1.773  1.0355  0.3714  0.3943
  463MPD2    C3 6892   0.342   1.313   1.738 -0.9924  0.2578 -0.2766
  463MPD2    C4 6893   0.350   1.169   1.733  0.0986  0.1470 -0.1184
  463MPD2    C5 6894   0.245   1.091   1.767  0.3268 -0.4443  0.3872
  463MPD2     H 6895   0.218   1.464   1.771 -1.4047  0.3264  0.0290
  463MPD2    H1 6896   0.448   1.124   1.722 -0.0577 -0.5115  1.2345
  463MPD2    H2 6897   0.036   1.077   1.816  1.6655 -1.8982  0.7657
  463MPD2    H3 6898   0.255   0.983   1.775  0.4969 -0.3798  1.0583
  463MPD2     N 6899   0.456   1.392   1.713 -0.2944  0.4707 -0.0957
  463MPD2    H5 6900   0.534   1.331   1.691  0.2068  0.7055  1.0527
  463MPD2    N1 6901   4.696   1.353   1.822  0.2749  0.0148  0.3077
  463MPD2    H7 6902   4.703   1.454   1.830  2.7341 -0.0342 -1.0885
  464TMC3    C1 6903   4.468   1.389   1.861  0.2494 -0.3563 -0.0967
  464TMC3    C2 6904   4.508   1.487   1.949 -0.0591  0.2662 -0.2389
  464TMC3    C3 6905   4.410   1.546   2.020  0.3940 -0.1224 -0.2381
  464TMC3    C4 6906   4.333   1.355   1.840 -0.0875  0.0804 -0.5018
  464TMC3    C5 6907   4.239   1.436   1.908  0.0083 -0.4479 -0.2589
  464TMC3    C6 6908   4.274   1.523   2.003  0.3572 -0.1575  0.4065
  464TMC3     C 6909   4.570   1.297   1.811 -0.2186  0.8305 -0.1972
  464TMC3     O 6910   4.534   1.184   1.773 -0.1256 -0.0671 -0.3396
  464TMC3     H 6911   4.608   1.507   1.986  0.5989 -0.7870 -1.4327
  464TMC3    H1 6912   4.308   1.270   1.778  2.0864  0.0425 -1.3379
  464TMC3    H2 6913   4.193   1.573   2.055  0.8528  2.0150 -0.9167
  464TMC3    C7 6914   4.104   1.429   1.865  0.4200 -1.0687  0.5329
  464TMC3    C8 6915   4.420   1.682   2.059 -0.2135 -0.6033  0.5432
  464TMC3    O1 6916   4.012   1.466   1.939 -0.6030 -0.6994  0.4264
  464TMC3    O2 6917   4.340   1.721   2.142 -0.5401  0.9755 -0.2604
  465MPD2     C 6918   1.884   0.277  17.059 -0.3100 -0.7064  0.2063
  465MPD2    C1 6919   1.793   0.360  17.128 -0.3541 -0.8627 -0.1849
  465MPD2    C2 6920   1.658   0.331  17.110  0.3967 -0.0616 -1.1562
  465MPD2    C3 6921   1.621   0.240  17.007 -0.7795 -0.2974 -0.0032
  465MPD2    C4 6922   1.715   0.172  16.928  0.3900  0.2575  0.2591
  465MPD2    C5 6923   1.842   0.184  16.967 -0.7788 -0.1198  0.2344
  465MPD2     H 6924   1.576   0.387  17.155 -0.1658 -2.2509  0.5621
  465MPD2    H1 6925   1.688   0.096  16.856  0.9331  1.6305 -1.3883
  465MPD2    H2 6926   1.992   0.289  17.061 -0.3324  0.1630 -3.0740
  465MPD2    H3 6927   1.918   0.129  16.913  0.5202  2.2336 -0.3300
  465MPD2     N 6928   1.480   0.220  16.982  0.2866 -0.0950  0.0169
  465MPD2    H5 6929   1.415   0.264  17.046 -1.2243 -0.7761 -1.0662
  465MPD2    N1 6930   1.834   0.465  17.211 -0.1957 -0.4540 -0.1648
  465MPD2    H7 6931   1.762   0.529  17.242  1.6119  2.1098 -1.2520
  466TMC3    C1 6932   1.107   0.160  17.057 -0.3291  0.1884  0.1035
  466TMC3    C2 6933   1.023   0.200  16.961 -0.3143  0.3021  0.3197
  466TMC3    C3 6934   1.077   0.213  16.834  0.6076  0.2749  0.0975
  466TMC3    C4 6935   1.237   0.138  17.037  0.7102  0.2630  0.0482
  466TMC3    C5 6936   1.285   0.144  16.905  0.3018 -1.4285  0.1550
  466TMC3    C6 6937   1.207   0.187  16.804 -0.2199 -0.1327  0.1283
  466TMC3     C 6938   1.067   0.194  17.196 -0.1968 -0.3826 -0.0017
  466TMC3     O 6939   1.163   0.241  17.258 -0.4435  0.0638  0.7133
  466TMC3     H 6940   0.925   0.235  16.991  0.3215  1.5582  0.9562
  466TMC3    H1 6941   1.304   0.120  17.121  1.8322  2.4609 -0.3752
  466TMC3    H2 6942   1.242   0.196  16.701 -0.7854  2.5067  0.1709
  466TMC3    C7 6943   1.426   0.144  16.885 -0.4068 -0.1156 -0.1294
  466TMC3    C8 6944   1.007   0.302  16.741  0.6185  0.3728 -0.0199
  466TMC3    O1 6945   1.464   0.117  16.767  0.2598  0.1737 -0.3566
  466TMC3    O2 6946   1.026   0.281  16.623 -0.4472 -0.2315  0.2316
  467TMC3    C1 6947   1.926   3.492  13.564 -0.3913  0.1363 -0.4085
  467TMC3    C2 6948   1.849   3.595  13.508 -0.0738 -0.2703 -0.1433
  467TMC3    C3 6949   1.715   3.595  13.528  0.2154  0.0234  0.0452
  467TMC3    C4 6950   1.871   3.379  13.606 -0.5420 -0.1862 -0.5488
  467TMC3    C5 6951   1.734   3.376  13.600 -0.2024 -0.0531 -0.2136
  467TMC3    C6 6952   1.651   3.484  13.572  0.1639  0.4974 -0.2687
  467TMC3     C 6953   2.067   3.500  13.582 -0.2299 -0.5543  0.3602
  467TMC3     O 6954   2.106   3.443  13.681 -0.2295 -0.3600 -0.0261
  467TMC3     H 6955   1.897   3.685  13.471  1.6996 -0.8465  0.7370
  467TMC3    H1 6956   1.931   3.290  13.622  0.1476  0.0782 -1.6449
  467TMC3    H2 6957   1.543   3.477  13.566  0.2141  0.2577 -0.8940
  467TMC3    C7 6958   1.674   3.245  13.625  0.4848 -0.3699  0.6630
  467TMC3    C8 6959   1.643   3.720  13.527  0.0464  0.0264  0.4243
  467TMC3    O1 6960   1.735   3.143  13.593 -0.0199  0.1801  0.4335
  467TMC3    O2 6961   1.698   3.811  13.458 -0.1500  0.1042 -0.1290
  468MPD2     C 6962   0.767   1.407  10.440 -0.5667  0.3068 -0.5030
  468MPD2    C1 6963   0.856   1.386  10.542 -0.2746 -1.0618 -1.0371
  468MPD2    C2 6964   0.864   1.257  10.595  0.8392 -0.4969  0.2318
  468MPD2    C3 6965   0.795   1.154  10.541  0.0904 -0.2069  0.2348
  468MPD2    C4 6966   0.689   1.178  10.453 -0.5314  0.1549 -0.3196
  468MPD2    C5 6967   0.687   1.300  10.402 -0.0573 -0.0334  0.4046
  468MPD2     H 6968   0.949   1.241  10.661  1.3417 -2.8427 -0.9806
  468MPD2    H1 6969   0.631   1.102  10.402  3.9452 -1.6011 -2.8174
  468MPD2    H2 6970   0.743   1.502  10.395 -1.1007 -0.3420 -1.5920
  468MPD2    H3 6971   0.615   1.309  10.322 -0.8305 -2.1423  0.8811
  468MPD2     N 6972   0.822   1.026  10.585  0.0657 -0.1429  0.7233
  468MPD2    H5 6973   0.904   1.013  10.643 -1.0469 -2.1279  1.8501
  468MPD2    N1 6974   0.951   1.482  10.590 -0.8364 -0.5962  0.8696
  468MPD2    H7 6975   0.993   1.456  10.679 -1.0610  0.5347  1.3046
  469TMC3    C1 6976   1.063   1.689  10.609  0.0327 -1.1704 -0.5290
  469TMC3    C2 6977   1.151   1.614  10.676  0.9386 -0.1951 -0.0907
  469TMC3    C3 6978   1.215   1.677  10.778  0.0424  0.8617  0.5183
  469TMC3    C4 6979   1.061   1.819  10.618  0.0605  0.0204 -0.5502
  469TMC3    C5 6980   1.127   1.880  10.718 -0.0742  0.9244  0.2564
  469TMC3    C6 6981   1.199   1.810  10.800  0.0141 -0.0553  0.2926
  469TMC3     C 6982   0.956   1.615  10.545  0.1981 -0.2127  1.0952
  469TMC3     O 6983   0.885   1.674  10.462 -0.8263  0.4331  0.3569
  469TMC3     H 6984   1.165   1.508  10.657 -1.5879 -0.5658  0.1128
  469TMC3    H1 6985   0.990   1.879  10.561 -1.5435  0.2976  1.7530
  469TMC3    H2 6986   1.250   1.864  10.880  0.1037  0.0767  0.1467
  469TMC3    C7 6987   1.060   1.997  10.780  0.2076  0.5909  0.4643
  469TMC3    C8 6988   1.318   1.590  10.835 -0.2163  0.0913  0.6152
  469TMC3    O1 6989   0.997   2.074  10.710  0.0026  0.1270  0.0419
  469TMC3    O2 6990   1.339   1.475  10.789 -0.0886 -0.0435 -0.5344
  470TMC3    C1 6991   2.704   2.376   0.817 -0.4145 -0.3662 -0.1196
  470TMC3    C2 6992   2.765   2.499   0.837 -0.1766 -0.1092 -0.3807
  470TMC3    C3 6993   2.780   2.544   0.966  0.6458 -0.2266 -0.0285
  470TMC3    C4 6994   2.634   2.307   0.918 -0.3177 -0.1999 -0.2206
  470TMC3    C5 6995   2.650   2.368   1.044 -0.0411 -0.2744 -0.0311
  470TMC3    C6 6996   2.716   2.482   1.075  0.7497 -0.0976 -0.1766
  470TMC3     C 6997   2.701   2.323   0.677  0.7841  0.1034  0.5361
  470TMC3     O 6998   2.784   2.376   0.603 -0.4424 -0.2237 -0.1303
  470TMC3     H 6999   2.799   2.555   0.752 -0.9716  2.2577  0.8634
  470TMC3    H1 7000   2.594   2.208   0.905 -0.4523  0.2006 -2.8582
  470TMC3    H2 7001   2.740   2.503   1.179 -2.1265 -0.0233  0.4587
  470TMC3    C7 7002   2.612   2.283   1.155  0.3631  0.0267  0.1908
  470TMC3    C8 7003   2.870   2.659   1.001 -0.0878  0.5869 -0.2569
  470TMC3    O1 7004   2.612   2.161   1.132 -0.0341 -0.0928 -0.3628
  470TMC3    O2 7005   2.876   2.704   1.112 -0.4737 -0.0635 -0.3083
  471MPD2     C 7006   3.064   3.435  16.938 -0.2503  0.3189 -1.2016
  471MPD2    C1 7007   3.153   3.526  16.889 -0.1362 -0.2455  0.3020
  471MPD2    C2 7008   3.256   3.568  16.969  0.0678  0.4342  0.3810
  471MPD2    C3 7009   3.268   3.515  17.097  0.1073  0.2739 -0.7877
  471MPD2    C4 7010   3.172   3.428  17.146 -0.4058 -0.0131  0.1751
  471MPD2    C5 7011   3.077   3.383  17.063 -0.1672 -0.3789 -0.3327
  471MPD2     H 7012   3.334   3.627  16.922  1.8569  0.8312  3.7719
  471MPD2    H1 7013   3.171   3.400  17.251 -1.4163 -0.1958  0.1187
  471MPD2    H2 7014   2.974   3.414  16.882 -0.9618  0.8550 -0.2527
  471MPD2    H3 7015   2.997   3.322  17.103 -0.4119  0.1297 -0.0520
  471MPD2     N 7016   3.377   3.542  17.185  0.2681 -0.2624  0.2058
  471MPD2    H5 7017   3.389   3.482  17.266 -1.9052 -0.1941  0.5698
  471MPD2    N1 7018   3.147   3.580  16.756  0.1353 -0.7322  0.5469
  471MPD2    H7 7019   3.227   3.626  16.714 -0.1209  0.8593  1.8055
  472TMC3    C1 7020   3.099   3.564  16.530 -0.5554 -1.0803  0.4147
  472TMC3    C2 7021   3.003   3.543  16.438  0.8591  0.3872 -0.2748
  472TMC3    C3 7022   3.027   3.460  16.327 -0.5052  0.0094 -0.4128
  472TMC3    C4 7023   3.224   3.515  16.511  0.7269 -0.2716  0.2340
  472TMC3    C5 7024   3.248   3.422  16.408 -0.0482 -0.3188 -0.1470
  472TMC3    C6 7025   3.144   3.389  16.316 -0.1331  0.2734  0.3501
  472TMC3     C 7026   3.051   3.544  16.660 -0.0121  0.1795 -0.4408
  472TMC3     O 7027   2.957   3.465  16.664 -0.1518  0.3631  0.0978
  472TMC3     H 7028   2.903   3.584  16.455  0.8167  0.3252 -0.3746
  472TMC3    H1 7029   3.306   3.542  16.577  0.4259  1.6410 -0.1746
  472TMC3    H2 7030   3.155   3.327  16.227  2.3313  0.0543  0.7977
  472TMC3    C7 7031   3.324   3.304  16.449  0.1397 -0.0475 -0.1065
  472TMC3    C8 7032   2.909   3.401  16.261 -0.6272 -0.0564 -0.7296
  472TMC3    O1 7033   3.378   3.305  16.559 -0.2052  0.4901  0.2405
  472TMC3    O2 7034   2.814   3.465  16.224  0.0630 -0.1561  0.4037
  473MPD2     C 7035   3.517   0.974  14.003  0.4732 -0.1054  0.1389
  473MPD2    C1 7036   3.465   1.066  13.912 -0.1373  0.0310 -0.4678
  473MPD2    C2 7037   3.485   1.203  13.928 -0.2166  0.3949  0.4035
  473MPD2    C3 7038   3.550   1.255  14.037  0.1192 -0.0003  0.4544
  473MPD2    C4 7039   3.591   1.161  14.132 -1.2684 -0.3385 -0.1584
  473MPD2    C5 7040   3.579   1.027  14.115 -0.3499  0.0027  0.2338
  473MPD2     H 7041   3.447   1.271  13.852  1.3841  1.0435  0.1629
  473MPD2    H1 7042   3.636   1.193  14.226  0.4216 -1.2370 -0.6682
  473MPD2    H2 7043   3.511   0.867  13.990  0.7447  0.1879 -2.4770
  473MPD2    H3 7044   3.619   0.955  14.186  1.3159  0.8744  0.1833
  473MPD2     N 7045   3.589   1.388  14.057 -0.3112  0.2736  0.0654
  473MPD2    H5 7046   3.660   1.399  14.129 -0.0254 -0.4688 -0.0989
  473MPD2    N1 7047   3.394   1.019  13.796 -0.3324  0.7552  0.2265
  473MPD2    H7 7048   3.357   1.091  13.734 -0.1826  0.5582 -0.0896
  474TMC3    C1 7049   3.628   1.620  14.019 -0.3817 -0.2378  0.0573
  474TMC3    C2 7050   3.634   1.722  13.925  1.0104 -0.5053 -0.5768
  474TMC3    C3 7051   3.687   1.840  13.953  0.3411  0.6616  0.2262
  474TMC3    C4 7052   3.673   1.647  14.147 -0.8959  0.8439  0.0504
  474TMC3    C5 7053   3.723   1.771  14.171  0.3691 -0.0555 -0.5303
  474TMC3    C6 7054   3.738   1.872  14.073 -0.0790  0.9338 -0.7665
  474TMC3     C 7055   3.565   1.498  13.978 -0.1167 -0.2562 -0.1633
  474TMC3     O 7056   3.498   1.496  13.877 -0.8251 -0.4104 -0.1588
  474TMC3     H 7057   3.595   1.712  13.825 -0.4057  2.8440 -0.3560
  474TMC3    H1 7058   3.672   1.575  14.229  0.6239 -0.5510 -1.1668
  474TMC3    H2 7059   3.787   1.966  14.099 -1.5956  1.7584 -0.8981
  474TMC3    C7 7060   3.765   1.802  14.305  0.8314 -0.3217  0.4748
  474TMC3    C8 7061   3.662   1.938  13.852 -0.0587 -0.7486 -0.9457
  474TMC3    O1 7062   3.703   1.755  14.399  0.2209  0.0731 -0.2116
  474TMC3    O2 7063   3.568   1.921  13.774 -0.2959 -0.5360  0.5724
  475MPD2     C 7064   1.381   4.201  10.744 -0.3035  0.1045  0.6233
  475MPD2    C1 7065   1.358   4.165  10.610 -0.4651  0.1877  0.5801
  475MPD2    C2 7066   1.225   4.131  10.568  0.0069 -0.8410 -0.7527
  475MPD2    C3 7067   1.125   4.134  10.661 -0.1404 -0.5790  0.9612
  475MPD2    C4 7068   1.149   4.169  10.793  0.4543  0.3892  0.6155
  475MPD2    C5 7069   1.274   4.209  10.830 -0.4791 -0.6245  0.2298
  475MPD2     H 7070   1.198   4.102  10.467  0.0178  1.2002 -1.3435
  475MPD2    H1 7071   1.074   4.176  10.870  2.2028 -1.0094  2.4526
  475MPD2    H2 7072   1.478   4.233  10.779  0.1742  1.3571 -1.8271
  475MPD2    H3 7073   1.289   4.240  10.933  0.8196  1.2810 -0.5283
  475MPD2     N 7074   0.993   4.124  10.617 -0.4938 -0.6738 -0.1734
  475MPD2    H5 7075   0.976   4.122  10.517  0.4444  0.8247 -0.3617
  475MPD2    N1 7076   1.469   4.159  10.528 -0.5758  0.8661 -0.2262
  475MPD2    H7 7077   1.559   4.161  10.575 -0.2747  1.0856 -0.8154
  476TMC3    C1 7078   1.574   4.085  10.326  0.3558  0.4895 -0.7891
  476TMC3    C2 7079   1.551   3.997  10.219 -0.4962 -0.2251 -0.1883
  476TMC3    C3 7080   1.658   3.933  10.170  0.2671 -0.1434 -0.7244
  476TMC3    C4 7081   1.699   4.106  10.383  0.2758  0.4255 -0.4027
  476TMC3    C5 7082   1.802   4.033  10.323 -0.0786 -0.1831 -0.4182
  476TMC3    C6 7083   1.784   3.952  10.215 -0.2651 -0.9005  0.6037
  476TMC3     C 7084   1.457   4.128  10.396  0.0653  0.3517 -0.1625
  476TMC3     O 7085   1.360   4.126  10.323 -0.1573 -0.2516 -0.1598
  476TMC3     H 7086   1.456   3.967  10.176 -0.9236  0.2600  0.4251
  476TMC3    H1 7087   1.708   4.176  10.466 -1.7953  1.1646 -0.8028
  476TMC3    H2 7088   1.871   3.902  10.175 -1.7668 -1.4421 -2.0428
  476TMC3    C7 7089   1.931   4.051  10.377  1.1633  0.4731 -0.3593
  476TMC3    C8 7090   1.627   3.809  10.089  0.0297  0.4336  0.4275
  476TMC3    O1 7091   2.025   3.991  10.327  0.1606  0.6005 -0.0385
  476TMC3    O2 7092   1.516   3.756  10.092  0.5553 -0.0384 -0.6560
  477MPD2     C 7093   4.547   0.776  11.696  0.0534 -0.6719 -0.4417
  477MPD2    C1 7094   4.434   0.742  11.766 -0.2072 -0.4447 -0.2124
  477MPD2    C2 7095   4.438   0.635  11.860 -0.5441 -0.3058  0.3008
  477MPD2    C3 7096   4.560   0.568  11.871  0.3233 -0.3276  0.1116
  477MPD2    C4 7097   4.677   0.606  11.807  0.3728 -0.1817 -0.3374
  477MPD2    C5 7098   4.668   0.711  11.720  0.1552  0.3321  0.2212
  477MPD2     H 7099   4.353   0.595  11.912 -0.6347 -1.2823 -0.5902
  477MPD2    H1 7100   0.057   0.563  11.825 -0.1788 -1.5542 -0.6413
  477MPD2    H2 7101   4.553   0.845  11.613  0.3282  1.0052  0.9698
  477MPD2    H3 7102   0.035   0.731  11.655 -0.7666  1.7689 -0.5516
  477MPD2     N 7103   4.553   0.461  11.962 -0.5812 -0.0318 -0.4895
  477MPD2    H5 7104   4.475   0.459  12.027  1.6392  0.1774  2.2134
  477MPD2    N1 7105   4.313   0.803  11.724  0.0939 -0.2417 -0.1130
  477MPD2    H7 7106   4.314   0.888  11.668 -0.6082  0.5715  1.1094
  478TMC3    C1 7107   4.085   0.851  11.716 -0.6618  0.5225 -0.2051
  478TMC3    C2 7108   3.975   0.861  11.789  0.1828  0.3633  0.0065
  478TMC3    C3 7109   3.863   0.916  11.725  0.1241  0.9751  0.4679
  478TMC3    C4 7110   4.094   0.874  11.581  0.3650  0.4932  0.7014
  478TMC3    C5 7111   3.976   0.920  11.517 -0.0583 -0.5776  0.3588
  478TMC3    C6 7112   3.859   0.938  11.587 -0.1247  0.1075  0.3870
  478TMC3     C 7113   4.193   0.769  11.774  0.6141  0.5358 -0.0552
  478TMC3     O 7114   4.161   0.695  11.865 -0.3316 -0.4094  0.0354
  478TMC3     H 7115   3.978   0.844  11.896 -2.1817 -1.2674 -0.1815
  478TMC3    H1 7116   4.185   0.867  11.522  0.5459 -2.0405  1.3069
  478TMC3    H2 7117   3.771   0.984  11.544  0.8661  0.9549 -0.7649
  478TMC3    C7 7118   3.966   0.915  11.370 -0.2159 -0.3321  0.6725
  478TMC3    C8 7119   3.775   0.985  11.817 -0.7153 -0.2327  0.5354
  478TMC3    O1 7120   4.052   0.845  11.318  0.2238  0.2450  0.7184
  478TMC3    O2 7121   3.776   0.946  11.936 -0.4432 -0.0289 -0.1218
  479MPD2     C 7122   3.488   3.116  14.835 -0.4602 -0.3576  0.4518
  479MPD2    C1 7123   3.416   3.078  14.954 -0.2878  0.1680 -0.3802
  479MPD2    C2 7124   3.485   3.065  15.073  0.0585 -0.2792  0.0627
  479MPD2    C3 7125   3.614   3.113  15.085  0.3236  0.1022  0.4034
  479MPD2    C4 7126   3.686   3.135  14.969 -0.2933  0.2565 -0.6856
  479MPD2    C5 7127   3.625   3.144  14.848  0.3717 -0.1928 -0.3442
  479MPD2     H 7128   3.447   3.010  15.159  1.0999  1.3558  1.5775
  479MPD2    H1 7129   3.792   3.158  14.965  0.1265 -1.1954  2.2798
  479MPD2    H2 7130   3.439   3.130  14.739  2.1407  0.2436 -0.7744
  479MPD2    H3 7131   3.686   3.161  14.760 -1.1650 -0.7409 -1.5233
  479MPD2     N 7132   3.689   3.112  15.203 -0.5849  0.2283 -0.0659
  479MPD2    H5 7133   3.788   3.130  15.192 -0.7377 -0.5637 -2.6967
  479MPD2    N1 7134   3.275   3.046  14.948  0.0664  0.0957  0.2305
  479MPD2    H7 7135   3.229   3.059  14.859  0.1886  0.4156  0.2120
  480TMC3    C1 7136   3.362   2.991  15.517 -0.1035  0.8028 -0.3963
  480TMC3    C2 7137   3.291   3.104  15.503  0.1141  0.1613 -0.0927
  480TMC3    C3 7138   3.332   3.197  15.412 -0.0536  0.2382 -0.4941
  480TMC3    C4 7139   3.489   2.977  15.470  0.0586 -0.0779 -0.1935
  480TMC3    C5 7140   3.528   3.076  15.383  0.1911  0.6199 -0.4055
  480TMC3    C6 7141   3.459   3.190  15.361  0.5521  0.1288 -0.4695
  480TMC3     C 7142   3.308   2.881  15.598  0.0340  0.2858 -0.2434
  480TMC3     O 7143   3.325   2.767  15.562  0.1777 -0.0587 -0.3677
  480TMC3     H 7144   3.189   3.100  15.540 -0.1700  1.0359 -0.7610
  480TMC3    H1 7145   3.550   2.891  15.495 -0.7344 -1.1219 -1.8296
  480TMC3    H2 7146   3.505   3.270  15.304  0.4736  1.6343  1.5783
  480TMC3    C7 7147   3.664   3.071  15.331 -0.0246 -0.4034  0.6369
  480TMC3    C8 7148   3.227   3.265  15.345 -0.4593  0.0718  0.0352
  480TMC3    O1 7149   3.752   3.035  15.410 -0.1588  0.5929 -0.5882
  480TMC3    O2 7150   3.121   3.275  15.401 -0.2577  0.0649 -0.2666
  481MPD2     C 7151   0.238   2.698  14.434 -0.2363  0.7786 -0.0445
  481MPD2    C1 7152   0.113   2.632  14.440  0.1627 -0.2936  0.3024
  481MPD2    C2 7153   0.050   2.627  14.561  0.1473  0.0977  0.2190
  481MPD2    C3 7154   0.109   2.669  14.674 -0.0175  0.0413 -0.3040
  481MPD2    C4 7155   0.230   2.737  14.673  0.3518 -0.0701  0.0400
  481MPD2    C5 7156   0.290   2.742  14.553  0.0860 -0.0327 -0.1169
  481MPD2     H 7157   4.666   2.591  14.573 -0.1819 -0.0559 -2.9028
  481MPD2    H1 7158   0.270   2.784  14.762 -0.0342 -0.6765  0.5320
  481MPD2    H2 7159   0.294   2.716  14.344 -1.1130  2.4083 -0.2629
  481MPD2    H3 7160   0.390   2.784  14.557 -0.6192  1.8492 -2.0253
  481MPD2     N 7161   0.044   2.659  14.806  0.3072  0.5399 -0.0905
  481MPD2    H5 7162   0.083   2.704  14.888 -0.7703  2.3589 -0.5931
  481MPD2    N1 7163   0.051   2.589  14.317 -0.3511  0.1925 -0.2313
  481MPD2    H7 7164   0.109   2.578  14.234 -0.3835 -2.3613  0.0833
  482TMC3    C1 7165   4.613   2.526  14.159 -0.1309 -0.5254  0.1157
  482TMC3    C2 7166   4.705   2.442  14.105  0.0656  0.3896 -0.9020
  482TMC3    C3 7167   4.688   2.408  13.973  0.4464  0.2221 -0.2220
  482TMC3    C4 7168   4.488   2.549  14.106 -0.7539  0.0331  0.4955
  482TMC3    C5 7169   4.471   2.505  13.974 -0.3522 -0.1089  0.0070
  482TMC3    C6 7170   4.574   2.436  13.911 -0.0822 -0.7893 -0.5250
  482TMC3     C 7171   4.637   2.564  14.293 -1.1927 -0.0659 -0.6728
  482TMC3     O 7172   4.542   2.560  14.367 -0.3281  0.3706 -0.2705
  482TMC3     H 7173   0.065   2.407  14.171 -0.6310 -0.6319 -0.6292
  482TMC3    H1 7174   4.412   2.606  14.158  2.5916  2.3063  2.9330
  482TMC3    H2 7175   4.551   2.388  13.816 -1.0688  0.4943 -0.9405
  482TMC3    C7 7176   4.335   2.514  13.918 -0.4478  0.0908  0.1232
  482TMC3    C8 7177   0.064   2.308  13.918 -0.4890  0.0531 -0.2205
  482TMC3    O1 7178   4.240   2.468  13.981 -0.3418 -0.2083  0.0028
  482TMC3    O2 7179   0.029   2.259  13.814 -0.3597  0.6096 -0.2696
  483TMC3    C1 7180   2.986   2.019   0.845  0.5921 -0.4929  0.8690
  483TMC3    C2 7181   2.982   2.158   0.850 -0.5579 -0.0852  1.0505
  483TMC3    C3 7182   3.035   2.224   0.961  0.5318  0.6391  0.1410
  483TMC3    C4 7183   3.048   1.948   0.943 -0.0073 -0.2110 -0.1306
  483TMC3    C5 7184   3.100   2.013   1.052  0.5821 -0.6657 -0.0895
  483TMC3    C6 7185   3.100   2.150   1.058  0.1385  0.4130 -0.5402
  483TMC3     C 7186   2.899   1.965   0.742 -0.8054  0.4025 -0.5415
  483TMC3     O 7187   2.798   2.024   0.715 -0.1834  0.1233  0.1887
  483TMC3     H 7188   2.926   2.213   0.775  2.3420 -0.1548 -1.2100
  483TMC3    H1 7189   3.050   1.840   0.934  1.4479 -0.1225 -0.9601
  483TMC3    H2 7190   3.149   2.202   1.140  0.2021 -1.3288  0.5447
  483TMC3    C7 7191   3.161   1.931   1.143  0.1099 -0.6427  0.3616
  483TMC3    C8 7192   3.085   2.352   0.932  0.4490  0.3095  0.9466
  483TMC3    O1 7193   3.196   1.821   1.110 -0.1321  0.3812  0.2160
  483TMC3    O2 7194   3.075   2.383   0.813 -0.2725 -0.0183 -0.5853
  484MPD2     C 7195   0.229   0.248  12.555  0.8041  0.4999  0.3344
  484MPD2    C1 7196   0.250   0.129  12.490 -0.1938 -0.5072  0.0137
  484MPD2    C2 7197   0.332   0.119  12.371 -0.8563 -0.5199 -0.0679
  484MPD2    C3 7198   0.413   0.228  12.339  0.3395  0.7996  0.1561
  484MPD2    C4 7199   0.393   0.339  12.417 -0.5120 -0.0655 -0.1068
  484MPD2    C5 7200   0.299   0.360  12.509 -0.1579 -0.0000  0.1313
  484MPD2     H 7201   0.337   0.032  12.307  0.7967 -2.1054  2.2043
  484MPD2    H1 7202   0.452   0.428  12.397  1.3620 -0.9484  1.4265
  484MPD2    H2 7203   0.146   0.256  12.623  1.0539  1.6193  0.5034
  484MPD2    H3 7204   0.284   0.458  12.553  0.2554  0.3117 -0.4226
  484MPD2     N 7205   0.519   0.233  12.246 -0.7926 -0.6054  0.0723
  484MPD2    H5 7206   0.568   0.322  12.239 -2.1730  0.2699  1.6245
  484MPD2    N1 7207   0.169   0.014  12.531 -0.1100  0.4962 -0.1014
  484MPD2    H7 7208   0.112   0.011  12.616 -2.2416 -0.2507 -1.5439
  485TMC3    C1 7209   0.697   0.139  12.125  0.3793 -0.3968 -0.2169
  485TMC3    C2 7210   0.792   0.047  12.152  0.1388 -0.2128  0.1812
  485TMC3    C3 7211   0.924   0.072  12.137  0.5085  0.2411  0.6263
  485TMC3    C4 7212   0.738   0.258  12.082  0.3612  0.5167 -0.2672
  485TMC3    C5 7213   0.866   0.293  12.060 -0.5404 -0.4058  0.2459
  485TMC3    C6 7214   0.963   0.198  12.099 -0.5644 -0.3828 -0.1510
  485TMC3     C 7215   0.565   0.126  12.179  0.8037 -0.0573 -0.9218
  485TMC3     O 7216   0.537   0.007  12.179 -0.5821  0.2581 -0.2979
  485TMC3     H 7217   0.753   4.668  12.182  1.4845 -0.5869  0.7674
  485TMC3    H1 7218   0.655   0.324  12.057  0.5976  0.3730 -1.4362
  485TMC3    H2 7219   1.067   0.226  12.081 -0.9179  1.2710  0.3667
  485TMC3    C7 7220   0.904   0.334  11.927  1.2793 -0.7535 -0.3057
  485TMC3    C8 7221   1.033   4.695  12.133  0.2402  0.3951 -0.3235
  485TMC3    O1 7222   0.887   0.451  11.898  0.5635 -0.5123  0.7972
  485TMC3    O2 7223   1.132   0.027  12.081  0.3431  0.5558 -0.0516
  486MPD2     C 7224   2.469   3.688  12.987  0.3820  0.0571 -0.2268
  486MPD2    C1 7225   2.488   3.625  12.867  0.5907  0.4393 -0.5898
  486MPD2    C2 7226   2.466   3.695  12.749  0.4668 -0.6348  0.1810
  486MPD2    C3 7227   2.447   3.837  12.759  0.3568 -0.4439  0.3126
  486MPD2    C4 7228   2.428   3.896  12.883 -0.0196 -0.3784 -1.2178
  486MPD2    C5 7229   2.440   3.816  12.993  0.1179  0.5824  0.5748
  486MPD2     H 7230   2.470   3.646  12.652 -1.1192 -0.1432 -0.1326
  486MPD2    H1 7231   2.404   4.000  12.900 -1.1506 -0.9146  0.4530
  486MPD2    H2 7232   2.493   3.639  13.080  1.5648 -1.2551 -1.2113
  486MPD2    H3 7233   2.432   3.860  13.092  1.5468 -1.3338  1.5466
  486MPD2     N 7234   2.431   3.902  12.634  0.2360 -0.1692  0.7249
  486MPD2    H5 7235   2.442   3.840  12.555  0.6056  0.0848  0.5783
  486MPD2    N1 7236   2.518   3.485  12.870 -0.1257 -0.4092 -0.1232
  486MPD2    H7 7237   2.534   3.453  12.965  0.2483 -4.1674 -1.4629
  487TMC3    C1 7238   2.571   3.267  12.822  0.0626  0.1530  0.0125
  487TMC3    C2 7239   2.637   3.184  12.736  0.6227  0.2375  0.8439
  487TMC3    C3 7240   2.723   3.084  12.776 -0.1568 -0.6018 -0.0681
  487TMC3    C4 7241   2.579   3.240  12.954 -0.8275 -0.1978  0.1130
  487TMC3    C5 7242   2.660   3.138  12.997  0.4035 -0.0247 -0.4533
  487TMC3    C6 7243   2.733   3.064  12.911 -0.3809  0.0412  0.2245
  487TMC3     C 7244   2.528   3.398  12.770  0.3181 -0.4752  0.2488
  487TMC3     O 7245   2.511   3.411  12.650 -0.5530 -0.0438  0.2151
  487TMC3     H 7246   2.632   3.199  12.628  0.1165 -0.7514  0.7344
  487TMC3    H1 7247   2.500   3.287  13.011 -0.3671  0.9657 -0.1884
  487TMC3    H2 7248   2.785   2.977  12.950 -1.2012 -0.2007  0.7598
  487TMC3    C7 7249   2.625   3.067  13.122  0.1413  0.1330  0.1735
  487TMC3    C8 7250   2.778   2.992  12.675  0.0573  0.2346  0.4536
  487TMC3    O1 7251   2.652   2.950  13.135  0.0233 -0.4421  0.4421
  487TMC3    O2 7252   2.798   3.044  12.567  0.3648 -0.2268 -0.7198
  488MPD2     C 7253   2.689   4.634  16.742  0.4933  0.0479  0.4737
  488MPD2    C1 7254   2.786   0.011  16.703  0.7758 -0.2856 -0.3876
  488MPD2    C2 7255   2.892   0.050  16.782  0.1068 -0.8073 -0.2814
  488MPD2    C3 7256   2.894   4.708  16.912 -0.6678  0.5124 -0.6122
  488MPD2    C4 7257   2.803   4.616  16.955  0.8880  0.3035  0.4898
  488MPD2    C5 7258   2.698   4.579  16.866 -0.1946 -0.5629 -0.2213
  488MPD2     H 7259   2.962   0.130  16.761 -0.8881  0.1614  0.0997
  488MPD2    H1 7260   2.802   4.559  17.047 -2.5142 -0.2637  0.0925
  488MPD2    H2 7261   2.608   4.596  16.680  1.2392 -0.1287 -0.3847
  488MPD2    H3 7262   2.632   4.504  16.908  0.4289  0.7722  3.2093
  488MPD2     N 7263   2.977   0.048  17.004  1.2787  0.1428  0.1396
  488MPD2    H5 7264   3.034   0.120  16.961  3.5448 -0.6562  1.8202
  488MPD2    N1 7265   2.777   0.067  16.573 -0.1701 -0.8780 -0.1170
  488MPD2    H7 7266   2.680   0.067  16.541 -0.3680 -0.0054  0.4995
  489TMC3    C1 7267   3.058   0.135  17.208 -0.0435  0.9089  0.6004
  489TMC3    C2 7268   3.042   0.270  17.171 -0.3516 -0.4107 -0.0927
  489TMC3    C3 7269   3.067   0.364  17.268  0.7477  0.5675 -0.5893
  489TMC3    C4 7270   3.107   0.101  17.333 -0.2527 -0.1945 -0.3666
  489TMC3    C5 7271   3.103   0.197  17.429 -0.0826  0.2529 -0.2995
  489TMC3    C6 7272   3.088   0.327  17.402  0.1990  0.7584  0.0502
  489TMC3     C 7273   2.986   0.033  17.137  0.3584  0.0996 -1.4197
  489TMC3     O 7274   2.932   4.668  17.209  0.2205 -0.6322  0.2575
  489TMC3     H 7275   3.009   0.311  17.076  1.5378 -0.3705 -0.7337
  489TMC3    H1 7276   3.121   4.713  17.353  1.9498 -0.2565 -2.2508
  489TMC3    H2 7277   3.096   0.396  17.485  1.1379  0.5301  0.1453
  489TMC3    C7 7278   3.076   0.161  17.567  0.5187 -0.1447 -0.7169
  489TMC3    C8 7279   3.002   0.494  17.241  0.6882  0.3188  0.4495
  489TMC3    O1 7280   3.089   0.242  17.657  0.8937 -0.6818 -0.0793
  489TMC3    O2 7281   2.895   0.484  17.177  0.1580  0.2821  0.7811
  490MPD2     C 7282   3.895   0.303   0.018  0.5119  0.2285  0.5594
  490MPD2    C1 7283   3.929   0.189   0.093 -0.5779  0.0382  0.6154
  490MPD2    C2 7284   4.041   0.187   0.174  0.8263 -0.3148  0.1549
  490MPD2    C3 7285   4.130   0.296   0.176  0.1503  0.0307 -0.3420
  490MPD2    C4 7286   4.082   0.409   0.112  0.6422 -0.3577  0.3135
  490MPD2    C5 7287   3.973   0.415   0.032  0.3197 -0.4033  0.0148
  490MPD2     H 7288   4.078   0.101   0.228  1.0453  0.1260  0.7029
  490MPD2    H1 7289   4.142   0.500   0.113 -0.1791  0.1795  0.5730
  490MPD2    H2 7290   3.800   0.312  17.642  1.0719 -2.2096 -0.9381
  490MPD2    H3 7291   3.950   0.505  17.650 -2.0623 -1.8857 -1.3574
  490MPD2     N 7292   4.254   0.305   0.242  0.1534  0.2382  0.0969
  490MPD2    H5 7293   4.320   0.378   0.215 -0.2973 -0.0052 -1.6623
  490MPD2    N1 7294   3.857   0.069   0.089 -0.5318 -0.7679 -0.1710
  490MPD2    H7 7295   3.869   0.011   0.172 -1.6192 -1.9841 -0.8602
  491TMC3    C1 7296   3.756   4.602  17.664  0.1542 -0.0120  0.5239
  491TMC3    C2 7297   3.787   4.526   0.099  0.2214 -0.1745 -0.0096
  491TMC3    C3 7298   3.771   4.388   0.065 -0.5373  0.1466 -0.4249
  491TMC3    C4 7299   3.710   4.557  17.541  0.1327 -0.0114 -0.8615
  491TMC3    C5 7300   3.672   4.430  17.531 -0.1648  0.3055 -1.2430
  491TMC3    C6 7301   3.713   4.341  17.624  0.2608 -0.2820  0.0131
  491TMC3     C 7302   3.791   0.025  17.653  0.4846  0.0369 -0.7410
  491TMC3     O 7303   3.788   0.084  17.544  0.7461 -0.2027  0.2212
  491TMC3     H 7304   3.830   4.565   0.190  2.1792 -0.4048 -0.8402
  491TMC3    H1 7305   3.684   4.626  17.462  2.2282  1.2516 -0.4580
  491TMC3    H2 7306   3.674   4.241  17.608  0.3393 -0.5904  1.7352
  491TMC3    C7 7307   3.589   4.387  17.417  0.1616 -0.0844 -0.5175
  491TMC3    C8 7308   3.760   4.295   0.169 -0.4230  0.3600  0.3467
  491TMC3    O1 7309   3.609   4.273  17.377 -0.1234 -0.7591  0.1220
  491TMC3    O2 7310   3.731   4.340   0.279  0.2532 -0.4838  0.2024
  492MPD2     C 7311   4.139   3.897  10.804  0.2093 -0.1537 -0.6262
  492MPD2    C1 7312   3.999   3.887  10.807 -0.4976 -0.6250 -0.3732
  492MPD2    C2 7313   3.937   3.914  10.926 -0.0789 -0.4768 -1.1250
  492MPD2    C3 7314   4.010   3.946  11.041  0.5224  0.2156  0.1519
  492MPD2    C4 7315   4.142   3.968  11.028  0.8657 -0.2425 -0.2529
  492MPD2    C5 7316   4.204   3.943  10.911  0.1259  0.4100  0.5028
  492MPD2     H 7317   3.829   3.913  10.933 -0.0741 -0.6533 -1.0830
  492MPD2    H1 7318   4.204   4.021  11.099 -0.4786 -2.0289  2.2569
  492MPD2    H2 7319   4.186   3.880  10.708  1.3893  1.8185 -0.4046
  492MPD2    H3 7320   4.309   3.971  10.908  0.4590 -0.9310 -0.6507
  492MPD2     N 7321   3.950   3.969  11.167 -0.1273  0.5033  0.0035
  492MPD2    H5 7322   4.013   3.995  11.243 -1.5704  0.9942  1.0436
  492MPD2    N1 7323   3.939   3.883  10.680  0.7221  0.2855  0.1450
  492MPD2    H7 7324   3.998   3.879  10.598 -0.6312  1.4442 -0.9022
  493TMC3    C1 7325   3.756   3.848  10.536  0.7258 -0.3239 -0.5246
  493TMC3    C2 7326   3.833   3.915  10.444  0.2521 -0.6876  0.4078
  493TMC3    C3 7327   3.789   3.910  10.318 -0.4638 -0.3461 -0.1011
  493TMC3    C4 7328   3.639   3.779  10.511  0.9297 -0.1097 -0.5549
  493TMC3    C5 7329   3.610   3.762  10.377  0.0071  0.6821 -0.2398
  493TMC3    C6 7330   3.681   3.833  10.280 -0.0213  0.7723 -0.7695
  493TMC3     C 7331   3.803   3.852  10.669 -0.6306 -0.6071  0.3486
  493TMC3     O 7332   3.717   3.837  10.752 -0.3584  0.0384  0.1255
  493TMC3     H 7333   3.917   3.978  10.472 -0.9508  0.4589  1.4101
  493TMC3    H1 7334   3.580   3.734  10.590 -0.2072 -2.4787 -2.7483
  493TMC3    H2 7335   3.645   3.826  10.178 -1.2958  2.2975 -0.4316
  493TMC3    C7 7336   3.484   3.708  10.344  0.0114  0.3323 -0.0476
  493TMC3    C8 7337   3.871   3.939  10.200  0.3100 -0.0674 -0.5607
  493TMC3    O1 7338   3.428   3.758  10.247  0.2627 -0.0397  0.2752
  493TMC3    O2 7339   3.835   3.882  10.098 -0.0550  0.1767 -0.5849
  494TMC3    C1 7340   0.315   1.576   0.821  0.0913  0.5545  1.1524
  494TMC3    C2 7341   0.398   1.465   0.838  0.6832 -0.9171 -0.0012
  494TMC3    C3 7342   0.419   1.397   0.726  0.4025  0.2868  0.2133
  494TMC3    C4 7343   0.248   1.601   0.700  0.7237  0.4917  0.3862
  494TMC3    C5 7344   0.273   1.519   0.589 -0.0752 -0.1201  0.1491
  494TMC3    C6 7345   0.357   1.420   0.600  0.7955 -0.0845 -0.6965
  494TMC3     C 7346   0.335   1.682   0.920  0.0809  0.3780  0.1253
  494TMC3     O 7347   0.254   1.772   0.903 -0.4486  0.0217 -0.0310
  494TMC3     H 7348   0.456   1.438   0.925 -1.5958 -0.4886  1.6505
  494TMC3    H1 7349   0.182   1.687   0.691  0.4232  0.0746 -1.2372
  494TMC3    H2 7350   0.349   1.345   0.522  0.1463 -1.8867  1.0836
  494TMC3    C7 7351   0.211   1.539   0.463  0.3221  0.1927  0.5184
  494TMC3    C8 7352   0.494   1.274   0.735 -0.4402  0.1470 -0.0439
  494TMC3    O1 7353   0.198   1.443   0.393  0.2353  0.8633 -0.7687
  494TMC3    O2 7354   0.504   1.219   0.844  0.2973  0.4100  0.4142
  495TMC3    C1 7355   3.456   3.446  14.371 -0.5611  0.5182  0.9983
  495TMC3    C2 7356   3.351   3.511  14.305 -0.3715 -0.6944 -0.5910
  495TMC3    C3 7357   3.250   3.567  14.380  0.3729 -0.3126  0.6046
  495TMC3    C4 7358   3.471   3.448  14.504 -0.5888 -0.0044 -0.3195
  495TMC3    C5 7359   3.362   3.487  14.576 -0.6219 -0.8221  0.1767
  495TMC3    C6 7360   3.259   3.552  14.519 -0.6281 -0.1282  1.0674
  495TMC3     C 7361   3.450   3.311  14.318  0.0697  0.4564  0.4647
  495TMC3     O 7362   3.341   3.285  14.268 -0.0523  0.0398  0.0919
  495TMC3     H 7363   3.342   3.506  14.197 -0.6891 -0.5251 -0.5714
  495TMC3    H1 7364   3.548   3.394  14.558 -2.1753 -2.6821 -0.7109
  495TMC3    H2 7365   3.180   3.600  14.577 -0.3865  1.7525 -0.1601
  495TMC3    C7 7366   3.350   3.447  14.715 -0.1679 -0.1397 -0.0102
  495TMC3    C8 7367   3.115   3.536  14.324  0.4944  0.4093 -0.5928
  495TMC3    O1 7368   3.456   3.415  14.767 -0.4086  0.0840  0.4260
  495TMC3    O2 7369   3.026   3.573  14.397  0.2406 -0.4449 -0.7067
  496MPD2     C 7370   0.596   3.534  15.480 -0.3318  0.4348 -0.0183
  496MPD2    C1 7371   0.498   3.435  15.487  0.0583 -0.5853 -0.0067
  496MPD2    C2 7372   0.392   3.450  15.576 -0.0132 -0.0656  0.0195
  496MPD2    C3 7373   0.384   3.570  15.645  0.2188  0.5200  0.3054
  496MPD2    C4 7374   0.488   3.658  15.651 -0.1081 -0.2471 -0.4385
  496MPD2    C5 7375   0.594   3.639  15.568  0.0676 -0.5395 -0.3433
  496MPD2     H 7376   0.305   3.386  15.583 -0.7398  0.8035 -0.9092
  496MPD2    H1 7377   0.490   3.746  15.713 -0.5153 -1.5189  1.3721
  496MPD2    H2 7378   0.679   3.519  15.411 -1.0751 -0.8126 -0.6387
  496MPD2    H3 7379   0.673   3.712  15.578 -1.4995  1.2180 -0.7613
  496MPD2     N 7380   0.274   3.614  15.725  0.4221 -0.3620  0.4322
  496MPD2    H5 7381   0.289   3.694  15.786 -0.9433  1.0916 -1.1261
  496MPD2    N1 7382   0.509   3.326  15.397  0.3832  0.8216  0.6311
  496MPD2    H7 7383   0.576   3.331  15.321  0.6125 -1.8563  0.6697
  497TMC3    C1 7384   0.043   3.628  15.797  0.4406  0.6660  0.0429
  497TMC3    C2 7385   4.635   3.643  15.746  0.4457 -0.5922 -0.2713
  497TMC3    C3 7386   4.537   3.702  15.821  0.3723  0.5237  0.1391
  497TMC3    C4 7387   0.079   3.672  15.928  0.1907  0.0233  0.2297
  497TMC3    C5 7388   4.697   3.738  15.994  0.3577  0.1815 -0.0621
  497TMC3    C6 7389   4.568   3.757  15.942  0.0394 -0.9609  0.1447
  497TMC3     C 7390   0.142   3.565  15.716 -0.5945 -0.0241  0.6193
  497TMC3     O 7391   0.093   3.484  15.642  0.3482  0.3990 -0.3848
  497TMC3     H 7392   4.626   3.638  15.638 -0.2925 -2.1297 -0.1278
  497TMC3    H1 7393   0.174   3.651  15.975  0.7254  1.8766 -0.0427
  497TMC3    H2 7394   4.492   3.799  16.007  0.4245  1.2746 -0.8660
  497TMC3    C7 7395   4.694   3.713  16.135  0.4639  0.6089  0.3789
  497TMC3    C8 7396   4.400   3.692  15.785  0.1918  0.1047  0.6431
  497TMC3    O1 7397   4.592   3.658  16.182  0.6400  0.8915  0.4079
  497TMC3    O2 7398   4.310   3.728  15.860 -0.5556 -0.0044  0.2163
  498MPD2     C 7399   1.639   3.309   9.401 -0.3195 -0.4501  0.0706
  498MPD2    C1 7400   1.567   3.414   9.447  0.1784 -0.3634  0.3125
  498MPD2    C2 7401   1.444   3.385   9.507 -0.0996 -0.3360  0.4722
  498MPD2    C3 7402   1.392   3.257   9.495  0.0983  0.7178 -0.1755
  498MPD2    C4 7403   1.453   3.154   9.421 -0.0186  0.1169  0.6789
  498MPD2    C5 7404   1.584   3.184   9.377 -0.0938  0.0632 -0.7171
  498MPD2     H 7405   1.392   3.466   9.557  2.2185  0.4832  1.5910
  498MPD2    H1 7406   1.413   3.054   9.414  1.8062 -0.5639  0.0052
  498MPD2    H2 7407   1.740   3.336   9.372 -0.8220 -0.4706 -1.6780
  498MPD2    H3 7408   1.648   3.112   9.327  1.3502  0.4858  0.5485
  498MPD2     N 7409   1.278   3.229   9.567 -0.0201 -0.8565 -0.2618
  498MPD2    H5 7410   1.260   3.305   9.631  1.5060  0.6106 -1.5912
  498MPD2    N1 7411   1.620   3.542   9.454  0.0083 -0.3540 -0.0706
  498MPD2    H7 7412   1.571   3.609   9.512 -0.8843 -0.4536 -0.6950
  499TMC3    C1 7413   1.763   3.726   9.475 -0.7970  0.2448  0.3213
  499TMC3    C2 7414   1.705   3.753   9.600 -0.2741  0.5737  0.5009
  499TMC3    C3 7415   1.728   3.877   9.652  0.6367 -0.3033  0.1375
  499TMC3    C4 7416   1.854   3.802   9.410 -0.6066  0.2058 -0.0317
  499TMC3    C5 7417   1.874   3.930   9.461  0.1503 -0.2838 -0.1434
  499TMC3    C6 7418   1.808   3.969   9.573 -0.4530  0.5195 -0.4843
  499TMC3     C 7419   1.747   3.589   9.416 -0.1372  0.2116 -0.7145
  499TMC3     O 7420   1.832   3.537   9.345 -0.5071 -0.1981  0.4196
  499TMC3     H 7421   1.645   3.684   9.657 -0.4309  1.5855  1.5599
  499TMC3    H1 7422   1.905   3.770   9.320  0.1773 -0.8672  0.7907
  499TMC3    H2 7423   1.832   4.063   9.622 -1.0942  1.2673 -1.5914
  499TMC3    C7 7424   1.916   4.043   9.373  0.1177  0.0287  0.1318
  499TMC3    C8 7425   1.632   3.928   9.750  0.2424  0.1482 -0.1936
  499TMC3    O1 7426   1.923   4.155   9.417  0.5111  0.0657  0.4682
  499TMC3    O2 7427   1.530   3.861   9.756  0.8921 -0.3610  0.0304
  500MPD2     C 7428   3.222   0.194   9.801 -0.5755 -0.0489  0.0362
  500MPD2    C1 7429   3.180   0.293   9.888  0.5626  0.0539  0.2378
  500MPD2    C2 7430   3.086   0.383   9.851 -0.3696  0.1995  0.5989
  500MPD2    C3 7431   3.043   0.387   9.726 -0.1119  0.2060  0.6534
  500MPD2    C4 7432   3.069   0.287   9.641 -0.5164 -0.2349 -0.1492
  500MPD2    C5 7433   3.164   0.200   9.685 -0.3511 -0.1393  0.2778
  500MPD2     H 7434   3.037   0.449   9.920 -0.8431 -1.1474  1.5516
  500MPD2    H1 7435   3.022   0.286   9.544  0.5408 -0.2335 -0.6684
  500MPD2    H2 7436   3.283   0.109   9.830  0.7790  2.0330  3.2624
  500MPD2    H3 7437   3.195   0.128   9.609 -0.3468 -0.4434  0.5662
  500MPD2     N 7438   2.957   0.482   9.677 -0.5241 -0.0040  0.2051
  500MPD2    H5 7439   2.924   0.464   9.583 -1.0423  0.2545  0.3413
  500MPD2    N1 7440   3.239   0.306  10.017 -0.1646 -0.5517  0.2589
  500MPD2    H7 7441   3.210   0.386  10.072 -0.3212 -0.2165 -0.3241
  501TMC3    C1 7442   3.400   0.301  10.173 -0.7951  0.2161 -0.2069
  501TMC3    C2 7443   3.343   0.420  10.225 -0.9518  0.2062  0.4610
  501TMC3    C3 7444   3.373   0.445  10.357 -0.0336  0.4202  0.3092
  501TMC3    C4 7445   3.477   0.216  10.246 -0.3420  0.3906 -0.1577
  501TMC3    C5 7446   3.504   0.258  10.370 -0.4102 -0.3114  0.0054
  501TMC3    C6 7447   3.460   0.371  10.440 -0.8067  0.1551 -0.1569
  501TMC3     C 7448   3.352   0.242  10.052  0.1752  0.4458 -0.7516
  501TMC3     O 7449   3.418   0.157   9.999  0.1036  0.1680  0.7649
  501TMC3     H 7450   3.306   0.485  10.148  1.2427  0.3541 -0.4739
  501TMC3    H1 7451   3.525   0.133  10.195 -1.2516  1.3799 -2.6230
  501TMC3    H2 7452   3.490   0.394  10.541  1.6697  0.5282 -0.9814
  501TMC3    C7 7453   3.617   0.194  10.434  0.3421  0.0236  0.1142
  501TMC3    C8 7454   3.339   0.566  10.428  0.0986 -0.3108 -0.2379
  501TMC3    O1 7455   3.627   0.224  10.552  0.1270  0.4718 -0.9507
  501TMC3    O2 7456   3.378   0.594  10.536  0.4477  0.2680 -0.2659
  502TMC3    C1 7457   2.575   4.063  15.168  0.1850 -0.4703  0.4446
  502TMC3    C2 7458   2.568   4.186  15.121  0.8486 -0.7712  0.3574
  502TMC3    C3 7459   2.454   4.257  15.133 -0.0032  0.1343  0.1275
  502TMC3    C4 7460   2.470   3.996  15.223  0.3337 -0.2052  0.5547
  502TMC3    C5 7461   2.354   4.073  15.246 -0.1014 -0.0774  0.1732
  502TMC3    C6 7462   2.349   4.209  15.204 -0.4808  0.0157  0.8894
  502TMC3     C 7463   2.698   4.064  15.244  0.1241 -0.0044  0.2700
  502TMC3     O 7464   2.801   4.117  15.198 -0.2641 -0.7651 -0.3016
  502TMC3     H 7465   2.647   4.219  15.054 -0.8421  1.4044 -0.5255
  502TMC3    H1 7466   2.473   3.893  15.257  0.7751 -0.3706  0.0275
  502TMC3    H2 7467   2.254   4.260  15.214 -0.9580 -0.5821 -0.6705
  502TMC3    C7 7468   2.286   4.036  15.368  0.4314  0.1709  0.5923
  502TMC3    C8 7469   2.465   4.409  15.118 -0.1682  0.4812  0.0523
  502TMC3    O1 7470   2.351   3.959  15.444  0.0573 -0.3532  0.6848
  502TMC3    O2 7471   2.547   4.454  15.041 -0.1027 -0.1646  0.3897
  503MPD2     C 7472   0.320   0.246  17.022  0.6397  0.0355  0.2370
  503MPD2    C1 7473   0.333   0.291  17.152 -0.6132 -0.3563  0.3539
  503MPD2    C2 7474   0.370   0.195  17.250 -0.1735 -0.1842 -0.3935
  503MPD2    C3 7475   0.412   0.067  17.223  0.2478  1.0982  0.0826
  503MPD2    C4 7476   0.394   0.029  17.093  0.6370 -0.4469 -0.2572
  503MPD2    C5 7477   0.354   0.113  16.996 -0.2878  0.0586 -0.4370
  503MPD2     H 7478   0.379   0.222  17.354 -0.4105 -0.6751 -0.2487
  503MPD2    H1 7479   0.416   4.645  17.061 -0.0182 -0.7035  0.1104
  503MPD2    H2 7480   0.285   0.309  16.940  0.3662 -0.7375 -0.2401
  503MPD2    H3 7481   0.340   0.073  16.897 -0.3948 -2.0108  0.4130
  503MPD2     N 7482   0.450   4.696  17.323  0.3729  0.5037  0.4412
  503MPD2    H5 7483   0.428   4.716  17.420  1.5751  0.2623  0.7729
  503MPD2    N1 7484   0.298   0.423  17.196 -0.6968 -0.5301 -0.0997
  503MPD2    H7 7485   0.311   0.436  17.295 -2.8195 -2.0286  0.3626
  504TMC3    C1 7486   0.564   4.492  17.405 -0.0960 -0.6350  0.2128
  504TMC3    C2 7487   0.465   4.431  17.481  0.1069  0.3647 -0.2310
  504TMC3    C3 7488   0.477   4.292  17.499 -0.5656 -0.1210 -0.1817
  504TMC3    C4 7489   0.672   4.420  17.368 -0.6349 -0.0421 -0.6000
  504TMC3    C5 7490   0.667   4.282  17.368  0.0531  0.1977  0.1024
  504TMC3    C6 7491   0.569   4.213  17.439 -0.0431 -0.1584 -0.0832
  504TMC3     C 7492   0.535   4.590  17.300 -0.0397 -0.2847  0.4545
  504TMC3     O 7493   0.604   4.572  17.198 -0.0044 -0.0704  0.1914
  504TMC3     H 7494   0.390   4.498  17.522 -0.8018 -0.3106 -0.8113
  504TMC3    H1 7495   0.755   4.474  17.323  0.0607 -1.1167 -0.6033
  504TMC3    H2 7496   0.568   4.106  17.458 -0.5146  0.2659  2.3092
  504TMC3    C7 7497   0.742   4.222  17.257 -0.7111 -0.4083 -0.3402
  504TMC3    C8 7498   0.380   4.239  17.587  0.1221  0.1502 -0.3434
  504TMC3    O1 7499   0.794   4.310  17.190 -0.5350 -0.1683 -0.5113
  504TMC3    O2 7500   0.270   4.293  17.588 -0.3819 -0.3438 -0.1850
  505MPD2     C 7501   0.344   3.006  10.490 -0.2159  0.0118 -0.1982
  505MPD2    C1 7502   0.429   2.913  10.548 -0.3642 -0.3612  0.0701
  505MPD2    C2 7503   0.533   2.960  10.624  0.4006  0.2289  0.1245
  505MPD2    C3 7504   0.561   3.093  10.640  0.7766 -0.3324  0.2672
  505MPD2    C4 7505   0.472   3.181  10.586  0.4247 -0.2944  0.1616
  505MPD2    C5 7506   0.363   3.135  10.522 -0.3425 -0.1547  0.2829
  505MPD2     H 7507   0.592   2.890  10.682 -0.6686 -2.3433 -1.9197
  505MPD2    H1 7508   0.478   3.288  10.604 -0.8958 -0.1323 -0.3174
  505MPD2    H2 7509   0.251   2.977  10.442  1.2891 -3.1517 -1.1541
  505MPD2    H3 7510   0.297   3.217  10.495  0.6242 -0.2160 -2.2205
  505MPD2     N 7511   0.669   3.119  10.721 -0.1606 -0.0241  0.4065
  505MPD2    H5 7512   0.718   3.034  10.748  2.1414  1.2335  0.1378
  505MPD2    N1 7513   0.407   2.770  10.547  0.4113 -0.3607  0.1648
  505MPD2    H7 7514   0.480   2.718  10.596  0.8633  0.1316  0.0174
  506TMC3    C1 7515   0.361   2.563  10.447 -0.9111  1.0432  0.1678
  506TMC3    C2 7516   0.339   2.529  10.310 -0.1275  0.1277 -0.1129
  506TMC3    C3 7517   0.419   2.433  10.261 -0.0348 -0.2215  0.6305
  506TMC3    C4 7518   0.454   2.500  10.521 -0.4190  0.6166  0.2158
  506TMC3    C5 7519   0.522   2.390  10.466  0.0301  0.0947 -0.3789
  506TMC3    C6 7520   0.500   2.349  10.338  0.0262  0.1714 -0.7272
  506TMC3     C 7521   0.314   2.705  10.476  0.0008 -0.8781  0.3396
  506TMC3     O 7522   0.229   2.753  10.401 -0.6927  0.2473  0.3435
  506TMC3     H 7523   0.290   2.604  10.248 -1.7291 -1.6837 -1.0183
  506TMC3    H1 7524   0.469   2.525  10.625  0.4878 -0.1632  0.2721
  506TMC3    H2 7525   0.571   2.284  10.289  0.5598  0.6112 -0.5330
  506TMC3    C7 7526   0.658   2.359  10.515  0.5890  0.2147  0.5412
  506TMC3    C8 7527   0.449   2.441  10.117 -0.3153  0.4708  0.0634
  506TMC3    O1 7528   0.714   2.257  10.474  0.2210 -0.1322  0.5664
  506TMC3    O2 7529   0.463   2.331  10.064  0.0532 -0.4869 -0.0364
  507TMC3    C1 7530   0.646   4.504  14.236  0.5247 -0.3035 -0.5183
  507TMC3    C2 7531   0.517   4.474  14.278 -0.0036 -0.0760 -0.3955
  507TMC3    C3 7532   0.413   4.528  14.210 -0.6387 -0.9425 -0.2774
  507TMC3    C4 7533   0.662   4.603  14.145 -0.2009  0.7413  0.4500
  507TMC3    C5 7534   0.556   4.663  14.081  0.1937  0.6085 -0.2489
  507TMC3    C6 7535   0.432   4.618  14.107 -0.0944 -0.4067 -0.0129
  507TMC3     C 7536   0.763   4.460  14.314 -0.1633  0.5606  0.9381
  507TMC3     O 7537   0.864   4.527  14.292 -0.6065 -1.0588  0.4248
  507TMC3     H 7538   0.504   4.408  14.363  5.4168 -2.1295 -1.1124
  507TMC3    H1 7539   0.765   4.632  14.130  0.1482 -0.3351  0.7524
  507TMC3    H2 7540   0.353   4.658  14.044 -0.5258  0.6035  1.1668
  507TMC3    C7 7541   0.536   0.091  14.096  0.0779 -0.1770  0.3647
  507TMC3    C8 7542   0.297   4.562  14.295  0.1120 -0.4675  0.6383
  507TMC3    O1 7543   0.424   0.140  14.096 -0.1162 -0.0624  0.2505
  507TMC3    O2 7544   0.321   4.550  14.415  0.0123  0.6262 -0.4291
  508MPD2     C 7545   1.577   2.054  16.040 -0.1308  0.3670  0.0425
  508MPD2    C1 7546   1.706   2.107  16.030  0.5449 -0.0672  0.0823
  508MPD2    C2 7547   1.750   2.143  15.905  0.0887  0.1428  0.0554
  508MPD2    C3 7548   1.681   2.109  15.794 -0.2235  0.3070  0.4530
  508MPD2    C4 7549   1.562   2.038  15.804 -0.3453  0.9503 -0.0545
  508MPD2    C5 7550   1.502   2.024  15.925 -0.0497 -0.0640  0.0594
  508MPD2     H 7551   1.850   2.183  15.893  0.2508  0.3879  2.2741
  508MPD2    H1 7552   1.509   2.003  15.716  0.5701  0.9134 -0.5898
  508MPD2    H2 7553   1.539   2.028  16.139  0.4108  2.0614  0.7037
  508MPD2    H3 7554   1.408   1.972  15.937  0.8982 -1.8115  0.0555
  508MPD2     N 7555   1.735   2.143  15.666  0.1966  0.1007 -0.9127
  508MPD2    H5 7556   1.816   2.204  15.667  1.8390 -2.0682 -2.1620
  508MPD2    N1 7557   1.769   2.151  16.147 -0.1053  0.8182  0.3400
  508MPD2    H7 7558   1.711   2.145  16.230  1.3704 -0.8837  1.2524
  509TMC3    C1 7559   1.696   2.425  15.338 -0.3759  0.7447  0.7014
  509TMC3    C2 7560   1.826   2.459  15.361  0.9099 -0.5388  0.6168
  509TMC3    C3 7561   1.910   2.367  15.416  0.4532 -0.5063  0.2165
  509TMC3    C4 7562   1.648   2.306  15.379 -0.5070 -0.2403  0.5171
  509TMC3    C5 7563   1.734   2.222  15.447  0.4421  0.5929  0.1990
  509TMC3    C6 7564   1.865   2.246  15.454  0.3690  0.4320  0.1095
  509TMC3     C 7565   1.593   2.529  15.300 -0.0533  0.3259 -0.1361
  509TMC3     O 7566   1.475   2.504  15.327 -0.2007 -0.0545 -0.0431
  509TMC3     H 7567   1.858   2.560  15.337 -0.4600 -0.4704 -0.9061
  509TMC3    H1 7568   1.546   2.271  15.365 -0.9151  0.4246  1.7929
  509TMC3    H2 7569   1.936   2.183  15.505  0.8414  1.1842  0.3759
  509TMC3    C7 7570   1.666   2.153  15.549 -0.2554  0.3914 -0.3415
  509TMC3    C8 7571   2.050   2.405  15.440  0.5319  0.0271  0.6940
  509TMC3    O1 7572   1.555   2.102  15.529  0.8539  0.4409 -0.4430
  509TMC3    O2 7573   2.122   2.307  15.463 -0.1243 -0.0893 -0.2033
  510MPD2     C 7574   0.004   3.842  14.555  0.1307  0.3555  0.2624
  510MPD2    C1 7575   0.091   3.757  14.612 -0.6429  0.3933  0.2045
  510MPD2    C2 7576   0.213   3.722  14.551 -0.2056 -0.3225 -0.6873
  510MPD2    C3 7577   0.246   3.772  14.423  0.8462  0.7932 -0.5114
  510MPD2    C4 7578   0.153   3.866  14.370  0.0580  0.4170 -0.6420
  510MPD2    C5 7579   0.047   3.914  14.443 -0.4908 -0.1980 -0.6884
  510MPD2     H 7580   0.277   3.650  14.600 -0.3232 -0.1420 -0.2702
  510MPD2    H1 7581   0.161   3.908  14.271 -1.5253  1.4220 -0.3489
  510MPD2    H2 7582   4.644   3.887  14.616 -1.8924 -0.4742 -1.7125
  510MPD2    H3 7583   4.700   3.992  14.404  0.3352  0.2791 -1.0934
  510MPD2     N 7584   0.371   3.753  14.362 -0.6279  0.4247 -0.5570
  510MPD2    H5 7585   0.438   3.702  14.419 -0.3579  2.6411  1.1625
  510MPD2    N1 7586   0.043   3.718  14.744  0.1874 -0.6273 -0.4802
  510MPD2    H7 7587   4.667   3.749  14.770  0.8575  0.6514  0.3896
  511TMC3    C1 7588   0.017   3.593  14.923  0.2236 -0.2860  0.0509
  511TMC3    C2 7589   0.018   3.644  15.047  0.1697 -0.3672 -0.2463
  511TMC3    C3 7590   4.626   3.603  15.123  1.2716 -0.0156 -0.0611
  511TMC3    C4 7591   4.651   3.501  14.871 -0.3092  0.5169 -0.2375
  511TMC3    C5 7592   4.542   3.474  14.952 -0.7347  0.4418 -0.5651
  511TMC3    C6 7593   4.531   3.510  15.081  0.1065  0.3203 -0.4079
  511TMC3     C 7594   0.109   3.654  14.837  0.0687  0.4433 -0.1240
  511TMC3     O 7595   0.230   3.658  14.865  0.6183  0.0114  0.2448
  511TMC3     H 7596   0.080   3.729  15.072  0.6704 -0.2938 -1.7247
  511TMC3    H1 7597   4.657   3.470  14.768 -2.7721 -1.4928  0.2310
  511TMC3    H2 7598   4.445   3.485  15.142  0.4227  0.0462 -0.0752
  511TMC3    C7 7599   4.464   3.367  14.890  0.4771 -0.1444  0.1886
  511TMC3    C8 7600   4.577   3.689  15.233  1.0630 -0.9457  0.6306
  511TMC3    O1 7601   4.447   3.379  14.769  0.8587 -0.1607 -0.1426
  511TMC3    O2 7602   4.457   3.705  15.250 -0.1719 -0.1432 -0.4102
  512TMC3    C1 7603   3.046   3.245  12.946  0.0377 -0.9169 -0.2079
  512TMC3    C2 7604   3.053   3.193  13.074 -0.0136  0.1497 -0.9473
  512TMC3    C3 7605   3.080   3.058  13.073 -0.3590  0.2744 -0.3437
  512TMC3    C4 7606   3.091   3.185  12.830  0.4925  0.6408  0.2073
  512TMC3    C5 7607   3.127   3.052  12.842 -0.5792 -0.1926 -0.8898
  512TMC3    C6 7608   3.115   2.982  12.957  0.7330 -0.8688  0.4118
  512TMC3     C 7609   2.995   3.374  12.924  0.3282 -1.1981  0.2099
  512TMC3     O 7610   2.970   3.418  12.814  0.1161 -0.5195  0.2327
  512TMC3     H 7611   3.029   3.233  13.172  0.9467  0.4472 -0.8291
  512TMC3    H1 7612   3.091   3.240  12.737  0.1106 -1.0996 -0.8079
  512TMC3    H2 7613   3.143   2.880  12.981  2.4337 -0.2783  0.9333
  512TMC3    C7 7614   3.192   2.996  12.722  0.3351 -1.0593 -0.3026
  512TMC3    C8 7615   3.124   2.990  13.192  0.3083  0.5390 -0.5660
  512TMC3    O1 7616   3.168   3.053  12.616  0.8214 -0.5544 -0.3020
  512TMC3    O2 7617   3.100   2.873  13.210  0.2581  0.3142 -0.2233
  513MPD2     C 7618   0.298   2.826  12.816 -0.8093 -0.9542  0.8792
  513MPD2    C1 7619   0.427   2.853  12.773 -0.2072  0.4052  0.7544
  513MPD2    C2 7620   0.489   2.969  12.813  0.6972  0.5259 -0.5315
  513MPD2    C3 7621   0.427   3.054  12.906 -0.1170 -0.0267 -0.6513
  513MPD2    C4 7622   0.302   3.029  12.948 -0.4986  1.2199 -0.6728
  513MPD2    C5 7623   0.234   2.918  12.899 -0.7459  0.0363 -0.0997
  513MPD2     H 7624   0.595   2.986  12.795  1.0773 -1.7786 -0.4982
  513MPD2    H1 7625   0.253   3.095  13.019 -1.1345  0.0718 -0.0582
  513MPD2    H2 7626   0.251   2.732  12.790  1.1918 -2.4873  2.8678
  513MPD2    H3 7627   0.130   2.902  12.927 -0.4331 -0.4293  0.7816
  513MPD2     N 7628   0.497   3.171  12.934 -0.0333 -0.2263 -0.2672
  513MPD2    H5 7629   0.583   3.185  12.881 -1.4146 -0.5288 -2.5879
  513MPD2    N1 7630   0.503   2.775  12.687 -0.3507  0.0654 -0.6290
  513MPD2    H7 7631   0.600   2.801  12.678 -0.1121 -0.5111  0.3041
  514TMC3    C1 7632   0.583   2.586  12.578  0.0276 -0.8437 -0.0120
  514TMC3    C2 7633   0.579   2.560  12.448  0.1732  0.4922 -0.3922
  514TMC3    C3 7634   0.689   2.600  12.379  0.3096  0.0961 -0.3485
  514TMC3    C4 7635   0.703   2.620  12.635  0.1016 -0.5043  0.3191
  514TMC3    C5 7636   0.810   2.663  12.564  0.1552  0.1801 -0.1946
  514TMC3    C6 7637   0.807   2.652  12.431 -0.0872 -0.0872  0.1366
  514TMC3     C 7638   0.470   2.655  12.628  0.1739  0.5399  0.4366
  514TMC3     O 7639   0.358   2.618  12.602 -0.3636 -0.3959  0.2038
  514TMC3     H 7640   0.481   2.562  12.403 -0.7764  2.3239  1.7166
  514TMC3    H1 7641   0.699   2.640  12.741 -0.3605  0.0663  0.1949
  514TMC3    H2 7642   0.889   2.674  12.364 -0.1521 -0.1818  0.0259
  514TMC3    C7 7643   0.850   2.794  12.615 -0.0758  0.6290  0.6234
  514TMC3    C8 7644   0.681   2.569  12.241 -0.2877  0.6996 -0.2280
  514TMC3    O1 7645   0.768   2.848  12.691 -0.1867 -0.9101  0.2343
  514TMC3    O2 7646   0.598   2.484  12.208  0.2068 -0.1220  0.0177
  515MPD2     C 7647   2.920   0.180  15.115 -0.8448 -0.5999  0.0434
  515MPD2    C1 7648   3.007   0.099  15.053  0.1568 -0.2735  0.7235
  515MPD2    C2 7649   3.132   0.062  15.101 -0.1250 -0.5122  0.1369
  515MPD2    C3 7650   3.179   0.104  15.224  0.1941 -0.1089 -0.2762
  515MPD2    C4 7651   3.094   0.188  15.286 -0.4807 -0.6477  0.3601
  515MPD2    C5 7652   2.966   0.216  15.238 -0.1333  0.1053 -0.3057
  515MPD2     H 7653   3.184   4.699  15.050  0.4074  0.4999 -0.9056
  515MPD2    H1 7654   3.121   0.233  15.380 -0.1327 -0.2441  0.0679
  515MPD2    H2 7655   2.824   0.199  15.069  0.2314 -1.7927 -2.6632
  515MPD2    H3 7656   2.907   0.280  15.303 -3.6649 -2.8774 -0.6477
  515MPD2     N 7657   3.303   0.070  15.283 -0.2369  0.0111 -0.2659
  515MPD2    H5 7658   3.318   0.093  15.381 -0.3431 -0.6377 -0.0924
  515MPD2    N1 7659   2.982   0.032  14.933  0.5337 -0.1973 -0.5011
  515MPD2    H7 7660   3.050   4.680  14.905 -0.0330 -0.7027 -0.6339
  516TMC3    C1 7661   2.868   4.675  14.758 -0.6981  0.1656 -0.1952
  516TMC3    C2 7662   2.801   4.712  14.646  0.2431 -0.8955 -0.8751
  516TMC3    C3 7663   2.764   4.615  14.556 -1.0496 -0.3111  0.0051
  516TMC3    C4 7664   2.882   4.550  14.795 -0.4840  0.0380 -0.2222
  516TMC3    C5 7665   2.833   4.456  14.711  0.0979  0.2399 -1.0628
  516TMC3    C6 7666   2.786   4.482  14.584 -0.2952 -1.0644 -0.7814
  516TMC3     C 7667   2.878   0.062  14.852 -0.8406  0.2674 -0.2807
  516TMC3     O 7668   2.799   0.157  14.852 -0.8119  0.5122 -0.0673
  516TMC3     H 7669   2.771   0.099  14.641 -2.0310 -1.5396 -0.2437
  516TMC3    H1 7670   2.917   4.517  14.892 -0.3119 -3.3111 -1.3989
  516TMC3    H2 7671   2.745   4.410  14.514 -3.8717  0.5235 -0.3358
  516TMC3    C7 7672   2.818   4.321  14.766 -0.0183  0.2513  0.8510
  516TMC3    C8 7673   2.749   4.647  14.415  0.0538  0.5296 -0.1166
  516TMC3    O1 7674   2.876   4.299  14.871  0.4904  0.2391 -0.4517
  516TMC3    O2 7675   2.718   4.551  14.342  0.0851  0.0629 -0.3116
  517MPD2     C 7676   3.271   1.904   0.442 -0.0463  0.2205 -0.1029
  517MPD2    C1 7677   3.402   1.879   0.400 -0.7466 -0.1385 -0.7974
  517MPD2    C2 7678   3.499   1.963   0.449  0.1191  0.3283 -0.2480
  517MPD2    C3 7679   3.479   2.046   0.559 -0.0897  0.9861  0.2721
  517MPD2    C4 7680   3.346   2.063   0.598 -0.0431 -0.4076 -0.3027
  517MPD2    C5 7681   3.242   1.994   0.538  0.5586 -0.1374 -0.0762
  517MPD2     H 7682   3.593   1.961   0.396 -0.6895 -2.9303 -1.5502
  517MPD2    H1 7683   3.323   2.142   0.669  0.7435 -0.0489 -0.4441
  517MPD2    H2 7684   3.181   1.856   0.406  0.4515 -0.0874 -0.9347
  517MPD2    H3 7685   3.142   2.004   0.578 -0.1185  0.1812 -1.8324
  517MPD2     N 7686   3.573   2.129   0.617 -0.0991 -1.0600  0.2447
  517MPD2    H5 7687   3.543   2.185   0.696  2.5815  2.4158 -1.2195
  517MPD2    N1 7688   3.445   1.770   0.319  0.4571 -0.2075  0.7594
  517MPD2    H7 7689   3.541   1.739   0.331  1.0770  1.1519 -0.6262
  518TMC3    C1 7690   3.417   1.571   0.189  0.0844 -1.0681 -0.4658
  518TMC3    C2 7691   3.327   1.488   0.131 -0.3006 -0.1919 -0.1764
  518TMC3    C3 7692   3.367   1.395   0.035  0.0259  0.8753 -0.0611
  518TMC3    C4 7693   3.546   1.573   0.146  0.2191  0.1646  0.4155
  518TMC3    C5 7694   3.580   1.479   0.047 -0.5497  0.2437  0.4380
  518TMC3    C6 7695   3.496   1.388  17.670  0.7647 -0.3958  0.1232
  518TMC3     C 7696   3.355   1.680   0.264  0.8358  0.6246  0.5808
  518TMC3     O 7697   3.234   1.680   0.281 -0.3239 -1.2094 -0.4672
  518TMC3     H 7698   3.222   1.488   0.158 -0.3659 -2.1072 -0.4397
  518TMC3    H1 7699   3.618   1.633   0.201  1.1782 -0.5571 -0.0586
  518TMC3    H2 7700   3.523   1.338  17.578  1.8099 -3.5201  2.1122
  518TMC3    C7 7701   3.721   1.478   0.017  0.9762 -0.2248 -0.0089
  518TMC3    C8 7702   3.275   1.284   0.015 -0.0104 -1.4230 -0.0702
  518TMC3    O1 7703   3.783   1.572   0.058  0.7559  0.6010  0.4549
  518TMC3    O2 7704   3.162   1.307   0.049  0.1874 -0.1344  0.1511
  519MPD2     C 7705   4.470   0.068  14.741 -0.4592 -0.4337  0.8872
  519MPD2    C1 7706   4.410   0.052  14.619  0.0558 -0.2795 -0.4818
  519MPD2    C2 7707   4.448   4.658  14.540 -0.8406 -0.3896 -0.2794
  519MPD2    C3 7708   4.546   4.572  14.581  0.1271 -0.1267  0.5218
  519MPD2    C4 7709   4.600   4.590  14.708 -0.2147  0.6983 -0.2040
  519MPD2    C5 7710   4.556   4.692  14.795 -0.2594  0.1130 -0.7768
  519MPD2     H 7711   4.406   4.652  14.440 -0.4230 -0.7878 -0.4289
  519MPD2    H1 7712   4.683   4.526  14.737  0.2151  0.7489 -1.3246
  519MPD2    H2 7713   4.452   0.153  14.805  3.1398 -1.3502  3.1143
  519MPD2    H3 7714   4.586   4.699  14.899 -0.2379 -1.9719 -0.6583
  519MPD2     N 7715   4.591   4.460  14.503  1.0066 -0.3013 -0.8320
  519MPD2    H5 7716   4.670   4.408  14.538  1.2752  0.3921 -0.4281
  519MPD2    N1 7717   4.330   0.152  14.565  0.1530 -0.0141  0.4283
  519MPD2    H7 7718   4.292   0.127  14.474  0.2493  0.6130  0.2137
  520TMC3    C1 7719   4.621   4.309  14.309  0.0511  1.0262  0.2187
  520TMC3    C2 7720   4.560   4.258  14.201 -0.5539  0.0290 -0.1380
  520TMC3    C3 7721   4.620   4.165  14.118 -0.0610 -0.0290 -0.0494
  520TMC3    C4 7722   0.040   4.287  14.325  0.7737 -0.0192 -0.1722
  520TMC3    C5 7723   0.095   4.204  14.229 -0.2031  0.3271 -0.0520
  520TMC3    C6 7724   0.030   4.132  14.137 -0.5273 -1.0273 -0.1414
  520TMC3     C 7725   4.550   4.420  14.374 -0.4230 -0.4652 -0.3211
  520TMC3     O 7726   4.457   4.461  14.307 -0.3210 -0.4649  0.4183
  520TMC3     H 7727   4.454   4.277  14.190 -0.9791 -2.2296  0.0141
  520TMC3    H1 7728   0.104   4.338  14.395 -0.7722  2.2123 -0.3534
  520TMC3    H2 7729   0.085   4.070  14.067  1.6272  1.6254 -0.8372
  520TMC3    C7 7730   0.237   4.176  14.231 -0.4372 -0.3554  0.5995
  520TMC3    C8 7731   4.555   4.141  13.987  0.5081 -0.7332  0.1601
  520TMC3    O1 7732   0.289   4.179  14.344  0.3095 -0.0951 -0.0510
  520TMC3    O2 7733   4.620   4.062  13.922 -0.3946  0.0207  0.5317
  521MPD2     C 7734   0.686   2.422  17.445  0.1237 -0.1908  0.0415
  521MPD2    C1 7735   0.688   2.482  17.317  0.0902 -0.1167 -0.2633
  521MPD2    C2 7736   0.810   2.496  17.250  0.0504  0.5837 -0.3607
  521MPD2    C3 7737   0.931   2.457  17.302 -0.0582 -0.0873 -0.3515
  521MPD2    C4 7738   0.925   2.394  17.429  0.5591 -1.4124  0.3459
  521MPD2    C5 7739   0.805   2.383  17.497  0.4166 -0.0950  0.8745
  521MPD2     H 7740   0.810   2.556  17.160 -1.2935 -0.6895 -1.1907
  521MPD2    H1 7741   1.015   2.354  17.474  0.0303 -1.3019  1.4980
  521MPD2    H2 7742   0.596   2.404  17.503 -1.9496  0.6667 -2.8623
  521MPD2    H3 7743   0.802   2.321  17.586  1.1559  0.6343  1.4179
  521MPD2     N 7744   1.056   2.483  17.239  0.4289  0.3909 -0.0135
  521MPD2    H5 7745   1.044   2.565  17.181  1.5010  0.4766 -0.1069
  521MPD2    N1 7746   0.561   2.517  17.262 -0.6447 -0.3330  0.0014
  521MPD2    H7 7747   0.480   2.514  17.322  0.5800 -2.4115  1.5679
  522TMC3    C1 7748   1.293   2.468  17.195  0.0938  0.1079  0.0086
  522TMC3    C2 7749   1.408   2.411  17.238 -0.1514  0.0936  0.4871
  522TMC3    C3 7750   1.511   2.444  17.160 -0.1366 -0.5257 -0.4596
  522TMC3    C4 7751   1.278   2.564  17.097 -0.1857 -0.2832 -0.3642
  522TMC3    C5 7752   1.394   2.607  17.040 -0.3140  0.1428  0.1053
  522TMC3    C6 7753   1.508   2.530  17.054  0.0483 -0.3102  0.6370
  522TMC3     C 7754   1.168   2.407  17.258 -0.3098  0.3348  0.2135
  522TMC3     O 7755   1.177   2.299  17.311  0.5593 -0.0169  0.1959
  522TMC3     H 7756   1.412   2.326  17.306 -0.9609 -0.0311  0.3704
  522TMC3    H1 7757   1.180   2.607  17.079  0.6820  2.2327  0.9560
  522TMC3    H2 7758   1.603   2.552  17.008 -0.5082 -2.0896 -1.3591
  522TMC3    C7 7759   1.390   2.703  16.932  0.3221  0.0950  0.0914
  522TMC3    C8 7760   1.633   2.375  17.173 -0.0522  0.3034 -0.2604
  522TMC3    O1 7761   1.495   2.724  16.881 -0.1360  0.3648 -0.0383
  522TMC3    O2 7762   1.653   2.342  17.287 -0.1205  0.1186  0.0689
  523MPD2     C 7763   3.068   1.631  10.537 -0.4664  0.7308 -0.2681
  523MPD2    C1 7764   3.069   1.593  10.402  0.2064  0.1617  0.1653
  523MPD2    C2 7765   3.077   1.685  10.302 -0.4219  0.9210 -0.0513
  523MPD2    C3 7766   3.098   1.816  10.340  0.1707  0.6991  0.2511
  523MPD2    C4 7767   3.110   1.855  10.476 -0.0477 -0.0888 -0.0244
  523MPD2    C5 7768   3.085   1.762  10.568 -0.3042 -0.4104 -0.3697
  523MPD2     H 7769   3.086   1.666  10.196 -0.2960 -1.3265  0.3574
  523MPD2    H1 7770   3.123   1.958  10.507  0.2021  0.0532 -0.5950
  523MPD2    H2 7771   3.056   1.557  10.615  1.2463 -0.4699 -1.1471
  523MPD2    H3 7772   3.093   1.796  10.671  2.3139  0.3328 -0.8016
  523MPD2     N 7773   3.130   1.925  10.248  0.0547 -0.4905  0.3685
  523MPD2    H5 7774   3.143   2.016  10.291  0.8571  0.1346 -1.1967
  523MPD2    N1 7775   3.079   1.458  10.375 -0.4977 -0.0843  0.4301
  523MPD2    H7 7776   3.096   1.388  10.448  0.6725  0.2077  0.4343
  524TMC3    C1 7777   3.207   2.030  10.050 -0.3298 -0.8985 -0.3917
  524TMC3    C2 7778   3.180   2.054   9.918 -0.4373 -0.0411  0.7181
  524TMC3    C3 7779   3.231   2.170   9.872 -0.0526 -0.2366 -0.7528
  524TMC3    C4 7780   3.281   2.118  10.120  0.1051 -1.1403  0.5747
  524TMC3    C5 7781   3.330   2.234  10.074 -0.2947  0.5242 -0.0815
  524TMC3    C6 7782   3.317   2.256   9.944  0.2355 -0.5070 -0.0929
  524TMC3     C 7783   3.145   1.917  10.115 -0.2637 -0.7599 -0.0512
  524TMC3     O 7784   3.151   1.816  10.049  0.2447  0.3165  0.0222
  524TMC3     H 7785   3.106   1.990   9.870 -1.3973  1.5698  0.0449
  524TMC3    H1 7786   3.318   2.089  10.218  0.8197  0.0654  0.6655
  524TMC3    H2 7787   3.350   2.347   9.895 -1.8858  1.1532  1.5832
  524TMC3    C7 7788   3.420   2.321  10.154 -0.1382  0.3071  0.1156
  524TMC3    C8 7789   3.198   2.209   9.739 -0.5225  0.7303  0.1623
  524TMC3    O1 7790   3.454   2.271  10.259  0.1575  0.0091 -0.2398
  524TMC3    O2 7791   3.231   2.319   9.698  0.3369 -0.5039 -0.1944
  525MPD2     C 7792   1.296   4.155  14.472  0.0340 -0.6892 -0.2169
  525MPD2    C1 7793   1.421   4.174  14.528 -0.6851  0.2550 -0.5523
  525MPD2    C2 7794   1.492   4.287  14.489 -0.0411 -0.1832 -0.0535
  525MPD2    C3 7795   1.436   4.372  14.394  0.5699  0.5073 -0.2675
  525MPD2    C4 7796   1.315   4.346  14.333  0.1721 -0.0177  0.2760
  525MPD2    C5 7797   1.238   4.243  14.381 -0.1367  0.0857  0.0569
  525MPD2     H 7798   1.595   4.279  14.522  0.0500  0.4423 -0.1797
  525MPD2    H1 7799   1.271   4.427  14.276  2.5534  2.0808  1.4421
  525MPD2    H2 7800   1.224   4.077  14.497 -0.2561 -1.4597 -3.3486
  525MPD2    H3 7801   1.141   4.225  14.338  0.7378 -1.8376 -1.0919
  525MPD2     N 7802   1.485   4.500  14.376 -0.1062  0.2399  0.4660
  525MPD2    H5 7803   1.434   4.579  14.337  0.0719  0.6646  1.0937
  525MPD2    N1 7804   1.474   4.088  14.624 -0.3296  0.1010 -0.1100
  525MPD2    H7 7805   1.564   4.107  14.666  0.2668 -2.3085 -0.2709
  526TMC3    C1 7806   1.511   3.904  14.760  0.7336 -0.2440  0.0622
  526TMC3    C2 7807   1.464   3.851  14.873 -0.2079 -0.1709  0.3554
  526TMC3    C3 7808   1.549   3.792  14.963  0.0421 -0.1004 -0.0765
  526TMC3    C4 7809   1.648   3.910  14.733  0.1802  0.3415  0.0077
  526TMC3    C5 7810   1.732   3.858  14.829 -0.5921  0.2660  0.2784
  526TMC3    C6 7811   1.683   3.802  14.949 -0.6319  0.6158 -0.6477
  526TMC3     C 7812   1.414   3.974  14.677  0.6971  0.4021  0.0278
  526TMC3     O 7813   1.297   3.936  14.687 -0.1808  0.4409 -0.0172
  526TMC3     H 7814   1.358   3.855  14.898 -0.7117 -1.7866 -1.5829
  526TMC3    H1 7815   1.692   3.946  14.641 -0.4861 -0.0505 -0.4590
  526TMC3    H2 7816   1.745   3.744  15.016 -1.1120  2.5677  1.4757
  526TMC3    C7 7817   1.876   3.864  14.797 -0.2804 -0.4030  1.0562
  526TMC3    C8 7818   1.508   3.766  15.093 -0.8185 -0.2222 -0.3563
  526TMC3    O1 7819   1.923   3.907  14.692 -0.1003 -0.0292 -0.8163
  526TMC3    O2 7820   1.592   3.791  15.177  0.4540  0.9889  0.3123
  527MPD2     C 7821   0.309   2.532   1.630 -0.2522  0.6545 -0.1069
  527MPD2    C1 7822   0.286   2.594   1.508 -0.6995  0.5450  0.2881
  527MPD2    C2 7823   0.329   2.521   1.397  0.4037  0.6286  0.2390
  527MPD2    C3 7824   0.386   2.396   1.402 -0.0211 -0.2908  0.7304
  527MPD2    C4 7825   0.402   2.335   1.526  0.0382  0.1573  0.4847
  527MPD2    C5 7826   0.363   2.406   1.636  0.1261  0.3370  0.4619
  527MPD2     H 7827   0.331   2.556   1.294  0.4375  1.7219  0.6143
  527MPD2    H1 7828   0.465   2.250   1.545  0.4311  0.4400  0.4516
  527MPD2    H2 7829   0.291   2.576   1.727  0.1069 -0.3343  0.4046
  527MPD2    H3 7830   0.378   2.366   1.736 -1.7517 -1.2160  0.1258
  527MPD2     N 7831   0.444   2.342   1.281  0.5089 -0.0362 -0.4363
  527MPD2    H5 7832   0.409   2.380   1.193  0.7878  0.7843 -0.1993
  527MPD2    N1 7833   0.228   2.724   1.493  0.2280  0.2554 -0.5876
  527MPD2    H7 7834   0.200   2.745   1.398 -0.0180 -0.4091 -0.6646
  528TMC3    C1 7835   0.118   2.922   1.579 -0.1281  0.3437 -1.0894
  528TMC3    C2 7836   0.114   3.016   1.676  0.3346  0.0862  0.2743
  528TMC3    C3 7837   4.717   3.093   1.684  0.2188 -0.3567 -0.1910
  528TMC3    C4 7838   0.015   2.909   1.487 -0.4070  0.4383 -0.4151
  528TMC3    C5 7839   4.637   3.009   1.477  0.0034  0.4908 -0.8944
  528TMC3    C6 7840   4.619   3.096   1.583 -0.5517 -0.3906  0.4985
  528TMC3     C 7841   0.202   2.808   1.603 -0.3834 -0.2398 -0.0256
  528TMC3     O 7842   0.250   2.803   1.714  0.0032 -0.2107 -0.1397
  528TMC3     H 7843   0.188   3.019   1.755  0.5434 -4.4347  0.2426
  528TMC3    H1 7844   0.020   2.830   1.414  1.7203  0.2676 -0.0826
  528TMC3    H2 7845   4.543   3.173   1.573  0.3185  0.8363  3.1648
  528TMC3    C7 7846   4.518   2.983   1.393 -0.4682  0.1931 -0.9865
  528TMC3    C8 7847   0.011   3.210   1.775  0.4959 -0.2330  0.2518
  528TMC3    O1 7848   4.415   3.008   1.451 -0.4713  0.1162  0.8226
  528TMC3    O2 7849   0.127   3.239   1.808  0.9184  0.2184 -0.3136
  529MPD2     C 7850   1.637   0.370   0.512 -0.2211  0.8497 -1.1989
  529MPD2    C1 7851   1.765   0.416   0.496  0.6179 -0.2396  0.3773
  529MPD2    C2 7852   1.792   0.550   0.478  0.2151  0.4069 -0.3652
  529MPD2    C3 7853   1.681   0.631   0.467 -0.1593  0.4744  0.4840
  529MPD2    C4 7854   1.546   0.587   0.468  0.3659  0.6733  0.3292
  529MPD2    C5 7855   1.537   0.453   0.494 -0.5810  0.0941 -0.6414
  529MPD2     H 7856   1.894   0.587   0.477  0.6853 -0.8714  0.8478
  529MPD2    H1 7857   1.457   0.647   0.456  0.0641  0.2029  0.2063
  529MPD2    H2 7858   1.617   0.270   0.548 -0.5690  0.7526 -1.6674
  529MPD2    H3 7859   1.438   0.409   0.505 -0.5798  0.4672  0.9992
  529MPD2     N 7860   1.698   0.772   0.441  0.1485  0.5848  0.5691
  529MPD2    H5 7861   1.611   0.824   0.426 -1.1734 -2.2606 -1.5516
  529MPD2    N1 7862   1.876   0.336   0.512  0.2651 -0.0721  0.1565
  529MPD2    H7 7863   1.969   0.377   0.508  0.2519 -0.1212 -0.8784
  530TMC3    C1 7864   2.010   0.169   0.603  0.2362 -0.0556 -0.5182
  530TMC3    C2 7865   2.096   0.268   0.645 -0.1151  0.3141 -0.0920
  530TMC3    C3 7866   2.178   0.250   0.752  0.3959  0.0951 -0.5060
  530TMC3    C4 7867   1.993   0.053   0.677 -0.4467  0.5863 -0.2727
  530TMC3    C5 7868   2.079   0.027   0.776 -0.6024  0.1356  0.7918
  530TMC3    C6 7869   2.164   0.132   0.817  0.1749 -0.5343 -0.7043
  530TMC3     C 7870   1.883   0.202   0.541 -0.0653 -0.0787  0.0558
  530TMC3     O 7871   1.790   0.122   0.545  0.1926 -0.0543  0.2348
  530TMC3     H 7872   2.103   0.354   0.578 -0.8326 -0.1709 -0.7859
  530TMC3    H1 7873   1.917   4.697   0.651 -0.4978  0.0894  1.2644
  530TMC3    H2 7874   2.236   0.104   0.893  1.0363  2.5248 -0.3989
  530TMC3    C7 7875   2.076   4.618   0.849 -0.0376 -0.4264 -0.6138
  530TMC3    C8 7876   2.286   0.345   0.778 -0.0950  0.4686  0.5169
  530TMC3    O1 7877   2.000   4.540   0.793  0.1643  0.5719 -0.3229
  530TMC3    O2 7878   2.314   0.418   0.684 -0.3896  0.4584 -0.1746
  531MPD2     C 7879   1.124   3.237  12.600  0.6076 -0.7944  0.4170
  531MPD2    C1 7880   0.997   3.211  12.648 -0.1660  0.0465  0.0304
  531MPD2    C2 7881   0.949   3.078  12.642 -0.0497  0.1519  0.5747
  531MPD2    C3 7882   1.020   2.975  12.583  0.4530 -0.3766  0.1398
  531MPD2    C4 7883   1.137   3.012  12.515  0.1769  0.6503  0.4581
  531MPD2    C5 7884   1.185   3.140  12.521 -0.1760  0.1440  0.1247
  531MPD2     H 7885   0.856   3.048  12.688 -0.3216 -2.8898 -2.0011
  531MPD2    H1 7886   1.187   2.941  12.451 -1.6725 -0.3431  0.1134
  531MPD2    H2 7887   1.163   3.338  12.589 -3.2674  0.6755  0.0305
  531MPD2    H3 7888   1.269   3.178  12.464  0.4764 -1.6300 -0.1035
  531MPD2     N 7889   0.972   2.840  12.573 -0.1742 -0.2353  0.2785
  531MPD2    H5 7890   1.023   2.770  12.521  0.7323  2.0712 -1.9172
  531MPD2    N1 7891   0.935   3.313  12.728  0.7671  0.3534 -0.7110
  531MPD2    H7 7892   0.990   3.394  12.755 -0.6156  1.2130 -0.4583
  532TMC3    C1 7893   0.765   3.389  12.883 -0.0750 -0.2053  0.4006
  532TMC3    C2 7894   0.628   3.382  12.900  0.1920 -0.5934  0.6327
  532TMC3    C3 7895   0.564   3.375  13.022  0.1981  0.7970 -0.3203
  532TMC3    C4 7896   0.841   3.400  12.997  0.0065  0.0273 -0.4064
  532TMC3    C5 7897   0.778   3.417  13.122  1.1605  0.0900  0.7383
  532TMC3    C6 7898   0.636   3.392  13.136  0.4306 -0.4080 -0.5022
  532TMC3     C 7899   0.801   3.305  12.774  0.3530  0.0872 -0.3434
  532TMC3     O 7900   0.712   3.221  12.752  0.4556  0.3280  0.0060
  532TMC3     H 7901   0.572   3.403  12.810  0.5457  2.3098  1.1164
  532TMC3    H1 7902   0.948   3.414  12.988  0.5118 -0.8023  4.2716
  532TMC3    H2 7903   0.588   3.401  13.233  1.1721  1.2708 -0.3016
  532TMC3    C7 7904   0.865   3.418  13.242  0.7834  0.0820 -0.6536
  532TMC3    C8 7905   0.474   3.261  13.032 -0.2904  0.1092 -0.6002
  532TMC3    O1 7906   0.805   3.459  13.342  0.2864  0.4093  0.2532
  532TMC3    O2 7907   0.401   3.256  13.128  0.6597  0.0793 -0.2988
  533TMC3    C1 7908   1.632   4.675  14.432  0.3206  0.1935  0.0333
  533TMC3    C2 7909   1.762   4.707  14.453 -0.1313 -0.2062 -0.2875
  533TMC3    C3 7910   1.800   0.083  14.542  0.8429  0.2233 -0.4137
  533TMC3    C4 7911   1.540   0.022  14.502 -0.0437 -0.4493  0.5005
  533TMC3    C5 7912   1.581   0.111  14.603 -0.2297  0.2328  0.5511
  533TMC3    C6 7913   1.716   0.149  14.613 -0.4861  0.1075  0.7888
  533TMC3     C 7914   1.608   4.532  14.419 -0.0561  1.0074  0.1420
  533TMC3     O 7915   1.705   4.461  14.435  0.2729  0.4013 -0.0504
  533TMC3     H 7916   1.842   4.654  14.403  0.4065 -1.4650  1.9141
  533TMC3    H1 7917   1.441   4.697  14.507 -0.3649  0.1396 -0.7805
  533TMC3    H2 7918   1.743   0.223  14.688  0.7607 -1.1626  1.5706
  533TMC3    C7 7919   1.528   0.062  14.730 -0.2779 -0.7273 -0.0894
  533TMC3    C8 7920   1.944   0.125  14.556  0.2631 -0.3217  0.2573
  533TMC3    O1 7921   1.501   4.658  14.730  0.9585 -0.8660 -0.1936
  533TMC3    O2 7922   1.974   0.189  14.656 -0.1429  0.0795  0.5372
  534MPD2     C 7923   3.843   1.349   1.733 -0.0149  0.3447 -0.1000
  534MPD2    C1 7924   3.967   1.335   1.677 -0.3733 -0.3919  0.3204
  534MPD2    C2 7925   3.969   1.271   1.549  0.2663 -0.4243  0.0332
  534MPD2    C3 7926   3.857   1.239   1.485  0.4829 -0.4694  0.3579
  534MPD2    C4 7927   3.736   1.249   1.547 -0.5589 -0.1383  0.3227
  534MPD2    C5 7928   3.730   1.312   1.669  0.7193 -0.0297 -0.7947
  534MPD2     H 7929   4.065   1.267   1.500  0.3877  0.5444  0.1766
  534MPD2    H1 7930   3.643   1.217   1.501 -1.7532  0.4394  2.3387
  534MPD2    H2 7931   3.832   1.386   1.835 -0.4339 -1.5733  0.5592
  534MPD2    H3 7932   3.636   1.306   1.723  0.9760  2.0971 -0.1041
  534MPD2     N 7933   3.858   1.170   1.366 -0.1630  0.4232  0.4858
  534MPD2    H5 7934   3.768   1.152   1.322  0.4731 -1.5793  0.0180
  534MPD2    N1 7935   4.089   1.366   1.744 -0.4717 -0.6627 -0.6515
  534MPD2    H7 7936   4.170   1.337   1.689  1.2266  0.2524  1.3465
  535TMC3    C1 7937   3.922   1.042   1.183  0.1880 -0.1659  1.0169
  535TMC3    C2 7938   3.788   0.997   1.177  0.1327  0.3023 -0.1807
  535TMC3    C3 7939   3.764   0.920   1.067 -0.0984  0.1254  0.1692
  535TMC3    C4 7940   4.018   0.998   1.098  0.3497 -0.1245 -1.2143
  535TMC3    C5 7941   3.989   0.936   0.982 -0.2473 -0.2453  0.4049
  535TMC3    C6 7942   3.855   0.893   0.967  0.4929  0.6997 -0.7589
  535TMC3     C 7943   3.964   1.115   1.300  0.0944 -0.0438  0.0325
  535TMC3     O 7944   4.083   1.122   1.327 -0.0559  0.5830  0.0932
  535TMC3     H 7945   3.714   1.004   1.256 -1.6775 -0.1407 -1.8346
  535TMC3    H1 7946   4.119   1.029   1.125 -0.5324  0.1977  1.7515
  535TMC3    H2 7947   3.828   0.845   0.874 -0.1768 -1.7354  0.7122
  535TMC3    C7 7948   4.094   0.886   0.900  0.0935 -0.2348 -0.3232
  535TMC3    C8 7949   3.629   0.868   1.055  0.2142  0.0477  0.2389
  535TMC3    O1 7950   4.205   0.906   0.947 -0.3952 -0.3346  0.1016
  535TMC3    O2 7951   3.618   0.776   0.973  0.0067  0.3393 -0.0309
  536MPD2     C 7952   3.216   3.997  16.513  0.3064 -0.3513 -0.1682
  536MPD2    C1 7953   3.113   3.930  16.577 -0.2337  0.6866  0.0923
  536MPD2    C2 7954   3.007   3.888  16.507 -0.4456 -0.2978 -0.4303
  536MPD2    C3 7955   2.993   3.928  16.373 -0.1903 -0.5630  0.0266
  536MPD2    C4 7956   3.093   3.995  16.307  0.3001 -0.9012  0.4535
  536MPD2    C5 7957   3.207   4.025  16.378  0.4150 -0.2697  1.0319
  536MPD2     H 7958   2.931   3.835  16.565 -0.3043 -1.7901 -1.6247
  536MPD2    H1 7959   3.089   4.021  16.202  2.7362 -1.2587  0.2696
  536MPD2    H2 7960   3.302   4.041  16.563  0.1185  0.4774 -0.5703
  536MPD2    H3 7961   3.290   4.074  16.328 -2.3725  0.9093 -2.4250
  536MPD2     N 7962   2.879   3.888  16.298 -0.3283  0.5959  0.4536
  536MPD2    H5 7963   2.867   3.942  16.214  3.3804  0.1589 -0.3512
  536MPD2    N1 7964   3.119   3.921  16.722  0.0966 -0.7595  0.1448
  536MPD2    H7 7965   3.210   3.948  16.759 -0.6385  0.1310  1.2916
  537TMC3    C1 7966   3.045   3.881  16.942 -0.7452 -0.1553  0.2888
  537TMC3    C2 7967   3.133   3.977  16.999  0.2142  0.6152  0.7395
  537TMC3    C3 7968   3.139   3.977  17.136 -0.2879 -0.6523 -0.3104
  537TMC3    C4 7969   2.978   3.793  17.015 -0.0585 -0.2240  0.6309
  537TMC3    C5 7970   3.001   3.799  17.152  0.6147 -0.4417 -0.0449
  537TMC3    C6 7971   3.085   3.885  17.214  0.3335  0.2390 -0.0786
  537TMC3     C 7972   3.017   3.877  16.805 -0.2275  0.0040 -0.0657
  537TMC3     O 7973   2.910   3.825  16.775  0.0350 -0.5796  0.0313
  537TMC3     H 7974   3.176   4.059  16.942  0.4929  1.1394  1.7089
  537TMC3    H1 7975   2.915   3.718  16.969  2.1189 -2.1963  0.8492
  537TMC3    H2 7976   3.098   3.894  17.322 -0.5641  1.9397 -0.1247
  537TMC3    C7 7977   2.956   3.690  17.241  0.3143 -0.4387 -0.1506
  537TMC3    C8 7978   3.188   4.100  17.208  0.1519  0.0663  0.6057
  537TMC3    O1 7979   3.031   3.661  17.332  0.0561 -0.7448  0.1504
  537TMC3    O2 7980   3.220   4.095  17.327 -0.4394 -0.1624 -0.1477
  538TMC3    C1 7981   3.796   2.011  10.908  0.2502 -0.4601 -0.1476
  538TMC3    C2 7982   3.781   1.881  10.860 -0.2476  0.3088  0.8087
  538TMC3    C3 7983   3.697   1.864  10.752 -0.2230 -0.0676  0.3359
  538TMC3    C4 7984   3.737   2.117  10.833  0.7142 -0.0235 -0.2040
  538TMC3    C5 7985   3.642   2.092  10.737  0.3837  0.4393  0.2958
  538TMC3    C6 7986   3.626   1.960  10.680  0.7161 -0.1629  0.4916
  538TMC3     C 7987   3.918   2.045  10.982 -1.0421  0.4370 -0.4575
  538TMC3     O 7988   3.970   2.149  10.945 -0.3411 -0.1247 -0.0083
  538TMC3     H 7989   3.827   1.790  10.896  1.7548  1.1552  0.4399
  538TMC3    H1 7990   3.749   2.217  10.874 -0.3698  0.1668 -0.3485
  538TMC3    H2 7991   3.557   1.932  10.602  0.1121 -1.0408  1.3463
  538TMC3    C7 7992   3.558   2.200  10.686 -0.0620 -0.2235 -0.0511
  538TMC3    C8 7993   3.716   1.742  10.679 -0.0246  0.6058  0.6484
  538TMC3    O1 7994   3.465   2.160  10.618 -0.0446  0.0645  0.3082
  538TMC3    O2 7995   3.715   1.640  10.747 -0.2764  0.4959  0.2266
  539MPD2     C 7996   3.575   1.138  11.948  0.4962  0.1287  0.3039
  539MPD2    C1 7997   3.636   1.179  11.831 -0.5061  0.5827  1.1308
  539MPD2    C2 7998   3.606   1.300  11.771  0.2530 -0.4848  0.0801
  539MPD2    C3 7999   3.511   1.382  11.832 -0.5386 -0.0453 -0.6486
  539MPD2    C4 8000   3.444   1.338  11.943 -0.0882  0.7849 -0.0636
  539MPD2    C5 8001   3.475   1.217  11.997 -0.4011  0.3529 -0.1270
  539MPD2     H 8002   3.658   1.318  11.678  0.5094 -2.3971 -0.1482
  539MPD2    H1 8003   3.367   1.398  11.989 -3.0532 -3.3844  0.4292
  539MPD2    H2 8004   3.577   1.043  11.998 -0.7831 -0.8483 -1.4924
  539MPD2    H3 8005   3.412   1.182  12.079  0.4461 -2.3657 -0.6265
  539MPD2     N 8006   3.475   1.511  11.787 -0.0444 -0.1564 -0.1998
  539MPD2    H5 8007   3.408   1.566  11.840  0.6123  0.7020 -0.2700
  539MPD2    N1 8008   3.726   1.100  11.764 -0.0566 -0.3920 -0.0869
  539MPD2    H7 8009   3.762   1.132  11.675 -0.4701 -0.5377 -0.3079
  540TMC3    C1 8010   3.452   1.693  11.650 -0.3287  0.5585  0.6780
  540TMC3    C2 8011   3.416   1.714  11.520 -0.1867 -0.1709 -0.7169
  540TMC3    C3 8012   3.384   1.844  11.484  0.1105  0.4478  1.1440
  540TMC3    C4 8013   3.463   1.788  11.740  0.3607 -0.4646 -0.5539
  540TMC3    C5 8014   3.428   1.918  11.701 -0.5514 -0.5068  0.4298
  540TMC3    C6 8015   3.383   1.949  11.575  0.3589  0.1810 -0.3449
  540TMC3     C 8016   3.505   1.562  11.664 -0.6359  0.3599 -0.6214
  540TMC3     O 8017   3.552   1.505  11.568 -0.3598  0.6806  0.4535
  540TMC3     H 8018   3.406   1.629  11.454  4.5609 -1.3531  0.0914
  540TMC3    H1 8019   3.493   1.766  11.842 -2.4540  0.6239  0.5079
  540TMC3    H2 8020   3.344   2.048  11.554  0.9189  0.8445  1.8219
  540TMC3    C7 8021   3.394   2.018  11.804 -0.6464  0.1358 -0.2361
  540TMC3    C8 8022   3.313   1.873  11.359  0.3369  0.0948  1.0509
  540TMC3    O1 8023   3.357   1.978  11.914  0.2845 -0.3016  0.1347
  540TMC3    O2 8024   3.268   1.985  11.345 -0.4850 -0.2033 -0.3466
  541MPD2     C 8025   1.933   3.242  13.292  0.4191  0.1158  0.6021
  541MPD2    C1 8026   2.042   3.192  13.220  0.0317 -0.2364 -0.6130
  541MPD2    C2 8027   2.086   3.266  13.109 -0.0708 -0.4043  0.1293
  541MPD2    C3 8028   2.025   3.378  13.074  0.7045 -0.0686  0.2065
  541MPD2    C4 8029   1.922   3.429  13.149  0.3127  0.4624  0.2391
  541MPD2    C5 8030   1.869   3.360  13.250 -0.5651 -1.1922  0.2939
  541MPD2     H 8031   2.171   3.226  13.054  0.1071  2.8721 -1.9281
  541MPD2    H1 8032   1.873   3.523  13.124 -2.8951 -1.9521 -2.4891
  541MPD2    H2 8033   1.884   3.183  13.369  0.3583 -0.6212  0.0045
  541MPD2    H3 8034   1.782   3.398  13.302  0.6811  2.6519 -0.4099
  541MPD2     N 8035   2.070   3.463  12.975  0.2401  0.3255 -0.1397
  541MPD2    H5 8036   2.016   3.548  12.960  1.0037  0.6398 -1.1186
  541MPD2    N1 8037   2.091   3.060  13.257  0.2291  0.5151  0.8806
  541MPD2    H7 8038   2.057   3.020  13.344 -0.5680  0.4759  0.5493
  542TMC3    C1 8039   2.171   3.521  12.763  0.3246  0.4963  0.4915
  542TMC3    C2 8040   2.200   3.477  12.642  0.3596  0.6914 -0.2220
  542TMC3    C3 8041   2.189   3.572  12.543 -0.5981  0.3979 -0.1362
  542TMC3    C4 8042   2.140   3.650  12.790 -0.7841  0.1940 -0.3930
  542TMC3    C5 8043   2.124   3.741  12.685  1.3825  0.2484 -0.7439
  542TMC3    C6 8044   2.152   3.701  12.558 -0.4062  0.4947 -0.3697
  542TMC3     C 8045   2.156   3.422  12.874 -0.2651 -0.4212 -0.1344
  542TMC3     O 8046   2.217   3.319  12.857 -0.1711  0.3930 -0.1139
  542TMC3     H 8047   2.213   3.372  12.621  0.9483  0.9203 -0.9828
  542TMC3    H1 8048   2.123   3.681  12.892 -0.4157 -0.8657 -0.0139
  542TMC3    H2 8049   2.162   3.760  12.467  0.1017  0.1187 -0.5602
  542TMC3    C7 8050   2.097   3.875  12.719 -0.7715 -0.3136 -0.1799
  542TMC3    C8 8051   2.240   3.539  12.412  0.1233 -0.1398  0.7625
  542TMC3    O1 8052   2.091   3.899  12.839  0.0662  0.4015  0.1813
  542TMC3    O2 8053   2.184   3.583  12.316  0.1407  0.4209 -0.5600
  543TMC3    C1 8054   1.690   0.272  17.579 -0.0276 -0.4603  0.1452
  543TMC3    C2 8055   1.581   0.226  17.644  0.2072  0.1433 -0.3470
  543TMC3    C3 8056   1.533   0.305   0.076 -0.3637  0.4304 -1.4140
  543TMC3    C4 8057   1.752   0.385  17.613  0.4596 -0.5149 -0.4523
  543TMC3    C5 8058   1.718   0.451   0.050 -0.0157  0.0147  0.9920
  543TMC3    C6 8059   1.605   0.411   0.113  0.4983  1.1179  0.0955
  543TMC3     C 8060   1.739   0.175  17.474  0.8185  0.0293  0.1320
  543TMC3     O 8061   1.858   0.132  17.465  0.0619  0.8794 -0.2720
  543TMC3     H 8062   1.545   0.124  17.635  2.0662 -0.4956 -0.5304
  543TMC3    H1 8063   1.842   0.415  17.561  0.0277  2.5009  0.4998
  543TMC3    H2 8064   1.575   0.470   0.199  0.2621  0.4654  0.4540
  543TMC3    C7 8065   1.789   0.566   0.097 -0.2992 -0.1730  0.8223
  543TMC3    C8 8066   1.402   0.277   0.139  0.4159 -0.4341  0.0872
  543TMC3    O1 8067   1.711   0.658   0.122 -0.0869 -0.1999 -0.0272
  543TMC3    O2 8068   1.370   0.328   0.247  0.1736  0.3432  0.2499
  544MPD2     C 8069   1.003   4.700   0.104 -0.0503 -0.7303  0.4094
  544MPD2    C1 8070   1.061   4.697  17.653  0.0147 -0.3446 -0.8906
  544MPD2    C2 8071   1.180   0.056  17.640 -0.7462 -0.9534  0.0630
  544MPD2    C3 8072   1.222   0.127   0.077  0.5295 -0.3939  0.5028
  544MPD2    C4 8073   1.150   0.131   0.195 -0.4517 -0.0215 -0.5029
  544MPD2    C5 8074   1.044   0.053   0.207 -0.2069 -1.2110  0.2247
  544MPD2     H 8075   1.237   0.060  17.548  0.8582 -2.0193  1.0091
  544MPD2    H1 8076   1.178   0.190   0.281  0.5925  0.5745 -1.2596
  544MPD2    H2 8077   0.915   4.637   0.118 -0.6613  0.7810  3.2638
  544MPD2    H3 8078   0.989   0.045   0.300 -1.1877  0.2968 -0.2343
  544MPD2     N 8079   1.336   0.204   0.052  0.2691 -0.6427  0.1401
  544MPD2    H5 8080   1.374   0.205  17.631 -0.2726 -1.2091 -0.0760
  544MPD2    N1 8081   1.017   4.604  17.558 -1.1990  0.0647 -0.6569
  544MPD2    H7 8082   0.935   4.547  17.576 -1.9277  1.8649  1.7915
  545TMC3    C1 8083   1.061   4.462  17.376  0.6898  0.0176  0.2047
  545TMC3    C2 8084   1.117   4.455  17.248 -0.3411  0.6310  0.2297
  545TMC3    C3 8085   1.155   4.335  17.197  0.1262 -0.4615 -0.1782
  545TMC3    C4 8086   1.047   4.347  17.453  0.1820  0.6859  0.5149
  545TMC3    C5 8087   1.101   4.232  17.400 -0.3667 -1.2322 -0.8441
  545TMC3    C6 8088   1.143   4.219  17.270  0.2942  0.1882  0.4061
  545TMC3     C 8089   1.086   4.585  17.441 -0.5413  0.3783  0.2912
  545TMC3     O 8090   1.166   4.658  17.380 -0.1494 -0.0538 -0.2944
  545TMC3     H 8091   1.134   4.548  17.194  0.4253 -0.0294 -0.6606
  545TMC3    H1 8092   1.024   4.360  17.559 -0.8340 -0.9000  0.4899
  545TMC3    H2 8093   1.152   4.124  17.220  2.8547 -0.7037  2.5754
  545TMC3    C7 8094   1.054   4.114  17.457  0.5057 -0.4124 -0.3985
  545TMC3    C8 8095   1.209   4.321  17.068  0.5470  0.2172 -1.0189
  545TMC3    O1 8096   0.944   4.125  17.512 -0.6164 -0.0888 -0.2840
  545TMC3    O2 8097   1.272   4.218  17.045 -0.4767 -0.3684  0.7606
  546MPD2     C 8098   3.376   4.428   0.136 -0.0660 -0.1287 -0.7288
  546MPD2    C1 8099   3.326   4.459   0.008  0.0925  0.0823 -0.6658
  546MPD2    C2 8100   3.348   4.590  17.638  0.0642 -0.4009 -0.7992
  546MPD2    C3 8101   3.416   4.680   0.034 -0.2104  0.2335 -0.4260
  546MPD2    C4 8102   3.454   4.656   0.163  0.1471  0.0967  0.0190
  546MPD2    C5 8103   3.431   4.529   0.217 -0.1278  0.1931  0.7523
  546MPD2     H 8104   3.311   4.621  17.540  2.0259 -0.2398 -1.4987
  546MPD2    H1 8105   3.504   0.017   0.219 -0.6832  0.0509  0.8286
  546MPD2    H2 8106   3.360   4.331   0.180 -0.2770 -0.4991 -1.6122
  546MPD2    H3 8107   3.461   4.513   0.320 -1.6943 -0.5081  1.0940
  546MPD2     N 8108   3.447   0.092  17.663 -0.0995  0.1517 -0.0736
  546MPD2    H5 8109   3.475   0.161   0.059 -1.2384  1.7829 -1.2183
  546MPD2    N1 8110   3.240   4.365  17.625 -0.0536  0.1487  0.1326
  546MPD2    H7 8111   3.228   4.274  17.668 -0.0423 -1.0009 -2.3228
  547TMC3    C1 8112   3.049   4.294  17.505  0.1940 -0.0730 -0.3920
  547TMC3    C2 8113   2.965   4.314  17.396 -0.4651 -0.0503  0.2596
  547TMC3    C3 8114   2.865   4.230  17.380 -0.2766 -0.2830  0.0063
  547TMC3    C4 8115   3.033   4.197  17.602 -0.0288 -0.7628  0.2812
  547TMC3    C5 8116   2.932   4.111  17.574  0.1192 -0.2045  0.4568
  547TMC3    C6 8117   2.851   4.122  17.468  0.4746  0.1063 -0.2919
  547TMC3     C 8118   3.149   4.399  17.519  0.2129 -0.0711 -0.1511
  547TMC3     O 8119   3.138   4.504  17.458  0.0741 -0.7880  0.1149
  547TMC3     H 8120   2.983   4.385  17.316 -1.6151  2.2141  1.9898
  547TMC3    H1 8121   3.085   4.198   0.023  1.0231 -1.6132 -0.2856
  547TMC3    H2 8122   2.751   4.083  17.482  0.5607 -0.6503 -1.7748
  547TMC3    C7 8123   2.920   3.990  17.655 -0.2313 -0.7973 -0.4112
  547TMC3    C8 8124   2.758   4.275  17.293 -0.2915  0.2607  0.8511
  547TMC3    O1 8125   2.983   4.000   0.089 -0.0993  0.3775 -0.4678
  547TMC3    O2 8126   2.683   4.185  17.264 -0.2980  0.0899  0.0562
  548MPD2     C 8127   2.733   0.238  11.876 -0.2653 -0.1953  0.1027
  548MPD2    C1 8128   2.731   0.288  12.005  0.0206 -0.1107 -0.3901
  548MPD2    C2 8129   2.825   0.238  12.099  0.2011 -0.1434  0.2498
  548MPD2    C3 8130   2.904   0.129  12.072 -0.1557  0.1341 -0.3691
  548MPD2    C4 8131   2.906   0.082  11.939  0.0623 -0.4888 -0.0129
  548MPD2    C5 8132   2.824   0.138  11.843  0.1961  0.0389  0.0880
  548MPD2     H 8133   2.817   0.282  12.198  0.5808  1.0867 -0.2687
  548MPD2    H1 8134   2.956   4.708  11.910  3.0275  0.5324  1.9671
  548MPD2    H2 8135   2.661   0.278  11.804  0.2071  0.0951 -0.2095
  548MPD2    H3 8136   2.816   0.100  11.742  0.9983 -0.1568  0.0976
  548MPD2     N 8137   2.981   0.056  12.164 -0.0644  0.0561  0.1791
  548MPD2    H5 8138   3.029   4.688  12.139  0.9338  0.6154  0.1429
  548MPD2    N1 8139   2.638   0.389  12.029 -0.5013 -0.0992  0.5171
  548MPD2    H7 8140   2.559   0.390  11.965  0.9561  1.9775 -1.2302
  549TMC3    C1 8141   2.491   0.484  12.162 -0.4210 -0.7935 -0.2590
  549TMC3    C2 8142   2.432   0.595  12.100 -0.1267 -0.0796 -0.8108
  549TMC3    C3 8143   2.297   0.600  12.127  0.3112 -0.2815  0.1851
  549TMC3    C4 8144   2.430   0.387  12.238  0.5566 -0.0470 -0.3195
  549TMC3    C5 8145   2.299   0.403  12.251 -0.1004 -0.1740 -0.1286
  549TMC3    C6 8146   2.231   0.510  12.195 -0.0950 -0.0104  0.9338
  549TMC3     C 8147   2.626   0.461  12.144 -0.2900 -0.5522 -0.5507
  549TMC3     O 8148   2.704   0.475  12.243 -0.5432  0.5891 -0.0457
  549TMC3     H 8149   2.484   0.663  12.035 -0.4658  0.2640 -0.7220
  549TMC3    H1 8150   2.490   0.308  12.281 -0.4753 -3.1619 -4.6418
  549TMC3    H2 8151   2.124   0.515  12.208 -0.1067  0.7717  0.5430
  549TMC3    C7 8152   2.228   0.313  12.334  0.2821  0.6992 -0.8751
  549TMC3    C8 8153   2.228   0.722  12.092 -0.2383 -0.5852 -0.1160
  549TMC3    O1 8154   2.119   0.355  12.374  0.1761  0.5382 -0.3618
  549TMC3    O2 8155   2.108   0.712  12.066  0.2230 -0.2359  0.1258
  550TMC3    C1 8156   1.636   3.366  12.376 -0.1151  0.2406  0.4756
  550TMC3    C2 8157   1.564   3.399  12.492  0.3652  0.1723  0.5985
  550TMC3    C3 8158   1.488   3.512  12.492 -0.5037 -0.1134 -0.0277
  550TMC3    C4 8159   1.631   3.442  12.269 -0.4104 -0.2007  0.1865
  550TMC3    C5 8160   1.547   3.553  12.266 -0.2661  0.2011 -0.5220
  550TMC3    C6 8161   1.482   3.588  12.378 -0.2648 -1.3511 -0.4508
  550TMC3     C 8162   1.636   3.224  12.347  0.4857  1.0530  0.8566
  550TMC3     O 8163   1.681   3.147  12.433  0.1785  0.6766 -0.0567
  550TMC3     H 8164   1.533   3.329  12.569 -0.1443 -2.0453 -1.5952
  550TMC3    H1 8165   1.679   3.409  12.178 -0.9977 -0.3660 -0.0627
  550TMC3    H2 8166   1.394   3.651  12.371 -0.0291 -0.8400  1.1572
  550TMC3    C7 8167   1.460   3.550  12.148 -0.1455  0.0626 -0.0685
  550TMC3    C8 8168   1.409   3.566  12.604 -0.2848  0.3853  0.3643
  550TMC3    O1 8169   1.474   3.442  12.092 -0.8172  0.4401 -0.5063
  550TMC3    O2 8170   1.348   3.667  12.574  0.6744  0.7746  0.2562
  551TMC3    C1 8171   3.882   0.761  13.596  0.0044 -0.1511  0.7078
  551TMC3    C2 8172   4.012   0.732  13.560  0.0413  0.4490 -0.0393
  551TMC3    C3 8173   4.111   0.777  13.645 -0.7841  0.3521  0.5076
  551TMC3    C4 8174   3.851   0.847  13.697  0.0386  0.3046 -0.4502
  551TMC3    C5 8175   3.955   0.893  13.775 -0.0009 -0.1249 -1.0260
  551TMC3    C6 8176   4.082   0.856  13.756  0.1179 -0.7600  0.2564
  551TMC3     C 8177   3.784   0.719  13.505 -1.0416 -0.6401  0.6981
  551TMC3     O 8178   3.814   0.719  13.386  0.8034 -0.1617  0.0832
  551TMC3     H 8179   4.031   0.663  13.479  0.1717 -0.5715  0.8485
  551TMC3    H1 8180   3.750   0.883  13.707  0.1584  0.8233 -1.1864
  551TMC3    H2 8181   4.159   0.892  13.824  0.9033 -1.6940 -0.1384
  551TMC3    C7 8182   3.922   1.011  13.865  0.4107 -0.7304  0.1786
  551TMC3    C8 8183   4.239   0.816  13.586 -0.3532  0.4508 -0.0444
  551TMC3    O1 8184   3.985   1.009  13.968  0.5184  0.1372  0.0734
  551TMC3    O2 8185   4.337   0.772  13.643  0.1803  0.2190 -0.4745
  552MPD2     C 8186   0.905   2.760  14.032  0.3079 -0.6996 -0.2767
  552MPD2    C1 8187   0.963   2.633  14.019 -1.1919  0.9154  1.1231
  552MPD2    C2 8188   1.081   2.604  14.088  0.0978  0.1535 -0.8108
  552MPD2    C3 8189   1.142   2.708  14.157 -0.0557 -0.5902  0.0087
  552MPD2    C4 8190   1.078   2.827  14.181  0.3526  0.4459 -0.3025
  552MPD2    C5 8191   0.958   2.844  14.119 -0.0752 -0.1428 -0.0589
  552MPD2     H 8192   1.130   2.508  14.074  4.5011  1.8396  2.9466
  552MPD2    H1 8193   1.113   2.899  14.255 -1.5456  0.1701  0.8719
  552MPD2    H2 8194   0.815   2.783  13.976  0.0585 -3.0750 -0.8567
  552MPD2    H3 8195   0.900   2.936  14.123  0.9897  0.5929 -1.4675
  552MPD2     N 8196   1.268   2.701  14.223 -0.0032  0.0887 -0.7466
  552MPD2    H5 8197   1.311   2.784  14.263 -0.1078 -0.5796  0.7658
  552MPD2    N1 8198   0.903   2.527  13.938 -0.1103  0.4095 -0.2592
  552MPD2    H7 8199   0.949   2.436  13.933  0.4626  0.8293 -2.6550
  553TMC3    C1 8200   0.767   2.407  13.791 -0.1272  0.2401  0.2133
  553TMC3    C2 8201   0.735   2.419  13.665 -0.3000 -0.6342 -0.8003
  553TMC3    C3 8202   0.775   2.316  13.583  0.9267 -0.0779 -0.4446
  553TMC3    C4 8203   0.825   2.296  13.843 -0.1116 -0.6579 -0.0656
  553TMC3    C5 8204   0.838   2.180  13.768  0.1895 -0.9452  0.2206
  553TMC3    C6 8205   0.815   2.192  13.632  0.3605  0.0961  0.0183
  553TMC3     C 8206   0.786   2.533  13.862 -0.0659 -0.3178 -0.1084
  553TMC3     O 8207   0.711   2.626  13.845 -0.3480  0.3915  0.0499
  553TMC3     H 8208   0.704   2.518  13.630  0.9092 -0.2666 -0.8136
  553TMC3    H1 8209   0.855   2.287  13.947 -0.8729 -2.4369 -0.0028
  553TMC3    H2 8210   0.841   2.110  13.566 -1.2880 -1.5454  1.4215
  553TMC3    C7 8211   0.908   2.072  13.828  0.4584 -0.4806 -0.2522
  553TMC3    C8 8212   0.845   2.362  13.458  0.1746 -0.1484 -0.3198
  553TMC3    O1 8213   0.875   1.958  13.807  0.1743  0.3434 -0.0908
  553TMC3    O2 8214   0.937   2.293  13.413 -0.0939 -1.0992  0.4156
  554TMC3    C1 8215   2.625   1.950  11.655 -0.2504  0.4231 -0.0171
  554TMC3    C2 8216   2.571   1.838  11.598  0.1997 -0.4501  0.0493
  554TMC3    C3 8217   2.558   1.836  11.464 -0.5456  0.3840 -0.1165
  554TMC3    C4 8218   2.660   2.064  11.590  0.3890  0.0406 -0.1033
  554TMC3    C5 8219   2.643   2.062  11.458  0.7862  0.3486  0.2809
  554TMC3    C6 8220   2.593   1.949  11.393  0.4757 -0.1930 -0.2436
  554TMC3     C 8221   2.639   1.954  11.803  0.1424 -0.6092 -0.1591
  554TMC3     O 8222   2.642   2.060  11.862 -0.0666 -0.1763 -0.2744
  554TMC3     H 8223   2.522   1.767  11.663  1.4339 -0.6485  0.7691
  554TMC3    H1 8224   2.714   2.145  11.637 -0.0563 -0.2129  0.8452
  554TMC3    H2 8225   2.588   1.958  11.285 -2.4936  2.5866  0.1032
  554TMC3    C7 8226   2.703   2.167  11.376  0.5566 -0.5471 -0.2998
  554TMC3    C8 8227   2.456   1.742  11.410 -0.9662  0.1606 -0.5952
  554TMC3    O1 8228   2.729   2.130  11.264 -0.0605  0.0133 -0.6066
  554TMC3    O2 8229   2.418   1.654  11.480  0.9978 -0.2386 -0.4551
  555TMC3    C1 8230   2.193   1.190  15.210  0.5625 -0.0279 -0.1156
  555TMC3    C2 8231   2.151   1.267  15.313  0.5029  0.1083  0.3924
  555TMC3    C3 8232   2.079   1.212  15.416  0.3332  0.3203 -0.4992
  555TMC3    C4 8233   2.171   1.062  15.207 -0.5590 -0.6033 -0.0581
  555TMC3    C5 8234   2.098   1.007  15.311 -0.0696 -0.4970  0.8193
  555TMC3    C6 8235   2.050   1.080  15.411 -0.8510  0.3330 -0.0828
  555TMC3     C 8236   2.233   1.249  15.081  0.8276  0.5601 -0.4119
  555TMC3     O 8237   2.332   1.193  15.035 -0.6869  0.2201 -0.1928
  555TMC3     H 8238   2.179   1.372  15.316  3.9266 -0.8086  0.8963
  555TMC3    H1 8239   2.217   1.009  15.125 -0.1723 -1.8110  0.9303
  555TMC3    H2 8240   1.986   1.030  15.483 -0.6991  1.7025  1.0267
  555TMC3    C7 8241   2.042   0.870  15.294  0.0965 -0.4688  0.0523
  555TMC3    C8 8242   2.057   1.288  15.545  0.8935  0.8419  0.1255
  555TMC3    O1 8243   1.937   0.847  15.356  0.7558 -0.7260 -0.0407
  555TMC3    O2 8244   2.062   1.411  15.532 -0.3757  0.4498  0.3107
  556MPD2     C 8245   4.670   2.556  10.376 -0.4925  0.2146  0.2013
  556MPD2    C1 8246   4.633   2.459  10.463 -0.0250  0.1350  0.2339
  556MPD2    C2 8247   4.576   2.341  10.418 -0.1734 -0.3273 -1.2012
  556MPD2    C3 8248   4.570   2.322  10.281  0.0342  1.1156  0.3712
  556MPD2    C4 8249   4.609   2.419  10.189  0.3572  0.1699  0.4288
  556MPD2    C5 8250   4.665   2.534  10.241 -0.1065 -0.6689 -0.2316
  556MPD2     H 8251   4.544   2.262  10.485 -1.4268 -1.1019 -2.7015
  556MPD2    H1 8252   4.608   2.414  10.081 -1.0505  0.0110  0.4421
  556MPD2    H2 8253   4.697   2.655  10.411 -2.1390  0.2019  1.5065
  556MPD2    H3 8254   4.701   2.606  10.168  1.4885 -0.5000  0.7264
  556MPD2     N 8255   4.501   2.205  10.237  0.5698  0.3712 -0.4319
  556MPD2    H5 8256   4.486   2.145  10.318  0.0945  1.3395  0.1885
  556MPD2    N1 8257   4.641   2.491  10.603  0.2155  0.1806  0.7006
  556MPD2    H7 8258   4.687   2.579  10.622 -1.1517  0.7796  1.2765
  557TMC3    C1 8259   4.457   2.021  10.096 -0.0802  0.0579 -0.2849
  557TMC3    C2 8260   4.492   1.941   9.992 -0.0088  0.1954 -0.2771
  557TMC3    C3 8261   4.450   1.809   9.995  0.2468 -0.0954 -0.8681
  557TMC3    C4 8262   4.368   1.969  10.194 -0.0315  0.3482  0.1580
  557TMC3    C5 8263   4.320   1.841  10.186 -0.0628 -0.4298 -0.0580
  557TMC3    C6 8264   4.361   1.759  10.087 -0.4301  0.1727  0.1096
  557TMC3     C 8265   4.500   2.159  10.109  0.7566 -0.3771 -0.3262
  557TMC3     O 8266   4.540   2.215  10.007  0.0799 -0.4039 -1.3191
  557TMC3     H 8267   4.560   1.985   9.920 -1.2042 -0.3777 -1.7641
  557TMC3    H1 8268   4.334   2.028  10.278 -0.3484  1.6913 -0.9231
  557TMC3    H2 8269   4.305   1.667  10.072 -1.4158  0.7972 -0.0499
  557TMC3    C7 8270   4.193   1.823  10.254 -0.3860  0.2130  0.7792
  557TMC3    C8 8271   4.479   1.736   9.871  0.1982 -0.1300 -0.1652
  557TMC3    O1 8272   4.138   1.922  10.298  0.1445  0.6417  0.1648
  557TMC3    O2 8273   4.514   1.804   9.780 -0.1131 -0.0560  0.0600
  558TMC3    C1 8274   2.799   0.650   9.670  0.2965  0.3050  0.1714
  558TMC3    C2 8275   2.689   0.667   9.745 -0.0745  0.2291  0.7531
  558TMC3    C3 8276   2.572   0.693   9.675  0.1856  0.6198 -0.9087
  558TMC3    C4 8277   2.802   0.648   9.531 -0.2018  0.3338  0.4035
  558TMC3    C5 8278   2.686   0.665   9.463  0.1780 -0.0430 -0.4054
  558TMC3    C6 8279   2.570   0.683   9.532  0.2845 -0.0763 -0.2323
  558TMC3     C 8280   2.906   0.589   9.745  0.8569  0.5915  0.0198
  558TMC3     O 8281   2.927   0.633   9.857 -0.2179 -0.0734 -0.2029
  558TMC3     H 8282   2.697   0.698   9.849 -2.4349 -3.5218  2.0806
  558TMC3    H1 8283   2.897   0.643   9.478 -0.5257 -0.4396 -0.1031
  558TMC3    H2 8284   2.477   0.693   9.477  1.1853 -1.3837 -1.9938
  558TMC3    C7 8285   2.701   0.639   9.326 -0.2111 -0.1511  0.3351
  558TMC3    C8 8286   2.451   0.680   9.751 -0.4053  0.0918  0.2650
  558TMC3    O1 8287   2.809   0.659   9.271 -0.5255 -0.0394 -1.0025
  558TMC3    O2 8288   2.353   0.734   9.703  0.0691  0.5588  0.7507
  559MPD2     C 8289   2.353   1.420  10.641 -0.4856 -0.6951 -0.2289
  559MPD2    C1 8290   2.320   1.284  10.641 -0.0696  0.2635  0.5082
  559MPD2    C2 8291   2.382   1.206  10.735 -0.2258  0.4877 -0.1592
  559MPD2    C3 8292   2.490   1.251  10.809 -0.2421 -0.3705  0.0210
  559MPD2    C4 8293   2.518   1.386  10.806  0.0696  0.0987 -0.6233
  559MPD2    C5 8294   2.447   1.478  10.724 -1.0358 -0.4164  0.6666
  559MPD2     H 8295   2.352   1.105  10.760 -0.8815  1.2508  2.0932
  559MPD2    H1 8296   2.587   1.431  10.877 -0.5573  0.8051 -0.4551
  559MPD2    H2 8297   2.296   1.492  10.582  1.3111  0.2400 -0.8289
  559MPD2    H3 8298   2.459   1.585  10.734 -2.3835 -0.1163 -0.9603
  559MPD2     N 8299   2.555   1.160  10.900 -0.0294 -0.8649 -0.2826
  559MPD2    H5 8300   2.514   1.068  10.913 -0.3661 -0.8930 -1.5826
  559MPD2    N1 8301   2.204   1.253  10.577  0.3590  0.5853 -0.3678
  559MPD2    H7 8302   2.163   1.322  10.515 -0.1319 -0.0132 -0.7105
  560TMC3    C1 8303   2.713   1.080  11.055 -0.6600 -0.4986  0.9794
  560TMC3    C2 8304   2.648   0.960  11.040 -0.3489 -0.3116  0.2245
  560TMC3    C3 8305   2.683   0.858  11.125 -0.0514 -0.3995  0.6179
  560TMC3    C4 8306   2.803   1.101  11.158 -0.9412 -0.7175  0.4540
  560TMC3    C5 8307   2.830   0.992  11.243  0.5172 -0.0131 -0.8048
  560TMC3    C6 8308   2.776   0.869  11.226  0.6994  0.5215  0.4783
  560TMC3     C 8309   2.673   1.190  10.972  0.0173 -0.0450  0.0519
  560TMC3     O 8310   2.747   1.286  10.978 -0.0255 -0.1120 -0.2786
  560TMC3     H 8311   2.595   0.937  10.949  1.0105  0.9782 -0.8909
  560TMC3    H1 8312   2.858   1.193  11.170 -2.8816  0.3495  1.1799
  560TMC3    H2 8313   2.767   0.799  11.309 -0.6686  1.5981  1.2209
  560TMC3    C7 8314   2.937   0.994  11.341 -0.1102  0.4102  0.3318
  560TMC3    C8 8315   2.649   0.726  11.065  0.2816  0.2776 -0.4957
  560TMC3    O1 8316   2.951   0.886  11.398 -0.1685 -0.3547  0.4602
  560TMC3    O2 8317   2.561   0.724  10.984  0.2277 -0.1772 -0.3596
  561TMC3    C1 8318   0.676   4.532  11.222 -0.7933 -0.4563 -0.3548
  561TMC3    C2 8319   0.600   4.445  11.307 -0.0884 -0.3398  0.7896
  561TMC3    C3 8320   0.537   4.507  11.414 -0.7216  0.5201 -0.5999
  561TMC3    C4 8321   0.664   4.666  11.229 -0.6095 -0.1350  0.0791
  561TMC3    C5 8322   0.587   0.003  11.329 -0.8423  0.1379 -0.2713
  561TMC3    C6 8323   0.529   4.645  11.425 -0.3491 -0.0776  0.5789
  561TMC3     C 8324   0.710   4.471  11.091  0.2022 -0.0418 -0.1211
  561TMC3     O 8325   0.658   4.369  11.070  0.4430  0.4628  0.5250
  561TMC3     H 8326   0.622   4.339  11.314 -0.1232 -0.3008  1.5052
  561TMC3    H1 8327   0.696   0.008  11.144  0.3660 -0.7410  0.0095
  561TMC3    H2 8328   0.495   4.690  11.517 -0.8443 -0.5258  0.6136
  561TMC3    C7 8329   0.547   0.143  11.314  0.9072 -0.6695 -0.7241
  561TMC3    C8 8330   0.439   4.423  11.489 -0.2846  0.1130 -0.7127
  561TMC3    O1 8331   0.451   0.169  11.390 -0.4257 -0.3626  0.3886
  561TMC3    O2 8332   0.445   4.305  11.464  0.1919  0.3525  0.2547
  562TMC3    C1 8333   1.664   1.573  15.977 -0.3000  0.7727  0.2571
  562TMC3    C2 8334   1.584   1.667  15.918 -0.3605  0.8870 -0.2099
  562TMC3    C3 8335   1.511   1.630  15.803 -0.2847  0.0514 -0.1116
  562TMC3    C4 8336   1.672   1.449  15.930  0.6804  0.4385 -1.0895
  562TMC3    C5 8337   1.609   1.425  15.812  0.1246 -0.3272 -0.8978
  562TMC3    C6 8338   1.521   1.505  15.753  0.1352 -0.0994 -0.2188
  562TMC3     C 8339   1.746   1.601  16.094  0.3575  0.3562  0.6922
  562TMC3     O 8340   1.745   1.516  16.185  0.1277  0.2700 -0.2637
  562TMC3     H 8341   1.573   1.767  15.960  1.0433 -0.0216  2.3172
  562TMC3    H1 8342   1.742   1.383  15.981 -0.5052  0.1989  0.2113
  562TMC3    H2 8343   1.467   1.468  15.666 -2.9660 -0.1230  1.6993
  562TMC3    C7 8344   1.647   1.308  15.739  0.3590 -0.2451  0.0100
  562TMC3    C8 8345   1.383   1.696  15.797 -0.0472  0.1353  0.1150
  562TMC3    O1 8346   1.644   1.320  15.613 -0.0276  0.3383  0.7009
  562TMC3    O2 8347   1.334   1.732  15.903  0.4278  0.4340  0.0059
  563MPD2     C 8348   3.916   3.134  15.772 -0.9790  0.3090  0.5680
  563MPD2    C1 8349   3.925   3.141  15.907  0.8882 -0.3380  0.0204
  563MPD2    C2 8350   4.043   3.189  15.961  0.1056 -0.7909 -0.0895
  563MPD2    C3 8351   4.152   3.224  15.887 -0.4618  0.0217  0.1540
  563MPD2    C4 8352   4.139   3.224  15.754 -0.6428 -0.5597 -0.5837
  563MPD2    C5 8353   4.021   3.184  15.699  0.4266  0.2263  0.0761
  563MPD2     H 8354   4.055   3.198  16.069  1.7583  0.7967 -0.4107
  563MPD2    H1 8355   4.207   3.283  15.694 -0.9528  0.3325 -0.0693
  563MPD2    H2 8356   3.829   3.095  15.720  0.5808  0.1749 -1.9629
  563MPD2    H3 8357   4.015   3.190  15.591  0.0008 -0.3399  0.0690
  563MPD2     N 8358   4.265   3.264  15.960  0.2198  0.2528 -0.2441
  563MPD2    H5 8359   4.255   3.259  16.061 -3.0365  0.9436 -0.5379
  563MPD2    N1 8360   3.826   3.096  15.997  0.1859  0.0287 -0.4159
  563MPD2    H7 8361   3.837   3.104  16.097 -0.0895 -1.2591 -0.2832
  564TMC3    C1 8362   3.684   2.916  16.060 -0.4390 -0.0192 -0.4074
  564TMC3    C2 8363   3.587   2.824  16.019  0.3161  0.2861 -1.0539
  564TMC3    C3 8364   3.553   2.727  16.114 -0.2854  0.6063 -0.2818
  564TMC3    C4 8365   3.747   2.917  16.182  0.9264 -0.3524 -0.0458
  564TMC3    C5 8366   3.713   2.812  16.269 -0.0018  0.3710 -0.2484
  564TMC3    C6 8367   3.615   2.722  16.238  0.3585  0.1116 -0.4926
  564TMC3     C 8368   3.729   3.006  15.951  0.4321 -0.9639  0.6162
  564TMC3     O 8369   3.697   2.973  15.840  0.0224  0.1907  0.1412
  564TMC3     H 8370   3.534   2.836  15.926 -0.6017  2.2797 -0.2725
  564TMC3    H1 8371   3.838   2.973  16.199 -0.4647  1.4533  1.4516
  564TMC3    H2 8372   3.571   2.655  16.311  1.6098 -0.9463 -0.7068
  564TMC3    C7 8373   3.830   2.753  16.337 -0.7432 -0.1366 -0.2010
  564TMC3    C8 8374   3.469   2.609  16.078 -0.7121  0.1232  0.3805
  564TMC3    O1 8375   3.931   2.819  16.347 -0.0490 -0.1390  0.0200
  564TMC3    O2 8376   3.415   2.553  16.173  0.5456 -0.3299  0.3256
  565TMC3    C1 8377   4.706   3.748   9.892  0.0622 -0.1258 -0.6077
  565TMC3    C2 8378   4.703   3.660  10.002  0.3544 -0.3440 -0.2633
  565TMC3    C3 8379   4.685   3.527   9.984 -0.1175 -0.2437  0.2201
  565TMC3    C4 8380   4.706   3.693   9.764  0.2041 -0.3131  0.1198
  565TMC3    C5 8381   4.693   3.558   9.751 -0.3801 -0.4478  0.1520
  565TMC3    C6 8382   4.684   3.472   9.860  0.7067  0.2581 -0.8809
  565TMC3     C 8383   0.065   3.869   9.904  0.4875  0.6509  0.0846
  565TMC3     O 8384   0.120   3.912   9.806 -0.0578  0.2933 -1.1123
  565TMC3     H 8385   4.708   3.705  10.101 -0.0399 -1.0750  0.0896
  565TMC3    H1 8386   4.710   3.765   9.683 -0.2722  0.5458  0.8555
  565TMC3    H2 8387   4.629   3.379   9.848 -3.5946  2.3864  2.3017
  565TMC3    C7 8388   4.627   3.516   9.629  0.1294  0.2697  0.2167
  565TMC3    C8 8389   4.699   3.442  10.100 -0.5742  0.3026 -0.8134
  565TMC3    O1 8390   4.575   3.405   9.625  0.8233  0.3664  0.2534
  565TMC3    O2 8391   4.651   3.485  10.203  0.1231  0.0437 -0.0112
  566MPD2     C 8392   0.901   1.347  14.167 -0.0634  0.8961 -0.2083
  566MPD2    C1 8393   1.020   1.274  14.179 -0.1394  0.8812 -0.0846
  566MPD2    C2 8394   1.022   1.143  14.139  0.1093 -0.1903 -0.2460
  566MPD2    C3 8395   0.908   1.078  14.091  0.6240 -0.0080  0.1366
  566MPD2    C4 8396   0.787   1.144  14.093  0.1768 -0.0672  0.5582
  566MPD2    C5 8397   0.783   1.276  14.126  0.2055  0.1802 -0.6767
  566MPD2     H 8398   1.121   1.098  14.134 -0.4516 -1.4201 -0.2067
  566MPD2    H1 8399   0.693   1.096  14.072  0.7263 -1.2767  0.8711
  566MPD2    H2 8400   0.888   1.450  14.199 -1.5161  1.0578 -1.3292
  566MPD2    H3 8401   0.687   1.326  14.134  0.7462  1.1531 -0.3111
  566MPD2     N 8402   0.918   0.936  14.051  0.2163 -0.0013 -0.3111
  566MPD2    H5 8403   0.843   0.890  14.000  2.4229  0.1771 -3.6808
  566MPD2    N1 8404   1.136   1.344  14.220 -0.3533 -0.3616  0.8769
  566MPD2    H7 8405   1.122   1.443  14.239 -1.5820 -0.3610  0.0039
  567TMC3    C1 8406   1.360   1.384  14.256 -0.1723  0.0461 -0.6017
  567TMC3    C2 8407   1.357   1.483  14.166  0.1217 -0.1951 -0.1618
  567TMC3    C3 8408   1.478   1.545  14.132  0.5089  0.4260  0.1234
  567TMC3    C4 8409   1.479   1.338  14.306  0.0123  0.5625  0.1487
  567TMC3    C5 8410   1.593   1.404  14.282 -0.1468  0.0718 -0.3111
  567TMC3    C6 8411   1.594   1.505  14.191 -0.0510  0.2288 -0.3674
  567TMC3     C 8412   1.259   1.283  14.236 -0.4908 -0.9039  0.3436
  567TMC3     O 8413   1.280   1.164  14.257  0.7343  0.3197  0.3968
  567TMC3     H 8414   1.274   1.527  14.112  0.9364  0.6452 -0.7538
  567TMC3    H1 8415   1.478   1.258  14.379  2.4929  1.3648  1.0526
  567TMC3    H2 8416   1.685   1.552  14.157  0.9319  0.5453  2.7491
  567TMC3    C7 8417   1.727   1.364  14.322  0.4552  0.7318  0.4200
  567TMC3    C8 8418   1.489   1.620  14.006  0.2855  0.1842  0.0073
  567TMC3    O1 8419   1.825   1.419  14.275  0.2167  0.0934 -0.1256
  567TMC3    O2 8420   1.428   1.575  13.905 -0.5410 -0.6441 -0.7462
  568MPD2     C 8421   4.060   1.434  16.490  0.0573  0.4554 -0.5014
  568MPD2    C1 8422   3.981   1.479  16.591  0.0491  0.3312 -0.4921
  568MPD2    C2 8423   3.868   1.554  16.550  0.4651  0.6470 -0.3644
  568MPD2    C3 8424   3.832   1.578  16.420  0.0407  0.1302  0.5431
  568MPD2    C4 8425   3.908   1.522  16.318 -0.3106 -0.1833 -0.1420
  568MPD2    C5 8426   4.020   1.449  16.359  0.4949  0.4485  0.1417
  568MPD2     H 8427   3.801   1.595  16.624 -1.5287 -1.5189 -0.9820
  568MPD2    H1 8428   3.887   1.535  16.212  0.4824  2.3344  0.0082
  568MPD2    H2 8429   4.156   1.383  16.499 -0.0200  0.1601 -1.3207
  568MPD2    H3 8430   4.089   1.406  16.287 -2.6600 -2.1777 -1.3214
  568MPD2     N 8431   3.721   1.656  16.393  0.2277  0.4341  0.1438
  568MPD2    H5 8432   3.670   1.709  16.463  0.9857 -0.6095  1.4672
  568MPD2    N1 8433   4.022   1.458  16.722 -0.1980 -0.2649 -0.3484
  568MPD2    H7 8434   4.093   1.386  16.737  0.2818  0.5574  1.3843
  569TMC3    C1 8435   3.535   1.767  16.260  0.7647  0.5082  0.6932
  569TMC3    C2 8436   3.482   1.817  16.378 -0.1686 -0.4375  0.8044
  569TMC3    C3 8437   3.371   1.898  16.365  0.4611  0.1760 -0.2967
  569TMC3    C4 8438   3.498   1.803  16.137  0.5946 -0.2778  0.6812
  569TMC3    C5 8439   3.398   1.888  16.129  0.0305 -0.2815  0.4280
  569TMC3    C6 8440   3.335   1.937  16.242 -0.1153  0.3392  0.4789
  569TMC3     C 8441   3.666   1.685  16.271 -0.4500 -0.2683 -0.3449
  569TMC3     O 8442   3.716   1.665  16.160 -0.1998  0.5043  0.2784
  569TMC3     H 8443   3.514   1.777  16.473  1.3806  1.4878  1.0855
  569TMC3    H1 8444   3.547   1.781  16.043 -0.1074 -0.4759  0.3614
  569TMC3    H2 8445   3.260   2.015  16.235 -1.4685 -1.0131 -0.0419
  569TMC3    C7 8446   3.399   1.971  16.005  0.4991 -0.3843  0.1538
  569TMC3    C8 8447   3.360   1.997  16.463 -0.0370  0.2319 -0.3128
  569TMC3    O1 8448   3.444   1.914  15.905 -0.2638 -0.1366  0.5239
  569TMC3    O2 8449   3.261   2.067  16.446  0.6021 -0.5449  0.2925
  570TMC3    C1 8450   2.843   0.186  16.375  0.3276  0.4477  0.3143
  570TMC3    C2 8451   2.940   0.228  16.287  0.0280 -0.0689 -0.1430
  570TMC3    C3 8452   2.914   0.335  16.202 -0.8711  0.4623  0.2991
  570TMC3    C4 8453   2.722   0.250  16.374  0.1064  0.0734 -0.9163
  570TMC3    C5 8454   2.702   0.355  16.292 -0.5857  0.3639 -0.4011
  570TMC3    C6 8455   2.799   0.405  16.201  0.3347  0.1210 -0.5399
  570TMC3     C 8456   2.883   0.123  16.501 -0.2495 -0.6801 -0.3921
  570TMC3     O 8457   3.003   0.094  16.502  0.0849 -0.5167 -0.2083
  570TMC3     H 8458   3.038   0.182  16.297  0.0777 -0.2237 -1.3139
  570TMC3    H1 8459   2.653   0.231  16.455  2.1108 -0.7500  0.5887
  570TMC3    H2 8460   2.786   0.502  16.153 -2.4483  0.1177  0.1931
  570TMC3    C7 8461   2.607   0.443  16.348 -0.0424 -0.2894  0.3183
  570TMC3    C8 8462   3.020   0.399  16.119 -0.1104 -1.3277  0.2960
  570TMC3    O1 8463   2.602   0.445  16.470  0.0635 -0.1040 -0.9318
  570TMC3    O2 8464   2.987   0.501  16.062 -0.7414 -0.1561 -0.3873
  571MPD2     C 8465   0.874   1.961   0.624 -0.4663  0.0398 -0.4995
  571MPD2    C1 8466   0.952   1.858   0.587  0.4405  0.3380 -0.1382
  571MPD2    C2 8467   1.045   1.876   0.483 -0.6585  0.0560  0.2630
  571MPD2    C3 8468   1.049   2.000   0.421 -0.4137  0.3428  0.5331
  571MPD2    C4 8469   0.965   2.103   0.463  0.3282  0.1818 -0.1957
  571MPD2    C5 8470   0.881   2.080   0.564  0.7487 -0.1373 -0.0671
  571MPD2     H 8471   1.111   1.797   0.450 -1.1816  0.2551 -1.2632
  571MPD2    H1 8472   0.973   2.202   0.420 -0.5850  0.7508  0.9422
  571MPD2    H2 8473   0.811   1.952   0.712  1.8753 -0.7423  1.0948
  571MPD2    H3 8474   0.813   2.160   0.591  0.2047 -0.0771 -1.6146
  571MPD2     N 8475   1.128   2.028   0.310 -0.1251  0.2311  0.4772
  571MPD2    H5 8476   1.118   2.124   0.279 -2.0144  0.3211  1.3678
  571MPD2    N1 8477   0.936   1.740   0.665 -0.1256 -0.2655 -0.0618
  571MPD2    H7 8478   0.873   1.748   0.744  1.2156  1.2868  0.8335
  572TMC3    C1 8479   1.286   2.037   0.135  0.2551 -0.9222 -0.5931
  572TMC3    C2 8480   1.426   2.024   0.140  0.0444 -0.0290  0.3629
  572TMC3    C3 8481   1.494   2.134   0.101 -0.0761  0.0390  0.0780
  572TMC3    C4 8482   1.230   2.142   0.065 -0.0666 -0.1154  0.3463
  572TMC3    C5 8483   1.304   2.251   0.025  0.0263 -0.2702  1.1926
  572TMC3    C6 8484   1.441   2.246   0.036  0.0633 -0.1553  0.0541
  572TMC3     C 8485   1.215   1.952   0.235  0.9909 -0.3758 -0.0117
  572TMC3     O 8486   1.247   1.838   0.257  0.2334  0.2459 -0.4574
  572TMC3     H 8487   1.474   1.953   0.208  0.9714  1.2117  1.0033
  572TMC3    H1 8488   1.123   2.143   0.077 -0.4295 -0.1103 -2.9068
  572TMC3    H2 8489   1.493   2.340   0.042 -0.9484  0.3179  1.5196
  572TMC3    C7 8490   1.233   2.378  17.671 -0.6251 -0.6149  0.2611
  572TMC3    C8 8491   1.621   2.170   0.163  0.2482 -0.4983 -0.5850
  572TMC3    O1 8492   1.115   2.377   0.028  0.0134  0.0971 -0.2005
  572TMC3    O2 8493   1.727   2.156   0.110 -0.2229 -0.2541 -0.4899
  573MPD2     C 8494   1.488   2.890   0.477  0.1573  0.5906 -0.5843
  573MPD2    C1 8495   1.607   2.926   0.415  0.3376  0.2490  0.4855
  573MPD2    C2 8496   1.613   2.979   0.285 -0.6286  0.0864 -0.4473
  573MPD2    C3 8497   1.490   3.002   0.224  1.3422 -0.4507 -0.0797
  573MPD2    C4 8498   1.372   2.974   0.288 -0.9376 -0.9390  0.5284
  573MPD2    C5 8499   1.371   2.919   0.409  0.1198  0.7603  0.6376
  573MPD2     H 8500   1.703   3.003   0.229 -1.3517 -1.0257 -2.0898
  573MPD2    H1 8501   1.277   2.982   0.238 -1.2821  4.1630  2.0085
  573MPD2    H2 8502   1.486   2.850   0.578  0.3112 -0.2109 -0.8998
  573MPD2    H3 8503   1.275   2.886   0.448 -0.8934  1.0279 -1.6270
  573MPD2     N 8504   1.487   3.058   0.096  0.3897 -0.0627 -0.0673
  573MPD2    H5 8505   1.399   3.092   0.057  0.4721 -0.4988 -0.6308
  573MPD2    N1 8506   1.731   2.910   0.475  0.1244 -0.2921 -0.4251
  573MPD2    H7 8507   1.810   2.931   0.415  2.3580 -0.8473  2.2957
  574TMC3    C1 8508   1.548   3.177  17.572  0.2726 -0.8493 -0.6545
  574TMC3    C2 8509   1.435   3.241  17.566 -0.3002 -0.5221  0.3642
  574TMC3    C3 8510   1.426   3.345  17.482 -0.0333 -0.4070  0.0623
  574TMC3    C4 8511   1.646   3.186  17.472  0.2214  0.0107  0.2324
  574TMC3    C5 8512   1.629   3.288  17.383 -0.9909  0.5102  0.0518
  574TMC3    C6 8513   1.522   3.375  17.391  0.6980 -0.2687 -0.9882
  574TMC3     C 8514   1.584   3.090   0.007  0.4798 -1.0428 -0.0194
  574TMC3     O 8515   1.703   3.059   0.002 -0.3650 -0.2702  0.4490
  574TMC3     H 8516   1.359   3.227  17.642 -1.2282 -2.8788 -0.9981
  574TMC3    H1 8517   1.712   3.105  17.446 -1.8785 -2.5093  2.7993
  574TMC3    H2 8518   1.507   3.452  17.317  0.2181  0.0407 -0.5653
  574TMC3    C7 8519   1.745   3.342  17.317 -0.6677 -0.3090 -0.0421
  574TMC3    C8 8520   1.303   3.423  17.493  0.3279 -0.4002  0.7327
  574TMC3    O1 8521   1.732   3.455  17.270 -0.2811 -0.3241  0.0202
  574TMC3    O2 8522   1.210   3.356  17.540 -0.3841  0.3498 -0.2633
  575TMC3    C1 8523   4.360   3.226  10.836  0.5505 -0.0116  0.0873
  575TMC3    C2 8524   4.318   3.091  10.859 -0.4060  0.0194 -0.3574
  575TMC3    C3 8525   4.365   2.997  10.777 -0.0656  0.7908 -0.4685
  575TMC3    C4 8526   4.453   3.261  10.747 -0.3629 -0.3485  0.3452
  575TMC3    C5 8527   4.513   3.158  10.678 -0.8738  0.3110  0.1470
  575TMC3    C6 8528   4.473   3.030  10.693  0.2864 -1.0164  0.1052
  575TMC3     C 8529   4.288   3.335  10.896  0.6551 -0.2286  0.2957
  575TMC3     O 8530   4.289   3.441  10.837 -0.2221  0.1505  0.3343
  575TMC3     H 8531   4.230   3.065  10.917  0.5740 -0.3838  0.9487
  575TMC3    H1 8532   4.482   3.364  10.730  1.8612 -0.4044  3.9704
  575TMC3    H2 8533   4.528   2.957  10.634  2.8458 -0.1533  1.4034
  575TMC3    C7 8534   4.577   3.197  10.551  0.6129  0.1251  0.4994
  575TMC3    C8 8535   4.322   2.860  10.779 -0.3667 -1.0008  0.1067
  575TMC3    O1 8536   4.545   3.304  10.501  0.4110 -0.3458 -0.3308
  575TMC3    O2 8537   4.353   2.791  10.687  0.0274 -0.1654 -0.0606
  576MPD2     C 8538   4.536   0.216  12.678  0.3423  0.2648 -0.0186
  576MPD2    C1 8539   4.503   0.302  12.579  0.2893  0.5242  0.2808
  576MPD2    C2 8540   4.460   0.432  12.609 -1.1350  0.2879  0.8676
  576MPD2    C3 8541   4.448   0.472  12.737  0.0168 -0.2961 -0.0060
  576MPD2    C4 8542   4.472   0.376  12.834  0.0674 -0.1830  0.1630
  576MPD2    C5 8543   4.513   0.250  12.806  0.1566 -0.4471 -0.8296
  576MPD2     H 8544   4.432   0.502  12.531  0.3601  0.6334  0.6354
  576MPD2    H1 8545   4.461   0.396  12.940  1.6498 -2.8202  0.8261
  576MPD2    H2 8546   4.589   0.124  12.653 -0.6882 -0.6569  1.2028
  576MPD2    H3 8547   4.526   0.169  12.877 -0.9456  0.6501  0.6214
  576MPD2     N 8548   4.391   0.599  12.770 -0.0020  0.2386 -0.5340
  576MPD2    H5 8549   4.373   0.663  12.694  1.7617 -0.8362 -1.8406
  576MPD2    N1 8550   4.516   0.261  12.441  0.1863 -0.1415  0.2013
  576MPD2    H7 8551   4.514   0.333  12.370  0.1908  0.3311  0.6784
  577TMC3    C1 8552   4.562   0.137  12.245 -0.4381 -0.7521  0.0607
  577TMC3    C2 8553   4.576   0.014  12.185 -0.4792  0.2963  0.1893
  577TMC3    C3 8554   4.614   0.008  12.057  0.2733  0.9493 -0.6416
  577TMC3    C4 8555   4.569   0.252  12.167 -0.5119  0.1173  0.3125
  577TMC3    C5 8556   4.608   0.238  12.031  0.1592  0.3877  0.1356
  577TMC3    C6 8557   4.629   0.118  11.976  0.1575 -0.6099  0.2766
  577TMC3     C 8558   4.546   0.139  12.392  0.3129  0.1981  0.5266
  577TMC3     O 8559   4.543   0.030  12.446 -0.3761  0.2043 -0.0321
  577TMC3     H 8560   4.562   4.640  12.241 -2.6677  0.1484 -0.5893
  577TMC3    H1 8561   4.571   0.352  12.208 -1.6254  0.0188  0.6226
  577TMC3    H2 8562   4.657   0.113  11.871 -0.0461 -0.0086  0.1942
  577TMC3    C7 8563   4.645   0.355  11.949  0.0624 -0.4128 -0.2250
  577TMC3    C8 8564   4.652   4.591  12.005  0.5137 -0.1836  0.2391
  577TMC3    O1 8565   0.025   0.344  11.882  0.5067  0.3439  0.1405
  577TMC3    O2 8566   4.593   4.493  12.046  0.1446 -0.8462  0.4190
  578MPD2     C 8567   2.721   0.696   0.254  0.0716  0.6097  0.1027
  578MPD2    C1 8568   2.821   0.739   0.330 -0.6406  0.3800  0.3071
  578MPD2    C2 8569   2.849   0.668   0.449 -0.9387 -0.2957 -0.0219
  578MPD2    C3 8570   2.788   0.547   0.475 -0.4414 -0.2882 -0.6903
  578MPD2    C4 8571   2.690   0.507   0.390  0.6309  0.1530  0.8933
  578MPD2    C5 8572   2.668   0.576   0.277 -0.0110 -0.0016 -0.0570
  578MPD2     H 8573   2.927   0.702   0.516 -0.3171 -0.5682 -0.6000
  578MPD2    H1 8574   2.648   0.411   0.417  1.3274 -0.6294 -0.7538
  578MPD2    H2 8575   2.686   0.757   0.172  0.7995 -1.5884 -1.8175
  578MPD2    H3 8576   2.591   0.527   0.218 -0.1147  2.1098 -1.6650
  578MPD2     N 8577   2.824   0.473   0.598 -0.6120 -0.0768  0.9282
  578MPD2    H5 8578   2.758   0.407   0.639  0.6409 -1.1458  1.2452
  578MPD2    N1 8579   2.894   0.850   0.289 -0.6763 -0.5160  0.3043
  578MPD2    H7 8580   2.854   0.907   0.215  2.1046  2.1502  0.8635
  579TMC3    C1 8581   2.932   0.443   0.803 -0.2516  0.4648 -0.3279
  579TMC3    C2 8582   3.011   0.504   0.887  0.3179  0.3684 -0.3218
  579TMC3    C3 8583   2.995   0.477   1.022  0.0638 -0.2458 -0.9391
  579TMC3    C4 8584   2.839   0.351   0.835  0.0233 -0.2577 -0.5129
  579TMC3    C5 8585   2.828   0.318   0.968  0.1270  0.8210  0.1010
  579TMC3    C6 8586   2.907   0.379   1.063  0.2408 -0.6536 -0.2736
  579TMC3     C 8587   2.938   0.499   0.667  0.5110 -0.1798 -0.1004
  579TMC3     O 8588   3.046   0.548   0.629 -0.0486 -0.4062  0.4066
  579TMC3     H 8589   3.088   0.565   0.843  0.3767  1.1010  0.7859
  579TMC3    H1 8590   2.790   0.295   0.757  2.2220 -1.0113 -1.3275
  579TMC3    H2 8591   2.893   0.361   1.169  4.0215  0.6941  0.4325
  579TMC3    C7 8592   2.765   0.194   1.009 -0.1836 -0.6538 -0.1427
  579TMC3    C8 8593   3.036   0.573   1.113 -0.1815 -0.2524  0.5531
  579TMC3    O1 8594   2.799   0.150   1.119 -0.3519  0.0648  0.4839
  579TMC3    O2 8595   2.977   0.586   1.219 -0.1586 -0.6990  0.3111
  580TMC3    C1 8596   1.685   0.136  11.951 -0.4785 -0.2434  0.1541
  580TMC3    C2 8597   1.759   0.249  11.987 -0.4051  0.0964  0.3507
  580TMC3    C3 8598   1.878   0.232  12.055 -0.7233  0.4467  0.5856
  580TMC3    C4 8599   1.725   0.007  11.981 -0.4783 -0.6319 -0.1726
  580TMC3    C5 8600   1.842   4.713  12.054 -0.4323  0.0271 -0.4401
  580TMC3    C6 8601   1.917   0.104  12.089  0.0868  0.1173  0.0736
  580TMC3     C 8602   1.608   0.157  11.829  0.1374  0.2385  0.5402
  580TMC3     O 8603   1.664   0.108  11.734 -0.3909 -0.1507  0.1720
  580TMC3     H 8604   1.739   0.347  11.946  0.3615 -0.2165 -0.7696
  580TMC3    H1 8605   1.662   4.642  11.950 -1.2193  1.1609 -3.4744
  580TMC3    H2 8606   2.006   0.093  12.149 -0.6968  1.6864  1.5279
  580TMC3    C7 8607   1.901   4.583  12.081  0.2194 -0.0728  0.2988
  580TMC3    C8 8608   1.986   0.311  12.002 -0.1205 -0.1443 -0.2407
  580TMC3    O1 8609   2.021   4.593  12.101  0.0158  0.3349 -0.2064
  580TMC3    O2 8610   1.964   0.435  12.001  0.2877  0.3652  0.0638
  581MPD2     C 8611   0.047   4.285  14.837  0.7824  0.6006  0.3182
  581MPD2    C1 8612   0.052   4.361  14.958 -0.0580  0.1117  0.9772
  581MPD2    C2 8613   4.647   4.398  15.018  0.2715 -0.3032  0.2208
  581MPD2    C3 8614   4.531   4.359  14.959 -0.0107  0.0082 -0.6664
  581MPD2    C4 8615   4.527   4.275  14.853  0.7082 -0.0146 -0.0195
  581MPD2    C5 8616   4.642   4.239  14.795 -0.3366  0.1464 -1.3258
  581MPD2     H 8617   4.643   4.469  15.100  0.9938  1.2459 -1.0817
  581MPD2    H1 8618   4.432   4.236  14.818 -0.2169 -0.0468  2.4586
  581MPD2    H2 8619   0.126   4.251  14.771  0.9346 -1.6107  1.6183
  581MPD2    H3 8620   4.631   4.169  14.713 -1.3056 -0.7635 -0.4201
  581MPD2     N 8621   4.417   4.433  15.000  0.2562 -0.2177  0.4685
  581MPD2    H5 8622   4.428   4.503  15.073 -3.0740  0.6221  0.1847
  581MPD2    N1 8623   0.184   4.386  15.007 -0.3806  0.0031  0.6288
  581MPD2    H7 8624   0.261   4.338  14.961 -0.5288 -0.4628  0.8704
  582TMC3    C1 8625   0.346   4.405  15.181 -0.1058 -0.3118 -0.2863
  582TMC3    C2 8626   0.373   4.448  15.310  0.3139 -0.1990  0.3815
  582TMC3    C3 8627   0.487   4.396  15.366  0.1932  0.1811  0.4461
  582TMC3    C4 8628   0.427   4.335  15.103  0.2346 -0.1478  0.0871
  582TMC3    C5 8629   0.538   4.276  15.159 -0.5044 -0.5855 -0.2900
  582TMC3    C6 8630   0.569   4.313  15.289  0.8872 -0.1962  0.2471
  582TMC3     C 8631   0.209   4.442  15.134 -0.1685  0.4644 -0.5438
  582TMC3     O 8632   0.135   4.500  15.208 -0.3162 -0.0129 -0.1214
  582TMC3     H 8633   0.302   4.502  15.372  0.5195  0.6974 -0.1829
  582TMC3    H1 8634   0.398   4.318  15.000  2.7738 -1.6893 -0.3754
  582TMC3    H2 8635   0.665   4.281  15.328  0.0113 -2.2845  0.6442
  582TMC3    C7 8636   0.623   4.182  15.087  0.2109 -0.3555 -0.2296
  582TMC3    C8 8637   0.510   4.407  15.509 -0.5922  0.1634 -0.5227
  582TMC3    O1 8638   0.741   4.192  15.115 -1.2347 -0.1695  0.1248
  582TMC3    O2 8639   0.458   4.503  15.564 -0.2419 -0.7328 -0.4147
  583MPD2     C 8640   0.394   0.866  16.884  0.0391 -0.1244  0.3657
  583MPD2    C1 8641   0.356   0.978  16.812 -0.2812  0.5148 -1.0543
  583MPD2    C2 8642   0.322   1.090  16.885 -0.0086  0.1986 -0.2602
  583MPD2    C3 8643   0.307   1.081  17.023 -0.3524 -0.7810 -0.4579
  583MPD2    C4 8644   0.367   0.985  17.091  0.0570  1.2533 -1.3525
  583MPD2    C5 8645   0.409   0.879  17.017  0.1179 -0.0514  0.7206
  583MPD2     H 8646   0.286   1.177  16.832 -0.4820  2.0258  3.0278
  583MPD2    H1 8647   0.362   0.974  17.199 -0.6900 -2.0309 -1.7027
  583MPD2    H2 8648   0.426   0.778  16.830 -0.1818 -1.0506  1.7618
  583MPD2    H3 8649   0.446   0.796  17.075 -0.9363 -0.6069  0.5911
  583MPD2     N 8650   0.262   1.194  17.091  0.4565 -0.7025 -0.0377
  583MPD2    H5 8651   0.230   1.265  17.026  0.5561 -1.4526 -0.9016
  583MPD2    N1 8652   0.349   0.992  16.672  0.4750 -0.1753 -0.3500
  583MPD2    H7 8653   0.343   1.085  16.631 -2.2475 -0.8474 -1.5093
  584TMC3    C1 8654   0.203   1.340  17.273  0.3253  0.1991  0.9801
  584TMC3    C2 8655   0.191   1.439  17.181  0.2745  0.4186  0.1517
  584TMC3    C3 8656   0.145   1.558  17.225  1.0120  0.9535 -0.3531
  584TMC3    C4 8657   0.184   1.361  17.412 -0.2825 -0.2116  0.2298
  584TMC3    C5 8658   0.146   1.486  17.448  0.8294 -0.3588 -0.2334
  584TMC3    C6 8659   0.121   1.589  17.358  0.2204  0.0211 -0.3853
  584TMC3     C 8660   0.244   1.210  17.229  0.5208  0.4647  0.3193
  584TMC3     O 8661   0.238   1.125  17.317  0.0792  0.6148  0.5467
  584TMC3     H 8662   0.224   1.429  17.078  0.3546  0.1478  0.2028
  584TMC3    H1 8663   0.207   1.286  17.487 -1.2488 -0.2938  0.4415
  584TMC3    H2 8664   0.073   1.683  17.384 -0.6223 -0.4241 -0.3363
  584TMC3    C7 8665   0.171   1.515  17.586  0.4528 -0.3242  0.4208
  584TMC3    C8 8666   0.099   1.647  17.132 -1.3482 -0.1081 -0.1593
  584TMC3    O1 8667   0.265   1.462  17.641 -0.2051  0.0025 -0.0371
  584TMC3    O2 8668   0.034   1.600  17.043 -0.1473  0.0002  0.1680
  585MPD2     C 8669   4.567   0.552   0.969 -0.6000  1.2419 -0.5940
  585MPD2    C1 8670   4.686   0.515   0.902 -0.6066 -0.0620 -1.0223
  585MPD2    C2 8671   4.698   0.404   0.815  0.2215 -0.1120  0.0264
  585MPD2    C3 8672   4.584   0.328   0.802  0.5964  0.0688  0.0465
  585MPD2    C4 8673   4.470   0.374   0.861 -0.0467 -0.4917 -0.3804
  585MPD2    C5 8674   4.456   0.480   0.945  0.7119 -0.4477  0.3715
  585MPD2     H 8675   0.081   0.384   0.781  0.9038  0.6014  1.6010
  585MPD2    H1 8676   4.378   0.316   0.866 -2.5041  3.4372  0.7601
  585MPD2    H2 8677   4.553   0.644   1.024  2.4469  1.0264  0.5093
  585MPD2    H3 8678   4.358   0.514   0.975  0.8753  0.7886 -0.4630
  585MPD2     N 8679   4.578   0.225   0.703  0.0543 -0.6818  0.0952
  585MPD2    H5 8680   4.487   0.181   0.699 -0.3315 -0.0683  2.4909
  585MPD2    N1 8681   0.076   0.614   0.910 -0.2602  0.1043  0.8014
  585MPD2    H7 8682   0.087   0.649   1.005  0.3753  1.3833  0.2592
  586TMC3    C1 8683   4.621   0.162   0.480  0.0369  0.0481 -0.4416
  586TMC3    C2 8684   4.701   0.179   0.373  0.5089  0.1279  0.2929
  586TMC3    C3 8685   4.651   0.222   0.251  0.3580 -0.1020  0.4348
  586TMC3    C4 8686   4.485   0.175   0.465 -0.0523 -0.6061  0.7835
  586TMC3    C5 8687   4.438   0.216   0.344 -0.4095  0.7347  0.2417
  586TMC3    C6 8688   4.515   0.245   0.240  0.3605  0.6328  0.3143
  586TMC3     C 8689   4.673   0.213   0.604  0.4419 -0.0020 -0.2764
  586TMC3     O 8690   0.070   0.254   0.611  0.0893  0.2353 -0.3052
  586TMC3     H 8691   0.091   0.183   0.388  0.5718  0.2687 -0.2055
  586TMC3    H1 8692   4.415   0.150   0.544  1.3750 -2.7466  1.3700
  586TMC3    H2 8693   4.483   0.271   0.140  0.5543 -1.1834 -0.2198
  586TMC3    C7 8694   4.293   0.213   0.332 -0.5946 -0.0199 -0.5466
  586TMC3    C8 8695   0.007   0.156   0.146  0.3751  0.2826  0.1978
  586TMC3    O1 8696   4.231   0.135   0.398  0.5340  0.1018 -0.0749
  586TMC3    O2 8697   0.086   0.070   0.187  0.2303 -0.1775 -0.1404
  587TMC3    C1 8698   1.738   3.468  16.494  1.0366 -0.8122  0.4970
  587TMC3    C2 8699   1.705   3.583  16.430  0.9692 -0.6266 -0.1917
  587TMC3    C3 8700   1.804   3.638  16.353 -0.2374 -0.0539  0.0215
  587TMC3    C4 8701   1.853   3.402  16.481  0.3555 -0.5467  0.0409
  587TMC3    C5 8702   1.951   3.463  16.407  0.2408  0.0724 -0.0972
  587TMC3    C6 8703   1.934   3.590  16.346 -0.1035  0.3050 -0.3344
  587TMC3     C 8704   1.642   3.407  16.585 -0.3479  0.6400  0.5467
  587TMC3     O 8705   1.650   3.286  16.597  0.7577 -0.2655 -0.0391
  587TMC3     H 8706   1.611   3.635  16.442  0.0115 -1.3213 -4.5163
  587TMC3    H1 8707   1.864   3.315  16.545  0.5362 -0.4003  0.2067
  587TMC3    H2 8708   2.014   3.623  16.280  0.3518  1.2351  0.6990
  587TMC3    C7 8709   2.077   3.400  16.383 -0.5498 -1.0615  0.4986
  587TMC3    C8 8710   1.813   3.767  16.295 -0.6345  0.2487 -0.6984
  587TMC3    O1 8711   2.166   3.476  16.361 -0.6014  0.3040 -0.0097
  587TMC3    O2 8712   1.916   3.825  16.260 -0.1996 -0.1319  0.2132
  588TMC3    C1 8713   3.685   0.904   9.806 -0.5224  0.0539 -0.2939
  588TMC3    C2 8714   3.692   0.782   9.736 -0.3295 -0.4630  0.5471
  588TMC3    C3 8715   3.818   0.730   9.730  0.2466  0.5733  0.0704
  588TMC3    C4 8716   3.797   0.984   9.837  0.2957  0.4539  0.1962
  588TMC3    C5 8717   3.915   0.919   9.854  0.1685 -0.0051 -0.2520
  588TMC3    C6 8718   3.928   0.796   9.786  0.2258  0.2427  0.0368
  588TMC3     C 8719   3.568   0.983   9.791 -0.2263 -0.0719  0.9827
  588TMC3     O 8720   3.487   0.944   9.715 -0.3658 -0.6166  0.3871
  588TMC3     H 8721   3.602   0.738   9.696 -1.0554  1.4335  0.0882
  588TMC3    H1 8722   3.778   1.090   9.829 -1.0545  0.1720 -0.4464
  588TMC3    H2 8723   4.023   0.743   9.779 -0.0037 -0.2258  0.4913
  588TMC3    C7 8724   4.034   1.007   9.840  0.3905  0.3326 -0.5786
  588TMC3    C8 8725   3.828   0.593   9.686  0.8930  0.4029  0.5493
  588TMC3    O1 8726   4.123   0.982   9.759 -0.0845 -0.1628 -0.0070
  588TMC3    O2 8727   3.733   0.544   9.625 -0.3191 -0.4273  0.3784
  589TMC3    C1 8728   2.969   3.453   1.331 -0.3503  0.1705 -0.0488
  589TMC3    C2 8729   3.082   3.453   1.407 -0.3465 -0.2217  0.3640
  589TMC3    C3 8730   3.181   3.363   1.380 -0.1040  0.4176  0.2638
  589TMC3    C4 8731   2.955   3.366   1.225 -0.6521 -0.1746 -0.1537
  589TMC3    C5 8732   3.053   3.276   1.201  0.2715  0.6240 -0.4641
  589TMC3    C6 8733   3.165   3.268   1.282 -0.4946 -0.0987 -0.1652
  589TMC3     C 8734   2.852   3.528   1.369 -0.1011 -0.4343 -0.0336
  589TMC3     O 8735   2.760   3.528   1.287 -0.0594 -0.0368  0.6410
  589TMC3     H 8736   3.085   3.519   1.493 -0.1426  1.2683 -0.7918
  589TMC3    H1 8737   2.866   3.367   1.163 -1.7971  3.3015  1.5386
  589TMC3    H2 8738   3.234   3.187   1.265  0.5830  0.8076 -0.0687
  589TMC3    C7 8739   3.022   3.157   1.117 -1.1740 -0.6712 -0.1056
  589TMC3    C8 8740   3.294   3.357   1.471  0.2440  0.4651  0.3886
  589TMC3    O1 8741   2.906   3.123   1.110  0.0641 -0.3104 -0.4649
  589TMC3    O2 8742   3.285   3.395   1.587 -0.3227 -0.0975 -0.0408
  590MPD2     C 8743   2.512   2.088  16.645  0.4691  1.1380  0.0400
  590MPD2    C1 8744   2.467   2.158  16.535 -0.2829  0.4928 -0.5376
  590MPD2    C2 8745   2.560   2.188  16.427  0.3353  0.2025 -0.1527
  590MPD2    C3 8746   2.679   2.124  16.419  0.1367 -1.3541  0.2277
  590MPD2    C4 8747   2.724   2.050  16.532  0.0119  0.7121  0.4675
  590MPD2    C5 8748   2.639   2.036  16.640  0.2577  0.2943 -0.6694
  590MPD2     H 8749   2.531   2.250  16.343  0.7830 -1.7326 -1.7175
  590MPD2    H1 8750   2.819   1.998  16.534  0.5778  1.7477  0.8410
  590MPD2    H2 8751   2.453   2.078  16.735  1.1952  0.7774  0.4723
  590MPD2    H3 8752   2.681   1.981  16.723 -0.8529 -1.6301 -1.4000
  590MPD2     N 8753   2.743   2.144  16.294 -0.7785  0.5428 -0.0332
  590MPD2    H5 8754   2.711   2.224  16.240 -0.1365  0.7440 -0.1190
  590MPD2    N1 8755   2.332   2.204  16.531  0.0950 -0.6710 -0.0358
  590MPD2    H7 8756   2.278   2.193  16.616 -0.7832 -2.4849 -0.8281
  591TMC3    C1 8757   2.929   2.153  16.143  0.5659  0.1610  0.5014
  591TMC3    C2 8758   2.995   2.076  16.053  0.4860 -0.3959 -0.3804
  591TMC3    C3 8759   3.067   2.133  15.951 -0.0581 -0.7430 -0.7759
  591TMC3    C4 8760   2.942   2.288  16.140  0.2741 -1.0960  0.7270
  591TMC3    C5 8761   3.012   2.347  16.038  0.2799  0.0806 -0.0915
  591TMC3    C6 8762   3.083   2.270  15.944 -0.5387 -0.2211 -0.2696
  591TMC3     C 8763   2.863   2.087  16.250  0.3376 -0.0419  0.0542
  591TMC3     O 8764   2.901   1.973  16.282  0.0509 -0.0052  0.0969
  591TMC3     H 8765   2.958   1.976  16.034  1.1913 -1.0861  1.9921
  591TMC3    H1 8766   2.890   2.348  16.213 -1.0912  0.4590 -1.4965
  591TMC3    H2 8767   3.142   2.315  15.865 -1.6897 -0.4651 -1.2692
  591TMC3    C7 8768   3.035   2.490  16.049  0.8259 -0.1488 -0.0958
  591TMC3    C8 8769   3.083   2.054  15.829  0.5251  0.7992 -0.3059
  591TMC3    O1 8770   3.032   2.528  16.163  0.2012 -0.1028 -0.2151
  591TMC3    O2 8771   3.039   1.940  15.833 -0.1473  0.0492 -0.1524
  592MPD2     C 8772   2.953   3.997  11.524  0.5460  0.0252 -0.0416
  592MPD2    C1 8773   2.968   4.048  11.652  0.4890 -0.9451 -0.2627
  592MPD2    C2 8774   2.884   3.993  11.750 -0.5284 -0.1218 -0.0234
  592MPD2    C3 8775   2.811   3.876  11.731  0.4128  0.2283  0.5096
  592MPD2    C4 8776   2.802   3.822  11.605 -0.4747  0.3454  0.6101
  592MPD2    C5 8777   2.880   3.884  11.502  0.6383 -0.9108 -0.4345
  592MPD2     H 8778   2.873   4.038  11.848  2.3642 -0.8043  0.6162
  592MPD2    H1 8779   2.745   3.735  11.575 -0.1844  0.6664 -0.8994
  592MPD2    H2 8780   3.006   4.044  11.442 -0.4110 -0.1148 -0.7407
  592MPD2    H3 8781   2.880   3.831  11.407  1.2680 -0.7378 -0.5322
  592MPD2     N 8782   2.727   3.825  11.834 -0.0264  0.0014  0.4469
  592MPD2    H5 8783   2.721   3.875  11.922 -1.8859 -0.6316  0.6754
  592MPD2    N1 8784   3.061   4.159  11.677  0.1690 -0.4153 -0.1697
  592MPD2    H7 8785   3.116   4.199  11.602 -0.1509  2.2660  1.0142
  593TMC3    C1 8786   3.214   4.290  11.811  0.0629  1.1409 -0.1123
  593TMC3    C2 8787   3.226   4.379  11.915 -0.8790  0.0224  0.1851
  593TMC3    C3 8788   3.328   4.468  11.924  0.0518  0.3277 -0.4289
  593TMC3    C4 8789   3.315   4.290  11.718 -0.3814  0.0682 -0.2488
  593TMC3    C5 8790   3.423   4.373  11.732  0.2665  0.3782 -0.5221
  593TMC3    C6 8791   3.428   4.461  11.835  0.4123 -0.1410  0.8898
  593TMC3     C 8792   3.100   4.201  11.806  0.0799 -0.2951 -0.1664
  593TMC3     O 8793   3.038   4.184  11.910  0.1231 -0.1267  0.2553
  593TMC3     H 8794   3.141   4.386  11.982  0.3837  0.3976  1.7639
  593TMC3    H1 8795   3.313   4.213  11.641  2.2488 -0.1851 -0.0590
  593TMC3    H2 8796   3.508   4.533  11.842  0.0258  0.2972  0.8061
  593TMC3    C7 8797   3.531   4.362  11.645  0.5623  0.1871 -0.2727
  593TMC3    C8 8798   3.320   4.566  12.027 -0.2208  0.3061 -0.5889
  593TMC3    O1 8799   3.513   4.302  11.539  0.0746  0.0989 -0.1070
  593TMC3    O2 8800   3.213   4.593  12.077  0.0167  0.2751 -0.0030
  594MPD2     C 8801   1.739   3.015  14.022 -0.2660  0.3809 -0.0250
  594MPD2    C1 8802   1.780   2.991  14.149 -0.1696  0.3500 -0.9862
  594MPD2    C2 8803   1.882   3.068  14.202  0.1094 -0.4841 -0.1066
  594MPD2    C3 8804   1.956   3.149  14.118  0.2227  0.2335 -0.1063
  594MPD2    C4 8805   1.917   3.167  13.986 -0.1581  1.0338  0.5735
  594MPD2    C5 8806   1.800   3.104  13.942  0.3791 -0.4097 -0.8567
  594MPD2     H 8807   1.922   3.051  14.301  1.9106 -1.7911 -1.0606
  594MPD2    H1 8808   1.971   3.226  13.912  1.1353  0.8675  1.3993
  594MPD2    H2 8809   1.657   2.958  13.980 -0.2118 -0.1369  0.5851
  594MPD2    H3 8810   1.763   3.119  13.841 -0.0372 -0.6774 -0.7424
  594MPD2     N 8811   2.062   3.224  14.182  0.2092  0.1401 -0.4225
  594MPD2    H5 8812   2.069   3.205  14.282  1.9257  1.7280 -0.2553
  594MPD2    N1 8813   1.704   2.891  14.221  0.0893 -0.2726 -0.8267
  594MPD2    H7 8814   1.640   2.843  14.159  0.4972 -1.8875  0.0244
  595TMC3    C1 8815   2.442   3.461  14.264  0.6366  0.3320 -0.3512
  595TMC3    C2 8816   2.371   3.398  14.170 -0.2700 -0.3405  0.3755
  595TMC3    C3 8817   2.238   3.375  14.200 -0.8144  0.1990  0.0123
  595TMC3    C4 8818   2.387   3.520  14.374  0.2808 -0.2463  0.0552
  595TMC3    C5 8819   2.256   3.497  14.397 -0.0306  0.1127  0.0773
  595TMC3    C6 8820   2.176   3.428  14.308  0.6213  0.7320  0.2153
  595TMC3     C 8821   2.585   3.432  14.259 -0.5864 -0.2888 -0.4696
  595TMC3     O 8822   2.638   3.467  14.363 -0.3042 -0.3113  0.3617
  595TMC3     H 8823   2.413   3.360  14.078  1.0351  1.1059  0.3742
  595TMC3    H1 8824   2.440   3.565  14.457  0.0793  0.9142 -0.4497
  595TMC3    H2 8825   2.072   3.405  14.330  0.2590  1.9283 -0.2417
  595TMC3    C7 8826   2.185   3.549  14.510  0.1559  0.7613  0.2480
  595TMC3    C8 8827   2.157   3.297  14.112  0.9532  0.0816  0.6170
  595TMC3    O1 8828   2.061   3.543  14.510 -0.4953 -0.0628 -0.3076
  595TMC3    O2 8829   2.195   3.279  13.998  0.0891 -1.3327  0.1698
  596MPD2     C 8830   1.167   0.855  16.794  0.1649  0.4389  0.1020
  596MPD2    C1 8831   1.105   0.955  16.726  0.0638  0.3984  0.2186
  596MPD2    C2 8832   1.062   0.934  16.595 -0.3106 -0.1709  0.2793
  596MPD2    C3 8833   1.105   0.821  16.533  0.2379 -0.0324 -0.5486
  596MPD2    C4 8834   1.169   0.720  16.600 -0.0437 -0.1167 -1.0389
  596MPD2    C5 8835   1.204   0.739  16.728  0.1427 -0.0558  0.1342
  596MPD2     H 8836   0.999   1.010  16.550 -0.9921 -0.4130  0.8347
  596MPD2    H1 8837   1.190   0.624  16.553  1.7264 -0.1785 -0.1279
  596MPD2    H2 8838   1.182   0.868  16.901  1.6128 -1.5989  0.1356
  596MPD2    H3 8839   1.259   0.661  16.780 -0.2610 -0.4959 -0.0903
  596MPD2     N 8840   1.070   0.798  16.395  0.2526 -0.3266  1.0332
  596MPD2    H5 8841   1.121   0.723  16.350 -0.0659  0.5476 -0.7635
  596MPD2    N1 8842   1.084   1.092  16.768  0.6839 -0.5254  0.4116
  596MPD2    H7 8843   1.052   1.147  16.689  0.5030 -0.8214  0.2779
  597TMC3    C1 8844   1.085   1.273  16.910 -0.4694  0.2294 -0.2804
  597TMC3    C2 8845   1.115   1.349  16.799  0.1686  0.2568  0.1280
  597TMC3    C3 8846   1.084   1.478  16.797  0.0075  0.0251  0.0916
  597TMC3    C4 8847   1.002   1.321  17.004 -0.1048  0.5292 -0.6971
  597TMC3    C5 8848   0.965   1.452  17.003  0.8189  0.0785  0.2762
  597TMC3    C6 8849   1.015   1.535  16.904 -1.0071  0.1780 -0.0892
  597TMC3     C 8850   1.097   1.136  16.898 -0.1890 -0.1302  0.5030
  597TMC3     O 8851   1.142   1.077  16.993  0.5876 -0.5095 -0.4130
  597TMC3     H 8852   1.174   1.313  16.715  0.1836 -0.8506  0.6138
  597TMC3    H1 8853   0.973   1.257  17.088  1.6723 -0.0869 -0.5430
  597TMC3    H2 8854   0.996   1.641  16.917 -0.6492  0.3130 -0.7146
  597TMC3    C7 8855   0.892   1.505  17.119 -0.4958 -0.0523  0.3388
  597TMC3    C8 8856   1.121   1.568  16.688 -0.3503  0.0449  0.1905
  597TMC3    O1 8857   0.900   1.443  17.229  0.6213  0.7086 -0.2381
  597TMC3    O2 8858   1.096   1.686  16.708 -0.2828  0.6020  0.6560
  598TMC3    C1 8859   4.061   2.688  15.455  0.3841 -0.3447 -0.1387
  598TMC3    C2 8860   3.995   2.575  15.440  0.0676 -0.4834 -0.1457
  598TMC3    C3 8861   3.997   2.506  15.318 -0.2930 -0.1782  0.2314
  598TMC3    C4 8862   4.135   2.739  15.355 -0.5474  0.3437 -0.8791
  598TMC3    C5 8863   4.141   2.670  15.233 -0.7313  0.4885 -0.2046
  598TMC3    C6 8864   4.074   2.554  15.212 -0.0207 -0.1363  0.2219
  598TMC3     C 8865   4.083   2.749  15.587 -0.0095  0.3038 -0.3208
  598TMC3     O 8866   4.133   2.860  15.584 -0.4270  0.3385  0.2193
  598TMC3     H 8867   3.931   2.532  15.516  0.5539 -1.4583 -0.2851
  598TMC3    H1 8868   4.183   2.836  15.366 -0.6243  0.0697  1.7643
  598TMC3    H2 8869   4.059   2.504  15.117 -0.1513  1.1034 -0.4170
  598TMC3    C7 8870   4.186   2.730  15.111 -0.5425  1.1921  0.2756
  598TMC3    C8 8871   3.920   2.388  15.297  0.3572  0.1353 -0.0699
  598TMC3    O1 8872   4.199   2.655  15.017  0.2789 -0.0872 -0.0671
  598TMC3    O2 8873   3.886   2.350  15.183 -0.0810 -0.1214  0.0899
  599MPD2     C 8874   4.031   0.602  16.228 -0.3610 -1.3611 -0.5577
  599MPD2    C1 8875   4.045   0.500  16.310 -0.0014 -0.2577 -0.1474
  599MPD2    C2 8876   3.930   0.442  16.361  0.1078  0.2812 -0.0214
  599MPD2    C3 8877   3.807   0.492  16.325  0.2287 -0.2657 -0.2077
  599MPD2    C4 8878   3.806   0.601  16.238  0.8551 -0.0831 -0.1041
  599MPD2    C5 8879   3.915   0.650  16.186 -0.7075 -0.4474  0.0698
  599MPD2     H 8880   3.938   0.354  16.425 -2.7527 -0.6305 -0.9187
  599MPD2    H1 8881   3.713   0.650  16.212  0.6595  0.0519  0.8720
  599MPD2    H2 8882   4.123   0.642  16.186  1.0788 -1.5985  2.4006
  599MPD2    H3 8883   3.905   0.729  16.111  2.5858  0.3625  0.4782
  599MPD2     N 8884   3.680   0.452  16.374  0.4549 -0.1637 -0.2352
  599MPD2    H5 8885   3.596   0.488  16.329  0.8085 -0.3956 -1.0747
  599MPD2    N1 8886   4.175   0.457  16.330  0.3258 -0.9167 -0.1209
  599MPD2    H7 8887   4.250   0.509  16.285  0.7241 -0.3548  1.1943
  600TMC3    C1 8888   3.518   0.304  16.474 -0.1113  0.6892  0.5929
  600TMC3    C2 8889   3.491   0.183  16.514 -0.1802  1.1835  0.3261
  600TMC3    C3 8890   3.364   0.149  16.558  0.3355  0.8142 -0.1690
  600TMC3    C4 8891   3.419   0.399  16.455  0.5921 -0.0848  0.3438
  600TMC3    C5 8892   3.290   0.369  16.500 -0.3213  0.2468 -0.4959
  600TMC3    C6 8893   3.265   0.242  16.554 -0.5232  0.0559 -0.1894
  600TMC3     C 8894   3.660   0.342  16.456  0.3743 -0.3007  0.3235
  600TMC3     O 8895   3.747   0.276  16.511 -0.0230 -0.2285  0.4076
  600TMC3     H 8896   3.570   0.109  16.522 -0.7358  0.4960 -0.6125
  600TMC3    H1 8897   3.449   0.501  16.437  0.6244 -0.4150 -1.4760
  600TMC3    H2 8898   3.173   0.221  16.606  0.0112 -0.0216  0.7234
  600TMC3    C7 8899   3.204   0.477  16.527  0.3626 -0.8673  0.5989
  600TMC3    C8 8900   3.340   0.019  16.618 -0.0866 -0.2817 -0.2974
  600TMC3    O1 8901   3.118   0.472  16.611  0.9176  0.2689 -0.2762
  600TMC3    O2 8902   3.441   4.682  16.664  1.0511  0.0764 -0.1563
  601MPD2     C 8903   1.120   2.797  17.412  0.2012  0.3472  0.3525
  601MPD2    C1 8904   1.049   2.732  17.512 -0.4815  0.3854  0.0211
  601MPD2    C2 8905   1.121   2.644  17.594  0.4248 -0.5181  0.1028
  601MPD2    C3 8906   1.246   2.593  17.558 -0.4434  0.0390 -0.7451
  601MPD2    C4 8907   1.313   2.672  17.465 -0.1582  0.4674  0.4513
  601MPD2    C5 8908   1.255   2.771  17.395 -1.0259 -0.2535  0.2571
  601MPD2     H 8909   1.073   2.608   0.010  1.1817 -0.1326  0.6632
  601MPD2    H1 8910   1.416   2.647  17.441 -0.6716 -0.9058 -0.2908
  601MPD2    H2 8911   1.087   2.868  17.337 -1.5420  0.3869  1.1588
  601MPD2    H3 8912   1.321   2.812  17.319  1.3535 -2.4653  1.1284
  601MPD2     N 8913   1.300   2.472  17.605  0.1557  0.1704 -0.1655
  601MPD2    H5 8914   1.400   2.458  17.591  0.0783 -1.4392  0.9704
  601MPD2    N1 8915   0.912   2.759  17.529 -0.1200 -0.2366 -0.3016
  601MPD2    H7 8916   0.868   2.720  17.612  0.4046  0.1824  0.1712
  602TMC3    C1 8917   0.687   2.859  17.480 -0.3130  0.7163  0.0200
  602TMC3    C2 8918   0.681   2.905  17.608  0.2568 -0.7392  0.4900
  602TMC3    C3 8919   0.571   2.990  17.629 -0.1597  0.2271 -0.5822
  602TMC3    C4 8920   0.603   2.902  17.381 -0.1931 -0.3416 -1.0106
  602TMC3    C5 8921   0.502   2.989  17.410 -0.0737 -0.0399 -0.1954
  602TMC3    C6 8922   0.485   3.031  17.533  0.5736  1.1254 -0.2738
  602TMC3     C 8923   0.828   2.818  17.433  0.0473  0.5504  0.9408
  602TMC3     O 8924   0.851   2.840  17.314 -0.2460 -0.6368  0.3343
  602TMC3     H 8925   0.752   2.880   0.012  0.5538 -1.6574 -0.0551
  602TMC3    H1 8926   0.622   2.871  17.280  0.3286  3.2933 -2.0461
  602TMC3    H2 8927   0.386   3.060  17.567  0.4082  0.9563 -0.6117
  602TMC3    C7 8928   0.407   3.024  17.302 -0.1632  0.4770 -0.0158
  602TMC3    C8 8929   0.540   3.041   0.087  1.3636  0.1564 -0.0935
  602TMC3    O1 8930   0.434   2.977  17.195 -0.3991  0.1701  0.5159
  602TMC3    O2 8931   0.515   2.951   0.161 -0.3168  0.2112 -0.6380
  603TMC3    C1 8932   3.981   2.901  10.642 -0.2996 -0.7402 -0.3077
  603TMC3    C2 8933   3.979   2.916  10.780  0.2571 -0.0800 -0.5478
  603TMC3    C3 8934   3.950   3.041  10.826  0.1039 -0.2948  0.3251
  603TMC3    C4 8935   3.934   3.002  10.563 -0.1790  0.1153  0.3214
  603TMC3    C5 8936   3.897   3.124  10.611  0.3683  0.0633  0.7004
  603TMC3    C6 8937   3.914   3.150  10.749 -0.7640  0.8831 -0.4843
  603TMC3     C 8938   3.972   2.767  10.594  0.4140 -0.3125 -0.1908
  603TMC3     O 8939   3.935   2.680  10.670 -0.2871  0.4366 -0.2920
  603TMC3     H 8940   3.986   2.836  10.853  0.4796  0.3598 -0.0887
  603TMC3    H1 8941   3.914   2.980  10.458 -1.9363 -0.3632  0.7681
  603TMC3    H2 8942   3.872   3.240  10.794  1.2577  0.1961  2.7386
  603TMC3    C7 8943   3.929   3.236  10.526  0.4407 -0.4333  0.1265
  603TMC3    C8 8944   3.935   3.047  10.969 -0.5062 -0.4442 -0.1348
  603TMC3    O1 8945   4.028   3.307  10.557  0.0198  0.3071 -0.0963
  603TMC3    O2 8946   4.022   3.005  11.043  0.2243  0.1443 -0.3633
  604MPD2     C 8947   4.694   2.136  16.327 -0.5960 -0.2800  0.3002
  604MPD2    C1 8948   4.706   2.254  16.263  0.2705 -0.2447  0.0432
  604MPD2    C2 8949   0.035   2.263  16.136 -0.3626 -0.5122  0.0863
  604MPD2    C3 8950   0.063   2.146  16.064  0.5413 -0.2256 -0.5562
  604MPD2    C4 8951   0.025   2.026  16.126 -0.5190  0.2079 -0.4145
  604MPD2    C5 8952   4.707   2.017  16.261  0.0967  0.1926 -0.1200
  604MPD2     H 8953   0.059   2.353  16.081  0.7577 -0.4769  0.6334
  604MPD2    H1 8954   0.051   1.931  16.081  2.9593  1.1059 -0.2876
  604MPD2    H2 8955   4.668   2.138  16.432  1.2418 -0.2229  0.7520
  604MPD2    H3 8956   4.688   1.921  16.307  1.7227  1.2513  2.7903
  604MPD2     N 8957   0.126   2.147  15.937  0.0630 -0.4360  0.0767
  604MPD2    H5 8958   0.140   2.237  15.892 -1.9427 -0.9027 -1.5453
  604MPD2    N1 8959   4.658   2.364  16.334  0.1838  0.0229 -0.1198
  604MPD2    H7 8960   4.619   2.344  16.426  0.3478 -1.3466 -0.3413
  605TMC3    C1 8961   4.623   2.576  16.404  0.2224  0.6952 -0.3562
  605TMC3    C2 8962   4.695   2.682  16.442 -0.1243 -0.3188 -0.4678
  605TMC3    C3 8963   4.635   2.759  16.538 -0.4610 -0.3568 -0.5393
  605TMC3    C4 8964   4.503   2.537  16.458 -0.2496 -0.3620  0.3151
  605TMC3    C5 8965   4.451   2.616  16.556  0.0046 -0.0919  0.0819
  605TMC3    C6 8966   4.512   2.732  16.588  0.3091  0.3595  0.3450
  605TMC3     C 8967   4.670   2.496  16.301 -0.2896 -0.0070  0.1875
  605TMC3     O 8968   0.026   2.551  16.219 -0.3114 -0.4563  0.4608
  605TMC3     H 8969   0.078   2.699  16.405  0.8400 -1.2916  1.7273
  605TMC3    H1 8970   4.438   2.473  16.399 -0.1472 -2.1067  2.0840
  605TMC3    H2 8971   4.460   2.795  16.659 -3.0851 -1.7780 -0.2297
  605TMC3    C7 8972   4.309   2.632  16.533 -0.2651 -0.4348  0.4665
  605TMC3    C8 8973   4.716   2.868  16.585 -0.4480  0.6813  0.5159
  605TMC3    O1 8974   4.276   2.737  16.478 -0.4415 -0.1908 -0.0301
  605TMC3    O2 8975   0.119   2.867  16.563 -0.5071  0.1470  0.7654
  606TMC3    C1 8976   1.447   1.316  17.046 -0.0233  0.4236  0.3353
  606TMC3    C2 8977   1.440   1.355  17.172  0.0142 -0.0877 -0.5386
  606TMC3    C3 8978   1.497   1.274  17.265  0.0789  1.3896 -0.2465
  606TMC3    C4 8979   1.493   1.190  17.000 -0.4787 -0.1877 -0.2901
  606TMC3    C5 8980   1.542   1.109  17.099 -0.4653 -0.5466  0.3270
  606TMC3    C6 8981   1.550   1.150  17.226 -0.4660 -0.3420  0.4210
  606TMC3     C 8982   1.430   1.420  16.939  0.1408 -0.2046  0.2905
  606TMC3     O 8983   1.359   1.518  16.964  0.3394  0.4714 -0.2709
  606TMC3     H 8984   1.385   1.446  17.194  2.3473  0.5833  2.4713
  606TMC3    H1 8985   1.476   1.141  16.905  2.4360 -0.7127 -0.5330
  606TMC3    H2 8986   1.608   1.088  17.293  2.0374  1.5237  0.0189
  606TMC3    C7 8987   1.468   0.985  17.089 -0.0823  1.0611 -0.6033
  606TMC3    C8 8988   1.496   1.296  17.408 -0.7942  0.4373 -0.5801
  606TMC3    O1 8989   1.467   0.925  16.982  0.0023 -0.4692 -0.1079
  606TMC3    O2 8990   1.523   1.199  17.474 -0.1893  0.3219 -0.6163
  607MPD2     C 8991   3.265   3.847  11.692 -1.0084  0.2967 -0.3566
  607MPD2    C1 8992   3.384   3.889  11.741  0.8383  0.3667  0.8283
  607MPD2    C2 8993   3.423   3.869  11.877  0.0669 -0.0731  0.3041
  607MPD2    C3 8994   3.339   3.808  11.961  0.5050 -0.2090  0.4539
  607MPD2    C4 8995   3.221   3.760  11.911  0.2405 -0.0595 -0.7046
  607MPD2    C5 8996   3.184   3.787  11.778 -0.0660 -0.3862  0.4584
  607MPD2     H 8997   3.517   3.905  11.918  0.0518 -0.6129  0.8092
  607MPD2    H1 8998   3.140   3.715  11.966 -0.3212 -1.0353 -2.3459
  607MPD2    H2 8999   3.236   3.851  11.588  3.1599  0.3581 -1.4848
  607MPD2    H3 9000   3.084   3.770  11.740  0.3364  0.5269 -1.0122
  607MPD2     N 9001   3.377   3.808  12.105  0.0153 -0.1219 -0.0568
  607MPD2    H5 9002   3.466   3.851  12.127  0.6317 -1.6453  0.4250
  607MPD2    N1 9003   3.481   3.955  11.665  0.1684 -0.7556 -0.3497
  607MPD2    H7 9004   3.565   3.975  11.720 -1.3385  1.2660  1.2176
  608TMC3    C1 9005   3.620   3.995  11.485  0.0736 -0.0474 -0.3263
  608TMC3    C2 9006   3.716   4.004  11.583 -0.6059  0.0322  0.5765
  608TMC3    C3 9007   3.853   3.984  11.548 -0.3011 -0.9054 -0.8817
  608TMC3    C4 9008   3.650   3.963  11.363  0.3934  0.1627 -0.0601
  608TMC3    C5 9009   3.778   3.955  11.331 -0.2512  0.1249 -0.0067
  608TMC3    C6 9010   3.885   3.955  11.420 -0.0763  0.0827 -0.2172
  608TMC3     C 9011   3.486   3.962  11.528  0.5176 -0.7756 -0.9291
  608TMC3     O 9012   3.400   3.930  11.448  0.3614  0.0904  0.0820
  608TMC3     H 9013   3.695   4.037  11.683 -2.5912  1.2595 -0.2471
  608TMC3    H1 9014   3.577   3.924  11.293  2.4031 -1.6837 -1.1413
  608TMC3    H2 9015   3.987   3.928  11.395  0.1902  0.9789 -0.1007
  608TMC3    C7 9016   3.815   3.961  11.196 -0.2824 -0.2620  0.7547
  608TMC3    C8 9017   3.956   4.000  11.650  0.7250  0.8154  0.4380
  608TMC3    O1 9018   3.723   3.942  11.117  0.2492  0.0105  0.0882
  608TMC3    O2 9019   4.068   4.037  11.621  0.7739  0.2700  0.4159
  609TMC3    C1 9020   1.803   1.916   9.254 -0.0763 -0.0920  1.0891
  609TMC3    C2 9021   1.818   1.897   9.121 -0.4317  0.0941  0.3532
  609TMC3    C3 9022   1.931   1.832   9.076  0.1012 -0.1460  0.1434
  609TMC3    C4 9023   1.902   1.867   9.339 -0.0451  0.6346 -0.8372
  609TMC3    C5 9024   2.011   1.792   9.290  0.2300 -0.1945 -0.1105
  609TMC3    C6 9025   2.029   1.775   9.159  0.1609  0.1226 -0.3004
  609TMC3     C 9026   1.679   1.980   9.297 -0.5485 -0.1099  0.2279
  609TMC3     O 9027   1.626   2.052   9.215 -0.3549 -0.2207  0.3542
  609TMC3     H 9028   1.745   1.937   9.052  1.2050 -0.0602 -1.4754
  609TMC3    H1 9029   1.892   1.893   9.443 -1.2730 -0.5560 -0.6570
  609TMC3    H2 9030   2.109   1.712   9.123 -0.3633 -0.2821 -0.7694
  609TMC3    C7 9031   2.125   1.784   9.377  0.8664  0.0264  0.0753
  609TMC3    C8 9032   1.928   1.791   8.939 -0.0705 -0.2927  0.6774
  609TMC3    O1 9033   2.109   1.756   9.496 -0.5392  0.3413 -0.2325
  609TMC3    O2 9034   1.823   1.747   8.890 -0.3948 -0.3770  0.0051
  610TMC3    C1 9035   3.767   3.861  13.268 -0.4703  0.0091  0.9384
  610TMC3    C2 9036   3.861   3.918  13.180 -0.0227  0.2989 -0.3894
  610TMC3    C3 9037   3.956   3.835  13.118  0.0106  0.2765  0.0833
  610TMC3    C4 9038   3.772   3.732  13.300  0.0447  0.6888  0.1077
  610TMC3    C5 9039   3.861   3.653  13.229  0.0317 -0.6388 -0.3272
  610TMC3    C6 9040   3.954   3.700  13.140 -0.1848  0.2320  0.2060
  610TMC3     C 9041   3.674   3.940  13.335 -0.2289  0.4356 -0.6459
  610TMC3     O 9042   3.620   3.897  13.437  0.1682  0.2292 -0.2621
  610TMC3     H 9043   3.866   4.026  13.172  2.5237  0.1398 -1.1453
  610TMC3    H1 9044   3.695   3.691  13.365  0.1898  1.8493  1.0189
  610TMC3    H2 9045   4.014   3.637  13.076 -0.0195 -1.1498  1.7215
  610TMC3    C7 9046   3.824   3.514  13.224 -0.0843 -0.6897 -0.3547
  610TMC3    C8 9047   4.051   3.888  13.026  0.4561  0.1647  0.0503
  610TMC3    O1 9048   3.730   3.486  13.297  0.3717  0.3133 -0.1587
  610TMC3    O2 9049   4.139   3.811  12.986 -0.2141 -0.1771  0.4955
  611MPD2     C 9050   2.542   3.684   9.934 -0.2632 -0.0548 -0.5702
  611MPD2    C1 9051   2.576   3.562   9.992  0.9081  0.3905  0.1265
  611MPD2    C2 9052   2.701   3.512   9.978 -0.0066 -0.0924  0.4537
  611MPD2    C3 9053   2.794   3.588   9.909  0.2256  0.4373  0.4058
  611MPD2    C4 9054   2.758   3.706   9.847  0.1509 -0.3314 -0.0022
  611MPD2    C5 9055   2.632   3.749   9.856  0.3882 -0.8098 -0.2763
  611MPD2     H 9056   2.731   3.418  10.025 -0.7447 -0.9921 -0.8674
  611MPD2    H1 9057   2.831   3.763   9.792 -0.1495  0.0385 -0.0104
  611MPD2    H2 9058   2.447   3.735   9.934 -0.3850 -0.2867 -0.8512
  611MPD2    H3 9059   2.609   3.844   9.807  0.7954 -0.9157 -0.6739
  611MPD2     N 9060   2.931   3.558   9.886  0.4696 -0.3983  0.6742
  611MPD2    H5 9061   2.988   3.635   9.852  0.1111 -0.3603  0.1661
  611MPD2    N1 9062   2.485   3.496  10.077  0.0199  0.0287  1.0556
  611MPD2    H7 9063   2.395   3.542  10.088  0.4917  0.9264  1.1614
  612TMC3    C1 9064   3.136   3.474   9.921 -0.0302  0.1387 -0.2154
  612TMC3    C2 9065   3.225   3.432  10.023 -0.1631  0.4517  0.4463
  612TMC3    C3 9066   3.354   3.452  10.005  0.1960  0.8375  0.0446
  612TMC3    C4 9067   3.176   3.545   9.811  0.5580  0.0276  0.2570
  612TMC3    C5 9068   3.309   3.556   9.792  0.2182  0.8795  0.5906
  612TMC3    C6 9069   3.395   3.519   9.891  0.5104  0.3206 -0.3582
  612TMC3     C 9070   2.997   3.455   9.942 -0.1973  0.0851 -0.6328
  612TMC3     O 9071   2.957   3.372  10.022  0.5134  0.3283 -0.3669
  612TMC3     H 9072   3.193   3.366  10.103 -2.4174  2.7588  1.4101
  612TMC3    H1 9073   3.105   3.571   9.733 -0.5021  1.1181  1.5847
  612TMC3    H2 9074   3.498   3.524   9.860  0.5426 -0.2040 -0.3426
  612TMC3    C7 9075   3.363   3.581   9.663  0.1101  0.2723 -0.3512
  612TMC3    C8 9076   3.455   3.391  10.092  0.5639 -0.1129  0.6618
  612TMC3    O1 9077   3.454   3.504   9.640 -0.2464 -0.0914 -0.4517
  612TMC3    O2 9078   3.430   3.302  10.171 -1.0542  0.1836 -0.1456
  613MPD2     C 9079   1.584   0.600  16.748  0.1607  0.1749 -0.0599
  613MPD2    C1 9080   1.604   0.678  16.633  0.8457 -0.0921 -0.5053
  613MPD2    C2 9081   1.531   0.637  16.522  0.6319  0.3640  0.8993
  613MPD2    C3 9082   1.444   0.526  16.523 -0.3203 -0.2150 -0.3962
  613MPD2    C4 9083   1.428   0.456  16.641 -0.4125 -0.2896 -0.3213
  613MPD2    C5 9084   1.496   0.493  16.754 -0.3598 -0.2215  0.5612
  613MPD2     H 9085   1.552   0.688  16.429  0.1500 -0.2523  0.4505
  613MPD2    H1 9086   1.370   0.365  16.652  1.2810 -1.4483 -0.9275
  613MPD2    H2 9087   1.632   0.626  16.842  0.7227 -0.2729 -0.2219
  613MPD2    H3 9088   1.491   0.436  16.846 -1.0522  2.3740  2.1241
  613MPD2     N 9089   1.391   0.475  16.402 -0.5921 -0.6304  0.2494
  613MPD2    H5 9090   1.368   0.376  16.399  2.1946 -1.2234 -0.9260
  613MPD2    N1 9091   1.690   0.792  16.633  0.1159  0.2044 -0.4725
  613MPD2    H7 9092   1.744   0.796  16.719  0.4949  0.3627 -0.7167
  614TMC3    C1 9093   1.862   0.911  16.522 -0.0543 -0.0923  0.9302
  614TMC3    C2 9094   1.955   0.801  16.513  0.5892  0.3652  0.6161
  614TMC3    C3 9095   2.040   0.792  16.402  0.7023  0.3394  0.5126
  614TMC3    C4 9096   1.877   1.009  16.428 -0.6482 -0.3425  0.7339
  614TMC3    C5 9097   1.960   0.995  16.321 -0.1210  0.2548 -0.3160
  614TMC3    C6 9098   2.036   0.884  16.300  0.3193  0.4035 -1.0687
  614TMC3     C 9099   1.721   0.870  16.533 -0.0515  0.1885  0.1835
  614TMC3     O 9100   1.648   0.895  16.439 -0.1802  0.0780 -0.1570
  614TMC3     H 9101   1.937   0.719  16.582 -1.0999 -0.9353 -1.3480
  614TMC3    H1 9102   1.817   1.099  16.438 -2.4472 -1.3084 -1.4829
  614TMC3    H2 9103   2.091   0.863  16.209  0.1467  0.3676 -1.1647
  614TMC3    C7 9104   1.978   1.113  16.243 -0.1985 -0.0387 -0.1920
  614TMC3    C8 9105   2.051   0.660  16.346  0.4249 -0.5396  0.0097
  614TMC3    O1 9106   1.979   1.217  16.312 -0.7246  0.6994  0.1300
  614TMC3    O2 9107   2.067   0.641  16.226  0.0262  0.2130 -0.4863
  615MPD2     C 9108   1.717   2.532  15.937  0.6660 -0.1812  0.8326
  615MPD2    C1 9109   1.623   2.453  16.007 -0.4525 -0.1328  0.3855
  615MPD2    C2 9110   1.523   2.396  15.935  0.5651  0.1964  0.5354
  615MPD2    C3 9111   1.521   2.414  15.794  0.1780 -0.4234  0.1879
  615MPD2    C4 9112   1.615   2.495  15.730  0.3817  0.1198 -0.5866
  615MPD2    C5 9113   1.715   2.556  15.809  0.5090  0.4051 -0.1920
  615MPD2     H 9114   1.473   2.312  15.984 -1.3809  0.3754 -1.1500
  615MPD2    H1 9115   1.615   2.507  15.622 -0.5200 -0.2423 -0.6334
  615MPD2    H2 9116   1.808   2.577  15.977  0.1211  2.1690 -0.5642
  615MPD2    H3 9117   1.784   2.625  15.760  0.7445 -0.0294 -0.4789
  615MPD2     N 9118   1.431   2.347  15.709  0.4514  0.2559 -0.1835
  615MPD2    H5 9119   1.446   2.354  15.609 -0.9479 -3.0856 -0.6301
  615MPD2    N1 9120   1.622   2.443  16.151  0.4325  0.1664 -0.5756
  615MPD2    H7 9121   1.557   2.391  16.209  0.7522  0.7648  0.3187
  616TMC3    C1 9122   1.677   2.505  16.372 -0.1169  0.5635  0.1079
  616TMC3    C2 9123   1.769   2.502  16.471  0.7171  0.1424  1.0773
  616TMC3    C3 9124   1.732   2.518  16.601  0.1823  0.2043  0.3289
  616TMC3    C4 9125   1.538   2.518  16.394 -0.1097  0.6622 -0.7917
  616TMC3    C5 9126   1.509   2.528  16.527  0.4950  0.1416  0.2357
  616TMC3    C6 9127   1.599   2.541  16.630 -0.0744 -0.4443  0.4836
  616TMC3     C 9128   1.716   2.512  16.232  0.7434 -0.1134  0.0425
  616TMC3     O 9129   1.811   2.581  16.207 -0.2004  0.2675 -0.1094
  616TMC3     H 9130   1.872   2.487  16.441  0.3858 -1.4148  0.7148
  616TMC3    H1 9131   1.462   2.508  16.319 -0.1736 -1.7949 -0.4244
  616TMC3    H2 9132   1.561   2.559  16.729  0.0849 -2.2537  0.8760
  616TMC3    C7 9133   1.375   2.570  16.557  0.6899 -0.2852 -0.6343
  616TMC3    C8 9134   1.825   2.523  16.707 -0.1562 -0.2862 -0.2721
  616TMC3    O1 9135   1.316   2.634  16.474 -0.4925  0.6489  0.6285
  616TMC3    O2 9136   1.782   2.527  16.821  0.7680  0.3283 -0.1413
  617MPD2     C 9137   4.384   1.333  14.566  0.5555 -0.0671 -0.4983
  617MPD2    C1 9138   4.387   1.247  14.453 -0.4727 -0.3209  0.2545
  617MPD2    C2 9139   4.284   1.168  14.420  0.0788 -0.0208 -0.7307
  617MPD2    C3 9140   4.178   1.151  14.504 -0.1253 -0.8160  0.4207
  617MPD2    C4 9141   4.166   1.237  14.611  0.6931  0.1522 -1.2408
  617MPD2    C5 9142   4.262   1.336  14.631  0.5640  0.3347  1.0908
  617MPD2     H 9143   4.280   1.097  14.338 -1.6458 -1.4840  0.5930
  617MPD2    H1 9144   4.086   1.240  14.684  2.5159 -0.8305  0.7933
  617MPD2    H2 9145   4.472   1.392  14.592 -0.7931  1.7028  0.0472
  617MPD2    H3 9146   4.251   1.391  14.723  1.4136  1.3664  0.5700
  617MPD2     N 9147   4.083   1.044  14.498 -0.7164 -0.9638 -0.1177
  617MPD2    H5 9148   4.016   1.055  14.573 -1.7442  0.2643 -1.2245
  617MPD2    N1 9149   4.502   1.225  14.381 -0.2364  0.0259  0.0000
  617MPD2    H7 9150   4.496   1.153  14.309  1.9143 -1.1985  1.0566
  618TMC3    C1 9151   4.715   1.179  14.328  1.0229 -0.4874  0.0037
  618TMC3    C2 9152   4.692   1.044  14.335 -0.0719  0.4931  0.5887
  618TMC3    C3 9153   0.089   0.968  14.366  0.1630 -0.0148 -0.5823
  618TMC3    C4 9154   0.122   1.232  14.331  0.1144  0.3578  0.1653
  618TMC3    C5 9155   0.236   1.157  14.358 -0.4051 -0.2534  0.1805
  618TMC3    C6 9156   0.211   1.023  14.388 -0.5151  0.0098 -0.4849
  618TMC3     C 9157   4.627   1.267  14.406 -0.7949  0.2823  0.1823
  618TMC3     O 9158   4.675   1.357  14.473 -0.5893 -0.3249  0.2852
  618TMC3     H 9159   4.592   1.006  14.321  0.9854 -1.2217 -2.2362
  618TMC3    H1 9160   0.140   1.338  14.315  2.0796 -0.1269 -0.7862
  618TMC3    H2 9161   0.292   0.962  14.426 -1.5171 -1.2128 -0.3078
  618TMC3    C7 9162   0.345   1.225  14.420  0.4831 -0.1769  0.4021
  618TMC3    C8 9163   0.070   0.825  14.353  0.2351 -0.0872 -0.2475
  618TMC3    O1 9164   0.321   1.332  14.476  0.4109  0.6433  0.4561
  618TMC3    O2 9165   4.676   0.776  14.374  0.1040  0.3642 -0.4907
  619MPD2     C 9166   1.434   2.270  13.602 -0.5171  0.4208  0.3362
  619MPD2    C1 9167   1.365   2.297  13.486  0.0082  0.1550 -0.1410
  619MPD2    C2 9168   1.279   2.214  13.424 -0.2645 -0.3399  0.2760
  619MPD2    C3 9169   1.248   2.096  13.494  0.1970 -0.3930 -0.3688
  619MPD2    C4 9170   1.305   2.070  13.619 -0.2792  0.3136  0.3290
  619MPD2    C5 9171   1.394   2.162  13.673 -0.7813 -0.1684  0.8756
  619MPD2     H 9172   1.232   2.250  13.333  0.4251  0.7646  0.3512
  619MPD2    H1 9173   1.285   1.981  13.679 -0.3512  1.8907  2.6474
  619MPD2    H2 9174   1.516   2.333  13.635  0.0130 -0.3340  0.4730
  619MPD2    H3 9175   1.439   2.139  13.769 -0.2482 -1.0027  0.4265
  619MPD2     N 9176   1.151   2.006  13.444  0.1024 -0.3128 -0.6255
  619MPD2    H5 9177   1.114   1.932  13.503  0.8187  1.8225  2.4872
  619MPD2    N1 9178   1.377   2.409  13.402  0.4179 -0.2010 -0.5786
  619MPD2    H7 9179   1.329   2.409  13.312 -0.9465  1.1904  0.1599
  620TMC3    C1 9180   1.449   2.621  13.326  0.2636  0.9195  0.2945
  620TMC3    C2 9181   1.401   2.561  13.216 -0.4532  0.1453 -0.0082
  620TMC3    C3 9182   1.331   2.631  13.118 -1.1119  0.1298 -0.0047
  620TMC3    C4 9183   1.412   2.748  13.358  0.2547  0.1084  0.6274
  620TMC3    C5 9184   1.355   2.824  13.258  0.1293  0.2577 -0.0668
  620TMC3    C6 9185   1.319   2.766  13.135  0.2550 -0.5140  0.4707
  620TMC3     C 9186   1.446   2.527  13.431 -0.6773 -0.0254  0.1771
  620TMC3     O 9187   1.490   2.569  13.540 -0.4027 -0.2606 -0.0888
  620TMC3     H 9188   1.437   2.463  13.187 -0.7121  0.5340 -1.6657
  620TMC3    H1 9189   1.449   2.795  13.449 -1.2382  0.5302  1.0221
  620TMC3    H2 9190   1.273   2.826  13.057  0.3290  0.1515  0.9394
  620TMC3    C7 9191   1.341   2.971  13.260  0.1164 -0.3050 -0.3445
  620TMC3    C8 9192   1.208   2.561  13.110 -0.4748  0.5596 -0.0685
  620TMC3    O1 9193   1.329   3.028  13.153  0.3491 -0.2234  0.4139
  620TMC3    O2 9194   1.215   2.443  13.153 -0.1608 -0.0647 -1.0541
  621MPD2     C 9195   1.270   1.794  10.325 -0.3383 -0.0964  0.3148
  621MPD2    C1 9196   1.165   1.744  10.254 -0.9464  0.1062 -0.4037
  621MPD2    C2 9197   1.064   1.839  10.224  0.2281 -0.6499 -0.4498
  621MPD2    C3 9198   1.060   1.965  10.274  0.0825  0.0411 -0.7925
  621MPD2    C4 9199   1.149   2.001  10.372  0.4036  0.1837  0.2230
  621MPD2    C5 9200   1.251   1.916  10.389 -0.7299 -0.4949  0.0722
  621MPD2     H 9201   0.989   1.810  10.151  0.5329  0.8197 -1.3413
  621MPD2    H1 9202   1.122   2.088  10.430  0.2206 -0.3638  0.9624
  621MPD2    H2 9203   1.360   1.735  10.337  0.7607  1.0584 -2.2922
  621MPD2    H3 9204   1.331   1.944  10.457 -1.2695  0.0720  0.4876
  621MPD2     N 9205   0.952   2.044  10.223  0.0057 -0.0817 -0.4372
  621MPD2    H5 9206   0.903   1.995  10.148  1.2135  2.3250 -2.7983
  621MPD2    N1 9207   1.154   1.609  10.201  0.5584 -0.4994  0.3765
  621MPD2    H7 9208   1.073   1.588  10.144  0.7109 -1.1633  0.4125
  622TMC3    C1 9209   1.207   1.420  10.094 -0.4014  0.8499 -0.6667
  622TMC3    C2 9210   1.075   1.375  10.099  0.3496  0.6412  0.2792
  622TMC3    C3 9211   1.042   1.294   9.997  0.0110 -0.2422  0.2915
  622TMC3    C4 9212   1.294   1.368  10.003 -0.0071 -0.2564 -0.2306
  622TMC3    C5 9213   1.253   1.290   9.896  0.0022 -0.3426  0.1522
  622TMC3    C6 9214   1.126   1.255   9.898  0.3183 -0.1472  0.1029
  622TMC3     C 9215   1.255   1.518  10.191 -0.0355  0.4348 -0.8927
  622TMC3     O 9216   1.378   1.517  10.209  0.2260  0.0369  0.0694
  622TMC3     H 9217   1.009   1.373  10.185  0.6253  0.3176  0.4869
  622TMC3    H1 9218   1.400   1.391  10.007  0.2158 -0.9934 -1.6099
  622TMC3    H2 9219   1.084   1.189   9.823  1.2559  0.1516 -0.6839
  622TMC3    C7 9220   1.331   1.295   9.777  0.0814  0.0933 -0.2508
  622TMC3    C8 9221   0.910   1.241  10.001  0.7021 -0.6627  0.4174
  622TMC3    O1 9222   1.449   1.329   9.790 -0.3132 -0.2705 -0.9210
  622TMC3    O2 9223   0.894   1.121   9.984  0.3312 -0.7626 -0.3498
  623MPD2     C 9224   0.356   3.425  16.039 -0.0278 -0.0140 -0.5411
  623MPD2    C1 9225   0.276   3.365  16.134 -0.7949  0.2122 -0.3785
  623MPD2    C2 9226   0.329   3.377  16.265 -0.3015 -0.4753 -0.1005
  623MPD2    C3 9227   0.461   3.407  16.296 -0.5891  0.6038 -0.7948
  623MPD2    C4 9228   0.538   3.463  16.193  0.4324 -0.5330  0.0483
  623MPD2    C5 9229   0.483   3.472  16.060  0.1476 -0.2014 -0.1196
  623MPD2     H 9230   0.270   3.345  16.350  0.0960  0.8898  0.6979
  623MPD2    H1 9231   0.638   3.497  16.217  0.0886  1.9067 -2.0250
  623MPD2    H2 9232   0.317   3.426  15.938  0.3214  0.8296 -0.6655
  623MPD2    H3 9233   0.544   3.528  15.990  1.6970 -0.7824  0.7580
  623MPD2     N 9234   0.502   3.379  16.425 -0.0543 -0.0979 -0.3833
  623MPD2    H5 9235   0.436   3.337  16.490 -0.8998 -0.2642 -1.3609
  623MPD2    N1 9236   0.139   3.330  16.107  0.2301 -0.3663 -0.0142
  623MPD2    H7 9237   0.104   3.331  16.011 -1.4332 -0.7663  0.5885
  624TMC3    C1 9238   0.745   3.169  16.736  0.7337 -0.0554  0.1432
  624TMC3    C2 9239   0.629   3.149  16.806  0.7966  0.0515  0.2708
  624TMC3    C3 9240   0.522   3.225  16.777  0.8544  0.3232 -0.4870
  624TMC3    C4 9241   0.756   3.265  16.640 -0.0309 -1.0587  0.1871
  624TMC3    C5 9242   0.641   3.332  16.609 -0.3028  0.1381 -0.9782
  624TMC3    C6 9243   0.525   3.327  16.689 -0.4925 -1.1978 -0.4499
  624TMC3     C 9244   0.860   3.089  16.784 -0.1091 -0.3707 -0.1679
  624TMC3     O 9245   0.860   3.045  16.900 -0.2821  0.2363  0.0725
  624TMC3     H 9246   0.615   3.069  16.877  3.4091  0.3570  1.1348
  624TMC3    H1 9247   0.848   3.287  16.586  1.6317 -1.5564  2.8359
  624TMC3    H2 9248   0.441   3.386  16.655  1.6276  0.0702 -3.5673
  624TMC3    C7 9249   0.632   3.387  16.474 -0.0989 -0.1984  0.3586
  624TMC3    C8 9250   0.397   3.164  16.790 -0.4865 -0.2580 -0.0165
  624TMC3    O1 9251   0.734   3.412  16.414 -0.5057  0.4060  0.1692
  624TMC3    O2 9252   0.390   3.048  16.821  0.2137 -0.0938 -0.4316
  625MPD2     C 9253   1.035   3.333   0.628 -0.2860  0.1652 -0.5157
  625MPD2    C1 9254   1.012   3.468   0.592  0.4471  0.3763 -0.0678
  625MPD2    C2 9255   1.120   3.548   0.556  0.4062  0.3565 -0.7622
  625MPD2    C3 9256   1.248   3.492   0.565  0.7232 -0.0932 -0.1479
  625MPD2    C4 9257   1.264   3.361   0.596  0.2648  0.1174  1.1849
  625MPD2    C5 9258   1.160   3.279   0.619  0.8706 -0.1026  0.0006
  625MPD2     H 9259   1.112   3.653   0.528 -2.9615  0.7438  1.7039
  625MPD2    H1 9260   1.361   3.312   0.600  0.8216  1.1794  0.7586
  625MPD2    H2 9261   0.953   3.273   0.667 -1.5163  2.8527  1.0415
  625MPD2    H3 9262   1.178   3.173   0.629 -2.9709 -0.6308  1.2673
  625MPD2     N 9263   1.365   3.578   0.550 -0.4141  0.1062 -0.1625
  625MPD2    H5 9264   1.360   3.677   0.527 -0.0888 -0.1688 -1.4744
  625MPD2    N1 9265   0.880   3.513   0.582  0.0856  0.3798  0.5397
  625MPD2    H7 9266   0.870   3.607   0.544  0.9823  0.5287  0.6641
  626TMC3    C1 9267   0.639   3.520   0.590  1.0801  0.1574 -0.7703
  626TMC3    C2 9268   0.641   3.604   0.470  0.2125 -0.0423 -0.0807
  626TMC3    C3 9269   0.515   3.631   0.420 -0.7927  0.7958  0.1603
  626TMC3    C4 9270   0.531   3.463   0.641 -0.3588 -0.2515 -0.4071
  626TMC3    C5 9271   0.409   3.481   0.580 -0.1124  0.4503  0.4173
  626TMC3    C6 9272   0.400   3.567   0.470  0.1649  0.2441  0.0614
  626TMC3     C 9273   0.765   3.455   0.625 -0.4109  0.3415 -0.1104
  626TMC3     O 9274   0.749   3.364   0.700 -0.3173 -0.2060 -0.4529
  626TMC3     H 9275   0.735   3.643   0.433 -0.0750  0.9301  0.2339
  626TMC3    H1 9276   0.530   3.398   0.728  0.5124  1.2433  0.7120
  626TMC3    H2 9277   0.310   3.583   0.412  1.0101  0.7919 -1.0973
  626TMC3    C7 9278   0.291   3.409   0.637 -0.6366  0.3406  0.0507
  626TMC3    C8 9279   0.502   3.750   0.340 -0.4313 -0.0782 -0.2630
  626TMC3    O1 9280   0.318   3.315   0.716  0.2242  0.2867  0.1577
  626TMC3    O2 9281   0.593   3.790   0.275  0.2723 -0.0781 -0.0278
  627MPD2     C 9282   3.623   4.369  14.713  0.8681  0.0006  0.1083
  627MPD2    C1 9283   3.758   4.337  14.708  0.2721  0.3853 -0.1979
  627MPD2    C2 9284   3.806   4.237  14.630 -0.1657 -0.2032  0.1789
  627MPD2    C3 9285   3.722   4.170  14.546  0.0131 -0.4845  0.3904
  627MPD2    C4 9286   3.587   4.196  14.545 -0.3245  0.5036  0.1595
  627MPD2    C5 9287   3.543   4.303  14.622  0.6064  0.4653 -0.2432
  627MPD2     H 9288   3.913   4.218  14.628 -0.0672  0.5602 -2.8544
  627MPD2    H1 9289   3.509   4.158  14.481 -1.7089 -0.6257  2.5357
  627MPD2    H2 9290   3.577   4.450  14.768  0.0127  0.7056 -1.6519
  627MPD2    H3 9291   3.437   4.324  14.629  0.8061  0.8417  1.4725
  627MPD2     N 9292   3.782   4.090  14.442 -0.2891  0.3546  0.5416
  627MPD2    H5 9293   3.882   4.077  14.441 -0.3529 -0.0117 -2.0307
  627MPD2    N1 9294   3.844   4.399  14.803 -0.6933  0.6988  0.4462
  627MPD2    H7 9295   3.940   4.367  14.799  0.0371  2.9339 -0.2044
  628TMC3    C1 9296   3.944   4.533  14.963  0.3129 -0.4198  0.0463
  628TMC3    C2 9297   4.052   4.452  14.961 -0.1021 -0.1786  0.9998
  628TMC3    C3 9298   4.177   4.504  14.990 -0.4067  0.0272 -0.2616
  628TMC3    C4 9299   3.964   4.666  15.002 -0.1322 -0.1153 -0.4442
  628TMC3    C5 9300   4.089   4.711  15.028  0.0230 -0.4852 -0.2957
  628TMC3    C6 9301   4.202   4.636  15.032  0.1994 -0.2687 -0.0784
  628TMC3     C 9302   3.824   4.495  14.897  0.5591  0.4485  0.1871
  628TMC3     O 9303   3.721   4.556  14.918 -0.8603  0.2085 -0.0054
  628TMC3     H 9304   4.042   4.349  14.928 -1.4596 -0.1830  1.4396
  628TMC3    H1 9305   3.880   0.016  14.999 -0.3321 -0.4010 -1.4119
  628TMC3    H2 9306   4.303   4.674  15.037  0.1346  0.0926 -1.7731
  628TMC3    C7 9307   4.111   0.134  15.042 -0.0309 -0.2229 -0.3192
  628TMC3    C8 9308   4.290   4.411  14.945  0.2639 -0.0479  0.3891
  628TMC3    O1 9309   4.211   0.163  15.103  0.2637  0.1233 -0.4221
  628TMC3    O2 9310   4.251   4.331  14.864  0.3280  0.3781 -0.4872
  629MPD2     C 9311   2.289   2.416  16.894 -0.0927 -0.1661  0.0672
  629MPD2    C1 9312   2.305   2.455  16.761 -0.3489 -0.2198 -0.0086
  629MPD2    C2 9313   2.192   2.486  16.692  0.6663 -0.6080 -0.0727
  629MPD2    C3 9314   2.062   2.477  16.747 -1.1350 -0.5203  0.4812
  629MPD2    C4 9315   2.051   2.437  16.879  0.3124 -0.0940  0.3025
  629MPD2    C5 9316   2.164   2.402  16.951  1.3980  0.5745  0.1363
  629MPD2     H 9317   2.203   2.516  16.589 -2.1882  1.0954  0.1421
  629MPD2    H1 9318   1.953   2.416  16.921  0.8712 -0.5618  1.3895
  629MPD2    H2 9319   2.374   2.400  16.959 -1.9757  0.1780  2.6134
  629MPD2    H3 9320   2.158   2.364  17.053  1.3430  1.4438  0.4616
  629MPD2     N 9321   1.954   2.502  16.660 -1.0463 -0.0653  0.7094
  629MPD2    H5 9322   1.972   2.519  16.561 -0.5498 -1.6124  0.5418
  629MPD2    N1 9323   2.436   2.484  16.714  0.2531  0.4620 -0.4803
  629MPD2    H7 9324   2.504   2.464  16.787  1.0881  0.3423 -1.2910
  630TMC3    C1 9325   2.618   2.577  16.585 -0.3333 -0.2720  0.2390
  630TMC3    C2 9326   2.669   2.610  16.463  0.4511 -0.6819 -0.3759
  630TMC3    C3 9327   2.805   2.637  16.439  0.1995 -0.3740 -0.0942
  630TMC3    C4 9328   2.700   2.565  16.693 -0.4455  0.1763 -0.1401
  630TMC3    C5 9329   2.826   2.607  16.677 -0.0429  0.2401  0.4668
  630TMC3    C6 9330   2.887   2.624  16.553  0.6302  0.2779 -0.2322
  630TMC3     C 9331   2.472   2.551  16.600  0.0831 -0.2284  1.0942
  630TMC3     O 9332   2.403   2.603  16.516  0.2504  0.6600  0.1687
  630TMC3     H 9333   2.599   2.627  16.382 -0.9047 -0.4366  0.8446
  630TMC3    H1 9334   2.656   2.552  16.792 -0.1778  0.5114  0.0239
  630TMC3    H2 9335   2.991   2.652  16.544  0.4204  1.2462  0.4091
  630TMC3    C7 9336   2.888   2.696  16.776 -0.2734 -0.7173  0.1034
  630TMC3    C8 9337   2.844   2.763  16.377  0.0411  0.3234 -0.9128
  630TMC3    O1 9338   2.856   2.690  16.893  0.7212  0.1235 -0.6077
  630TMC3    O2 9339   2.940   2.818  16.427  0.1594  0.3484 -0.5450
  631MPD2     C 9340   0.463   2.575  15.596 -0.0576  0.0018  0.1916
  631MPD2    C1 9341   0.552   2.610  15.501  0.4371 -0.8039 -0.8605
  631MPD2    C2 9342   0.664   2.535  15.473 -0.0169 -0.4564 -0.4596
  631MPD2    C3 9343   0.689   2.430  15.558  0.2011  0.4610 -0.3539
  631MPD2    C4 9344   0.605   2.389  15.663 -0.0149 -0.7263  0.3924
  631MPD2    C5 9345   0.489   2.468  15.675  0.1791 -0.2903  0.2913
  631MPD2     H 9346   0.721   2.548  15.382  1.7801 -0.0582  0.7280
  631MPD2    H1 9347   0.604   2.297  15.719  0.4267 -2.1035 -1.8659
  631MPD2    H2 9348   0.369   2.628  15.602 -0.1733 -0.2741  0.7898
  631MPD2    H3 9349   0.415   2.437  15.748  1.1405 -0.8549  1.0361
  631MPD2     N 9350   0.805   2.355  15.532  0.4664 -0.1737  0.2593
  631MPD2    H5 9351   0.853   2.381  15.447 -1.4439  0.0728 -0.7583
  631MPD2    N1 9352   0.531   2.727  15.423 -0.3054 -0.1752  0.2921
  631MPD2    H7 9353   0.446   2.777  15.443 -2.2810 -2.3305 -2.6385
  632TMC3    C1 9354   0.552   2.886  15.265 -0.6443 -0.1571  0.8538
  632TMC3    C2 9355   0.495   2.978  15.353 -0.0596 -0.3269  0.0923
  632TMC3    C3 9356   0.477   3.109  15.309 -0.2990 -0.4414  0.0512
  632TMC3    C4 9357   0.597   2.928  15.142 -0.7942 -0.4577  1.1418
  632TMC3    C5 9358   0.581   3.058  15.109 -0.5698  0.5310 -0.6129
  632TMC3    C6 9359   0.522   3.151  15.191 -0.4966 -0.3015 -0.0587
  632TMC3     C 9360   0.595   2.754  15.306 -0.2053  0.0033  0.2470
  632TMC3     O 9361   0.662   2.694  15.224 -0.0982 -0.4882  0.4848
  632TMC3     H 9362   0.491   2.966  15.460  1.5876  1.0568  0.3179
  632TMC3    H1 9363   0.641   2.861  15.069 -0.7475  1.0413 -0.2031
  632TMC3    H2 9364   0.511   3.254  15.161 -0.5126  0.6029  3.0835
  632TMC3    C7 9365   0.660   3.109  14.997 -0.5506  0.6194  0.3493
  632TMC3    C8 9366   0.439   3.210  15.414  0.3466  0.4688  0.7694
  632TMC3    O1 9367   0.614   3.194  14.919 -0.2261 -0.4177  0.0516
  632TMC3    O2 9368   0.367   3.172  15.506  0.0242  0.5450  0.2273
  633MPD2     C 9369   0.754   1.226  17.582 -0.2287  0.1725  0.1583
  633MPD2    C1 9370   0.728   1.104  17.525  0.6722 -0.3320  0.0795
  633MPD2    C2 9371   0.764   0.993  17.597 -0.2496  0.3442  0.9600
  633MPD2    C3 9372   0.828   1.005   0.050  0.2739  0.1175  0.0179
  633MPD2    C4 9373   0.840   1.128   0.110  0.3278  0.0882 -0.5437
  633MPD2    C5 9374   0.791   1.238   0.040 -0.9547  0.7180  0.5204
  633MPD2     H 9375   0.745   0.894  17.558  1.8289  0.5887 -0.6914
  633MPD2    H1 9376   0.897   1.144   0.201 -0.5601  0.0392  0.0176
  633MPD2    H2 9377   0.748   1.323  17.532  0.8895  0.8171  1.2743
  633MPD2    H3 9378   0.825   1.335   0.074 -1.5158  0.9712  0.3727
  633MPD2     N 9379   0.877   0.882   0.101  0.0525  0.7028 -0.4887
  633MPD2    H5 9380   0.859   0.805   0.038  0.9540 -0.0640  0.1758
  633MPD2    N1 9381   0.704   1.094  17.385  0.7909 -0.1534  0.0570
  633MPD2    H7 9382   0.716   1.001  17.345 -0.1860 -0.5854  0.7723
  634TMC3    C1 9383   0.678   1.164  17.166  0.9324  0.1131 -0.0963
  634TMC3    C2 9384   0.728   1.041  17.125  0.3470  0.0895  0.8140
  634TMC3    C3 9385   0.715   1.014  16.994  0.4929  0.1180 -0.4868
  634TMC3    C4 9386   0.650   1.258  17.075  0.2316 -0.0180 -0.4233
  634TMC3    C5 9387   0.640   1.232  16.943  0.2046 -0.1479  0.0128
  634TMC3    C6 9388   0.661   1.104  16.900  0.3505  0.2997  0.0907
  634TMC3     C 9389   0.666   1.197  17.308 -0.1388 -0.2501  0.5629
  634TMC3     O 9390   0.627   1.308  17.341 -0.1744  0.1522  0.4575
  634TMC3     H 9391   0.771   0.962  17.186 -0.8954 -3.2794 -2.6212
  634TMC3    H1 9392   0.609   1.345  17.124 -2.2621 -1.6509  0.3966
  634TMC3    H2 9393   0.633   1.086  16.797  4.2438  2.0759 -1.3182
  634TMC3    C7 9394   0.574   1.320  16.848  0.1572  0.2951 -0.4512
  634TMC3    C8 9395   0.771   0.883  16.951 -0.3568  0.5546 -0.0602
  634TMC3    O1 9396   0.573   1.292  16.729 -0.5326  0.0099  0.3117
  634TMC3    O2 9397   0.789   0.801  17.040  0.3509  0.4939  0.2715
  635TMC3    C1 9398   0.955   1.506   0.713 -0.4200  0.4780  0.3740
  635TMC3    C2 9399   0.990   1.386   0.666 -0.7433 -0.0857 -0.6545
  635TMC3    C3 9400   0.955   1.276   0.734 -0.3713 -0.6721 -0.4420
  635TMC3    C4 9401   0.864   1.515   0.814  0.2903 -0.4736  0.1855
  635TMC3    C5 9402   0.822   1.396   0.878 -0.4597 -0.3239 -0.3172
  635TMC3    C6 9403   0.872   1.276   0.845 -0.2888  1.1230  0.3358
  635TMC3     C 9404   1.007   1.622   0.639 -0.0336 -0.0920 -0.0428
  635TMC3     O 9405   1.087   1.603   0.552 -0.0524  0.9432  0.4511
  635TMC3     H 9406   1.064   1.377   0.588  2.1124  1.6086  1.8629
  635TMC3    H1 9407   0.826   1.605   0.861 -0.9800 -0.6900 -0.4014
  635TMC3    H2 9408   0.832   1.184   0.887 -1.1834  0.8633 -1.1027
  635TMC3    C7 9409   0.752   1.406   1.005  0.1783  0.3535 -0.0233
  635TMC3    C8 9410   1.022   1.153   0.693 -0.7474  0.1298 -0.2978
  635TMC3    O1 9411   0.682   1.505   1.020  0.0313  0.1316 -0.3304
  635TMC3    O2 9412   1.088   1.159   0.592  0.0500 -0.1167 -0.4211
  636MPD2     C 9413   1.704   1.028  15.643 -0.0371  0.0747 -0.2374
  636MPD2    C1 9414   1.651   1.056  15.767 -0.1263 -0.2131  0.2692
  636MPD2    C2 9415   1.628   0.947  15.855 -0.1478 -0.2361  0.2898
  636MPD2    C3 9416   1.637   0.813  15.811 -0.1756 -0.4265  0.3767
  636MPD2    C4 9417   1.688   0.795  15.683  0.0620 -0.7495 -0.0139
  636MPD2    C5 9418   1.729   0.900  15.610  0.3523 -0.6355 -0.0047
  636MPD2     H 9419   1.590   0.965  15.955  1.0799  1.2214  0.5051
  636MPD2    H1 9420   1.693   0.703  15.625 -0.6824  0.4222 -1.9331
  636MPD2    H2 9421   1.736   1.109  15.579 -0.2431  0.5218  0.2243
  636MPD2    H3 9422   1.751   0.875  15.507 -2.2141 -0.7166 -0.5156
  636MPD2     N 9423   1.583   0.706  15.896  0.2828 -0.7974 -0.6892
  636MPD2    H5 9424   1.536   0.749  15.975 -0.9532 -0.5484 -1.5593
  636MPD2    N1 9425   1.635   1.191  15.815  0.3662 -0.5393  0.1719
  636MPD2    H7 9426   1.609   1.204  15.912 -1.3640  0.3184 -0.4011
  637TMC3    C1 9427   1.521   0.490  15.971  0.1205 -0.2023 -0.1994
  637TMC3    C2 9428   1.438   0.546  16.063  0.3202  0.4880  0.5063
  637TMC3    C3 9429   1.385   0.470  16.162  0.0116 -0.6628 -0.5567
  637TMC3    C4 9430   1.581   0.367  16.004  0.3157  0.2093 -0.3555
  637TMC3    C5 9431   1.524   0.284  16.096  0.0271 -0.2688 -0.4342
  637TMC3    C6 9432   1.413   0.340  16.171 -0.6982  0.2028  0.5786
  637TMC3     C 9433   1.596   0.567  15.878 -0.4818  0.3866 -0.9582
  637TMC3     O 9434   1.657   0.514  15.790 -0.2967 -0.1237  0.3304
  637TMC3     H 9435   1.400   0.645  16.039 -0.5351 -0.1210 -0.6407
  637TMC3    H1 9436   1.668   0.328  15.952  0.6428 -1.0272  1.1495
  637TMC3    H2 9437   1.350   0.272  16.227 -1.1004  0.8611  0.9213
  637TMC3    C7 9438   1.609   0.223  16.189 -0.5698 -0.4155 -0.1749
  637TMC3    C8 9439   1.390   0.550  16.281 -0.2987 -0.1346 -0.3971
  637TMC3    O1 9440   1.563   0.141  16.271 -0.6701 -0.5627 -0.2649
  637TMC3    O2 9441   1.386   0.673  16.268  0.1603  0.4846 -0.0188
  638MPD2     C 9442   1.536   0.233  15.059 -0.6278  0.4697  0.2468
  638MPD2    C1 9443   1.510   0.133  14.973  0.5325  0.3132  0.3049
  638MPD2    C2 9444   1.472   0.009  15.021  0.4200 -0.4609  0.0795
  638MPD2    C3 9445   1.475   4.702  15.158  0.5237 -0.3029  0.9422
  638MPD2    C4 9446   1.503   0.087  15.248 -0.2812  0.0532  0.3887
  638MPD2    C5 9447   1.529   0.207  15.193 -0.0102  0.0814  0.0480
  638MPD2     H 9448   1.441   4.659  14.943  1.8124 -1.2094  0.1952
  638MPD2    H1 9449   1.507   0.068  15.355 -0.5838  2.8255  0.8954
  638MPD2    H2 9450   1.557   0.334  15.024  1.0964  0.2774  0.7647
  638MPD2    H3 9451   1.543   0.293  15.258 -1.3711  1.5128 -1.5675
  638MPD2     N 9452   1.453   4.566  15.203 -0.4874 -0.2815 -0.0303
  638MPD2    H5 9453   1.422   4.499  15.134  0.2194 -1.4181  0.7548
  638MPD2    N1 9454   1.530   0.160  14.835  0.2238  0.4379 -0.3416
  638MPD2    H7 9455   1.552   0.255  14.808  0.9317  0.3895  0.0684
  639TMC3    C1 9456   1.464   4.372  15.314  0.0766 -0.1965  0.1889
  639TMC3    C2 9457   1.375   4.319  15.228 -0.0156 -0.1884 -0.0237
  639TMC3    C3 9458   1.338   4.192  15.253 -0.4964 -0.6284 -0.5562
  639TMC3    C4 9459   1.528   4.303  15.408  0.2836  0.0752  0.3880
  639TMC3    C5 9460   1.488   4.171  15.426 -0.4399 -0.4798 -0.1113
  639TMC3    C6 9461   1.394   4.113  15.348 -0.0746 -0.6926 -0.2294
  639TMC3     C 9462   1.478   4.516  15.326 -0.4804  0.6152 -0.7468
  639TMC3     O 9463   1.536   4.554  15.427 -0.6639  0.0745 -0.0171
  639TMC3     H 9464   1.322   4.362  15.144 -1.0023 -0.6414  0.3623
  639TMC3    H1 9465   1.596   4.352  15.476  1.9300 -0.7334 -0.6675
  639TMC3    H2 9466   1.368   4.010  15.370 -0.7590  0.0605  2.4786
  639TMC3    C7 9467   1.575   4.084  15.497 -0.1509  0.3112 -0.6844
  639TMC3    C8 9468   1.277   4.123  15.141 -0.2843  0.3353 -0.6732
  639TMC3    O1 9469   1.545   3.970  15.530  0.5832  0.0621  0.2033
  639TMC3    O2 9470   1.294   4.171  15.031  0.0202 -0.4312 -0.4599
  640MPD2     C 9471   2.829   2.987   9.290 -0.2938  0.2124 -0.0827
  640MPD2    C1 9472   2.710   2.921   9.317 -0.1436  0.5657 -0.5609
  640MPD2    C2 9473   2.587   2.989   9.312 -0.2146  0.2487  0.0671
  640MPD2    C3 9474   2.586   3.124   9.289 -0.8107 -0.3114 -0.1049
  640MPD2    C4 9475   2.705   3.186   9.247 -0.5330 -0.0818 -0.0543
  640MPD2    C5 9476   2.820   3.114   9.246  0.1636  0.2255 -0.2799
  640MPD2     H 9477   2.496   2.938   9.341  0.3010 -1.2056 -0.8985
  640MPD2    H1 9478   2.704   3.292   9.226 -3.3216  0.0649  0.7350
  640MPD2    H2 9479   2.921   2.931   9.284 -1.8041 -2.5384  2.9711
  640MPD2    H3 9480   2.916   3.161   9.226  0.3029  0.3628  0.7342
  640MPD2     N 9481   2.469   3.198   9.302 -0.3786 -0.2625  0.1881
  640MPD2    H5 9482   2.495   3.294   9.285  0.1521 -0.5306 -0.5074
  640MPD2    N1 9483   2.712   2.787   9.352 -0.4553  0.3839 -0.0863
  640MPD2    H7 9484   2.624   2.736   9.351  0.5088 -1.3001 -1.1772
  641TMC3    C1 9485   2.794   2.571   9.383 -0.7195 -0.4857 -0.1743
  641TMC3    C2 9486   2.835   2.493   9.487 -0.3731  0.4344  0.1272
  641TMC3    C3 9487   2.771   2.374   9.508  0.2621  0.1692 -0.1975
  641TMC3    C4 9488   2.701   2.527   9.289 -0.2969  0.0998 -0.4880
  641TMC3    C5 9489   2.643   2.408   9.313  0.0587 -0.0157 -0.1270
  641TMC3    C6 9490   2.670   2.327   9.422 -0.4742 -0.0266 -0.1631
  641TMC3     C 9491   2.823   2.714   9.391  0.4070 -0.7412  0.8054
  641TMC3     O 9492   2.936   2.753   9.431  0.2589  0.2760  0.0413
  641TMC3     H 9493   2.890   2.544   9.565  2.4534 -0.7858 -1.0684
  641TMC3    H1 9494   2.676   2.592   9.206 -0.1220  1.6469  0.6699
  641TMC3    H2 9495   2.629   2.228   9.433 -0.9105  0.1387 -0.2745
  641TMC3    C7 9496   2.530   2.359   9.223  0.2353 -1.1663  0.0058
  641TMC3    C8 9497   2.787   2.280   9.622  0.2219  0.3258  0.3387
  641TMC3    O1 9498   2.519   2.416   9.113 -0.6370 -0.0567 -0.0231
  641TMC3    O2 9499   2.720   2.179   9.619  0.1510  0.3995  0.1824
  642TMC3    C1 9500   3.039   4.679  12.366  0.2621  0.1264  0.1585
  642TMC3    C2 9501   3.139   4.698  12.462 -0.2828  0.7865  0.0216
  642TMC3    C3 9502   3.197   4.582  12.522  0.3043  0.3718  0.5443
  642TMC3    C4 9503   2.989   4.560  12.342 -0.4897  0.1976 -0.2708
  642TMC3    C5 9504   3.036   4.451  12.405  0.6042 -0.1714  0.0777
  642TMC3    C6 9505   3.143   4.461  12.490 -0.3457 -0.1067 -0.0514
  642TMC3     C 9506   2.978   0.081  12.297  0.3887 -0.1662 -0.3036
  642TMC3     O 9507   2.975   0.194  12.352  0.1223 -0.0618  0.3932
  642TMC3     H 9508   3.167   0.083  12.481 -1.0323  1.0619 -0.3323
  642TMC3    H1 9509   2.906   4.555  12.272 -1.4649 -1.1571  0.9601
  642TMC3    H2 9510   3.188   4.369  12.525  0.8237  1.0488  1.4643
  642TMC3    C7 9511   2.980   4.321  12.364  0.1331  0.1053  0.5397
  642TMC3    C8 9512   3.341   4.579  12.555  0.4881  0.0645  0.6098
  642TMC3    O1 9513   2.911   4.310  12.263 -0.1023 -0.4054 -0.0960
  642TMC3    O2 9514   3.399   4.470  12.552  0.5206 -0.0764 -0.6022
  643TMC3    C1 9515   2.652   3.854   0.699  0.0073 -0.2820 -0.1845
  643TMC3    C2 9516   2.522   3.872   0.669 -0.0176 -0.2143  1.1936
  643TMC3    C3 9517   2.468   3.810   0.557  0.5181 -0.1839 -0.5742
  643TMC3    C4 9518   2.749   3.791   0.618  0.2813  0.6456 -0.5224
  643TMC3    C5 9519   2.686   3.729   0.513  0.0820  0.1664 -0.5480
  643TMC3    C6 9520   2.551   3.728   0.485  0.1639  0.5364  0.2722
  643TMC3     C 9521   2.686   3.983   0.748 -0.1540 -0.1628 -0.2378
  643TMC3     O 9522   2.646   4.084   0.695  0.2643 -0.1613 -0.1660
  643TMC3     H 9523   2.456   3.929   0.734  0.8015  1.1139  0.8582
  643TMC3    H1 9524   2.855   3.789   0.638  0.0851 -2.3176  0.1745
  643TMC3    H2 9525   2.503   3.678   0.401  1.5051  0.1036 -0.2254
  643TMC3    C7 9526   2.773   3.711   0.406 -0.1478  0.1945  0.8927
  643TMC3    C8 9527   2.391   3.896   0.467  0.1924  0.0769  0.1061
  643TMC3    O1 9528   2.866   3.790   0.407 -0.8976  0.8726 -0.3245
  643TMC3    O2 9529   2.338   3.852   0.364  0.0796  0.0675 -0.2596
  644MPD2     C 9530   3.243   3.333   9.465 -0.1288  0.1945 -0.0099
  644MPD2    C1 9531   3.237   3.261   9.585 -0.3893  0.6023  0.2825
  644MPD2    C2 9532   3.110   3.232   9.646 -0.2464 -0.4490  0.0564
  644MPD2    C3 9533   2.995   3.285   9.586  0.2500 -0.3942  0.0528
  644MPD2    C4 9534   3.005   3.341   9.459  0.1521  0.6994 -0.3025
  644MPD2    C5 9535   3.125   3.363   9.400 -0.3588 -0.3526  0.0534
  644MPD2     H 9536   3.096   3.173   9.735  4.4727  0.2263  1.2812
  644MPD2    H1 9537   2.918   3.347   9.394  1.2011  2.5138 -1.5288
  644MPD2    H2 9538   3.339   3.365   9.425 -0.9159  2.2980 -0.2070
  644MPD2    H3 9539   3.134   3.418   9.307 -2.2301 -0.5985 -0.2652
  644MPD2     N 9540   2.867   3.257   9.640  0.0142  0.0758 -0.2759
  644MPD2    H5 9541   2.866   3.192   9.717  0.5070  1.5348  0.9663
  644MPD2    N1 9542   3.361   3.231   9.647  0.1879 -0.4538 -0.7305
  644MPD2    H7 9543   3.438   3.264   9.591  0.6865  0.6128  0.5922
  645TMC3    C1 9544   2.637   3.243   9.665  0.1154 -0.1071 -0.3866
  645TMC3    C2 9545   2.645   3.114   9.637 -0.0062 -0.3838 -0.5101
  645TMC3    C3 9546   2.550   3.028   9.684  0.7368  0.7231 -0.1310
  645TMC3    C4 9547   2.529   3.302   9.713 -0.4471  0.0406  0.1436
  645TMC3    C5 9548   2.432   3.223   9.759 -0.1109  0.5664 -0.3014
  645TMC3    C6 9549   2.444   3.086   9.750  0.3553 -0.4506  0.7921
  645TMC3     C 9550   2.752   3.321   9.615  0.1114  0.7958  1.7657
  645TMC3     O 9551   2.725   3.419   9.550  0.0789 -0.5442 -0.6468
  645TMC3     H 9552   2.733   3.067   9.596 -0.7308 -2.2151  0.0311
  645TMC3    H1 9553   2.547   3.405   9.739 -2.0435  0.0727  1.0806
  645TMC3    H2 9554   2.370   3.030   9.807 -1.4439  1.7015  0.5679
  645TMC3    C7 9555   2.338   3.273   9.854  0.1983  0.2518 -0.2161
  645TMC3    C8 9556   2.577   2.886   9.696 -0.0210 -0.0610 -0.2969
  645TMC3    O1 9557   2.296   3.191   9.938 -0.3607 -0.4263  0.0870
  645TMC3    O2 9558   2.692   2.853   9.684 -0.3363 -0.0818  0.5673
  646MPD2     C 9559   1.758   3.641  14.419 -0.3090  0.2009 -0.3731
  646MPD2    C1 9560   1.692   3.605  14.531  0.7298 -0.1855  0.2182
  646MPD2    C2 9561   1.556   3.630  14.535 -0.3217 -0.5000 -0.2411
  646MPD2    C3 9562   1.496   3.706  14.427  0.1996  0.1800  0.4486
  646MPD2    C4 9563   1.572   3.744  14.317  0.5187  0.0505 -0.0284
  646MPD2    C5 9564   1.701   3.705  14.313 -0.1931  0.6085 -0.6071
  646MPD2     H 9565   1.497   3.604  14.622  0.7304  2.7904  1.4561
  646MPD2    H1 9566   1.533   3.804  14.236  0.9275 -0.9145 -0.9356
  646MPD2    H2 9567   1.861   3.611  14.407 -0.3247  0.6111 -1.5673
  646MPD2    H3 9568   1.758   3.727  14.224 -2.0767  3.9193 -0.9676
  646MPD2     N 9569   1.362   3.750  14.431  0.5773 -0.4684 -0.1466
  646MPD2    H5 9570   1.313   3.726  14.517 -1.0351 -0.5126 -1.0765
  646MPD2    N1 9571   1.772   3.536  14.630  0.1293  0.2992 -0.3502
  646MPD2    H7 9572   1.871   3.530  14.609  0.2935  2.0782 -0.1251
  647TMC3    C1 9573   1.817   3.395  14.822  0.3271 -0.6061  0.2649
  647TMC3    C2 9574   1.756   3.315  14.918  0.0775 -0.4607  0.9169
  647TMC3    C3 9575   1.832   3.225  14.988  0.4972  0.2883  0.2467
  647TMC3    C4 9576   1.945   3.366  14.780  0.1098  0.2790  0.5660
  647TMC3    C5 9577   2.021   3.277  14.860  0.5679  0.4899 -0.1552
  647TMC3    C6 9578   1.963   3.215  14.970  0.6551 -0.1496  0.1566
  647TMC3     C 9579   1.726   3.482  14.752 -0.3632  0.4072  0.2829
  647TMC3     O 9580   1.607   3.488  14.795 -0.7594 -0.5065 -0.0621
  647TMC3     H 9581   1.649   3.323  14.936 -0.4404  0.3633 -2.4463
  647TMC3    H1 9582   1.984   3.420  14.694  0.3477  0.1961  0.6228
  647TMC3    H2 9583   2.031   3.167  15.040  2.1102  2.3427  0.4539
  647TMC3    C7 9584   2.166   3.265  14.857 -0.6727  0.5201 -0.2195
  647TMC3    C8 9585   1.772   3.117  15.069 -0.4179  0.2614 -0.0808
  647TMC3    O1 9586   2.235   3.232  14.950  0.2965  0.5716 -0.5722
  647TMC3    O2 9587   1.855   3.068  15.148  0.6936 -0.1320 -0.0291
  648TMC3    C1 9588   1.011   0.863  16.177  0.1460  1.1848 -0.4362
  648TMC3    C2 9589   1.067   0.746  16.133 -0.1307 -0.2749  0.8823
  648TMC3    C3 9590   1.100   0.751  15.998 -0.2105 -0.3107 -0.8507
  648TMC3    C4 9591   0.976   0.970  16.098  0.4432  0.2985 -0.4594
  648TMC3    C5 9592   1.007   0.971  15.970  0.2916  0.1448  1.3152
  648TMC3    C6 9593   1.067   0.858  15.918 -0.1770  0.4805 -0.0886
  648TMC3     C 9594   0.980   0.868  16.321 -0.1522  0.3684 -0.1036
  648TMC3     O 9595   0.867   0.910  16.361  0.0808  0.4566 -0.7972
  648TMC3     H 9596   1.099   0.661  16.194  0.4110  0.0803  1.0953
  648TMC3    H1 9597   0.937   1.061  16.143 -2.2010 -0.9828 -0.1416
  648TMC3    H2 9598   1.098   0.869  15.815  0.7737 -0.2072  0.1288
  648TMC3    C7 9599   0.955   1.059  15.874  0.1235 -0.2896 -0.0921
  648TMC3    C8 9600   1.139   0.631  15.924  0.3543 -1.0611 -0.0006
  648TMC3    O1 9601   0.984   1.045  15.756 -0.4647 -0.2465 -0.2086
  648TMC3    O2 9602   1.185   0.647  15.812  0.2954 -0.4080 -0.3899
  649TMC3    C1 9603   0.527   2.156  12.627 -1.2429  0.1657 -0.1651
  649TMC3    C2 9604   0.648   2.201  12.622  0.2047 -0.2491  0.3003
  649TMC3    C3 9605   0.740   2.150  12.711  0.3618  1.0030  0.0366
  649TMC3    C4 9606   0.478   2.075  12.729  0.0406 -0.0375  0.2872
  649TMC3    C5 9607   0.569   2.036  12.823  0.1545  0.0129 -0.4977
  649TMC3    C6 9608   0.697   2.069  12.812 -0.3586 -0.2189 -0.3904
  649TMC3     C 9609   0.434   2.166  12.519 -0.3024 -1.2632  0.0186
  649TMC3     O 9610   0.317   2.161  12.549 -0.4279  0.3927 -0.1851
  649TMC3     H 9611   0.675   2.278  12.550 -0.4196 -1.7512 -1.5648
  649TMC3    H1 9612   0.381   2.027  12.724  0.1035 -0.5115  3.7190
  649TMC3    H2 9613   0.766   2.039  12.890 -0.4197 -1.4611 -0.8069
  649TMC3    C7 9614   0.535   1.934  12.918 -0.1102  0.3040 -0.0870
  649TMC3    C8 9615   0.850   2.239  12.750 -0.8159 -0.0058 -0.3225
  649TMC3    O1 9616   0.422   1.946  12.961  0.7370 -0.4866  0.0718
  649TMC3    O2 9617   0.889   2.252  12.866  0.4465 -0.0373 -0.0704
  650TMC3    C1 9618   2.398   4.091  12.494 -0.2666  0.7568  0.4051
  650TMC3    C2 9619   2.427   4.223  12.472 -0.2436  0.7870  0.1537
  650TMC3    C3 9620   2.429   4.268  12.347  0.2037  0.1679  0.5521
  650TMC3    C4 9621   2.335   4.017  12.395  0.2632  0.2689 -0.0965
  650TMC3    C5 9622   2.336   4.064  12.261 -0.8204  0.3902  0.2115
  650TMC3    C6 9623   2.396   4.188  12.242  0.1484 -0.3435  0.2705
  650TMC3     C 9624   2.425   4.042  12.626  0.6343 -0.2729  0.0565
  650TMC3     O 9625   2.424   4.129  12.713  1.2579  0.1250  0.6186
  650TMC3     H 9626   2.460   4.294  12.548 -1.4270  2.7612 -1.1990
  650TMC3    H1 9627   2.283   3.923  12.413  0.5582  0.2545  0.6775
  650TMC3    H2 9628   2.406   4.229  12.142 -1.9399  0.6077  0.4600
  650TMC3    C7 9629   2.207   4.035  12.201 -0.2221 -0.6153 -0.5177
  650TMC3    C8 9630   2.383   4.404  12.324 -0.2592  0.2700 -0.0063
  650TMC3    O1 9631   2.158   3.926  12.218  0.0800  0.3375 -0.2739
  650TMC3    O2 9632   2.395   4.447  12.210 -0.4069 -0.0287 -0.3598
  651MPD2     C 9633   1.346   0.610  10.324  0.0105  0.1001 -0.4161
  651MPD2    C1 9634   1.315   0.714  10.411 -0.0624  0.8029 -0.2012
  651MPD2    C2 9635   1.409   0.813  10.437  0.2739 -0.7997 -0.1583
  651MPD2    C3 9636   1.532   0.815  10.371  0.7192  0.5507  0.6582
  651MPD2    C4 9637   1.555   0.712  10.280  0.4225 -0.3922 -0.0676
  651MPD2    C5 9638   1.463   0.612  10.263 -0.3383  0.6054 -0.1843
  651MPD2     H 9639   1.385   0.892  10.506  3.2997 -0.7713  0.8750
  651MPD2    H1 9640   1.646   0.704  10.222  1.7236 -1.9020  2.2012
  651MPD2    H2 9641   1.280   0.524  10.318 -0.9547  0.7456  1.0574
  651MPD2    H3 9642   1.497   0.527  10.206 -1.7557 -1.4190  1.9975
  651MPD2     N 9643   1.631   0.912  10.406  0.4590  0.1576 -0.3028
  651MPD2    H5 9644   1.599   0.996  10.454 -0.3003  0.5837 -1.5524
  651MPD2    N1 9645   1.191   0.714  10.480 -0.3777  0.8196  0.4195
  651MPD2    H7 9646   1.182   0.802  10.528  1.9085  1.7285 -0.7986
  652TMC3    C1 9647   2.013   1.147  10.500  0.2589  0.3744  0.8174
  652TMC3    C2 9648   1.958   1.032  10.461 -0.0856  0.5162 -0.3767
  652TMC3    C3 9649   1.827   1.033  10.420 -0.4458  0.2185 -0.1021
  652TMC3    C4 9650   1.955   1.270  10.496  0.0521  0.2184  0.7359
  652TMC3    C5 9651   1.827   1.270  10.457  0.2009 -0.2518 -0.0182
  652TMC3    C6 9652   1.761   1.152  10.410 -0.2261  0.2802  0.8937
  652TMC3     C 9653   2.142   1.129  10.566  0.3737  0.4688  0.2337
  652TMC3     O 9654   2.162   1.018  10.620  0.0313  0.3292 -0.0139
  652TMC3     H 9655   2.012   0.939  10.476 -0.3566  0.6096  1.2094
  652TMC3    H1 9656   1.986   1.354  10.557  2.1944  1.4735 -2.0963
  652TMC3    H2 9657   1.657   1.157  10.380  0.2962 -0.1630 -0.9836
  652TMC3    C7 9658   1.789   1.398  10.407 -0.1901  0.0301 -0.6777
  652TMC3    C8 9659   1.768   0.910  10.376  0.6157 -0.1206 -0.1287
  652TMC3    O1 9660   1.809   1.500  10.475 -0.2562  0.4775 -0.1448
  652TMC3    O2 9661   1.842   0.827  10.328 -0.8752  0.1737  0.2022
  653MPD2     C 9662   0.486   1.113   0.197 -0.3330 -0.1298  1.1409
  653MPD2    C1 9663   0.444   1.194   0.095  0.0037  0.1329 -0.4889
  653MPD2    C2 9664   0.392   1.132  17.654  0.3964  0.5060 -0.5046
  653MPD2    C3 9665   0.386   0.996  17.634 -0.1768  0.4793 -0.3141
  653MPD2    C4 9666   0.440   0.917   0.062  0.2553  0.6919 -0.4462
  653MPD2    C5 9667   0.478   0.977   0.178 -0.4118 -0.5854 -0.4543
  653MPD2     H 9668   0.353   1.194  17.575 -3.9841 -1.5770 -0.0337
  653MPD2    H1 9669   0.464   0.811   0.057  2.6297  1.2291 -0.0366
  653MPD2    H2 9670   0.520   1.146   0.294  2.5952 -0.8370  0.3608
  653MPD2    H3 9671   0.521   0.912   0.254  0.0826  0.4187  0.1267
  653MPD2     N 9672   0.331   0.949  17.509  0.2026  0.7374 -0.5164
  653MPD2    H5 9673   0.282   1.005  17.440 -1.0298 -0.8783 -0.9518
  653MPD2    N1 9674   0.453   1.333   0.104  0.3128  0.0838 -0.5641
  653MPD2    H7 9675   0.434   1.389   0.021  2.4048  1.2232 -0.2673
  654TMC3    C1 9676   0.236   0.785  17.370  0.1014  1.3962  0.6861
  654TMC3    C2 9677   0.126   0.857  17.340  0.2540  0.5770 -0.3673
  654TMC3    C3 9678   0.059   0.811  17.234 -0.1433 -0.0748  0.8138
  654TMC3    C4 9679   0.292   0.680  17.297  0.8140 -0.6350 -0.2506
  654TMC3    C5 9680   0.228   0.655  17.178  0.1063  0.2818 -1.1420
  654TMC3    C6 9681   0.113   0.717  17.152  0.3001 -0.1710  0.1437
  654TMC3     C 9682   0.313   0.812  17.491  0.2448 -0.5518  0.0625
  654TMC3     O 9683   0.363   0.715  17.540 -0.0603 -0.5532 -0.6040
  654TMC3     H 9684   0.085   0.935  17.403  0.7405  1.4913 -1.1812
  654TMC3    H1 9685   0.390   0.648  17.329  0.3816 -1.9139 -0.1958
  654TMC3    H2 9686   0.076   0.673  17.060 -0.7879  2.1778 -0.5402
  654TMC3    C7 9687   0.274   0.528  17.108 -0.0863 -0.3203 -0.4338
  654TMC3    C8 9688   4.663   0.886  17.196 -0.1779 -0.6527  0.0849
  654TMC3    O1 9689   0.270   0.539  16.983  0.0524 -0.2922 -0.1593
  654TMC3    O2 9690   4.619   0.975  17.264 -0.0370 -0.3024  0.2062
  655MPD2     C 9691   1.351   0.880  15.632 -0.4768 -0.8468  0.0493
  655MPD2    C1 9692   1.376   0.999  15.572 -0.3741  0.0657 -0.6394
  655MPD2    C2 9693   1.435   0.996  15.447 -0.6132  0.0964 -0.2064
  655MPD2    C3 9694   1.462   0.877  15.384 -0.4297 -0.5264  0.0696
  655MPD2    C4 9695   1.424   0.762  15.447 -0.1062 -0.0677 -0.3833
  655MPD2    C5 9696   1.368   0.761  15.571  0.0941  0.3174  0.4881
  655MPD2     H 9697   1.475   1.085  15.399  0.8275 -2.0498 -2.9923
  655MPD2    H1 9698   1.461   0.666  15.414  0.7245  0.1995 -0.2410
  655MPD2    H2 9699   1.302   0.868  15.727 -1.1018  2.2216  0.1191
  655MPD2    H3 9700   1.344   0.666  15.618  1.0649  0.9438  2.2172
  655MPD2     N 9701   1.530   0.863  15.259 -0.0784  0.4634 -0.2319
  655MPD2    H5 9702   1.548   0.766  15.236  0.8643  0.0529  2.2841
  655MPD2    N1 9703   1.339   1.122  15.633  0.4211  0.0936 -0.7078
  655MPD2    H7 9704   1.343   1.208  15.579 -0.3958 -0.5804 -1.8338
  656TMC3    C1 9705   1.257   1.284  15.800  0.0311 -0.0118  0.6322
  656TMC3    C2 9706   1.226   1.317  15.926  0.1365 -0.2252 -0.1936
  656TMC3    C3 9707   1.140   1.414  15.951 -0.6319 -0.5952 -0.6170
  656TMC3    C4 9708   1.207   1.353  15.694 -0.8050 -0.3327 -0.2035
  656TMC3    C5 9709   1.101   1.437  15.722  0.5150 -0.5042 -0.8113
  656TMC3    C6 9710   1.067   1.475  15.849 -0.7953  0.9797  0.6495
  656TMC3     C 9711   1.301   1.145  15.766  0.1014 -0.4443 -0.0417
  656TMC3     O 9712   1.311   1.070  15.861  0.0552  0.0933 -0.8877
  656TMC3     H 9713   1.277   1.264  16.006  3.1651  1.6991 -0.8273
  656TMC3    H1 9714   1.225   1.328  15.590 -1.2492  0.1062 -0.3861
  656TMC3    H2 9715   0.992   1.548  15.879  0.6422  2.4092  0.8109
  656TMC3    C7 9716   1.036   1.501  15.607  0.2034  0.5056 -0.3270
  656TMC3    C8 9717   1.066   1.394  16.073  0.3909  0.0870  0.1725
  656TMC3    O1 9718   1.067   1.456  15.499 -0.4901 -0.1164  0.5036
  656TMC3    O2 9719   1.050   1.276  16.095 -0.5510 -0.1901  0.2321
  657TMC3    C1 9720   0.426   0.805  15.006 -0.6043 -0.7726  0.6559
  657TMC3    C2 9721   0.558   0.819  15.010 -0.1588  0.0459 -0.4327
  657TMC3    C3 9722   0.609   0.933  15.069 -0.6760 -0.6755  0.2717
  657TMC3    C4 9723   0.331   0.896  15.038  0.1799 -0.0050 -0.1863
  657TMC3    C5 9724   0.391   0.997  15.108 -0.4559 -0.2051 -0.2289
  657TMC3    C6 9725   0.523   1.017  15.121 -0.5165 -0.4625  0.1080
  657TMC3     C 9726   0.367   0.679  14.981 -0.4127 -0.4126  0.7154
  657TMC3     O 9727   0.249   0.661  15.000  0.3350 -1.3867  0.0980
  657TMC3     H 9728   0.626   0.739  14.983 -1.2158 -0.9747 -0.0641
  657TMC3    H1 9729   0.228   0.883  15.008  0.1185  1.7439 -0.7482
  657TMC3    H2 9730   0.556   1.094  15.189 -1.0912 -0.3430  0.2511
  657TMC3    C7 9731   0.307   1.072  15.205 -0.1954 -0.1223  0.7334
  657TMC3    C8 9732   0.741   0.929  15.120 -0.2551  0.1401 -0.3882
  657TMC3    O1 9733   0.346   1.109  15.313  0.4282 -0.1928 -0.2009
  657TMC3    O2 9734   0.759   0.984  15.229 -0.2884  0.5904  0.2867
  658MPD2     C 9735   2.028   1.157  14.659  0.1263  0.7151 -0.3653
  658MPD2    C1 9736   1.903   1.129  14.703  0.1348 -0.3488 -0.3741
  658MPD2    C2 9737   1.800   1.158  14.616 -0.8966  0.0046  0.1441
  658MPD2    C3 9738   1.824   1.223  14.496 -0.2571 -0.6949  0.2587
  658MPD2    C4 9739   1.953   1.228  14.451 -0.3541 -0.0183  0.1789
  658MPD2    C5 9740   2.057   1.209  14.538 -0.3557 -0.8935 -0.1219
  658MPD2     H 9741   1.698   1.126  14.634 -1.0297  0.1767 -0.2957
  658MPD2    H1 9742   1.981   1.270  14.355  1.2823  0.0619  0.6907
  658MPD2    H2 9743   2.117   1.152  14.722  0.5413  0.3455 -0.9875
  658MPD2    H3 9744   2.160   1.219  14.506 -1.2439 -0.5526 -2.8431
  658MPD2     N 9745   1.711   1.268  14.421 -0.2439  0.4549  0.2910
  658MPD2    H5 9746   1.618   1.246  14.454 -0.1750  1.6545  1.3180
  658MPD2    N1 9747   1.879   1.062  14.825  0.1159 -0.0903 -0.3777
  658MPD2    H7 9748   1.781   1.059  14.854 -0.2700 -2.1571 -1.9593
  659TMC3    C1 9749   1.893   0.917  14.985  0.6371 -0.2439  0.0553
  659TMC3    C2 9750   1.794   0.980  15.055 -0.1521  0.3264  0.2916
  659TMC3    C3 9751   1.685   0.911  15.091 -0.7563  0.4341  0.4644
  659TMC3    C4 9752   1.854   0.802  14.921  0.1010  0.1227 -0.4128
  659TMC3    C5 9753   1.734   0.742  14.939  0.9567  0.3396 -0.4158
  659TMC3    C6 9754   1.645   0.798  15.023 -1.0679 -0.9044  0.2359
  659TMC3     C 9755   1.967   1.005  14.904 -0.5365  0.0288  0.3099
  659TMC3     O 9756   2.084   0.973  14.878 -0.1610 -0.3553  0.3292
  659TMC3     H 9757   1.806   1.083  15.088  1.6577 -0.3131  1.6001
  659TMC3    H1 9758   1.927   0.747  14.862 -3.0657 -1.1225 -3.2272
  659TMC3    H2 9759   1.543   0.768  15.042 -1.7348  1.2933  0.0603
  659TMC3    C7 9760   1.664   0.731  14.809  0.0444  0.6378  0.2868
  659TMC3    C8 9761   1.608   0.959  15.200  1.0227  0.0516 -0.6216
  659TMC3    O1 9762   1.544   0.721  14.816 -0.0763  0.2592  0.3355
  659TMC3    O2 9763   1.608   1.079  15.219 -0.0130 -0.6053  0.0659
  660MPD2     C 9764   4.477   4.596  12.736  0.7237 -0.4580  0.9638
  660MPD2    C1 9765   4.344   4.609  12.717 -0.6003 -0.3168 -0.0890
  660MPD2    C2 9766   4.256   4.556  12.809  0.1373  0.4939  0.2016
  660MPD2    C3 9767   4.306   4.499  12.931 -1.2890 -0.5611 -0.0070
  660MPD2    C4 9768   4.438   4.485  12.949  0.0817  0.3768 -0.2462
  660MPD2    C5 9769   4.519   4.527  12.847  0.2419  0.0918 -0.3718
  660MPD2     H 9770   4.148   4.570  12.804  0.3860  2.7904  0.9264
  660MPD2    H1 9771   4.478   4.444  13.041  2.3869  4.1131  0.4242
  660MPD2    H2 9772   4.548   4.643  12.669 -2.8725  1.2722 -1.6099
  660MPD2    H3 9773   4.627   4.530  12.857  0.3793 -3.4589 -0.7924
  660MPD2     N 9774   4.226   4.451  13.035  0.5021  0.5740  0.3350
  660MPD2    H5 9775   4.270   4.399  13.110  2.9929  1.1287 -0.7648
  660MPD2    N1 9776   4.301   4.692  12.607  0.1356  0.2455 -0.2772
  660MPD2    H7 9777   4.377   0.005  12.548  0.1891 -2.4373 -1.6032
  661TMC3    C1 9778   4.157   0.090  12.464 -0.0900 -0.3468  0.3033
  661TMC3    C2 9779   4.225   0.055  12.350 -0.2346  0.4665 -0.3902
  661TMC3    C3 9780   4.178   0.104  12.233  0.5424 -0.1345  0.1649
  661TMC3    C4 9781   4.044   0.165  12.452 -0.0577 -0.2883 -0.1392
  661TMC3    C5 9782   3.999   0.204  12.329  0.1286  0.3891 -0.1917
  661TMC3    C6 9783   4.071   0.184  12.217  0.3772  0.5486  0.0184
  661TMC3     C 9784   4.178   0.025  12.592  0.1964 -0.0116  0.5079
  661TMC3     O 9785   4.090   0.042  12.671 -0.3254  0.2044  0.3281
  661TMC3     H 9786   4.295   4.690  12.349 -0.5172  0.2380 -1.0839
  661TMC3    H1 9787   3.984   0.190  12.540 -0.9575 -1.5498 -0.3949
  661TMC3    H2 9788   4.033   0.193  12.117 -2.1393 -1.0854  0.8501
  661TMC3    C7 9789   3.855   0.236  12.331 -0.3603 -0.3053 -0.3868
  661TMC3    C8 9790   4.211   0.033  12.108 -0.0150  0.7489  0.4359
  661TMC3    O1 9791   3.817   0.344  12.368 -0.0631 -0.5128 -0.1576
  661TMC3    O2 9792   4.255   4.638  12.112  0.1887  0.5897  0.1523
  662MPD2     C 9793   0.054   4.697  17.343 -0.6300  0.0085 -0.0043
  662MPD2    C1 9794   0.053   4.640  17.470 -0.6112  0.4126 -0.1450
  662MPD2    C2 9795   0.051   4.713  17.584 -0.1027  0.1549  0.2212
  662MPD2    C3 9796   0.000   0.125  17.580  0.2733 -0.3806  0.3827
  662MPD2    C4 9797   4.706   0.188  17.453  0.2288  0.6154  0.7380
  662MPD2    C5 9798   0.035   0.117  17.341  0.1946  0.1076  0.4914
  662MPD2     H 9799   0.055   4.660   0.004  0.0203 -2.1782 -1.1125
  662MPD2    H1 9800   4.695   0.295  17.460  1.4511  0.6097  2.7641
  662MPD2    H2 9801   0.074   4.647  17.249 -0.9789  1.3724 -0.8131
  662MPD2    H3 9802   0.044   0.160  17.242  1.8996 -0.7508  0.2684
  662MPD2     N 9803   4.683   0.194   0.024  0.3262  0.4392 -0.2394
  662MPD2    H5 9804   4.621   0.274   0.016  1.0603  1.2768  2.4688
  662MPD2    N1 9805   0.054   4.500  17.492  0.3544 -0.0031 -0.5634
  662MPD2    H7 9806   0.063   4.470  17.589 -2.6510 -1.4783 -0.7263
  663TMC3    C1 9807   4.708   4.271  17.459 -0.5245  0.6851  0.3813
  663TMC3    C2 9808   4.626   4.278  17.572  0.1687  0.2532  0.7791
  663TMC3    C3 9809   4.583   4.166  17.631 -0.0998  0.3887  0.4903
  663TMC3    C4 9810   4.711   4.167  17.377 -0.3086  0.2450  0.3605
  663TMC3    C5 9811   4.631   4.058  17.419 -0.0402  0.3268 -0.6425
  663TMC3    C6 9812   4.569   4.055  17.549 -0.4564 -0.3286  0.5663
  663TMC3     C 9813   0.033   4.399  17.401  0.5628 -0.5464 -0.3064
  663TMC3     O 9814   0.011   4.402  17.277 -0.5129 -0.1667 -0.0343
  663TMC3     H 9815   4.643   4.370  17.626 -1.3053  0.2340  1.2875
  663TMC3    H1 9816   0.038   4.167  17.279  0.6025 -2.3345  0.7696
  663TMC3    H2 9817   4.499   3.980  17.585 -0.4541  0.1148  1.5093
  663TMC3    C7 9818   4.609   3.952  17.326 -0.3248 -0.6317 -0.2550
  663TMC3    C8 9819   4.463   4.178   0.028  0.3222 -0.3783 -0.1857
  663TMC3    O1 9820   4.696   3.940  17.241 -0.4056  0.1094  0.3006
  663TMC3    O2 9821   4.430   4.079   0.093  0.0990 -0.2646  0.5275
  664MPD2     C 9822   2.726   2.487  17.424  0.0622 -0.3537  0.3299
  664MPD2    C1 9823   2.761   2.580  17.522  0.2171  0.0216 -0.3603
  664MPD2    C2 9824   2.709   2.559  17.650 -0.4813 -0.2884  0.0100
  664MPD2    C3 9825   2.620   2.459   0.005 -0.1351 -0.3244 -0.4336
  664MPD2    C4 9826   2.572   2.376  17.579 -0.3439  0.7061  0.8087
  664MPD2    C5 9827   2.623   2.392  17.454 -0.0440 -0.1083  0.2630
  664MPD2     H 9828   2.743   2.625   0.056  2.0168 -1.0653 -0.4201
  664MPD2    H1 9829   2.504   2.293  17.592 -2.3636  2.4185  1.3137
  664MPD2    H2 9830   2.765   2.487  17.323  1.1970  2.0908  0.7825
  664MPD2    H3 9831   2.595   2.318  17.380 -0.9516  0.8025 -0.2914
  664MPD2     N 9832   2.572   2.455   0.137  0.2606  0.5019 -0.2561
  664MPD2    H5 9833   2.609   2.523   0.203 -0.3297  2.1148 -1.5810
  664MPD2    N1 9834   2.848   2.684  17.491 -0.5228  0.1710  0.2323
  664MPD2    H7 9835   2.901   2.674  17.405 -2.6579 -1.3555 -0.9218
  665TMC3    C1 9836   2.454   2.408   0.331  0.0537  0.0426 -0.7085
  665TMC3    C2 9837   2.325   2.441   0.366 -0.3102 -0.1076  0.1870
  665TMC3    C3 9838   2.311   2.538   0.458  0.0606 -0.3396 -0.1396
  665TMC3    C4 9839   2.558   2.478   0.388 -0.4867 -0.0903  0.3102
  665TMC3    C5 9840   2.539   2.568   0.483 -0.2569 -0.7764 -0.0017
  665TMC3    C6 9841   2.413   2.599   0.518 -0.5848  0.5054  0.5124
  665TMC3     C 9842   2.472   2.374   0.191 -0.7329  0.4912 -0.0997
  665TMC3     O 9843   2.385   2.313   0.132 -0.0554  1.0576 -0.1940
  665TMC3     H 9844   2.247   2.371   0.338  1.2756 -2.1037  0.7930
  665TMC3    H1 9845   2.661   2.458   0.360  0.3254  4.0352  0.3726
  665TMC3    H2 9846   2.383   2.666   0.598 -0.5307 -1.4889  2.2437
  665TMC3    C7 9847   2.644   2.658   0.516  0.3510 -0.1968 -0.0557
  665TMC3    C8 9848   2.170   2.565   0.508 -0.2122  0.3121  0.2374
  665TMC3    O1 9849   2.742   2.667   0.443  0.0498 -0.3889  0.1426
  665TMC3    O2 9850   2.156   2.617   0.616 -0.5616 -0.0350 -0.0359
  666TMC3    C1 9851   0.850   2.246  10.144 -0.1405 -0.1596 -0.2611
  666TMC3    C2 9852   0.814   2.185  10.025 -0.6500  0.4058  0.3325
  666TMC3    C3 9853   0.810   2.271   9.914  0.2127 -0.2870  0.4060
  666TMC3    C4 9854   0.858   2.378  10.158  0.3523  0.4702  0.6556
  666TMC3    C5 9855   0.835   2.457  10.047  1.2202  0.7358 -0.4090
  666TMC3    C6 9856   0.816   2.405   9.923 -0.0265 -0.0822 -0.3451
  666TMC3     C 9857   0.931   2.180  10.247 -0.1344  0.2137 -0.1582
  666TMC3     O 9858   1.004   2.259  10.301  0.0375 -0.1248 -0.2488
  666TMC3     H 9859   0.795   2.079  10.014 -2.0305  0.5607  1.1897
  666TMC3    H1 9860   0.867   2.423  10.256  1.1385  0.6763  0.4948
  666TMC3    H2 9861   0.802   2.465   9.834 -0.9304 -2.8526 -2.0411
  666TMC3    C7 9862   0.900   2.582  10.059 -0.4766  0.0830  0.6432
  666TMC3    C8 9863   0.806   2.210   9.782  0.5740  0.1940  0.7654
  666TMC3    O1 9864   0.898   2.631  10.169  0.1965 -0.2255  0.0806
  666TMC3    O2 9865   0.756   2.268   9.685 -0.0436 -0.5897  0.2010
  667MPD2     C 9866   3.474   2.488  14.434  0.1135  0.3233  0.2287
  667MPD2    C1 9867   3.457   2.524  14.559  1.2555 -0.1689 -0.8161
  667MPD2    C2 9868   3.352   2.463  14.629  0.4817 -0.2066 -0.2401
  667MPD2    C3 9869   3.279   2.354  14.579  0.1737 -0.0099  0.7162
  667MPD2    C4 9870   3.312   2.317  14.452  0.6447 -0.2085  0.4932
  667MPD2    C5 9871   3.405   2.388  14.374 -0.3026 -0.0550  0.1522
  667MPD2     H 9872   3.336   2.498  14.731 -0.1530 -1.1321 -0.0151
  667MPD2    H1 9873   3.262   2.231  14.408  0.4756 -0.6750  1.6041
  667MPD2    H2 9874   3.566   2.510  14.382  0.8770  0.9702  1.8473
  667MPD2    H3 9875   3.447   2.351  14.281  1.2460  0.1854  0.7748
  667MPD2     N 9876   3.168   2.288  14.636 -0.1500  0.2247 -0.0577
  667MPD2    H5 9877   3.122   2.213  14.587 -0.6057 -0.1517  0.9462
  667MPD2    N1 9878   3.554   2.607  14.622  0.2882  0.1735 -0.5017
  667MPD2    H7 9879   3.539   2.622  14.721 -0.4783  2.2180 -0.9378
  668TMC3    C1 9880   3.727   2.758  14.659  0.1328  0.8204 -0.1972
  668TMC3    C2 9881   3.802   2.857  14.599  0.0347  0.7742 -0.4243
  668TMC3    C3 9882   3.878   2.936  14.688  0.1889  0.1197  0.2954
  668TMC3    C4 9883   3.740   2.727  14.790  0.1217  0.1939  0.1799
  668TMC3    C5 9884   3.799   2.819  14.872  0.4962  0.8259 -0.2197
  668TMC3    C6 9885   3.869   2.924  14.822  0.4553  0.0318 -0.4469
  668TMC3     C 9886   3.662   2.668  14.570 -0.1984  1.0724  0.0106
  668TMC3     O 9887   3.718   2.664  14.461 -0.2824 -0.3654  0.5615
  668TMC3     H 9888   3.798   2.870  14.492  4.1189 -0.2576 -0.7180
  668TMC3    H1 9889   3.687   2.641  14.830  0.0978 -0.1844 -0.6710
  668TMC3    H2 9890   3.922   2.996  14.884  3.7377 -1.3125 -1.6712
  668TMC3    C7 9891   3.800   2.802  15.018 -0.6723 -0.0323 -0.3905
  668TMC3    C8 9892   3.943   3.060  14.641  0.1116 -0.5995 -0.2343
  668TMC3    O1 9893   3.884   2.856  15.091  0.0113 -0.1707 -0.0087
  668TMC3    O2 9894   3.960   3.149  14.725 -0.2034 -0.8572 -0.5393
  669TMC3    C1 9895   1.616   2.499  14.449 -0.7022  0.6347 -0.9344
  669TMC3    C2 9896   1.503   2.489  14.374  0.3822 -0.0825  0.7749
  669TMC3    C3 9897   1.459   2.588  14.297 -0.3980  0.5925 -0.4527
  669TMC3    C4 9898   1.688   2.615  14.453 -0.0563 -0.2983  0.7700
  669TMC3    C5 9899   1.653   2.707  14.355  0.6196  0.7670 -0.0862
  669TMC3    C6 9900   1.534   2.704  14.289 -0.7480  0.6927 -0.2646
  669TMC3     C 9901   1.604   2.419  14.567  0.0116 -0.1793  0.1666
  669TMC3     O 9902   1.512   2.336  14.572 -0.6410  0.5099 -0.0153
  669TMC3     H 9903   1.449   2.395  14.382  1.7819 -0.9557  0.0396
  669TMC3    H1 9904   1.777   2.627  14.513  0.4280 -1.3315  0.2483
  669TMC3    H2 9905   1.503   2.788  14.227 -0.1285  0.9185 -0.2705
  669TMC3    C7 9906   1.739   2.822  14.336  0.1306 -1.3254 -0.1646
  669TMC3    C8 9907   1.335   2.582  14.232  0.0482 -0.0364  0.6167
  669TMC3    O1 9908   1.846   2.815  14.394 -0.0431 -0.1727  0.9597
  669TMC3    O2 9909   1.298   2.466  14.235  0.0726 -0.2563 -0.4660
  670MPD2     C 9910   4.670   0.297  13.884  0.2969 -0.6149 -0.1619
  670MPD2    C1 9911   4.659   0.429  13.928 -0.7895  0.0994  0.4318
  670MPD2    C2 9912   4.561   0.456  14.027 -0.0556 -0.8925  0.4164
  670MPD2    C3 9913   4.480   0.354  14.065 -0.4293 -0.3338  0.4704
  670MPD2    C4 9914   4.480   0.228  14.011  0.6556 -0.2369 -0.9180
  670MPD2    C5 9915   4.578   0.205  13.926  0.5062  0.8021  0.2713
  670MPD2     H 9916   4.552   0.554  14.073 -0.9908 -1.4521  1.4426
  670MPD2    H1 9917   4.420   0.141  14.038  0.1815  1.2982  2.9343
  670MPD2    H2 9918   0.036   0.267  13.823 -0.4327 -1.7665 -0.5996
  670MPD2    H3 9919   4.602   0.103  13.898  3.1523  1.1208  1.3886
  670MPD2     N 9920   4.382   0.388  14.164  0.0644  0.1700 -0.0310
  670MPD2    H5 9921   4.404   0.478  14.207 -0.7270 -0.2425  1.2338
  670MPD2    N1 9922   0.033   0.534  13.894 -0.2286 -0.3392  0.1046
  670MPD2    H7 9923   0.034   0.619  13.949 -1.5967  0.5649 -1.2794
  671TMC3    C1 9924   4.195   0.361  14.302  0.3016  0.8220 -0.1666
  671TMC3    C2 9925   4.261   0.371  14.422 -0.0571 -0.4952  0.0040
  671TMC3    C3 9926   4.199   0.344  14.539  0.2766 -0.1111 -0.6152
  671TMC3    C4 9927   4.065   0.333  14.294  0.3153 -0.1728 -0.2373
  671TMC3    C5 9928   4.004   0.306  14.412 -0.4729  0.7193  0.1860
  671TMC3    C6 9929   4.066   0.317  14.537  0.1907  0.2347  0.8521
  671TMC3     C 9930   4.270   0.314  14.192 -0.5003 -0.3308  0.3949
  671TMC3     O 9931   4.219   0.223  14.124 -0.3903 -0.2722  0.0298
  671TMC3     H 9932   4.369   0.376  14.428 -0.3098  1.4990  3.1175
  671TMC3    H1 9933   4.018   0.329  14.196  0.5958  0.5697 -0.3992
  671TMC3    H2 9934   4.011   0.286  14.625  0.6971 -0.6439  0.8661
  671TMC3    C7 9935   3.880   0.239  14.393  0.5585 -0.0870  0.3815
  671TMC3    C8 9936   4.279   0.258  14.634 -0.4496 -0.0410 -0.2325
  671TMC3    O1 9937   3.821   0.280  14.294 -0.5235 -0.2143 -0.3114
  671TMC3    O2 9938   4.278   0.288  14.752 -0.0597 -0.0753 -0.2998
  672MPD2     C 9939   0.939   0.704   1.378  0.4324 -0.3662  0.5733
  672MPD2    C1 9940   0.940   0.749   1.250  0.2413 -0.2361  0.3689
  672MPD2    C2 9941   0.996   0.881   1.222 -0.5455  0.1960  0.4638
  672MPD2    C3 9942   1.063   0.955   1.318  0.6462  1.2824  0.3576
  672MPD2    C4 9943   1.067   0.898   1.440 -0.5415  0.1130 -0.1023
  672MPD2    C5 9944   1.007   0.779   1.470  0.5348 -0.1260 -0.4470
  672MPD2     H 9945   0.991   0.923   1.122 -3.0839 -2.2092 -0.4120
  672MPD2    H1 9946   1.113   0.953   1.522  0.1203  0.3551 -0.6300
  672MPD2    H2 9947   0.879   0.620   1.412 -0.0492 -0.7339 -1.1975
  672MPD2    H3 9948   1.011   0.739   1.571 -1.9167 -1.6001 -0.9414
  672MPD2     N 9949   1.125   1.083   1.295 -0.4981 -0.0682  0.1736
  672MPD2    H5 9950   1.186   1.126   1.364  0.6577  1.2475 -1.6706
  672MPD2    N1 9951   0.874   0.673   1.141  0.3638  0.1775  0.3311
  672MPD2    H7 9952   0.861   0.726   1.055 -0.3018 -2.1539 -1.0073
  673TMC3    C1 9953   0.811   0.495   1.009 -0.0445  0.2298  0.7160
  673TMC3    C2 9954   0.889   0.376   0.981  0.4559 -0.2496 -0.6778
  673TMC3    C3 9955   0.913   0.359   0.844  0.1483  0.6831  0.9222
  673TMC3    C4 9956   0.770   0.594   0.920  0.1828 -0.3501 -0.1971
  673TMC3    C5 9957   0.807   0.572   0.784  0.1847 -0.2559  0.4434
  673TMC3    C6 9958   0.870   0.456   0.749  0.1532 -0.3035  0.1473
  673TMC3     C 9959   0.824   0.547   1.142  0.3466 -0.9002  0.5628
  673TMC3     O 9960   0.823   0.459   1.232  0.9109  0.1480  0.6347
  673TMC3     H 9961   0.939   0.317   1.058 -0.3260  0.0871  0.0913
  673TMC3    H1 9962   0.721   0.685   0.950  1.1303  0.4494 -1.0540
  673TMC3    H2 9963   0.896   0.436   0.646  3.1998  0.9420  0.6514
  673TMC3    C7 9964   0.773   0.665   0.680 -0.2138 -0.1044  0.2797
  673TMC3    C8 9965   1.036   0.288   0.803  0.1122 -0.0607  0.4100
  673TMC3    O1 9966   0.789   0.619   0.566  0.1947  0.3212 -0.1159
  673TMC3    O2 9967   1.030   0.240   0.691  0.6196  0.0396 -0.1787
  674MPD2     C 9968   0.694   0.134   0.347  0.3946 -0.1017  0.1815
  674MPD2    C1 9969   0.555   0.096   0.338 -0.2584 -0.0331  0.4247
  674MPD2    C2 9970   0.450   0.190   0.359  0.3054 -0.3942  0.7496
  674MPD2    C3 9971   0.487   0.317   0.402 -0.5623 -0.2990 -0.3835
  674MPD2    C4 9972   0.621   0.350   0.418  0.2884  0.0365  0.4965
  674MPD2    C5 9973   0.722   0.262   0.388 -0.8408  0.1979 -0.3634
  674MPD2     H 9974   0.351   0.165   0.322  0.1350 -0.5896  1.3275
  674MPD2    H1 9975   0.646   0.445   0.465  1.1996  0.6973 -1.3336
  674MPD2    H2 9976   0.779   0.074   0.318  0.6535  0.6752 -0.6531
  674MPD2    H3 9977   0.824   0.295   0.405 -0.9979  0.2879  0.4219
  674MPD2     N 9978   0.395   0.422   0.433  0.6730 -0.2951 -0.7913
  674MPD2    H5 9979   0.428   0.505   0.481  1.5392  0.7363 -3.1664
  674MPD2    N1 9980   0.524   4.684   0.287 -0.6444 -0.1812  0.5148
  674MPD2    H7 9981   0.425   4.664   0.282 -0.7280  0.9569 -2.4596
  675TMC3    C1 9982   0.538   4.467   0.230 -0.1398 -0.2067 -0.1473
  675TMC3    C2 9983   0.408   4.471   0.190 -0.2763 -0.2078 -0.4099
  675TMC3    C3 9984   0.323   4.377   0.226 -0.1151  0.2450 -0.2786
  675TMC3    C4 9985   0.590   4.362   0.302  0.2015  0.1823 -0.1489
  675TMC3    C5 9986   0.495   4.278   0.358 -0.2718  0.5731  0.2717
  675TMC3    C6 9987   0.364   4.279   0.316 -0.3442 -0.0708  0.1773
  675TMC3     C 9988   0.614   4.579   0.267  0.3135 -0.2431 -0.5647
  675TMC3     O 9989   0.736   4.562   0.268  0.2182  0.0854  0.0280
  675TMC3     H 9990   0.389   4.551   0.120  0.0992  0.4986  0.2871
  675TMC3    H1 9991   0.692   4.365   0.339 -0.3668 -0.4143  1.4834
  675TMC3    H2 9992   0.302   4.193   0.334 -0.0482 -0.0521  1.2396
  675TMC3    C7 9993   0.553   4.163   0.426  0.0420  0.4921  0.5389
  675TMC3    C8 9994   0.186   4.396   0.200 -0.9047  0.4561 -0.8985
  675TMC3    O1 9995   0.673   4.143   0.409  0.1693  0.6013  0.1119
  675TMC3    O2 9996   0.157   4.478   0.114 -0.0016  0.4002 -0.2590
  676MPD2     C 9997   2.100   3.531  10.932 -0.1458  0.2784  0.1776
  676MPD2    C1 9998   2.043   3.481  11.051  0.4159  0.8482 -0.5749
  676MPD2    C2 9999   2.035   3.346  11.069 -0.3186  0.2802 -0.2450
  676MPD2    C310000   2.114   3.260  10.989  0.3081 -0.3622  0.2094
  676MPD2    C410001   2.183   3.321  10.877 -0.0707  0.2962 -0.3008
  676MPD2    C510002   2.162   3.450  10.848 -0.5154 -0.1920  0.1681
  676MPD2     H10003   1.982   3.312  11.157 -2.0553 -1.2948 -1.8898
  676MPD2    H110004   2.252   3.271  10.810 -0.5614 -1.4119  0.4814
  676MPD2    H210005   2.121   3.636  10.919 -2.0954  0.8160  1.5143
  676MPD2    H310006   2.213   3.487  10.760  0.1810  0.4679  0.8510
  676MPD2     N10007   2.131   3.123  11.009 -0.3020  0.1916  0.1204
  676MPD2    H510008   2.179   3.079  10.931  2.5676  2.5863  0.5643
  676MPD2    N110009   1.977   3.565  11.147  0.3738 -0.0190 -0.2010
  676MPD2    H710010   1.934   3.509  11.220  1.1331 -1.4785 -0.8738
  677TMC3    C110011   1.873   3.742  11.253  0.0376 -1.0469  0.6446
  677TMC3    C210012   1.820   3.655  11.349  0.4529 -0.2144 -0.2748
  677TMC3    C310013   1.764   3.706  11.460 -0.3079  0.0977 -0.3620
  677TMC3    C410014   1.857   3.878  11.263  0.0140  1.0149 -0.5227
  677TMC3    C510015   1.780   3.923  11.363  0.4361  0.2626 -0.3010
  677TMC3    C610016   1.739   3.844  11.463  0.1925 -0.7074  0.1551
  677TMC3     C10017   1.958   3.700  11.145  0.3865 -0.9011 -0.5573
  677TMC3     O10018   2.018   3.787  11.080 -0.0314 -0.1848  0.1479
  677TMC3     H10019   1.849   3.550  11.352  0.7769 -0.1869 -2.1589
  677TMC3    H110020   1.890   3.943  11.182  1.4369  0.4133 -0.4192
  677TMC3    H210021   1.694   3.894  11.548  0.6539 -0.5183  0.2930
  677TMC3    C710022   1.770   4.068  11.378 -0.8632 -0.1698  0.5754
  677TMC3    C810023   1.842   3.669  11.576 -0.1231 -0.2287  0.9276
  677TMC3    O110024   1.669   4.095  11.439  0.0056  1.0038 -0.1586
  677TMC3    O210025   1.947   3.605  11.563 -0.2781  0.3051  0.4721
  678MPD2     C10026   3.748   3.187   1.597  0.0845  0.6272  0.0013
  678MPD2    C110027   3.755   3.233   1.465  0.2533 -0.3862 -0.2407
  678MPD2    C210028   3.641   3.271   1.401  0.1809  0.5417 -0.3703
  678MPD2    C310029   3.521   3.270   1.469 -0.0227 -0.1173 -1.1603
  678MPD2    C410030   3.518   3.226   1.606 -0.3049  0.9447 -0.2359
  678MPD2    C510031   3.631   3.184   1.669 -0.5315 -0.5171 -0.4918
  678MPD2     H10032   3.643   3.304   1.298  0.4017 -3.1152 -1.5631
  678MPD2    H110033   3.430   3.232   1.670 -0.1460 -1.3471  0.1634
  678MPD2    H210034   3.839   3.159   1.648  0.4636  1.5482 -0.1664
  678MPD2    H310035   3.630   3.155   1.773 -0.9610  2.0315  0.2027
  678MPD2     N10036   3.407   3.309   1.403  0.1525  0.3026  0.1860
  678MPD2    H510037   3.401   3.291   1.303 -0.6092  0.0556  0.2779
  678MPD2    N110038   3.868   3.240   1.387  0.6623  0.5646 -0.2872
  678MPD2    H710039   3.854   3.253   1.288  2.2243 -0.0910 -0.6041
  679TMC3    C110040   4.319   3.261   1.263 -0.1526 -0.6175 -0.2136
  679TMC3    C210041   4.223   3.259   1.363 -0.2717 -0.4011 -0.4742
  679TMC3    C310042   4.096   3.233   1.321 -0.5265  0.2878  0.2774
  679TMC3    C410043   4.291   3.247   1.133 -0.7556 -0.7685  0.4693
  679TMC3    C510044   4.158   3.236   1.099  0.0984 -0.0514 -0.0275
  679TMC3    C610045   4.060   3.228   1.191 -0.5522 -0.5901  0.7798
  679TMC3     C10046   4.450   3.323   1.284  0.2487 -0.0511  0.6028
  679TMC3     O10047   4.541   3.284   1.206 -0.0189 -0.4573 -0.0247
  679TMC3     H10048   4.253   3.257   1.467 -0.9837 -1.1764 -0.2794
  679TMC3    H110049   4.365   3.287   1.064  1.2641 -0.9886  2.5365
  679TMC3    H210050   3.957   3.196   1.175 -0.9776  1.1816  0.0213
  679TMC3    C710051   4.119   3.297   0.970 -0.3797 -0.1087 -0.5118
  679TMC3    C810052   3.996   3.230   1.432  0.0705  0.1420 -0.0389
  679TMC3    O110053   4.013   3.351   0.979  0.2406  0.6822  0.1417
  679TMC3    O210054   4.029   3.246   1.550 -0.1790  0.2204 -0.0935
  680MPD2     C10055   0.482   2.004  13.915 -0.8780 -0.0088  0.2182
  680MPD2    C110056   0.356   1.981  13.862  0.2990  1.1505  0.2843
  680MPD2    C210057   0.257   2.077  13.878 -0.6082  0.3526  0.3315
  680MPD2    C310058   0.278   2.195  13.950 -0.1010  0.0570 -0.0882
  680MPD2    C410059   0.405   2.219  13.996 -0.6523  0.0026 -0.5048
  680MPD2    C510060   0.506   2.122  13.983  0.1712  0.0448 -0.8640
  680MPD2     H10061   0.153   2.064  13.853 -0.5204 -0.2665  0.2788
  680MPD2    H110062   0.426   2.311  14.049 -3.5550 -0.7535  1.9677
  680MPD2    H210063   0.554   1.926  13.896 -0.0244  0.5465  1.1864
  680MPD2    H310064   0.607   2.142  14.019  0.1592  0.6846 -1.1806
  680MPD2     N10065   0.184   2.291  13.987  0.1281  0.2989 -0.6343
  680MPD2    H510066   0.216   2.362  14.051 -1.2165 -0.9054  1.3667
  680MPD2    N110067   0.338   1.859  13.799 -0.0002 -0.0838 -0.2305
  680MPD2    H710068   0.418   1.799  13.778  0.7369  0.9742 -0.4594
  681TMC3    C110069   0.234   1.680  13.707  0.1177 -0.0301  0.0309
  681TMC3    C210070   0.131   1.603  13.738  0.5089 -1.2916  0.4741
  681TMC3    C310071   0.098   1.510  13.640  0.4689 -0.6039 -0.0772
  681TMC3    C410072   0.323   1.659  13.602 -0.2810 -0.0159  0.7044
  681TMC3    C510073   0.309   1.542  13.529  0.5252 -1.1340  0.3790
  681TMC3    C610074   0.181   1.478  13.533 -0.3493 -0.6955 -0.3501
  681TMC3     C10075   0.216   1.815  13.756 -1.1816  0.0777  0.6787
  681TMC3     O10076   0.104   1.848  13.792 -0.0280 -0.3899 -0.3062
  681TMC3     H10077   0.075   1.625  13.829  1.2404 -2.9818  1.3472
  681TMC3    H110078   0.410   1.717  13.573  0.1250 -0.9326  0.1002
  681TMC3    H210079   0.166   1.388  13.475 -1.2289  0.8101 -2.4621
  681TMC3    C710080   0.409   1.510  13.422  0.0318  0.5076 -0.4697
  681TMC3    C810081   4.675   1.512  13.600  0.3068  0.4231 -0.6446
  681TMC3    O110082   0.459   1.400  13.439 -0.0891  0.3955 -0.5460
  681TMC3    O210083   4.659   1.471  13.485 -0.1106 -0.3526 -0.4779
  682MPD2     C10084   1.604   3.628  10.479  0.7783 -0.0008  0.0735
  682MPD2    C110085   1.525   3.530  10.537 -0.4222 -0.5537  0.0322
  682MPD2    C210086   1.416   3.568  10.617  0.4556 -0.3175  0.5107
  682MPD2    C310087   1.375   3.704  10.625  0.6061  0.7198 -0.4608
  682MPD2    C410088   1.454   3.804  10.558 -0.0198  0.4891  0.2114
  682MPD2    C510089   1.561   3.756  10.486  0.4051 -0.3826  0.8352
  682MPD2     H10090   1.354   3.487  10.654  0.6631 -0.1305  1.2678
  682MPD2    H110091   1.430   3.909  10.555  0.0434  0.5111  0.4850
  682MPD2    H210092   1.697   3.598  10.430 -0.0158 -0.3109 -1.2407
  682MPD2    H310093   1.617   3.826  10.426  1.4837 -1.0297  1.0762
  682MPD2     N10094   1.247   3.741  10.675  0.4313 -0.1528 -0.4400
  682MPD2    H510095   1.223   3.840  10.671  0.4298 -0.1720 -0.9428
  682MPD2    N110096   1.539   3.390  10.529 -0.3721  0.3322  0.3853
  682MPD2    H710097   1.474   3.335  10.585  0.8362 -0.7044  0.7484
  683TMC3    C110098   0.989   3.845  10.984 -0.1923  0.2241  0.4926
  683TMC3    C210099   0.885   3.765  11.022 -0.6737  1.0408  0.1565
  683TMC3    C310100   0.855   3.657  10.939 -0.5571 -0.3134 -0.2237
  683TMC3    C410101   1.066   3.820  10.879  0.5718 -0.5697 -0.3465
  683TMC3    C510102   1.040   3.713  10.792  0.1210  0.1459  0.6542
  683TMC3    C610103   0.940   3.625  10.835 -0.0753  0.7445 -0.7102
  683TMC3     C10104   1.051   3.925  11.086  0.3268 -0.5356  0.4672
  683TMC3     O10105   1.158   3.983  11.064  0.0397 -0.1213 -0.1964
  683TMC3     H10106   0.814   3.782  11.101  0.1843 -0.3302  1.2176
  683TMC3    H110107   1.156   3.877  10.857 -1.0297  1.5886 -1.2947
  683TMC3    H210108   0.922   3.541  10.770 -1.4839 -0.3630  1.1381
  683TMC3    C710109   1.145   3.655  10.708 -0.7758 -0.0563 -0.2048
  683TMC3    C810110   0.787   3.542  10.997 -0.5631 -0.1578 -0.2042
  683TMC3    O110111   1.139   3.531  10.684  0.6548  0.0877 -0.4210
  683TMC3    O210112   0.669   3.559  11.024  0.1496 -0.0394 -0.3429
  684MPD2     C10113   4.323   3.618  16.585 -0.3471 -0.0937  0.6250
  684MPD2    C110114   4.373   3.647  16.458 -0.2806  0.4696  0.6496
  684MPD2    C210115   4.449   3.762  16.447 -0.3085 -0.3420 -0.5407
  684MPD2    C310116   4.478   3.837  16.556  0.8937 -0.4388  0.2403
  684MPD2    C410117   4.432   3.804  16.681  0.7465 -0.0613 -0.1968
  684MPD2    C510118   4.358   3.691  16.690  0.0334  0.1380  0.4601
  684MPD2     H10119   4.498   3.765  16.351 -0.9694  1.2001 -0.8346
  684MPD2    H110120   4.458   3.855  16.773 -1.3222  0.6509 -0.0074
  684MPD2    H210121   4.262   3.531  16.607  1.2277 -1.5007 -0.5491
  684MPD2    H310122   4.316   3.672  16.789  0.6981 -1.8472  0.3518
  684MPD2     N10123   4.568   3.947  16.554 -0.5891  0.2324  0.8476
  684MPD2    H510124   4.601   3.981  16.644  1.4670 -0.6292  0.3980
  684MPD2    N110125   4.385   3.551  16.350  0.4050 -0.4331 -0.5584
  684MPD2    H710126   4.434   3.583  16.267  0.4523  0.8654 -0.0240
  685TMC3    C110127   4.432   3.344  16.256 -0.4822 -0.0061  0.7100
  685TMC3    C210128   4.389   3.388  16.134  0.1907 -0.1844 -0.3042
  685TMC3    C310129   4.462   3.355  16.025 -0.6414 -0.6237 -0.5531
  685TMC3    C410130   4.556   3.289  16.275  0.3933 -0.5314  0.2248
  685TMC3    C510131   4.637   3.280  16.168  0.4718  0.1650 -0.5673
  685TMC3    C610132   4.588   3.302  16.042 -0.0134  0.0600 -0.1128
  685TMC3     C10133   4.374   3.415  16.367 -0.2195 -0.4280 -1.1126
  685TMC3     O10134   4.343   3.345  16.464 -0.4837 -0.3547 -0.4086
  685TMC3     H10135   4.298   3.445  16.117  0.8243  0.5653 -1.1509
  685TMC3    H110136   4.582   3.278  16.379 -0.4057 -1.2122  0.3523
  685TMC3    H210137   4.646   3.272  15.955  0.3597  0.9833 -0.1911
  685TMC3    C710138   0.059   3.268  16.199  0.1154 -0.8966  0.1789
  685TMC3    C810139   4.386   3.307  15.919 -0.5401  0.3723  0.3044
  685TMC3    O110140   0.076   3.218  16.311  0.3132 -0.8082  0.2871
  685TMC3    O210141   4.441   3.303  15.810 -0.1027  0.3695  0.2861
  686MPD2     C10142   0.991   2.716  15.191  0.2791  0.2008  0.7895
  686MPD2    C110143   1.005   2.657  15.310 -0.2533  0.0169 -0.1337
  686MPD2    C210144   1.083   2.541  15.318  0.4802  0.5939  1.0018
  686MPD2    C310145   1.142   2.485  15.199  0.4661  0.0279  0.3367
  686MPD2    C410146   1.127   2.558  15.079  0.3740 -0.2224 -0.3002
  686MPD2    C510147   1.055   2.674  15.077 -0.0361  0.1607  0.2830
  686MPD2     H10148   1.110   2.504  15.416  1.0826  0.5361  0.8193
  686MPD2    H110149   1.172   2.531  14.984 -0.7007  1.0607 -1.1750
  686MPD2    H210150   0.925   2.802  15.186  0.0661 -0.0234 -0.2360
  686MPD2    H310151   1.036   2.727  14.984  0.9456 -1.9960 -1.1533
  686MPD2     N10152   1.212   2.355  15.190  0.0294  0.4553  0.5891
  686MPD2    H510153   1.245   2.332  15.097  0.5750  0.6818  0.7258
  686MPD2    N110154   0.933   2.707  15.420  0.0196 -0.5502 -0.7754
  686MPD2    H710155   0.871   2.787  15.409 -0.2195 -0.3315  2.0219
  687TMC3    C110156   1.182   2.281  15.420  0.9627  0.1881 -0.2224
  687TMC3    C210157   1.047   2.271  15.449  0.1507 -0.3551 -0.1662
  687TMC3    C310158   1.010   2.258  15.585 -0.0334  0.3590  0.4649
  687TMC3    C410159   1.271   2.261  15.518  0.1813  0.2626 -0.0363
  687TMC3    C510160   1.233   2.235  15.649  0.5504  0.2157 -0.0172
  687TMC3    C610161   1.101   2.229  15.691 -0.6225  0.5054  0.3620
  687TMC3     C10162   1.237   2.264  15.291  0.0862 -0.0705  0.7038
  687TMC3     O10163   1.300   2.161  15.277  0.3301 -0.1056 -0.2737
  687TMC3     H10164   0.980   2.289  15.366 -0.7337 -0.0006  0.6263
  687TMC3    H110165   1.374   2.254  15.483  0.7947 -0.0852  1.8375
  687TMC3    H210166   1.062   2.221  15.792  1.4273 -0.9304  1.0290
  687TMC3    C710167   1.330   2.273  15.754  0.3017  0.2971  0.0536
  687TMC3    C810168   0.875   2.286  15.627 -0.6492 -0.8460 -1.2199
  687TMC3    O110169   1.286   2.254  15.867 -0.4667 -0.6487  0.1866
  687TMC3    O210170   0.837   2.266  15.742 -0.0779  0.3681 -0.2595
  688MPD2     C10171   0.531   1.826  17.289  0.4984  0.0927  0.1969
  688MPD2    C110172   0.602   1.723  17.353 -0.1194 -0.5740 -0.2455
  688MPD2    C210173   0.685   1.643  17.278 -0.9510  0.0236 -0.7987
  688MPD2    C310174   0.712   1.671  17.144 -0.2094  0.2620 -0.6377
  688MPD2    C410175   0.652   1.780  17.088 -0.5279  0.3105  0.3575
  688MPD2    C510176   0.552   1.851  17.157 -0.1267  0.2576  0.2337
  688MPD2     H10177   0.739   1.558  17.318  0.1568  1.0534 -0.1157
  688MPD2    H110178   0.671   1.807  16.984  0.3632 -1.7452 -0.0063
  688MPD2    H210179   0.451   1.887  17.330  1.0900  1.6602 -1.0182
  688MPD2    H310180   0.495   1.931  17.113 -2.1433 -0.9463  0.6575
  688MPD2     N10181   0.816   1.611  17.076  0.7097 -0.2170 -0.2997
  688MPD2    H510182   0.828   1.639  16.979  1.6055  2.7395  0.6975
  688MPD2    N110183   0.591   1.695  17.488  0.1963 -0.5016  0.0316
  688MPD2    H710184   0.651   1.619  17.519 -0.2993 -1.2832 -0.9556
  689TMC3    C110185   0.491   1.717   0.030 -0.9064 -0.1964 -0.5212
  689TMC3    C210186   0.470   1.812   0.129 -0.1684  0.9174 -0.5446
  689TMC3    C310187   0.470   1.764   0.254 -0.0871  0.4846 -1.0108
  689TMC3    C410188   0.516   1.587   0.050  0.4905 -0.4632  0.3548
  689TMC3    C510189   0.502   1.550   0.185  0.7785  0.4725  0.1586
  689TMC3    C610190   0.495   1.639   0.289 -0.5960  0.8074 -0.4534
  689TMC3     C10191   0.510   1.773  17.573  0.0545  0.3645 -0.3219
  689TMC3     O10192   0.447   1.877  17.553  0.1364  0.1378  0.9842
  689TMC3     H10193   0.462   1.919   0.111  1.4471  1.1471  0.1565
  689TMC3    H110194   0.534   1.523  17.638 -0.3412 -0.5927  0.2681
  689TMC3    H210195   0.499   1.610   0.393  1.0054  0.9383 -0.4873
  689TMC3    C710196   0.497   1.406   0.218  0.3872 -0.5386  0.1204
  689TMC3    C810197   0.459   1.862   0.371  0.4630 -0.0898  0.5316
  689TMC3    O110198   0.541   1.372   0.326 -0.5742 -0.1697 -0.2774
  689TMC3    O210199   0.480   1.817   0.484 -0.6294  0.1038  0.5331
  690MPD2     C10200   2.692   3.516  15.894  0.2503 -0.1830 -0.3565
  690MPD2    C110201   2.619   3.473  15.784 -0.2102 -0.4016  0.2474
  690MPD2    C210202   2.673   3.490  15.664 -0.1511  0.2733 -0.5874
  690MPD2    C310203   2.794   3.555  15.638 -0.6432 -0.1654  0.2632
  690MPD2    C410204   2.861   3.601  15.752 -0.2071  0.3086 -0.7090
  690MPD2    C510205   2.811   3.577  15.875 -0.5630  0.3044 -0.3413
  690MPD2     H10206   2.610   3.473  15.577  0.4941  1.8139 -1.3588
  690MPD2    H110207   2.957   3.651  15.747  0.0994 -0.3290 -1.1423
  690MPD2    H210208   2.657   3.503  15.996 -0.6359 -0.1066 -0.6485
  690MPD2    H310209   2.859   3.604  15.968 -0.0777 -1.1325 -0.1721
  690MPD2     N10210   2.843   3.576  15.502  0.1716  0.1214  0.3205
  690MPD2    H510211   2.792   3.535  15.424  1.2333  0.5796 -0.6177
  690MPD2    N110212   2.486   3.421  15.808  1.2890 -0.7643 -0.7947
  690MPD2    H710213   2.446   3.375  15.726 -1.3744  0.3025 -0.1028
  691TMC3    C110214   2.326   3.305  15.915  0.4448 -0.2259 -1.5452
  691TMC3    C210215   2.209   3.309  15.984 -0.6267 -0.2674 -0.4564
  691TMC3    C310216   2.128   3.198  15.990  0.7126  0.3753 -0.0626
  691TMC3    C410217   2.377   3.194  15.865  0.3775 -1.2730  0.3527
  691TMC3    C510218   2.294   3.085  15.870  0.3151  0.5854 -0.5172
  691TMC3    C610219   2.168   3.080  15.932  0.9357 -0.0720  0.6032
  691TMC3     C10220   2.414   3.416  15.931  0.8182  0.8866  0.2939
  691TMC3     O10221   2.417   3.482  16.036  0.3352  0.1645  0.1342
  691TMC3     H10222   2.179   3.400  16.035 -2.1746 -2.8611  3.2883
  691TMC3    H110223   2.473   3.178  15.817  0.5766  0.7932  0.0691
  691TMC3    H210224   2.113   2.989  15.954 -1.9479  1.8604  1.3388
  691TMC3    C710225   2.345   2.959  15.817 -0.5063 -0.4069  0.0166
  691TMC3    C810226   1.993   3.185  16.051  0.8158 -0.3996  0.0925
  691TMC3    O110227   2.465   2.939  15.811 -0.0510 -0.5436  0.2556
  691TMC3    O210228   1.939   3.075  16.077 -0.0357 -0.3005  0.0694
  692TMC3    C110229   4.347   0.310  16.399  0.7698 -0.3164  0.6996
  692TMC3    C210230   4.386   0.245  16.515 -0.1504  0.8319  0.6881
  692TMC3    C310231   4.523   0.215  16.515  0.5286 -0.4987 -0.3249
  692TMC3    C410232   4.413   0.315  16.283  1.1422  0.4639 -0.0361
  692TMC3    C510233   4.547   0.287  16.287 -0.7302 -0.1791  0.1311
  692TMC3    C610234   4.603   0.244  16.401  0.4043  0.4275  0.1517
  692TMC3     C10235   4.210   0.345  16.404 -0.3910 -0.0251  0.0259
  692TMC3     O10236   4.144   0.265  16.471  0.0707  0.3817  0.3377
  692TMC3     H10237   4.328   0.262  16.605  1.7371  4.0985  1.2675
  692TMC3    H110238   4.368   0.336  16.187 -0.6605 -1.1708  0.4473
  692TMC3    H210239   4.711   0.243  16.409  0.2961 -0.5484  1.4951
  692TMC3    C710240   4.588   0.211  16.171 -0.0723 -0.4608  0.1008
  692TMC3    C810241   4.549   0.079  16.549  0.0982 -0.0214 -0.6966
  692TMC3    O110242   4.538   0.231  16.062 -0.1080 -0.7120  0.3331
  692TMC3    O210243   4.639   0.022  16.492 -0.3424  0.1877  0.0101
  693MPD2     C10244   3.428   2.695  10.605 -0.3505 -0.5268  0.1342
  693MPD2    C110245   3.349   2.586  10.623  0.8671 -0.3619 -0.2916
  693MPD2    C210246   3.414   2.465  10.639  0.4749 -0.0875  0.0467
  693MPD2    C310247   3.550   2.447  10.654  0.0586 -1.1316  0.9001
  693MPD2    C410248   3.628   2.563  10.643 -0.2388  0.0327  0.6692
  693MPD2    C510249   3.561   2.681  10.623 -0.0450 -0.1885 -0.0022
  693MPD2     H10250   3.349   2.378  10.651 -1.1105  0.9522 -1.0825
  693MPD2    H110251   3.735   2.565  10.657 -0.1232  0.9647 -0.3983
  693MPD2    H210252   3.395   2.798  10.602 -0.3228 -0.5407 -0.6928
  693MPD2    H310253   3.625   2.769  10.621 -0.6388  0.2818  1.7503
  693MPD2     N10254   3.618   2.326  10.687 -0.1415 -0.1433 -0.3028
  693MPD2    H510255   3.716   2.327  10.711 -0.4925  0.6737  1.1020
  693MPD2    N110256   3.207   2.605  10.626 -0.2041 -0.2898  0.5560
  693MPD2    H710257   3.177   2.702  10.633  2.0548  0.4894 -0.8414
  694TMC3    C110258   2.980   2.556  10.642  0.2455  0.2812  0.5383
  694TMC3    C210259   2.894   2.465  10.589 -0.3414 -0.3971 -0.3707
  694TMC3    C310260   2.781   2.436  10.656 -0.7200  0.1068  0.7347
  694TMC3    C410261   2.955   2.633  10.754  0.8797  0.1742 -1.0282
  694TMC3    C510262   2.834   2.601  10.813 -0.1291 -1.2389  0.2088
  694TMC3    C610263   2.744   2.512  10.766  0.3146  0.1344  0.0826
  694TMC3     C10264   3.112   2.504  10.631 -0.8631 -0.6012  0.1347
  694TMC3     O10265   3.120   2.382  10.628  0.1276 -0.0588  0.1082
  694TMC3     H10266   2.925   2.415  10.498  1.2395  0.2312 -0.1699
  694TMC3    H110267   3.034   2.691  10.800 -0.0956  1.1603 -0.6029
  694TMC3    H210268   2.650   2.498  10.819 -0.2709  2.1521 -0.4145
  694TMC3    C710269   2.820   2.641  10.947  0.5236  0.2206  0.3783
  694TMC3    C810270   2.678   2.364  10.589 -0.1383 -0.1746 -0.3093
  694TMC3    O110271   2.852   2.755  10.977  0.3743  0.5722 -1.2474
  694TMC3    O210272   2.601   2.317  10.670 -0.0246  0.1151  0.0447
  695MPD2     C10273   4.456   4.194  13.705 -0.1803  0.0305 -0.8254
  695MPD2    C110274   4.394   4.244  13.822  0.7874  0.2044 -0.3657
  695MPD2    C210275   4.279   4.318  13.809  0.1189  0.2848 -0.0779
  695MPD2    C310276   4.242   4.351  13.677  0.9991 -0.4440 -0.5456
  695MPD2    C410277   4.296   4.302  13.561 -0.2698  0.2628 -0.8044
  695MPD2    C510278   4.405   4.217  13.579 -0.3769  0.5127  0.2246
  695MPD2     H10279   4.229   4.355  13.898  0.2912  1.2214 -0.3764
  695MPD2    H110280   4.271   4.336  13.461 -1.6833 -0.2432 -0.6382
  695MPD2    H210281   4.550   4.139  13.704 -0.4991 -0.5955  2.5245
  695MPD2    H310282   4.449   4.179  13.487 -2.0003 -0.9523  0.0374
  695MPD2     N10283   4.135   4.444  13.662  0.3198 -0.3559 -0.4488
  695MPD2    H510284   4.123   4.478  13.567 -1.3928 -1.5097 -0.6482
  695MPD2    N110285   4.447   4.222  13.953 -0.5877  0.6640 -0.8163
  695MPD2    H710286   4.403   4.275  14.028 -2.3957 -1.8173 -0.1411
  696TMC3    C110287   3.948   4.590  13.730 -0.0431  0.7469  0.2852
  696TMC3    C210288   3.838   4.578  13.814 -0.3718 -1.0349 -0.3300
  696TMC3    C310289   3.772   4.696  13.838  0.6117 -0.5008 -0.7024
  696TMC3    C410290   4.003   4.711  13.684 -0.1972  0.1412  0.1194
  696TMC3    C510291   3.928   0.103  13.711  0.9577  1.1606 -0.3782
  696TMC3    C610292   3.814   0.092  13.783 -0.2804 -0.2438 -0.4384
  696TMC3     C10293   4.040   4.478  13.752 -0.0737 -0.4914  0.0062
  696TMC3     O10294   4.008   4.416  13.850  0.0191  0.1154  0.3038
  696TMC3     H10295   3.808   4.481  13.851  1.1474 -0.3305  2.7307
  696TMC3    H110296   4.103   4.715  13.643 -0.1141 -0.7269  0.2482
  696TMC3    H210297   3.751   0.180  13.795 -1.0712 -0.7108 -1.0937
  696TMC3    C710298   3.997   0.225  13.721 -0.2538 -0.1868 -0.3281
  696TMC3    C810299   3.710   4.718  13.969  0.0861  0.2380 -0.5184
  696TMC3    O110300   4.105   0.231  13.665  0.2273  0.3901 -0.0325
  696TMC3    O210301   3.691   0.115  14.000  0.6283 -0.6951 -0.1584
  697MPD2     C10302   3.255   1.484  15.595 -0.9167  0.2553  0.1586
  697MPD2    C110303   3.367   1.413  15.557 -0.0052  0.6421  0.0838
  697MPD2    C210304   3.456   1.455  15.464 -0.4203 -0.7360 -0.3833
  697MPD2    C310305   3.436   1.578  15.412 -0.2619 -0.5373 -0.0191
  697MPD2    C410306   3.323   1.649  15.444 -0.5043  0.0198 -0.0837
  697MPD2    C510307   3.232   1.605  15.541 -0.5834 -0.1753  0.7300
  697MPD2     H10308   3.544   1.395  15.441  1.0711  0.0522  3.1996
  697MPD2    H110309   3.300   1.740  15.388 -0.1271 -0.1931 -0.5837
  697MPD2    H210310   3.184   1.455  15.672 -0.2586 -3.0624 -0.4597
  697MPD2    H310311   3.146   1.667  15.566  0.4718  1.3801  0.5388
  697MPD2     N10312   3.531   1.615  15.311 -0.1022 -0.0164  0.0468
  697MPD2    H510313   3.626   1.583  15.323  0.7114  2.1928 -0.3729
  697MPD2    N110314   3.384   1.279  15.597  0.1037  0.6156 -0.4085
  697MPD2    H710315   3.473   1.240  15.570  0.5861  1.0467  0.5794
  698TMC3    C110316   3.634   1.752  15.161  0.2001 -0.8088 -0.3572
  698TMC3    C210317   3.743   1.777  15.252  0.2843 -0.2897  0.1063
  698TMC3    C310318   3.866   1.824  15.215  1.0957 -0.5211 -0.3691
  698TMC3    C410319   3.650   1.784  15.036  0.0329  0.2819  0.0562
  698TMC3    C510320   3.769   1.838  14.994 -0.0575  0.6143 -0.5747
  698TMC3    C610321   3.879   1.853  15.079 -0.6023  0.2921  0.6462
  698TMC3     C10322   3.509   1.709  15.212 -0.1487  0.2993 -0.3667
  698TMC3     O10323   3.409   1.743  15.153  0.4645 -0.1533 -0.1104
  698TMC3     H10324   3.736   1.768  15.360 -0.8928 -0.1107  0.0368
  698TMC3    H110325   3.575   1.754  14.964  0.1297 -0.7078  0.3756
  698TMC3    H210326   3.981   1.865  15.043 -0.3879 -0.7429  0.9140
  698TMC3    C710327   3.773   1.867  14.846 -0.1051 -0.3354 -0.7765
  698TMC3    C810328   3.961   1.868  15.318  0.0063  0.3982 -0.3956
  698TMC3    O110329   3.688   1.818  14.773  0.4412 -0.0617  0.5817
  698TMC3    O210330   3.949   1.828  15.432 -0.5252  0.6611  0.2551
  699TMC3    C110331   4.025   4.393  13.143  0.5068  0.0780  0.3561
  699TMC3    C210332   4.089   4.285  13.205 -0.8549 -0.1661  0.3359
  699TMC3    C310333   4.017   4.236  13.304 -0.2957 -0.0642 -0.7964
  699TMC3    C410334   3.905   4.447  13.177  0.0201 -0.2366 -0.0574
  699TMC3    C510335   3.849   4.399  13.292  0.2216 -0.2469 -0.2841
  699TMC3    C610336   3.902   4.290  13.352 -0.7531 -0.1397 -0.2098
  699TMC3     C10337   4.092   4.474  13.045  0.1295 -0.3539  0.3930
  699TMC3     O10338   4.034   4.561  12.990 -0.3921 -0.0558  0.2408
  699TMC3     H10339   4.174   4.237  13.158  0.2711  0.3889  1.7642
  699TMC3    H110340   3.856   4.526  13.121  0.5968  1.5587  1.9603
  699TMC3    H210341   3.856   4.251  13.442  0.9572 -0.5159  0.5105
  699TMC3    C710342   3.776   4.491  13.382  0.6212 -0.4876 -0.1050
  699TMC3    C810343   4.062   4.111  13.363 -0.4301 -0.0552 -0.3731
  699TMC3    O110344   3.712   4.432  13.468 -0.4749  0.2025 -0.0647
  699TMC3    O210345   3.994   4.057  13.447 -0.0946 -0.2418  0.0170
  700TMC3    C110346   3.108   1.967  17.631  0.5114 -0.3912 -0.4436
  700TMC3    C210347   3.173   1.853  17.579  0.4299 -0.2629 -0.1848
  700TMC3    C310348   3.308   1.824  17.624 -0.0519  0.3979 -0.4175
  700TMC3    C410349   3.182   2.057   0.035 -0.0600 -0.3169 -0.4086
  700TMC3    C510350   3.314   2.029   0.067 -0.7790  0.0510 -0.7772
  700TMC3    C610351   3.373   1.917   0.023  0.1383 -0.6703  0.1178
  700TMC3     C10352   3.020   2.026  17.530  0.0475  0.4613 -0.7782
  700TMC3     O10353   2.917   1.961  17.499  0.6094  0.0870 -0.1101
  700TMC3     H10354   3.126   1.788  17.506 -0.2154 -0.9594  0.8590
  700TMC3    H110355   3.122   2.141   0.067  0.3385 -0.4726  0.7420
  700TMC3    H210356   3.474   1.905   0.058 -0.1800 -2.5745  0.3811
  700TMC3    C710357   3.396   2.134   0.127  0.0276 -0.1200  0.7635
  700TMC3    C810358   3.392   1.746  17.532  0.0085 -1.1301  0.3083
  700TMC3    O110359   3.512   2.138   0.085  0.2180 -0.1021 -0.5848
  700TMC3    O210360   3.515   1.768  17.534 -0.0033 -0.2443 -0.7064
  701TMC3    C110361   3.308   0.503  15.605  0.9659 -0.5147 -0.6347
  701TMC3    C210362   3.387   0.455  15.501  0.0178  0.5153 -0.0180
  701TMC3    C310363   3.394   0.540  15.390  0.3013 -0.0356 -0.4069
  701TMC3    C410364   3.227   0.615  15.600 -0.4796 -0.7676  0.2477
  701TMC3    C510365   3.233   0.689  15.486  0.0409 -0.4149  0.1812
  701TMC3    C610366   3.319   0.656  15.381  0.6205 -0.6001 -0.4050
  701TMC3     C10367   3.263   0.404  15.700 -0.0221 -0.0583  0.3205
  701TMC3     O10368   3.143   0.411  15.724 -0.1147  0.2204  0.9541
  701TMC3     H10369   3.421   0.352  15.498 -1.2541  0.0710  0.6223
  701TMC3    H110370   3.169   0.636  15.689  2.8654 -1.6995  2.6631
  701TMC3    H210371   3.319   0.713  15.289  1.2286 -1.7419 -1.1058
  701TMC3    C710372   3.163   0.808  15.474 -0.0432 -0.0657  0.4655
  701TMC3    C810373   3.418   0.458  15.273  0.1518  0.5560 -0.4090
  701TMC3    O110374   3.199   0.893  15.399 -0.2097 -0.3740  0.1463
  701TMC3    O210375   3.522   0.395  15.253  0.1956  0.7225  0.5912
  702MPD2     C10376   2.050   2.645  10.536  0.0047 -0.1587  0.2357
  702MPD2    C110377   2.119   2.733  10.617  0.0354  0.6569  0.4978
  702MPD2    C210378   2.172   2.846  10.567 -0.8741 -0.1690  0.7982
  702MPD2    C310379   2.173   2.883  10.433 -0.2749  0.0813 -0.7310
  702MPD2    C410380   2.110   2.790  10.348 -0.3700 -0.0769 -0.0008
  702MPD2    C510381   2.053   2.676  10.399  0.7919 -0.1728  0.0024
  702MPD2     H10382   2.225   2.908  10.638  1.6259 -0.7308 -0.5604
  702MPD2    H110383   2.097   2.817  10.243  1.6874 -2.4437 -0.8712
  702MPD2    H210384   2.007   2.550  10.567 -1.6800  0.5060 -0.0265
  702MPD2    H310385   2.009   2.613  10.322  0.2842  1.7434 -1.2745
  702MPD2     N10386   2.208   3.009  10.383  0.3596  0.1460  0.1664
  702MPD2    H510387   2.201   3.015  10.281  0.9189  0.1533  0.1293
  702MPD2    N110388   2.130   2.727  10.755 -0.0971  0.6694  0.5480
  702MPD2    H710389   2.181   2.807  10.792  1.4357  0.5929 -1.4242
  703TMC3    C110390   2.272   3.243  10.401  0.7710 -0.5880 -0.0304
  703TMC3    C210391   2.216   3.355  10.466  0.4136  0.7967  0.6287
  703TMC3    C310392   2.262   3.476  10.418  0.7267  0.3451 -0.0060
  703TMC3    C410393   2.359   3.248  10.295  0.5578 -0.5649 -0.0341
  703TMC3    C510394   2.403   3.370  10.258 -0.2901  0.0649  0.7112
  703TMC3    C610395   2.358   3.486  10.316  0.1088 -0.3150 -0.1383
  703TMC3     C10396   2.241   3.118  10.467  0.3076  0.5773 -0.1006
  703TMC3     O10397   2.210   3.132  10.586  0.4622  0.5922 -0.0084
  703TMC3     H10398   2.151   3.344  10.552 -1.0017  0.7585 -0.4605
  703TMC3    H110399   2.400   3.162  10.242  0.5473  0.3200 -1.4754
  703TMC3    H210400   2.394   3.585  10.291 -0.0449 -0.4194 -0.7675
  703TMC3    C710401   2.510   3.386  10.159  0.1957  0.2281  0.4663
  703TMC3    C810402   2.215   3.598  10.478  0.4241 -0.8016  0.8315
  703TMC3    O110403   2.591   3.297  10.151 -0.3210  0.0205 -0.1333
  703TMC3    O210404   2.274   3.702  10.452  0.0341 -0.1119 -0.1916
  704TMC3    C110405   0.992   1.648  12.382  0.0860 -0.0531 -0.5095
  704TMC3    C210406   0.990   1.668  12.242 -0.6708 -0.6303 -0.6584
  704TMC3    C310407   1.091   1.609  12.167  0.1878  0.0611  0.1891
  704TMC3    C410408   1.095   1.601  12.447  0.6411 -0.0834  0.3979
  704TMC3    C510409   1.206   1.571  12.376  0.3143  0.3245 -0.2965
  704TMC3    C610410   1.196   1.562  12.239 -0.2105 -0.1568  0.4093
  704TMC3     C10411   0.862   1.615  12.440 -0.3560 -0.5153 -0.2606
  704TMC3     O10412   0.858   1.590  12.560 -0.0487 -0.1653  0.1186
  704TMC3     H10413   0.902   1.719  12.205  0.1454  1.2726 -0.0095
  704TMC3    H110414   1.090   1.596  12.555  0.6022 -0.1785  0.3920
  704TMC3    H210415   1.274   1.507  12.187 -1.7452 -3.2779  1.3975
  704TMC3    C710416   1.292   1.475  12.439  0.0424 -0.3948 -0.0417
  704TMC3    C810417   1.028   1.528  12.067 -1.1716  0.3013  0.4120
  704TMC3    O110418   1.401   1.512  12.490 -0.0469 -0.1512 -0.3765
  704TMC3    O210419   0.908   1.506  12.084 -0.2428  0.5840 -0.3518
  705MPD2     C10420   0.450   4.419  16.900  0.1588 -0.0504  0.2503
  705MPD2    C110421   0.372   4.503  16.822 -0.4107 -0.0480 -0.3275
  705MPD2    C210422   0.250   4.537  16.864 -0.3970 -0.2348 -0.0730
  705MPD2    C310423   0.201   4.489  16.985 -0.2878  0.4220 -0.7692
  705MPD2    C410424   0.276   4.409  17.064  0.3557  1.0435  0.2710
  705MPD2    C510425   0.397   4.365  17.017  0.5523  0.6743 -0.0078
  705MPD2     H10426   0.195   4.608  16.803 -1.3376 -1.4126 -0.5797
  705MPD2    H110427   0.240   4.382  17.163 -1.6283  0.0732 -0.7184
  705MPD2    H210428   0.555   4.402  16.876 -0.1482 -2.8077  0.9086
  705MPD2    H310429   0.459   4.305  17.082 -0.1430 -0.6784 -0.5981
  705MPD2     N10430   0.077   4.522  17.031 -0.7057  0.0127 -0.1187
  705MPD2    H510431   0.051   4.468  17.112  1.1683  0.5389  0.8501
  705MPD2    N110432   0.416   4.556  16.697 -0.5656 -0.4042  0.0104
  705MPD2    H710433   0.345   4.606  16.644 -0.5758  0.3482  0.7263
  706TMC3    C110434   0.563   4.503  16.262  0.3359  0.3557 -0.2352
  706TMC3    C210435   0.497   4.619  16.229  0.1698  0.0361  0.1461
  706TMC3    C310436   0.443   4.701  16.325  0.3947  0.7912  0.0420
  706TMC3    C410437   0.572   4.468  16.395  0.3841 -0.4425 -0.0551
  706TMC3    C510438   0.528   4.562  16.487 -0.4795 -0.2295  0.1322
  706TMC3    C610439   0.462   4.673  16.457 -0.9266 -0.1619  0.5870
  706TMC3     C10440   0.625   4.406  16.169 -0.4007  0.2698  0.3219
  706TMC3     O10441   0.686   4.312  16.218  0.2181 -0.1199 -0.2193
  706TMC3     H10442   0.497   4.660  16.129 -1.6324 -0.5282 -0.0881
  706TMC3    H110443   0.630   4.387  16.439  1.0342 -0.5026 -1.0127
  706TMC3    H210444   0.431   0.025  16.534  0.3089  2.3433 -1.1730
  706TMC3    C710445   0.527   4.516  16.624 -0.6593 -1.0178  0.0452
  706TMC3    C810446   0.390   0.107  16.278  1.0622  0.5553 -0.3230
  706TMC3    O110447   0.621   4.440  16.655  0.2708 -0.1391  0.1697
  706TMC3    O210448   0.387   0.139  16.158 -0.2669  1.2474  0.5358
  707TMC3    C110449   1.288   3.502   0.928 -0.3481  0.6115 -0.4180
  707TMC3    C210450   1.208   3.401   0.983 -0.1936 -0.3937  0.3691
  707TMC3    C310451   1.077   3.435   0.987 -0.4892  0.1784  0.3168
  707TMC3    C410452   1.240   3.619   0.871 -0.4929  0.0419  0.1572
  707TMC3    C510453   1.102   3.641   0.879  0.2774  0.1983  0.2207
  707TMC3    C610454   1.020   3.547   0.932  0.4542 -0.0951  0.1458
  707TMC3     C10455   1.424   3.463   0.910 -1.0053 -0.8705 -0.7988
  707TMC3     O10456   1.445   3.354   0.950 -0.7671 -0.0544  0.2410
  707TMC3     H10457   1.244   3.313   1.035 -0.7816 -1.2251 -0.6088
  707TMC3    H110458   1.301   3.682   0.808 -0.2076  1.2137  1.5974
  707TMC3    H210459   0.913   3.563   0.945  0.4257 -1.8933  2.0738
  707TMC3    C710460   1.043   3.765   0.837 -0.4184  0.4132 -0.2603
  707TMC3    C810461   0.984   3.324   1.000  0.5080 -0.1150 -0.0323
  707TMC3    O110462   0.922   3.773   0.819 -0.2666  0.0312 -0.0472
  707TMC3    O210463   0.889   3.350   1.075 -0.1920  0.1381  0.0267
  708MPD2     C10464   2.871   2.398  13.570 -0.3269  0.4406  0.3625
  708MPD2    C110465   2.807   2.419  13.688 -0.8790 -0.1802  0.6335
  708MPD2    C210466   2.883   2.434  13.804 -0.3521  0.0282  0.6390
  708MPD2    C310467   3.025   2.433  13.798 -0.6356 -0.7476  0.2370
  708MPD2    C410468   3.088   2.413  13.673 -0.2286 -1.1985  0.1950
  708MPD2    C510469   3.009   2.390  13.564 -0.4462  0.1446  0.5621
  708MPD2     H10470   2.836   2.449  13.901 -0.0657 -1.0093  0.9485
  708MPD2    H110471   3.196   2.419  13.667 -0.3867  2.6930  0.7809
  708MPD2    H210472   2.821   2.377  13.476 -2.0087 -0.2669  1.4051
  708MPD2    H310473   3.054   2.380  13.466  1.3446 -1.4094  1.5446
  708MPD2     N10474   3.101   2.450  13.915 -0.4921  0.5731  0.1427
  708MPD2    H510475   3.202   2.453  13.905 -0.3715 -1.2313  0.8828
  708MPD2    N110476   2.671   2.415  13.711 -0.9128 -0.0174  0.4315
  708MPD2    H710477   2.641   2.433  13.806  0.5512 -0.2315  0.9252
  709TMC3    C110478   2.441   2.435  13.662  0.2340  1.0713  0.0237
  709TMC3    C210479   2.412   2.568  13.631  0.0160  0.1718 -0.8332
  709TMC3    C310480   2.382   2.661  13.722 -0.4797  0.0582  0.2887
  709TMC3    C410481   2.417   2.398  13.789  0.4211 -0.6658 -0.2763
  709TMC3    C510482   2.395   2.492  13.891  0.5544 -0.0074  0.7264
  709TMC3    C610483   2.373   2.625  13.856  0.0526  0.3838  0.3906
  709TMC3     C10484   2.575   2.409  13.613  0.4227  0.4292  0.3137
  709TMC3     O10485   2.587   2.411  13.489 -0.2122  0.8253  0.1643
  709TMC3     H10486   2.428   2.592  13.526 -1.9624  1.7720 -0.7503
  709TMC3    H110487   2.433   2.296  13.823  1.7487 -0.6460 -0.8322
  709TMC3    H210488   2.355   2.702  13.930 -0.7203 -0.4550  1.0892
  709TMC3    C710489   2.487   2.501  14.006  0.3038  0.2404  0.3585
  709TMC3    C810490   2.381   2.804  13.694 -1.2648  0.5893  0.1198
  709TMC3    O110491   2.593   2.446  13.979 -0.0047 -0.2469  0.3868
  709TMC3    O210492   2.347   2.876  13.786 -0.9845 -0.2589 -0.4373
  710TMC3    C110493   3.823   4.042   0.646 -0.2824 -0.0990 -0.9655
  710TMC3    C210494   3.876   4.098   0.536 -0.3833  0.4920  0.3390
  710TMC3    C310495   3.967   4.020   0.465 -0.1658 -0.3840 -0.3736
  710TMC3    C410496   3.837   3.907   0.681  0.0812 -0.1783 -0.0703
  710TMC3    C510497   3.925   3.834   0.605  0.6666 -0.0903 -1.2343
  710TMC3    C610498   3.998   3.885   0.499 -0.0895 -0.1916  0.4789
  710TMC3     C10499   3.730   4.116   0.732  0.0976 -0.0578  0.0089
  710TMC3     O10500   3.653   4.044   0.794  0.0837 -0.1859 -0.3665
  710TMC3     H10501   3.843   4.192   0.495 -1.5922 -0.7319 -1.5068
  710TMC3    H110502   3.804   3.862   0.774 -0.3406  1.3764  0.5288
  710TMC3    H210503   4.075   3.830   0.445 -0.7800 -0.6769 -0.0136
  710TMC3    C710504   3.969   3.704   0.655 -0.1614 -0.4354 -0.1356
  710TMC3    C810505   4.052   4.085   0.368  0.7897  0.1024  0.6813
  710TMC3    O110506   3.943   3.684   0.774 -0.5364  0.3180  0.0737
  710TMC3    O210507   4.150   4.019   0.345 -0.0136  0.0436 -0.5480
  711TMC3    C110508   3.531   4.710  15.301 -0.5218 -0.6241 -0.7068
  711TMC3    C210509   3.555   0.089  15.390 -0.0602 -0.5786 -0.3831
  711TMC3    C310510   3.680   0.090  15.447 -0.2808  0.3747 -1.0347
  711TMC3    C410511   3.626   4.616  15.260  0.4042  0.3454  0.5041
  711TMC3    C510512   3.745   4.626  15.313  0.7688 -0.3299  0.1456
  711TMC3    C610513   3.773   4.710  15.416  0.1866 -0.9473 -0.3046
  711TMC3     C10514   3.399   4.709  15.228  0.2295  0.6445  0.2217
  711TMC3     O10515   3.409   4.666  15.115 -0.1263 -0.3698  0.6284
  711TMC3     H10516   3.485   0.169  15.409  1.2509  0.5407 -0.1976
  711TMC3    H110517   3.601   4.541  15.186  0.7639 -0.2831  1.0193
  711TMC3    H210518   3.870   4.715  15.462  0.3542 -1.1500 -0.6391
  711TMC3    C710519   3.846   4.525  15.297 -0.2939  0.2819  0.5248
  711TMC3    C810520   3.699   0.192  15.552 -0.7916 -0.5325  0.3445
  711TMC3    O110521   3.957   4.559  15.333 -0.5645 -0.3901 -0.7318
  711TMC3    O210522   3.601   0.238  15.611  0.3987  0.0484 -0.5173
  712MPD2     C10523   0.823   1.277  13.757 -0.3089 -0.1456  0.4829
  712MPD2    C110524   0.735   1.320  13.655 -0.0259 -0.0498  0.6499
  712MPD2    C210525   0.753   1.434  13.595 -0.3489  0.4388 -0.2802
  712MPD2    C310526   0.864   1.512  13.622 -0.0353  0.0245 -0.3858
  712MPD2    C410527   0.964   1.471  13.705 -0.4348 -0.3044  0.3909
  712MPD2    C510528   0.938   1.351  13.772  0.1708 -0.5439 -0.4160
  712MPD2     H10529   0.680   1.466  13.522 -1.2558 -0.7616  0.0964
  712MPD2    H110530   1.051   1.530  13.734  0.4592 -1.7010  0.5341
  712MPD2    H210531   0.811   1.186  13.813  0.4854 -1.9300 -2.2218
  712MPD2    H310532   1.008   1.311  13.845  1.2678 -0.2630 -1.3223
  712MPD2     N10533   0.889   1.629  13.548 -0.1625  0.0143  0.7745
  712MPD2    H510534   0.976   1.679  13.562 -0.2354  0.9408 -1.9337
  712MPD2    N110535   0.622   1.246  13.614  0.2542  0.1928  0.1283
  712MPD2    H710536   0.581   1.289  13.532  2.2411  1.0761 -0.4126
  713TMC3    C110537   0.820   1.810  13.391 -0.3273 -0.3629 -0.0979
  713TMC3    C210538   0.947   1.849  13.376  0.3821  0.2574 -0.2030
  713TMC3    C310539   0.968   1.958  13.298  0.3821  0.1933  0.5995
  713TMC3    C410540   0.709   1.881  13.350 -0.5116  0.1830 -0.4888
  713TMC3    C510541   0.732   1.995  13.274  0.1194 -0.1450 -0.3227
  713TMC3    C610542   0.867   2.034  13.260  0.6441  0.0153  0.5051
  713TMC3     C10543   0.784   1.701  13.484  0.2837  0.4277  0.8271
  713TMC3     O10544   0.667   1.689  13.516  0.2241  0.1992  0.5771
  713TMC3     H10545   1.033   1.785  13.394  1.6052  1.8725 -0.3654
  713TMC3    H110546   0.609   1.841  13.360 -0.0314 -1.2607 -1.4336
  713TMC3    H210547   0.900   2.130  13.223 -1.0322  0.0928 -0.7914
  713TMC3    C710548   0.614   2.074  13.232  0.1190  0.2156  0.6523
  713TMC3    C810549   1.095   2.021  13.316  0.2913 -0.6676  0.0822
  713TMC3    O110550   0.514   2.056  13.301 -0.1423 -0.6943  0.0194
  713TMC3    O210551   1.140   2.084  13.220 -0.4975 -0.0850 -0.0047
  714MPD2     C10552   2.632   0.607   1.067 -0.6171  0.0723 -0.7778
  714MPD2    C110553   2.586   0.493   1.139 -0.4662  0.5037 -0.2400
  714MPD2    C210554   2.497   0.406   1.083  0.2494 -0.1577  0.2932
  714MPD2    C310555   2.448   0.425   0.959 -0.2246 -0.8780  0.1333
  714MPD2    C410556   2.489   0.536   0.890  0.2546 -0.3762  0.2762
  714MPD2    C510557   2.574   0.624   0.945  0.7626  0.0616 -0.5897
  714MPD2     H10558   2.456   0.325   1.142 -1.9772  0.4467 -0.4134
  714MPD2    H110559   2.458   0.564   0.790 -0.2033  0.1905  0.5760
  714MPD2    H210560   2.711   0.667   1.111  0.3017 -1.2604 -0.5879
  714MPD2    H310561   2.595   0.711   0.884  1.5119  0.5079  0.2967
  714MPD2     N10562   2.344   0.343   0.904 -0.2104 -0.3840  0.3050
  714MPD2    H510563   2.301   0.275   0.966 -0.1985 -0.0386  0.6902
  714MPD2    N110564   2.648   0.463   1.261 -0.8306  0.1717  0.2948
  714MPD2    H710565   2.719   0.528   1.292 -1.5551 -0.7991  4.0227
  715TMC3    C110566   2.738   0.332   1.434 -0.2650  0.0908  0.0696
  715TMC3    C210567   2.745   0.211   1.497 -0.2346 -0.2208 -0.3073
  715TMC3    C310568   2.827   0.187   1.602  0.0892 -0.2419 -0.2695
  715TMC3    C410569   2.825   0.437   1.464  0.4230  0.7152  0.1107
  715TMC3    C510570   2.921   0.402   1.556 -0.8468  0.0976  0.6252
  715TMC3    C610571   2.928   0.282   1.618  0.4369 -0.0521  0.0027
  715TMC3     C10572   2.639   0.345   1.336 -0.3950 -0.7955  0.6280
  715TMC3     O10573   2.564   0.248   1.322  0.1787  0.5035 -0.1095
  715TMC3     H10574   2.678   0.132   1.465 -1.2075 -0.3575  2.0129
  715TMC3    H110575   2.827   0.534   1.417  0.8147  2.1870  3.1368
  715TMC3    H210576   2.990   0.273   1.707 -0.8699 -0.8723  0.8318
  715TMC3    C710577   3.029   0.503   1.579  0.1498 -0.2389  0.3793
  715TMC3    C810578   2.861   0.045   1.629  0.4863  1.0522  0.6633
  715TMC3    O110579   3.144   0.467   1.605  0.6623  0.7287  0.1110
  715TMC3    O210580   2.805   4.680   1.557  0.1983  0.3160  0.7735
  716MPD2     C10581   2.917   2.331   9.966 -0.2608 -0.4808  0.4057
  716MPD2    C110582   2.873   2.266   9.852 -0.5334  0.1178  0.0103
  716MPD2    C210583   2.843   2.134   9.867 -0.2998 -0.7041  0.2505
  716MPD2    C310584   2.827   2.075   9.990 -0.1687 -0.0809 -0.2368
  716MPD2    C410585   2.870   2.141  10.102 -0.0560  0.5439 -0.7951
  716MPD2    C510586   2.913   2.274  10.091 -0.2115 -0.5883 -0.2766
  716MPD2     H10587   2.823   2.068   9.784  1.7932 -2.9547  1.5450
  716MPD2    H110588   2.858   2.098  10.200  0.9777  1.0087 -0.4648
  716MPD2    H210589   2.956   2.431   9.955  1.0201 -1.0960 -0.8182
  716MPD2    H310590   2.944   2.324  10.182 -0.0677 -0.8393 -0.1884
  716MPD2     N10591   2.755   1.954   9.993 -0.4608  0.6657 -0.2980
  716MPD2    H510592   2.731   1.925   9.899 -0.8659  1.0191 -0.3023
  716MPD2    N110593   2.870   2.328   9.729  0.4320 -0.3304  1.0503
  716MPD2    H710594   2.915   2.418   9.717 -1.7591  0.8158  1.4758
  717TMC3    C110595   2.649   1.756  10.064 -0.1193 -0.3291  0.2541
  717TMC3    C210596   2.587   1.769   9.945 -0.1942  0.2437  0.6097
  717TMC3    C310597   2.509   1.663   9.901  0.1927  0.0160 -0.3233
  717TMC3    C410598   2.649   1.645  10.133 -0.1036  1.1053  0.1518
  717TMC3    C510599   2.578   1.538  10.083  0.2358 -0.3691  0.1349
  717TMC3    C610600   2.496   1.547   9.972 -0.2606 -0.2696 -0.1733
  717TMC3     C10601   2.738   1.864  10.105 -0.3898  0.8250  0.2045
  717TMC3     O10602   2.785   1.867  10.217 -0.0839 -0.2391  0.0575
  717TMC3     H10603   2.561   1.866   9.904 -1.6133 -0.7499 -0.8348
  717TMC3    H110604   2.717   1.647  10.217  0.1030  2.5766 -0.0431
  717TMC3    H210605   2.441   1.462   9.934 -1.2953  0.1724  0.3371
  717TMC3    C710606   2.562   1.419  10.165  1.2420  0.1664  0.5041
  717TMC3    C810607   2.463   1.663   9.763  0.4332  0.4132 -0.4779
  717TMC3    O110608   2.473   1.344  10.127  0.1060  0.0315  0.2636
  717TMC3    O210609   2.390   1.575   9.719  0.0311 -0.1281 -0.4724
  718MPD2     C10610   2.274   1.748  13.426 -0.5883 -0.2241 -0.2194
  718MPD2    C110611   2.214   1.702  13.309  0.2671  0.3833 -0.1790
  718MPD2    C210612   2.154   1.578  13.313  0.2296  0.8680  0.2550
  718MPD2    C310613   2.137   1.508  13.432  0.1698  0.1794  0.1402
  718MPD2    C410614   2.201   1.552  13.546 -0.1168  0.0184 -0.0552
  718MPD2    C510615   2.272   1.669  13.546  0.0869 -0.0263 -0.3860
  718MPD2     H10616   2.108   1.533  13.226  1.1584 -1.2232  0.8341
  718MPD2    H110617   2.206   1.488  13.633 -1.1354 -0.9969 -0.7357
  718MPD2    H210618   2.340   1.834  13.428 -0.9535  0.0410  0.3435
  718MPD2    H310619   2.326   1.717  13.627 -1.0759  1.3346 -0.4046
  718MPD2     N10620   2.075   1.384  13.414 -0.3309 -0.0706 -0.2014
  718MPD2    H510621   2.048   1.356  13.320  0.1692 -1.3693  0.0396
  718MPD2    N110622   2.219   1.771  13.191  0.1266  0.8907  0.3587
  718MPD2    H710623   2.288   1.844  13.177 -0.5019  1.9032  2.6832
  719TMC3    C110624   2.146   1.823  12.975 -0.4974  0.0194  0.1667
  719TMC3    C210625   2.036   1.842  12.900 -0.5555  0.5943  0.2934
  719TMC3    C310626   2.024   1.810  12.767  0.4267 -0.8557  0.5264
  719TMC3    C410627   2.265   1.782  12.914  0.5672  0.4335 -0.0590
  719TMC3    C510628   2.253   1.763  12.775 -0.4026  0.3365  0.6689
  719TMC3    C610629   2.128   1.773  12.698 -0.4870  0.7372  0.5609
  719TMC3     C10630   2.121   1.754  13.097  0.3838 -0.1820 -0.3846
  719TMC3     O10631   2.009   1.704  13.116  0.1884  0.0890 -0.0871
  719TMC3     H10632   1.945   1.875  12.948 -1.6579 -2.0120  0.0164
  719TMC3    H110633   2.353   1.771  12.977 -0.3412 -0.7918  1.0017
  719TMC3    H210634   2.108   1.751  12.594 -0.6980 -0.2473  0.8097
  719TMC3    C710635   2.376   1.785  12.699 -0.6412  0.0931  0.4841
  719TMC3    C810636   1.912   1.722  12.739  0.4991  0.4300 -0.4901
  719TMC3    O110637   2.368   1.812  12.579 -0.0861  0.6200  0.8018
  719TMC3    O210638   1.853   1.725  12.630 -0.2057  0.2431  0.2560
  720MPD2     C10639   0.340   3.557  13.932  0.1624 -0.4698 -0.8363
  720MPD2    C110640   0.453   3.556  13.847 -0.2585 -0.1623  0.1078
  720MPD2    C210641   0.557   3.472  13.875 -0.2112 -0.0829  0.4526
  720MPD2    C310642   0.556   3.393  13.989  0.2401 -0.6570  0.2214
  720MPD2    C410643   0.447   3.405  14.075 -0.2675 -0.2161 -0.2760
  720MPD2    C510644   0.341   3.493  14.049 -0.0925  0.0102  0.1109
  720MPD2     H10645   0.642   3.465  13.808 -0.5623  0.6710 -0.0758
  720MPD2    H110646   0.442   3.334  14.157 -1.2450  2.5381  2.0702
  720MPD2    H210647   0.248   3.609  13.907  1.0440  1.3559 -0.3120
  720MPD2    H310648   0.250   3.504  14.108  0.2766 -1.2056  0.8918
  720MPD2     N10649   0.674   3.325  14.030  0.2118  1.0916  0.2755
  720MPD2    H510650   0.745   3.318  13.958  0.7260  1.1916  0.7685
  720MPD2    N110651   0.451   3.624  13.725 -0.0248 -0.1553 -0.0927
  720MPD2    H710652   0.518   3.593  13.655  0.5735 -0.0166  0.4146
  721TMC3    C110653   0.839   3.243  14.182  0.2271 -0.1376  0.2472
  721TMC3    C210654   0.871   3.195  14.307  0.7233  0.0067  0.3477
  721TMC3    C310655   1.004   3.179  14.336 -0.7332 -0.3515  0.6125
  721TMC3    C410656   0.934   3.258  14.080 -0.4602  0.4279 -0.2477
  721TMC3    C510657   1.065   3.241  14.108 -0.0333  0.1200 -0.0565
  721TMC3    C610658   1.101   3.190  14.235  0.5993  0.4110  0.5242
  721TMC3     C10659   0.701   3.276  14.156  0.3457  0.2087 -0.2199
  721TMC3     O10660   0.626   3.284  14.253 -0.1392 -0.3856  0.3212
  721TMC3     H10661   0.791   3.168  14.374  0.6038  1.5280  0.8184
  721TMC3    H110662   0.907   3.298  13.982 -1.1459  0.5799  0.0036
  721TMC3    H210663   1.205   3.204  14.262  0.8361  0.2349 -0.2783
  721TMC3    C710664   1.152   3.231  14.004 -0.4536 -0.4396  0.0973
  721TMC3    C810665   1.055   3.128  14.462 -0.4957  0.1138  0.4413
  721TMC3    O110666   1.151   3.328  13.929 -0.1954  0.2535 -0.1266
  721TMC3    O210667   1.175   3.096  14.459 -0.5644 -0.5316  0.2333
  722MPD2     C10668   4.134   2.136  13.370 -0.3785 -0.0846  0.0556
  722MPD2    C110669   4.146   2.186  13.245  0.9361 -0.2283  0.9609
  722MPD2    C210670   4.034   2.190  13.160  0.0251  0.2564 -0.0222
  722MPD2    C310671   3.915   2.151  13.206 -0.0886 -0.2558 -0.0494
  722MPD2    C410672   3.899   2.084  13.326  0.1644  0.6785  0.4340
  722MPD2    C510673   4.010   2.086  13.408 -0.4588 -0.2607 -0.4591
  722MPD2     H10674   4.043   2.237  13.063 -0.6754  0.9492  0.2480
  722MPD2    H110675   3.806   2.044  13.366  0.2718  0.6039  0.6059
  722MPD2    H210676   4.205   2.160  13.448  1.7093 -1.0169 -1.5798
  722MPD2    H310677   4.002   2.065  13.514  3.2143 -2.1496 -0.5475
  722MPD2     N10678   3.809   2.176  13.113  0.2219  0.2196 -0.1531
  722MPD2    H510679   3.831   2.234  13.033 -0.1606  0.0198 -0.4007
  722MPD2    N110680   4.267   2.238  13.188 -0.5296 -0.3336  0.0590
  722MPD2    H710681   4.262   2.260  13.089  2.7013  0.2738  0.0337
  723TMC3    C110682   3.609   2.136  12.998 -0.5871 -0.3484 -0.3879
  723TMC3    C210683   3.537   2.038  12.942 -0.7137 -0.1687 -0.0545
  723TMC3    C310684   3.458   2.071  12.831 -0.1170  0.2404  0.6456
  723TMC3    C410685   3.609   2.265  12.951 -0.9806  0.6818 -0.6462
  723TMC3    C510686   3.519   2.302  12.856 -0.0132  0.1163  0.2226
  723TMC3    C610687   3.441   2.204  12.792  0.0947  0.2005 -0.1970
  723TMC3     C10688   3.691   2.106  13.114 -0.8979  0.0658  0.0887
  723TMC3     O10689   3.654   2.017  13.183  0.2795 -0.0781 -0.0599
  723TMC3     H10690   3.532   1.940  12.988 -0.4388 -0.1102  0.1027
  723TMC3    H110691   3.644   2.338  13.024  1.1253 -1.0929  0.1121
  723TMC3    H210692   3.355   2.225  12.730  0.4441 -0.1031 -0.7778
  723TMC3    C710693   3.496   2.437  12.822  0.1323  0.4846 -0.5390
  723TMC3    C810694   3.374   1.970  12.765 -0.5957 -0.2981 -0.0602
  723TMC3    O110695   3.531   2.525  12.896  0.3171  0.1258  0.6353
  723TMC3    O210696   3.276   2.006  12.702 -0.4851  0.3717 -0.0816
  724TMC3    C110697   4.322   3.765   9.750 -0.1429  0.2200  0.8838
  724TMC3    C210698   4.359   3.840   9.855 -0.7890 -0.2495  0.6801
  724TMC3    C310699   4.415   3.962   9.835 -0.1919  0.1966  0.1010
  724TMC3    C410700   4.340   3.811   9.618  0.3644  0.1155 -0.2065
  724TMC3    C510701   4.380   3.948   9.601  0.1182 -0.6535  0.0685
  724TMC3    C610702   4.422   4.021   9.710  0.7105  0.1516 -0.4070
  724TMC3     C10703   4.308   3.624   9.774 -0.2303 -0.3337  0.3598
  724TMC3     O10704   4.346   3.580   9.881  0.2390  0.9680  0.5919
  724TMC3     H10705   4.364   3.803   9.957 -0.4446 -0.7907  0.4629
  724TMC3    H110706   4.326   3.747   9.532  1.1672  0.9534 -0.9632
  724TMC3    H210707   4.451   4.124   9.690 -2.3371  1.4066  1.5493
  724TMC3    C710708   4.371   4.013   9.469  0.1907 -0.4027 -0.3349
  724TMC3    C810709   4.446   4.039   9.954 -0.0879 -0.2391  0.4896
  724TMC3    O110710   4.377   4.137   9.481 -0.1724  0.1880 -0.1340
  724TMC3    O210711   4.410   3.996  10.063  0.1019  0.1823 -0.2711
  725TMC3    C110712   0.843   4.106  12.860 -0.3960  0.0666 -0.2747
  725TMC3    C210713   0.756   4.084  12.751  0.6040 -0.1037  0.6006
  725TMC3    C310714   0.711   3.953  12.741  0.0582  0.2114 -0.1927
  725TMC3    C410715   0.893   4.003  12.935  0.0998  0.4670 -0.5603
  725TMC3    C510716   0.841   3.881  12.924  0.6939 -0.5024  0.6341
  725TMC3    C610717   0.759   3.852  12.819  0.6863  0.1296 -0.2272
  725TMC3     C10718   0.889   4.248  12.884 -0.2103  0.2893  0.6765
  725TMC3     O10719   0.860   4.323  12.794 -0.0662 -1.1796 -0.2680
  725TMC3     H10720   0.726   4.164  12.684 -0.7649 -2.2281 -1.2744
  725TMC3    H110721   0.974   4.020  13.005  1.4193  0.7620 -2.1711
  725TMC3    H210722   0.727   3.748  12.812 -0.9130  0.4989  1.6367
  725TMC3    C710723   0.920   3.779  12.988  0.1329 -0.2832 -1.0202
  725TMC3    C810724   0.638   3.916  12.618  0.3866 -0.1414  1.0282
  725TMC3    O110725   0.903   3.748  13.103 -0.4060 -0.1413 -0.1987
  725TMC3    O210726   0.567   3.822  12.619  0.3921  0.6687 -0.3746
  726MPD2     C10727   3.429   4.396   9.909  0.2454  0.4822 -0.2063
  726MPD2    C110728   3.425   4.528   9.961 -0.3784  0.0910  0.3924
  726MPD2    C210729   3.327   4.562  10.059  0.6387  0.4483 -0.0089
  726MPD2    C310730   3.248   4.465  10.118 -0.3806 -0.5402 -0.6266
  726MPD2    C410731   3.254   4.342  10.059 -0.4615 -0.7813  0.5331
  726MPD2    C510732   3.337   4.310   9.960  0.0703 -0.3458 -1.0425
  726MPD2     H10733   3.320   4.665  10.094 -3.7750 -0.2763  1.3264
  726MPD2    H110734   3.186   4.265  10.093  0.3458 -2.4664 -1.6806
  726MPD2    H210735   3.498   4.355   9.836  1.4138  1.0923  0.5488
  726MPD2    H310736   3.326   4.210   9.920 -0.5248  0.3444 -2.5988
  726MPD2     N10737   3.148   4.500  10.216  0.0952  0.2586  0.0615
  726MPD2    H510738   3.075   4.435  10.243  0.5184 -0.3139 -0.1737
  726MPD2    N110739   3.514   4.624   9.909  0.4441  0.3343  0.0629
  726MPD2    H710740   3.501   4.712   9.958 -0.5226 -0.3507  1.0357
  727TMC3    C110741   3.653   0.022   9.753  0.7471  0.0100 -0.3533
  727TMC3    C210742   3.692   0.099   9.855  0.8338  0.0130 -0.3098
  727TMC3    C310743   3.672   0.235   9.843 -0.4376  0.1583 -0.5286
  727TMC3    C410744   3.607   0.070   9.637 -0.5043  0.7254 -0.3802
  727TMC3    C510745   3.589   0.206   9.633 -0.1940  0.6314  0.0835
  727TMC3    C610746   3.613   0.292   9.732 -0.1183  0.0527  0.0253
  727TMC3     C10747   3.598   4.610   9.795  0.3242  0.3580  0.8717
  727TMC3     O10748   3.605   4.519   9.716  0.1945  0.2337  0.1404
  727TMC3     H10749   3.738   0.054   9.942 -1.3300  1.7423  1.7141
  727TMC3    H110750   3.580   0.005   9.555  0.3203  1.7616 -1.4578
  727TMC3    H210751   3.608   0.400   9.725 -1.2530  0.1099  1.7825
  727TMC3    C710752   3.494   0.242   9.532  0.2254 -0.0350  0.1126
  727TMC3    C810753   3.714   0.317   9.961 -0.6314  0.0607  0.4585
  727TMC3    O110754   3.464   0.151   9.457 -0.7674 -0.1170  0.0339
  727TMC3    O210755   3.757   0.252  10.056 -0.2244 -0.2051  0.3536
  728TMC3    C110756   2.984   3.651  15.338 -0.1852 -0.2135  0.2539
  728TMC3    C210757   3.102   3.652  15.283 -0.4693 -0.4720 -0.3106
  728TMC3    C310758   3.119   3.702  15.159  0.2276 -0.0085 -0.4315
  728TMC3    C410759   2.876   3.682  15.263  0.0307 -0.6933  0.5596
  728TMC3    C510760   2.890   3.712  15.130 -0.4303 -0.7658  0.1424
  728TMC3    C610761   3.015   3.734  15.078 -0.1845 -1.6483 -0.4231
  728TMC3     C10762   2.969   3.624  15.478 -0.3373 -0.1131  0.2107
  728TMC3     O10763   3.063   3.662  15.544  0.6516  0.9881 -0.5002
  728TMC3     H10764   3.183   3.600  15.332  0.0714 -2.0618 -2.9340
  728TMC3    H110765   2.776   3.681  15.307 -0.3885 -0.5911 -0.3856
  728TMC3    H210766   3.048   3.777  14.984  2.1886  2.1938  2.1536
  728TMC3    C710767   2.770   3.760  15.059  0.6052  0.6259  0.0995
  728TMC3    C810768   3.254   3.730  15.116  0.3853 -0.1513  0.5617
  728TMC3    O110769   2.665   3.712  15.097  0.7770  0.4663 -0.4351
  728TMC3    O210770   3.336   3.643  15.143  0.0294 -0.4498  0.1407
  729MPD2     C10771   0.736   0.165  17.359  0.5572  0.2179 -0.4718
  729MPD2    C110772   0.878   0.197  17.352 -0.4734 -0.1436  0.2146
  729MPD2    C210773   0.943   0.269  17.452 -0.7077 -0.2459  0.2351
  729MPD2    C310774   0.864   0.312  17.557  0.2261 -0.2414 -0.0559
  729MPD2    C410775   0.732   0.285  17.566 -0.3399 -0.3629 -0.1911
  729MPD2    C510776   0.668   0.210  17.470  0.1219  0.1096  0.0112
  729MPD2     H10777   1.048   0.297  17.444 -0.0854 -2.1642  1.6993
  729MPD2    H110778   0.668   0.307  17.651 -1.1619 -1.3237 -0.5830
  729MPD2    H210779   0.690   0.114  17.276 -1.3286 -0.7244  1.1526
  729MPD2    H310780   0.564   0.184  17.485 -0.2550  1.6873  0.1540
  729MPD2     N10781   0.932   0.374  17.655  0.3587  0.2007  0.9736
  729MPD2    H510782   1.034   0.371  17.650  0.2439 -1.5519 -0.6088
  729MPD2    N110783   0.939   0.173  17.227 -0.2706  0.4147 -0.0852
  729MPD2    H710784   0.878   0.144  17.151  0.5442 -1.7790  0.1013
  730TMC3    C110785   0.987   0.504   0.168  0.0127 -0.3057  0.0788
  730TMC3    C210786   1.114   0.470   0.134 -0.9972 -0.7783  0.0229
  730TMC3    C310787   1.192   0.572   0.091  0.3553  0.0088  0.2390
  730TMC3    C410788   0.955   0.630   0.213  0.3630 -0.4843  0.2656
  730TMC3    C510789   1.040   0.731   0.192 -0.1530  0.2065 -0.3748
  730TMC3    C610790   1.156   0.709   0.121  0.4498  0.3618  0.1333
  730TMC3     C10791   0.883   0.441   0.091  0.4321  0.6746  0.8296
  730TMC3     O10792   0.770   0.479   0.116 -0.5890  0.4690 -0.2242
  730TMC3     H10793   1.147   0.374   0.097 -1.1307 -1.1565  0.8930
  730TMC3    H110794   0.855   0.655   0.247  0.5691 -1.8645  1.8832
  730TMC3    H210795   1.211   0.797   0.089  1.0471  0.1031  0.4501
  730TMC3    C710796   0.982   0.866   0.186  0.0602  0.1101  0.1767
  730TMC3    C810797   1.233   0.545  17.627  0.4205  0.0252 -0.7107
  730TMC3    O110798   1.048   0.957   0.228 -0.2569  0.5416  0.3914
  730TMC3    O210799   1.197   0.440  17.573  0.4128 -0.6112 -0.2273
  731MPD2     C10800   0.764   2.669  11.750  0.1634  0.9477  0.2021
  731MPD2    C110801   0.797   2.779  11.824 -0.5468 -0.4065  0.4468
  731MPD2    C210802   0.802   2.776  11.964 -0.9722 -0.0739  0.3865
  731MPD2    C310803   0.765   2.660  12.024 -0.5472 -0.2333  0.0327
  731MPD2    C410804   0.723   2.551  11.946  0.5519  0.1837  0.0135
  731MPD2    C510805   0.723   2.554  11.818  0.1888  0.2198  1.0980
  731MPD2     H10806   0.818   2.864  12.025 -2.0335 -0.0447  0.6236
  731MPD2    H110807   0.690   2.456  11.987 -1.9543  1.3938  0.7574
  731MPD2    H210808   0.772   2.678  11.643  0.2070  0.3784  0.1548
  731MPD2    H310809   0.703   2.460  11.767  2.7043 -0.0245  0.5541
  731MPD2     N10810   0.744   2.666  12.165 -0.2233 -0.2020  0.4401
  731MPD2    H510811   0.780   2.745  12.218 -0.5491  0.4410 -0.3094
  731MPD2    N110812   0.827   2.901  11.747 -0.5305  0.3695 -0.2860
  731MPD2    H710813   0.818   2.897  11.646  3.0168 -1.4683 -0.5468
  732TMC3    C110814   0.882   3.130  11.703  0.4073 -0.5856  0.0537
  732TMC3    C210815   0.764   3.139  11.627 -0.1539  0.9379  0.2278
  732TMC3    C310816   0.736   3.263  11.581 -0.3074 -0.1403  0.2309
  732TMC3    C410817   0.964   3.236  11.724  0.5621  0.2760  1.1049
  732TMC3    C510818   0.930   3.357  11.665 -0.0422 -0.4747 -0.3902
  732TMC3    C610819   0.819   3.367  11.585  0.2572 -0.4899 -0.0165
  732TMC3     C10820   0.888   3.013  11.792  0.1756 -0.2066 -0.4043
  732TMC3     O10821   0.958   3.024  11.888 -0.2969 -0.4246 -0.3408
  732TMC3     H10822   0.682   3.068  11.620  0.4134  0.1751  1.2372
  732TMC3    H110823   1.052   3.232  11.786  1.4835 -0.1503 -0.2465
  732TMC3    H210824   0.768   3.459  11.558  0.8300  0.2189  1.3439
  732TMC3    C710825   0.996   3.482  11.698  0.0974  0.1493  0.6076
  732TMC3    C810826   0.604   3.279  11.519 -0.2006 -0.4820  0.3497
  732TMC3    O110827   0.958   3.579  11.637  0.6315 -0.0046 -0.1100
  732TMC3    O210828   0.600   3.357  11.421  0.5650 -0.8569 -0.1695
  733TMC3    C110829   1.775   1.047  13.502  0.6404 -0.3832 -0.6124
  733TMC3    C210830   1.867   1.134  13.551  0.1806 -0.4822 -0.6909
  733TMC3    C310831   1.952   1.202  13.466 -0.7792  0.1481 -1.6004
  733TMC3    C410832   1.778   1.019  13.363 -0.5286 -1.2260  0.5664
  733TMC3    C510833   1.856   1.092  13.274 -0.0955  0.7251 -0.2882
  733TMC3    C610834   1.946   1.187  13.327  0.1745  0.3881 -0.4834
  733TMC3     C10835   1.638   1.082  13.533 -0.3261  0.1874 -0.0701
  733TMC3     O10836   1.602   1.196  13.504  0.2950 -0.3549 -0.5910
  733TMC3     H10837   1.863   1.166  13.655  0.6759 -2.4442 -0.0630
  733TMC3    H110838   1.682   0.987  13.324 -1.5403  2.8905 -0.3046
  733TMC3    H210839   2.027   1.217  13.262 -0.4465  1.1684 -0.8981
  733TMC3    C710840   1.788   1.123  13.149  0.4031 -0.0427 -0.0713
  733TMC3    C810841   2.029   1.312  13.524 -0.1364 -0.2501 -0.7209
  733TMC3    O110842   1.721   1.039  13.089  0.3679  0.4028 -0.1036
  733TMC3    O210843   2.032   1.329  13.646 -0.5738  0.0825  0.3656
  734MPD2     C10844   4.046   4.021  12.153 -0.1859  0.2542 -0.0953
  734MPD2    C110845   3.925   3.962  12.135  0.9792 -0.2596 -0.3185
  734MPD2    C210846   3.889   3.936  12.005 -0.1796 -0.4411 -0.6502
  734MPD2    C310847   3.957   3.983  11.897 -0.1463 -0.2180  0.2275
  734MPD2    C410848   4.074   4.056  11.922  0.4887  0.4479  0.0363
  734MPD2    C510849   4.122   4.067  12.051 -0.8767 -0.0303  0.3261
  734MPD2     H10850   3.803   3.875  11.979  0.0836 -0.1463 -2.2128
  734MPD2    H110851   4.138   4.094  11.843 -0.0657 -3.0536 -2.1181
  734MPD2    H210852   4.072   4.046  12.255  0.5700 -1.1617  0.0571
  734MPD2    H310853   4.221   4.106  12.075 -0.5670 -0.1732 -0.7528
  734MPD2     N10854   3.899   3.966  11.771 -0.1390  0.1190  0.5676
  734MPD2    H510855   3.810   3.917  11.763 -0.2408  0.1544  1.5271
  734MPD2    N110856   3.842   3.939  12.242  0.0318  0.1337 -0.2785
  734MPD2    H710857   3.884   3.919  12.332 -0.2098  0.0976 -0.1728
  735TMC3    C110858   3.639   3.847  12.328  0.1972 -0.6743 -0.0769
  735TMC3    C210859   3.502   3.858  12.326 -0.4621 -0.5302 -0.0150
  735TMC3    C310860   3.425   3.741  12.321  0.2631  0.2934 -0.4240
  735TMC3    C410861   3.692   3.722  12.335 -0.1876  0.2768  0.5027
  735TMC3    C510862   3.611   3.614  12.369 -0.4671 -0.4349  0.0283
  735TMC3    C610863   3.473   3.619  12.348 -0.3349  0.2713  0.2165
  735TMC3     C10864   3.705   3.910  12.218 -0.2258  0.0253  0.2831
  735TMC3     O10865   3.632   3.942  12.127  0.2915 -0.5322 -0.5074
  735TMC3     H10866   3.458   3.948  12.285  3.1876  0.5299 -1.6444
  735TMC3    H110867   3.795   3.700  12.312 -0.4095 -0.8941  0.6253
  735TMC3    H210868   3.403   3.536  12.351 -1.7317  1.4949  1.2255
  735TMC3    C710869   3.675   3.490  12.322  0.0332 -0.0363 -0.4059
  735TMC3    C810870   3.322   3.741  12.215  0.3123  0.1380  0.3322
  735TMC3    O110871   3.752   3.505  12.229 -0.2727  0.4552  0.3241
  735TMC3    O210872   3.233   3.659  12.211  0.8064 -0.0022  0.3094
  736MPD2     C10873   3.595   3.148  12.437 -0.0263 -0.5434  0.5766
  736MPD2    C110874   3.652   3.246  12.354 -0.5894  0.0391 -0.7142
  736MPD2    C210875   3.732   3.203  12.247  0.4975  0.3268  0.8663
  736MPD2    C310876   3.743   3.068  12.223 -0.1889  1.0385 -0.5424
  736MPD2    C410877   3.673   2.977  12.297  0.1373 -0.2440  0.1433
  736MPD2    C510878   3.590   3.017  12.398 -0.1397  0.3410  0.5663
  736MPD2     H10879   3.777   3.275  12.180  1.9241 -2.0956 -0.7902
  736MPD2    H110880   3.669   2.874  12.264  1.0876 -0.0860 -0.4700
  736MPD2    H210881   3.534   3.180  12.521  1.9824 -1.5616  2.4270
  736MPD2    H310882   3.542   2.942  12.461  0.6912 -0.6428  0.0259
  736MPD2     N10883   3.815   3.031  12.102  0.3926 -0.1922 -0.2423
  736MPD2    H510884   3.855   3.105  12.044 -0.2852  0.9957  0.8041
  736MPD2    N110885   3.627   3.381  12.387  0.2930  0.9643 -0.5239
  736MPD2    H710886   3.554   3.395  12.456  0.9559  0.2109  0.3319
  737TMC3    C110887   3.919   2.906  11.934  0.3175 -0.4344 -0.0812
  737TMC3    C210888   3.879   2.996  11.841 -0.0621  0.5891  0.5603
  737TMC3    C310889   3.887   2.974  11.706 -0.7649  0.5617  0.6067
  737TMC3    C410890   3.987   2.789  11.897 -0.0935  0.0509  0.1808
  737TMC3    C510891   3.998   2.772  11.763  0.3390  0.1359  0.2118
  737TMC3    C610892   3.949   2.855  11.660 -0.1115 -0.3916  0.0772
  737TMC3     C10893   3.861   2.901  12.069  0.9754 -0.3531  0.3699
  737TMC3     O10894   3.836   2.795  12.126 -0.2465 -0.5574 -0.3758
  737TMC3     H10895   3.822   3.082  11.876 -0.0484 -0.0342  2.1195
  737TMC3    H110896   4.030   2.724  11.973  1.0563  1.1376  0.4721
  737TMC3    H210897   3.972   2.835  11.556 -0.0244  0.2124 -0.0232
  737TMC3    C710898   4.086   2.661  11.739  0.0324  0.0030  0.4836
  737TMC3    C810899   3.823   3.070  11.614  0.4907 -0.0539 -0.0448
  737TMC3    O110900   4.116   2.590  11.835  0.3117  0.1592 -0.2138
  737TMC3    O210901   3.752   3.156  11.662 -0.2101 -0.0325 -0.4786
  738MPD2     C10902   4.180   1.997  15.480 -0.2892 -1.0498 -0.4225
  738MPD2    C110903   4.146   2.025  15.349 -0.2040 -0.4450  1.0768
  738MPD2    C210904   4.219   2.128  15.289 -0.3029 -0.2682 -1.0373
  738MPD2    C310905   4.326   2.188  15.354 -0.6380 -0.1118  1.1226
  738MPD2    C410906   4.342   2.171  15.490 -0.3141  0.1515 -0.9256
  738MPD2    C510907   4.264   2.077  15.554 -0.1316  0.5259  0.7552
  738MPD2     H10908   4.187   2.157  15.189 -1.1049 -1.3563 -1.0986
  738MPD2    H110909   4.410   2.230  15.550  0.6492 -0.2791 -1.5952
  738MPD2    H210910   4.114   1.928  15.531 -0.6685 -1.0148 -0.8643
  738MPD2    H310911   4.277   2.066  15.661  2.0279  1.2917  0.5697
  738MPD2     N10912   4.405   2.291  15.293 -0.2927  0.0531 -0.5680
  738MPD2    H510913   4.478   2.335  15.348  0.7638 -0.6677 -1.3868
  738MPD2    N110914   4.046   1.954  15.270  0.0782 -0.1421  0.1365
  738MPD2    H710915   4.042   1.986  15.174  0.8077 -1.7502 -0.4354
  739TMC3    C110916   4.489   2.445  15.131 -0.5104 -0.0342  0.1119
  739TMC3    C210917   4.563   2.449  15.016  0.0305  0.1029  0.2534
  739TMC3    C310918   4.621   2.561  14.970 -0.5423  0.2930 -0.5707
  739TMC3    C410919   4.489   2.547  15.219 -0.3701 -0.8943  0.5015
  739TMC3    C510920   4.547   2.661  15.171 -0.0575 -0.3904  0.3789
  739TMC3    C610921   4.605   2.673  15.045  0.1170 -0.0111 -0.1042
  739TMC3     C10922   4.410   2.325  15.159 -0.4080  0.1007  0.3922
  739TMC3     O10923   4.356   2.271  15.063 -0.2465  0.4363  0.2015
  739TMC3     H10924   4.572   2.357  14.961 -0.5311  0.6666 -0.7925
  739TMC3    H110925   4.428   2.544  15.308 -3.6542  1.3309 -1.7025
  739TMC3    H210926   4.657   2.765  15.020 -0.9351  0.4585 -0.5560
  739TMC3    C710927   4.548   2.782  15.263 -0.2998 -0.4687 -0.6236
  739TMC3    C810928   4.666   2.566  14.832  0.1947  0.0054 -0.6360
  739TMC3    O110929   4.580   2.892  15.220  0.5019  0.1748 -0.3164
  739TMC3    O210930   4.634   2.469  14.762 -0.0054 -0.1893  0.7338
  740TMC3    C110931   0.542   3.777  14.184  0.5230  0.1699  0.8140
  740TMC3    C210932   0.625   3.706  14.263  0.3929  0.9232 -0.1065
  740TMC3    C310933   0.746   3.671  14.207  0.2857  0.1871 -0.4680
  740TMC3    C410934   0.583   3.823  14.061 -0.2585 -1.0455 -0.5749
  740TMC3    C510935   0.708   3.795  14.010 -0.0706  0.1486 -0.5229
  740TMC3    C610936   0.793   3.716  14.083 -0.0622 -0.4643  0.6398
  740TMC3     C10937   0.404   3.804  14.233 -0.3519 -0.8482  0.0902
  740TMC3     O10938   0.326   3.859  14.155  0.7370 -0.0986 -0.0570
  740TMC3     H10939   0.602   3.678  14.365 -0.0085 -1.5629 -0.8723
  740TMC3    H110940   0.509   3.876  14.003 -0.3523 -0.9587 -0.3761
  740TMC3    H210941   0.883   3.677  14.036  0.8316 -1.4026  3.1242
  740TMC3    C710942   0.729   3.786  13.866 -1.1784 -0.7494  0.6387
  740TMC3    C810943   0.842   3.594  14.285  0.1934  0.2729  0.3513
  740TMC3    O110944   0.795   3.690  13.834 -0.0994  0.1451  0.2869
  740TMC3    O210945   0.956   3.600  14.242  0.1400  0.0759  0.0657
  741TMC3    C110946   0.113   3.061  14.430 -0.3917  0.6902  0.8408
  741TMC3    C210947   0.007   3.026  14.355 -0.5562  0.1354 -0.6591
  741TMC3    C310948   4.612   3.013  14.422  0.1705 -0.4807 -0.5857
  741TMC3    C410949   0.112   3.088  14.568  0.6719  0.3144  0.3858
  741TMC3    C510950   4.708   3.075  14.635 -0.2122  1.0201  0.5882
  741TMC3    C610951   4.598   3.033  14.561 -0.1183 -0.0991 -0.4816
  741TMC3     C10952   0.243   3.080  14.365  0.6860 -0.5259 -0.4511
  741TMC3     O10953   0.341   3.110  14.424 -0.6502 -0.3471 -0.2614
  741TMC3     H10954   0.021   2.970  14.264  0.9062 -0.3690 -0.1224
  741TMC3    H110955   0.206   3.108  14.619  0.4629  1.1647  0.4433
  741TMC3    H210956   4.504   3.020  14.614 -0.0331  1.1613 -0.0157
  741TMC3    C710957   4.707   3.058  14.772 -0.5723  0.2109 -0.2557
  741TMC3    C810958   4.499   2.943  14.353  0.9904  1.1103 -0.2072
  741TMC3    O110959   4.627   2.982  14.830  0.0605  0.3531 -0.1279
  741TMC3    O210960   4.511   2.933  14.232  0.5525  0.3314 -0.1551
  742TMC3    C110961   0.115   1.488  15.209 -0.6621  0.5699 -0.5441
  742TMC3    C210962   0.044   1.555  15.119  0.0098  0.3125 -0.2414
  742TMC3    C310963   0.097   1.552  14.995  1.2929  0.0892  0.5746
  742TMC3    C410964   0.230   1.420  15.175  0.1880  0.4390  0.4111
  742TMC3    C510965   0.285   1.448  15.049  0.1311  0.3181 -0.1500
  742TMC3    C610966   0.210   1.491  14.949 -0.6293  0.0909  0.5194
  742TMC3     C10967   0.067   1.493  15.347  0.1417 -0.1597  0.0036
  742TMC3     O10968   4.671   1.541  15.358 -0.7724  0.1120  0.1132
  742TMC3     H10969   4.695   1.636  15.144 -2.3134 -1.7560  0.3033
  742TMC3    H110970   0.277   1.344  15.236  1.1286  0.7960  0.1212
  742TMC3    H210971   0.252   1.493  14.849 -3.8010 -2.2011 -0.8781
  742TMC3    C710972   0.426   1.424  15.018  0.6719 -0.4726 -0.1819
  742TMC3    C810973   0.021   1.626  14.899 -0.7669 -0.9032  0.2802
  742TMC3    O110974   0.462   1.418  14.898  0.5369  0.0856  0.1064
  742TMC3    O210975   4.626   1.652  14.927  0.3780 -0.1889 -0.3332
  743MPD2     C10976   1.551   2.917   1.480 -0.3546  0.5131 -0.9275
  743MPD2    C110977   1.610   2.801   1.440 -0.1041  0.0284 -0.3343
  743MPD2    C210978   1.719   2.752   1.517  0.0776  0.2170 -0.2571
  743MPD2    C310979   1.763   2.815   1.632 -0.6017 -0.1471 -0.5021
  743MPD2    C410980   1.695   2.931   1.674 -0.0073  0.4289  0.9096
  743MPD2    C510981   1.598   2.983   1.591 -0.1282  0.2686 -0.1562
  743MPD2     H10982   1.772   2.661   1.492 -0.1500 -0.4167  1.5788
  743MPD2    H110983   1.738   2.992   1.753  0.5829  0.7160  0.3575
  743MPD2    H210984   1.466   2.953   1.425 -0.5601  0.8715 -0.3782
  743MPD2    H310985   1.544   3.074   1.615  0.6362  0.7237 -0.1600
  743MPD2     N10986   1.868   2.759   1.708 -0.0477 -0.2140 -0.5380
  743MPD2    H510987   1.915   2.675   1.675 -1.3069 -0.5015 -1.5929
  743MPD2    N110988   1.567   2.744   1.321 -0.3363 -0.0955  0.2382
  743MPD2    H710989   1.497   2.796   1.269  0.5543 -0.3814 -1.2614
  744TMC3    C110990   1.561   2.616   1.113 -0.7020  0.2757 -0.2128
  744TMC3    C210991   1.435   2.662   1.085  0.6048 -0.0331  0.0861
  744TMC3    C310992   1.393   2.667   0.950  0.7878  0.2338  0.5962
  744TMC3    C410993   1.635   2.569   1.005 -0.1233 -0.1121 -0.2081
  744TMC3    C510994   1.587   2.573   0.879 -0.1180 -0.6419 -0.0741
  744TMC3    C610995   1.463   2.622   0.850 -0.0839  0.0310 -0.1182
  744TMC3     C10996   1.628   2.642   1.245 -0.3242 -0.5252  0.0230
  744TMC3     O10997   1.732   2.580   1.263  0.2005 -0.2079 -0.0115
  744TMC3     H10998   1.368   2.688   1.166 -0.2074 -1.5838 -0.0825
  744TMC3    H110999   1.727   2.517   1.024 -0.7579 -0.8311  0.8689
  744TMC3    H211000   1.427   2.636   0.748 -2.1268  2.7526  0.9672
  744TMC3    C711001   1.691   2.567   0.773 -0.9522 -0.6069 -0.1386
  744TMC3    C811002   1.290   2.750   0.922  0.4044 -0.0175 -0.0187
  744TMC3    O111003   1.803   2.546   0.822  0.0559 -0.3638  0.6099
  744TMC3    O211004   1.288   2.817   0.820 -0.0882 -0.5134 -0.1879
  745TMC3    C111005   0.436   1.094  13.624  0.5918  0.7516 -0.9005
  745TMC3    C211006   0.325   1.111  13.707 -0.0028 -0.4500 -0.2029
  745TMC3    C311007   0.197   1.118  13.654 -0.3894 -1.0493  0.3120
  745TMC3    C411008   0.427   1.106  13.488  0.2678 -0.3031 -0.4608
  745TMC3    C511009   0.300   1.108  13.440  0.0716  1.5955 -0.1649
  745TMC3    C611010   0.189   1.114  13.519  0.5378 -0.5140  0.6392
  745TMC3     C11011   0.559   1.145  13.689  0.2415  1.2549 -0.6492
  745TMC3     O11012   0.591   1.111  13.802  0.4145  0.2985 -0.7098
  745TMC3     H11013   0.350   1.130  13.810  0.5121 -0.9759 -0.2263
  745TMC3    H111014   0.515   1.084  13.429  0.7262  0.8567 -0.2205
  745TMC3    H211015   0.094   1.135  13.470  0.3387 -4.7055 -0.7495
  745TMC3    C711016   0.284   1.151  13.300 -0.1066 -0.4573  0.9064
  745TMC3    C811017   0.097   1.180  13.739 -0.3349  0.3165  0.1884
  745TMC3    O111018   0.175   1.200  13.267 -0.4817 -0.1675 -0.3083
  745TMC3    O211019   4.695   1.173  13.714 -0.8779 -0.2380  0.4207
  746TMC3    C111020   2.091   2.906  11.094  0.9306  0.4802  0.4530
  746TMC3    C211021   2.074   2.852  10.974 -0.2813 -0.1199 -0.5531
  746TMC3    C311022   2.064   2.719  10.969  0.1060 -0.1557  0.5436
  746TMC3    C411023   2.088   2.837  11.212 -0.0841  0.3941 -0.0260
  746TMC3    C511024   2.071   2.703  11.203 -1.0298  0.3437 -0.2721
  746TMC3    C611025   2.051   2.639  11.080  0.9405 -0.5117  0.0391
  746TMC3     C11026   2.077   3.048  11.115  0.6767  0.2633  0.0314
  746TMC3     O11027   2.013   3.085  11.217 -0.5190 -0.4433  0.1521
  746TMC3     H11028   2.050   2.913  10.888  2.7123 -0.0217 -1.3034
  746TMC3    H111029   2.118   2.884  11.306 -1.7623 -0.6255  1.0182
  746TMC3    H211030   2.059   2.533  11.060  1.9028 -0.7055  1.4990
  746TMC3    C711031   2.014   2.642  11.327 -0.4871 -0.6199  0.0854
  746TMC3    C811032   2.052   2.652  10.842  0.5840 -0.2805 -0.0585
  746TMC3    O111033   2.039   2.701  11.431 -0.1175  0.1812 -0.0475
  746TMC3    O211034   1.963   2.571  10.823  0.2405 -0.4443 -0.1919
  747TMC3    C111035   4.596   2.481  10.837 -0.3337  0.6139  0.5038
  747TMC3    C211036   4.566   2.404  10.949  0.4921 -0.1444 -0.3941
  747TMC3    C311037   4.537   2.474  11.069  0.2832  0.4352  0.3418
  747TMC3    C411038   4.611   2.622  10.846  0.0503 -0.2734  0.1837
  747TMC3    C511039   4.597   2.678  10.966 -0.2085 -0.2609 -0.5020
  747TMC3    C611040   4.552   2.612  11.080  0.4797 -0.3635 -0.3374
  747TMC3     C11041   4.587   2.416  10.707  0.5853  0.0464  0.1688
  747TMC3     O11042   4.523   2.316  10.710 -0.0452  0.2653 -0.4391
  747TMC3     H11043   4.547   2.297  10.942  0.6463 -0.1454 -0.7909
  747TMC3    H111044   4.608   2.685  10.759 -0.8526 -1.2059 -0.4604
  747TMC3    H211045   4.519   2.675  11.162  0.5661  0.5488 -0.9994
  747TMC3    C711046   4.611   2.822  10.982  0.8616 -0.4794 -0.2907
  747TMC3    C811047   4.502   2.407  11.191 -0.3364  0.2060  0.5149
  747TMC3    O111048   4.533   2.879  11.060 -0.1943 -0.1604  0.4179
  747TMC3    O211049   4.541   2.293  11.215  0.0240  0.1036 -0.1840
  748MPD2     C11050   1.286   4.108   1.884 -0.0922 -1.1540  0.7748
  748MPD2    C111051   1.293   3.969   1.859  0.2109  0.0979 -0.7320
  748MPD2    C211052   1.346   3.929   1.739 -0.2593  0.1858  0.7026
  748MPD2    C311053   1.391   4.020   1.646  0.1469 -0.7473  0.1995
  748MPD2    C411054   1.368   4.160   1.661  0.1520 -0.2232 -0.3118
  748MPD2    C511055   1.318   4.194   1.785 -0.1146 -0.3733  0.3752
  748MPD2     H11056   1.363   3.824   1.717 -0.7238  0.3519 -0.5108
  748MPD2    H111057   1.379   4.228   1.578  0.1465 -0.0144 -0.1426
  748MPD2    H211058   1.246   4.158   1.972  1.4234  0.7879  0.3561
  748MPD2    H311059   1.306   4.300   1.805  1.9408  0.4458 -2.5130
  748MPD2     N11060   1.442   3.974   1.524  0.3202  0.0503 -0.2428
  748MPD2    H511061   1.448   3.873   1.515 -1.0973 -0.3691  3.2628
  748MPD2    N111062   1.253   3.876   1.958  0.3861 -0.2728  0.9789
  748MPD2    H711063   1.250   3.910   2.054 -0.9484  2.0182  0.1201
  749TMC3    C111064   1.560   3.961   1.309  1.0600 -0.1546  0.1745
  749TMC3    C211065   1.572   3.829   1.315 -0.4691  0.1120 -0.3291
  749TMC3    C311066   1.673   3.761   1.253 -0.5723  0.3725 -0.1224
  749TMC3    C411067   1.644   4.034   1.223  0.4613  0.0901  0.2605
  749TMC3    C511068   1.743   3.961   1.151  1.2051 -0.3577 -0.6115
  749TMC3    C611069   1.750   3.825   1.162 -0.3889  0.2990 -0.1957
  749TMC3     C11070   1.494   4.046   1.417  0.4293 -0.0378  0.9510
  749TMC3     O11071   1.503   4.166   1.404  0.2113  0.2806  0.1400
  749TMC3     H11072   1.504   3.766   1.372 -0.4794  0.4570  0.0369
  749TMC3    H111073   1.640   4.142   1.216  1.5308  0.2738  2.6399
  749TMC3    H211074   1.837   3.777   1.117  0.3427  0.5149  0.9714
  749TMC3    C711075   1.812   4.038   1.046  0.4932 -0.1555  0.2308
  749TMC3    C811076   1.671   3.618   1.253 -0.3484 -0.4293 -0.4184
  749TMC3    O111077   1.783   4.158   1.038 -0.7853 -0.3181  0.5191
  749TMC3    O211078   1.574   3.552   1.293 -0.4286  0.2010  0.0682
  750MPD2     C11079   2.520   0.325  11.181 -0.7543 -0.0691 -0.0381
  750MPD2    C111080   2.378   0.306  11.199  1.1822 -0.3122  0.0196
  750MPD2    C211081   2.325   0.175  11.173 -0.5284 -0.2987 -0.4092
  750MPD2    C311082   2.398   0.087  11.097 -0.2456 -0.0705 -0.6075
  750MPD2    C411083   2.531   0.112  11.082  0.3476  0.4320  0.5489
  750MPD2    C511084   2.591   0.221  11.135 -0.3706 -0.5102  0.1844
  750MPD2     H11085   2.221   0.154  11.194 -0.2423 -0.2641  1.0192
  750MPD2    H111086   2.595   0.035  11.041 -0.1251  0.6137 -0.5330
  750MPD2    H211087   2.575   0.412  11.213 -0.3568  0.3504 -1.8460
  750MPD2    H311088   2.700   0.220  11.141 -0.3108  0.3105 -0.6932
  750MPD2     N11089   2.339   4.694  11.043 -0.2168  0.0042  0.0652
  750MPD2    H511090   2.402   4.635  10.989  1.1505 -0.2732  1.9688
  750MPD2    N111091   2.305   0.412  11.259 -0.0570 -0.2816  0.1934
  750MPD2    H711092   2.355   0.499  11.273 -1.0169  0.3468 -0.2265
  751TMC3    C111093   2.194   4.522  10.986 -0.0210 -0.3619 -0.0673
  751TMC3    C211094   2.061   4.475  10.979  0.4507  0.0621 -0.3042
  751TMC3    C311095   2.035   4.341  10.955 -0.2070 -0.4323 -0.0277
  751TMC3    C411096   2.300   4.436  10.975 -0.8981 -0.0881  0.3459
  751TMC3    C511097   2.269   4.304  10.956  0.4167  0.0524 -0.9300
  751TMC3    C611098   2.138   4.255  10.939  0.9249 -0.3378 -0.2682
  751TMC3     C11099   2.211   4.653  11.053 -0.4865  0.3906  0.0162
  751TMC3     O11100   2.109   4.708  11.089 -0.0399  0.2938 -0.3556
  751TMC3     H11101   1.976   4.542  10.969  0.0897  0.1635  3.2275
  751TMC3    H111102   2.402   4.455  11.005 -0.6642 -0.8394  0.0153
  751TMC3    H211103   2.113   4.160  10.893 -0.0525 -0.1146 -0.2021
  751TMC3    C711104   2.367   4.206  10.937  0.3961 -0.0693  0.1267
  751TMC3    C811105   1.905   4.277  10.984  0.3276 -0.3117  0.1176
  751TMC3    O111106   2.476   4.249  10.891  0.3877  0.3872 -0.1786
  751TMC3    O211107   1.880   4.169  10.927 -0.8198  0.6206  0.2651
  752TMC3    C111108   1.990   0.616  17.317 -0.7212 -0.5879  0.3154
  752TMC3    C211109   2.106   0.631  17.388 -0.3305 -0.1808  0.8741
  752TMC3    C311110   2.149   0.759  17.413  0.3091  0.2886 -1.1535
  752TMC3    C411111   1.929   0.725  17.255  0.3183  0.2393  0.0809
  752TMC3    C511112   1.968   0.850  17.293  0.3102  0.4642  0.4008
  752TMC3    C611113   2.081   0.872  17.370  0.1475  0.5623  0.3978
  752TMC3     C11114   1.968   0.491  17.244 -0.6037  0.4848  0.2161
  752TMC3     O11115   2.056   0.408  17.241 -0.8327 -0.4253  0.6035
  752TMC3     H11116   2.156   0.543  17.427 -0.4657  0.3584  2.2307
  752TMC3    H111117   1.862   0.707  17.172  0.5268 -1.8945  0.3875
  752TMC3    H211118   2.121   0.972  17.378  2.4174 -0.1390 -2.3549
  752TMC3    C711119   1.916   0.963  17.208  0.4091  0.3596 -0.1391
  752TMC3    C811120   2.280   0.775  17.476  0.0285 -0.7328  0.4432
  752TMC3    O111121   1.859   0.928  17.105  0.7048 -0.4449  0.1155
  752TMC3    O211122   2.350   0.675  17.486  0.4676  0.7457  0.2270
  753TMC3    C111123   3.252   0.972  13.424  0.3156 -0.8169 -0.3715
  753TMC3    C211124   3.329   0.980  13.538 -0.8141  0.9694 -0.1977
  753TMC3    C311125   3.306   0.876  13.632  0.2905  0.5584  0.2150
  753TMC3    C411126   3.165   0.867  13.402  0.1008  0.1387  0.4784
  753TMC3    C511127   3.157   0.763  13.489 -0.2314 -0.0519  0.3064
  753TMC3    C611128   3.226   0.771  13.607  0.2939  0.7006 -0.5561
  753TMC3     C11129   3.261   1.076  13.326 -0.2579 -0.0783  0.5114
  753TMC3     O11130   3.355   1.153  13.327  0.3739 -0.6489  0.0573
  753TMC3     H11131   3.412   1.049  13.551 -0.7217  1.0995 -1.5131
  753TMC3    H111132   3.116   0.858  13.305 -2.2240  0.8232  1.5999
  753TMC3    H211133   3.224   0.700  13.689 -1.3128  2.0682  0.6111
  753TMC3    C711134   3.051   0.660  13.476 -0.5746 -0.1121 -0.3536
  753TMC3    C811135   3.390   0.880  13.751 -0.4631 -0.3302 -0.1306
  753TMC3    O111136   3.068   0.551  13.527 -0.3929  0.4432  0.6161
  753TMC3    O211137   3.440   0.779  13.797 -0.4631 -0.1020  0.2603
  754MPD2     C11138   1.510   0.395  13.360 -0.0623  0.3377 -0.7776
  754MPD2    C111139   1.467   0.273  13.315 -0.7877 -0.3966 -0.3004
  754MPD2    C211140   1.385   0.266  13.203 -0.1009  0.3895  0.0381
  754MPD2    C311141   1.322   0.377  13.149  0.5524  0.3678 -0.2289
  754MPD2    C411142   1.369   0.502  13.188  1.7799 -0.5692  0.4144
  754MPD2    C511143   1.465   0.501  13.285 -0.2579  0.4640 -0.2784
  754MPD2     H11144   1.366   0.167  13.164  1.8596  0.4543 -1.0955
  754MPD2    H111145   1.332   0.594  13.145  0.2371 -1.7114 -0.6810
  754MPD2    H211146   1.570   0.415  13.448  0.6329  0.1806 -1.2224
  754MPD2    H311147   1.505   0.597  13.314 -0.3495  0.1037  1.0453
  754MPD2     N11148   1.221   0.356  13.051 -0.2986 -0.1100 -0.2413
  754MPD2    H511149   1.217   0.260  13.016 -1.2753  0.0651 -0.6339
  754MPD2    N111150   1.505   0.156  13.385 -0.2584  0.0304 -0.2262
  754MPD2    H711151   1.560   0.165  13.470  0.0111 -0.3880 -0.3519
  755MPD2     C11152   0.365   0.135  13.329  0.0821 -0.3183 -0.3622
  755MPD2    C111153   0.485   0.196  13.357  0.1531 -0.4152  0.3030
  755MPD2    C211154   0.550   0.260  13.255 -0.2655  0.4442 -0.0130
  755MPD2    C311155   0.513   0.262  13.123  0.5383  0.2219  0.1099
  755MPD2    C411156   0.391   0.207  13.101  0.5411 -0.0875 -0.2389
  755MPD2    C511157   0.317   0.150  13.199  0.5686  0.0588  0.2524
  755MPD2     H11158   0.644   0.310  13.277 -0.7247  0.6630  1.4175
  755MPD2    H111159   0.352   0.196  13.000 -1.2068 -0.1361  0.4397
  755MPD2    H211160   0.303   0.097  13.409  2.5559 -1.3544  1.0695
  755MPD2    H311161   0.214   0.126  13.176  1.0933  0.1192 -2.1787
  755MPD2     N11162   0.593   0.313  13.017  0.1817 -0.2110 -0.0092
  755MPD2    H511163   0.564   0.276  12.927 -0.4563 -0.3379  0.2513
  755MPD2    N111164   0.540   0.212  13.494  0.6246 -0.6667 -0.4390
  755MPD2    H711165   0.623   0.268  13.511 -0.6542  1.2719 -0.6350
  756MPD2     C11166   2.655   0.519   9.051  0.0852 -0.4098  0.2534
  756MPD2    C111167   2.568   0.516   9.155  0.3431 -0.2496  0.7653
  756MPD2    C211168   2.445   0.459   9.134  0.2577 -0.5057 -0.7198
  756MPD2    C311169   2.421   0.392   9.013  0.7454  0.4024 -0.0045
  756MPD2    C411170   2.508   0.409   8.907  0.5644 -0.2465 -0.6061
  756MPD2    C511171   2.631   0.469   8.926 -0.4961 -0.1138 -0.2615
  756MPD2     H11172   2.371   0.474   9.212  0.3965 -1.3923 -0.4263
  756MPD2    H111173   2.493   0.364   8.810 -1.2995 -0.3630 -0.2574
  756MPD2    H211174   2.752   0.566   9.062  0.4466 -1.2323  0.6144
  756MPD2    H311175   2.708   0.474   8.849  2.1231 -2.3876  2.2490
  756MPD2     N11176   2.302   0.317   9.002 -0.2218 -0.2340  0.4513
  756MPD2    H511177   2.237   0.328   9.079  0.7307  0.8641  1.0844
  756MPD2    N111178   2.596   0.559   9.287 -0.5792 -0.7727  0.5661
  756MPD2    H711179   2.536   0.522   9.360 -2.5202  2.5474  0.6633
  757MPD2     C11180   1.993   3.998   9.015  0.5671  1.0115 -0.8668
  757MPD2    C111181   1.965   4.071   9.131  0.3025  0.0467 -0.3224
  757MPD2    C211182   1.975   4.208   9.127 -0.2876 -0.0570 -0.3075
  757MPD2    C311183   2.003   4.280   9.008  0.9242 -0.0078 -0.6421
  757MPD2    C411184   2.027   4.206   8.898 -0.1201  0.7097 -0.3566
  757MPD2    C511185   2.033   4.069   8.902  0.3159  0.0694  0.5543
  757MPD2     H11186   1.958   4.262   9.219  3.5509  0.5181  0.0566
  757MPD2    H111187   2.039   4.256   8.803  1.2947 -1.7339 -1.4637
  757MPD2    H211188   1.975   3.892   9.008 -1.6943  1.3830 -0.5712
  757MPD2    H311189   2.059   4.015   8.812 -0.6955  1.2967 -0.4813
  757MPD2     N11190   2.005   4.421   9.022 -0.1182  0.0102 -0.3855
  757MPD2    H511191   1.959   4.465   9.101  2.6037  1.4748  0.3748
  757MPD2    N111192   1.941   3.991   9.246  0.1806 -0.3908  0.5604
  757MPD2    H711193   1.925   3.893   9.227  1.8973 -0.3392 -1.1034
  758MPD2     C11194   2.108   4.214  16.130  0.9368  0.5746 -0.3516
  758MPD2    C111195   2.161   4.138  16.225 -0.6473  0.8097  0.3764
  758MPD2    C211196   2.123   4.154  16.357 -0.2983  0.5517  0.2948
  758MPD2    C311197   2.039   4.253  16.397 -0.0858  0.4090 -0.4076
  758MPD2    C411198   1.996   4.347  16.302 -0.4155 -0.2680 -0.0761
  758MPD2    C511199   2.026   4.324  16.171  0.7764  0.3309 -0.0858
  758MPD2     H11200   2.156   4.074  16.422  0.5702  1.1709  0.6172
  758MPD2    H111201   1.930   4.431  16.326  0.4930  0.4259 -0.0116
  758MPD2    H211202   2.131   4.208  16.024  0.9283 -2.3741 -0.1733
  758MPD2    H311203   1.993   4.398  16.099  2.0343 -0.5579 -1.5665
  758MPD2     N11204   2.010   4.272  16.532 -0.7792 -0.7971  0.0716
  758MPD2    H511205   1.955   4.353  16.557  1.3383  0.0852  1.9248
  758MPD2    N111206   2.259   4.048  16.177 -0.6064  0.3895  0.3454
  758MPD2    H711207   2.272   4.043  16.077  0.9734 -1.4847  0.6350
  759MPD2     C11208   0.199   2.221   9.602  0.6183  0.5819 -0.0350
  759MPD2    C111209   0.308   2.177   9.669 -0.7523 -0.2313 -0.7993
  759MPD2    C211210   0.430   2.204   9.611 -0.7300  0.0712  0.2093
  759MPD2    C311211   0.453   2.259   9.483  0.3280 -0.4206 -0.9368
  759MPD2    C411212   0.340   2.305   9.419  0.1478  0.8902  0.3313
  759MPD2    C511213   0.211   2.287   9.477 -0.4222  1.0000 -0.0259
  759MPD2     H11214   0.518   2.174   9.666  0.7773  1.3654 -1.4772
  759MPD2    H111215   0.343   2.357   9.324  0.1875  0.3493  0.0354
  759MPD2    H211216   0.097   2.199   9.633  1.1749 -0.5350  1.0083
  759MPD2    H311217   0.120   2.320   9.427  0.7448 -0.9732 -3.4976
  759MPD2     N11218   0.585   2.282   9.442 -0.2215  0.8001 -0.0353
  759MPD2    H511219   0.665   2.259   9.501 -0.7332  2.7077  1.3755
  759MPD2    N111220   0.300   2.106   9.789 -0.3876 -0.5212 -0.1652
  759MPD2    H711221   0.387   2.085   9.837 -0.5615 -2.1243 -0.5562
  760MPD2     C11222   0.463   0.260  11.784 -0.2234 -0.1381 -0.4538
  760MPD2    C111223   0.597   0.239  11.732  0.0207  0.1111 -0.0188
  760MPD2    C211224   0.649   0.113  11.752 -0.2566  0.1414  0.0673
  760MPD2    C311225   0.580   0.013  11.823 -0.0998  0.4971 -0.0472
  760MPD2    C411226   0.448   0.033  11.859 -0.0884  0.4802 -0.0144
  760MPD2    C511227   0.397   0.158  11.843 -0.6518 -0.0908  0.4030
  760MPD2     H11228   0.749   0.099  11.713 -0.7700 -1.0256 -0.8456
  760MPD2    H111229   0.392   4.670  11.905 -1.0579  0.7097 -0.7924
  760MPD2    H211230   0.416   0.356  11.769  0.0925  0.2109  0.8422
  760MPD2    H311231   0.290   0.171  11.858 -0.9471 -0.6285 -1.2170
  760MPD2     N11232   0.637   4.610  11.862 -0.0926 -0.1452 -0.0318
  760MPD2    H511233   0.568   4.539  11.882  0.5001 -0.1275  2.1049
  760MPD2    N111234   0.674   0.325  11.649 -0.7440  0.0020 -0.4550
  760MPD2    H711235   0.759   0.299  11.601  0.0451 -1.0440  1.5118
  761MPD2     C11236   1.447   4.282  11.185  0.5017  0.2360  0.1011
  761MPD2    C111237   1.524   4.179  11.137  0.2900  0.2267 -0.0903
  761MPD2    C211238   1.650   4.214  11.095 -0.1959  0.2350 -0.0084
  761MPD2    C311239   1.700   4.343  11.091  0.2824 -0.0098 -0.1857
  761MPD2    C411240   1.625   4.450  11.132 -0.1265 -0.1409  0.5110
  761MPD2    C511241   1.501   4.410  11.177  0.1780 -0.1583  0.0456
  761MPD2     H11242   1.717   4.130  11.074  2.2900  2.1870  0.0760
  761MPD2    H111243   1.656   4.553  11.119 -0.7929 -0.1620 -1.2813
  761MPD2    H211244   1.345   4.264  11.218  0.1751  0.9347 -0.5245
  761MPD2    H311245   1.441   4.493  11.212  2.6544  2.6851 -2.4215
  761MPD2     N11246   1.826   4.376  11.039  0.1193  0.4852  0.0956
  761MPD2    H511247   1.863   4.471  11.044  0.6155  0.3264 -0.6053
  761MPD2    N111248   1.459   4.052  11.118 -0.1315  0.0535 -0.1514
  761MPD2    H711249   1.359   4.042  11.132 -0.0100 -2.8082 -1.2827
  762MPD2     C11250   1.921   3.872  10.787 -0.5331  0.6571 -0.3023
  762MPD2    C111251   1.855   3.753  10.761 -0.3328 -0.1137 -0.1296
  762MPD2    C211252   1.907   3.660  10.679  0.5834  0.4256 -0.3023
  762MPD2    C311253   2.034   3.685  10.627  0.1456  0.3000 -0.5599
  762MPD2    C411254   2.097   3.802  10.652  0.5260 -0.4269 -0.5592
  762MPD2    C511255   2.036   3.898  10.728 -0.8642 -0.2312 -0.3046
  762MPD2     H11256   1.862   3.566  10.648  0.3343  1.6676 -3.6726
  762MPD2    H111257   2.196   3.827  10.616  1.5047 -0.0323  2.3995
  762MPD2    H211258   1.888   3.945  10.860 -1.0140  1.2239 -1.0909
  762MPD2    H311259   2.078   3.996  10.741  0.1668 -0.8389  1.0066
  762MPD2     N11260   2.093   3.585  10.543  0.5518  0.5625  0.7653
  762MPD2    H511261   2.052   3.493  10.530  0.0703  0.5529  2.2762
  762MPD2    N111262   1.733   3.734  10.829  0.7065  0.1754  0.8337
  762MPD2    H711263   1.695   3.812  10.882  2.3269  0.2866  1.8571
  763MPD2     C11264   3.928   4.698  15.956  0.0108 -0.0300  0.1791
  763MPD2    C111265   3.976   4.585  16.019 -0.6617 -0.5571 -0.5957
  763MPD2    C211266   3.986   4.590  16.156 -0.6872 -0.2911  0.6416
  763MPD2    C311267   3.976   4.707  16.230 -0.2168  0.4060  0.0243
  763MPD2    C411268   3.952   0.102  16.155 -0.7649 -0.3500  0.2820
  763MPD2    C511269   3.935   0.095  16.019  0.1440  0.3084 -0.1378
  763MPD2     H11270   4.019   4.498  16.204  0.7279 -0.5749 -0.9055
  763MPD2    H111271   3.942   0.203  16.194  0.4072  0.4848 -1.6017
  763MPD2    H211272   3.905   4.703  15.850  1.3137 -0.4982 -0.1304
  763MPD2    H311273   3.901   0.186  15.971 -0.7943  0.8283  1.5249
  763MPD2     N11274   3.972   4.717  16.374  0.3642 -0.1124  0.3175
  763MPD2    H511275   3.959   0.092  16.411  1.2338  0.6149 -1.2130
  763MPD2    N111276   4.007   4.475  15.935 -0.2937 -0.3348  0.1826
  763MPD2    H711277   3.998   4.475  15.834 -0.1912  0.2643  0.1774
  764MPD2     C11278   2.439   1.480   0.137  0.1596 -0.2670 -0.8025
  764MPD2    C111279   2.323   1.451   0.058 -0.8326  0.4501  0.3094
  764MPD2    C211280   2.226   1.372   0.114 -0.5527 -0.2536 -0.4603
  764MPD2    C311281   2.213   1.350   0.246  0.3694  0.3589 -0.8139
  764MPD2    C411282   2.327   1.382   0.330 -0.5605 -0.4682  0.0883
  764MPD2    C511283   2.439   1.445   0.272 -0.1244  0.2065  0.5000
  764MPD2     H11284   2.143   1.354   0.046 -0.2208 -0.8189 -0.7143
  764MPD2    H111285   2.333   1.360   0.436  2.1567 -2.4992 -0.4943
  764MPD2    H211286   2.518   1.541   0.095  1.6739 -0.9610  1.0268
  764MPD2    H311287   2.522   1.477   0.335  0.6040 -1.7525  0.5368
  764MPD2     N11288   2.092   1.285   0.290  0.3638  0.4798 -0.1453
  764MPD2    H511289   2.016   1.278   0.224  0.3816  1.9575 -0.3164
  764MPD2    N111290   2.306   1.482  17.598  0.7476 -0.5350  0.2143
  764MPD2    H711291   2.214   1.452  17.567  0.4321  0.2403  0.4061
  765MPD2     C11292   1.550   3.394  16.182 -0.1433  0.0539 -0.7994
  765MPD2    C111293   1.618   3.481  16.102 -0.4556  0.5710  0.0929
  765MPD2    C211294   1.747   3.454  16.066 -0.2956 -0.2383  0.1566
  765MPD2    C311295   1.814   3.335  16.108 -0.3623  0.3913 -0.1920
  765MPD2    C411296   1.745   3.243  16.175 -0.4224  0.2868  0.0121
  765MPD2    C511297   1.614   3.274  16.203  0.0640 -0.1476 -0.0461
  765MPD2     H11298   1.804   3.523  16.005 -1.8406  2.7566  2.1286
  765MPD2    H111299   1.792   3.153  16.213  4.0262  2.2163 -0.9106
  765MPD2    H211300   1.457   3.415  16.234  1.8245  0.5240  2.5205
  765MPD2    H311301   1.565   3.204  16.270 -0.0497 -0.7451 -0.7503
  765MPD2     N11302   1.945   3.310  16.064 -0.4412  0.4624 -0.0299
  765MPD2    H511303   1.994   3.385  16.017  1.6074 -1.1070 -0.3989
  765MPD2    N111304   1.555   3.604  16.077  0.1938  0.0405  0.9273
  765MPD2    H711305   1.460   3.614  16.111  0.0969 -1.2847  1.0227
  766MPD2     C11306   1.145   3.684  15.460 -0.3639 -0.1367  0.7735
  766MPD2    C111307   1.276   3.729  15.464 -0.3200 -0.4237  0.0277
  766MPD2    C211308   1.357   3.727  15.351  0.4031 -0.4895 -0.0882
  766MPD2    C311309   1.308   3.695  15.231  0.0861  0.3296  0.2323
  766MPD2    C411310   1.177   3.653  15.230 -0.0637  0.6035 -0.1189
  766MPD2    C511311   1.098   3.649  15.344 -0.4638 -0.2122  0.5444
  766MPD2     H11312   1.461   3.755  15.357 -0.1088  1.0535  1.6750
  766MPD2    H111313   1.130   3.614  15.141  0.9608 -1.4394  0.2428
  766MPD2    H211314   1.080   3.685  15.546  0.1946  0.0890  1.1933
  766MPD2    H311315   0.997   3.610  15.337 -0.3441  0.1500 -3.0343
  766MPD2     N11316   1.380   3.712  15.110  0.6706  0.1177 -0.1227
  766MPD2    H511317   1.332   3.691  15.023  0.8415 -1.5754  0.1823
  766MPD2    N111318   1.325   3.785  15.584 -0.2301 -0.0961  0.1852
  766MPD2    H711319   1.406   3.845  15.579  0.7790 -1.3316  1.5917
  767MPD2     C11320   0.983   3.912  15.177 -0.1811  0.5117 -0.7175
  767MPD2    C111321   1.094   3.962  15.110  0.1981 -0.1660  0.1941
  767MPD2    C211322   1.099   3.960  14.970 -0.7802  0.1999  0.0094
  767MPD2    C311323   1.005   3.890  14.897 -0.0997  0.2569  0.3756
  767MPD2    C411324   0.898   3.847  14.966 -0.3587  0.1473  0.0216
  767MPD2    C511325   0.889   3.860  15.105  0.8415  0.2623  0.7725
  767MPD2     H11326   1.195   3.985  14.927 -0.0633  0.9365  2.0682
  767MPD2    H111327   0.816   3.791  14.922  0.8213 -0.1829 -1.7674
  767MPD2    H211328   0.974   3.917  15.285 -1.6041  0.3940 -0.8313
  767MPD2    H311329   0.802   3.820  15.157 -1.1061  2.7609 -0.5322
  767MPD2     N11330   1.031   3.870  14.762  0.3829  0.4605  0.0787
  767MPD2    H511331   1.119   3.899  14.721  0.5478 -0.6244 -0.3266
  767MPD2    N111332   1.195   4.021  15.190 -0.1593 -0.0722  0.6656
  767MPD2    H711333   1.191   4.013  15.291 -3.1866 -1.2805  0.4526
  768MPD2     C11334   1.736   2.009  10.887  0.6487  0.9053  0.3495
  768MPD2    C111335   1.705   2.060  11.008 -0.1871  0.2647 -0.3487
  768MPD2    C211336   1.807   2.088  11.096 -0.2360 -0.2241 -1.4152
  768MPD2    C311337   1.942   2.058  11.070 -0.0663 -0.0617  0.0978
  768MPD2    C411338   1.975   2.015  10.940  0.3639  0.1119 -0.0400
  768MPD2    C511339   1.867   1.993  10.849  0.1792  0.0738  0.2193
  768MPD2     H11340   1.787   2.126  11.195  0.3246 -0.4025 -1.2335
  768MPD2    H111341   2.079   1.998  10.917  0.3145 -1.2198  0.7127
  768MPD2    H211342   1.663   1.998  10.807  0.4559 -1.6899  0.8582
  768MPD2    H311343   1.885   1.945  10.753  1.5188  1.2363 -0.1115
  768MPD2     N11344   2.048   2.106  11.160 -0.5971 -0.4301  0.5584
  768MPD2    H511345   2.147   2.099  11.137 -1.4403  0.3732 -3.4447
  768MPD2    N111346   1.576   2.102  11.046 -0.7380  0.1039  0.2499
  768MPD2    H711347   1.564   2.133  11.142  0.7762  3.2444 -0.5938
  769MPD2     C11348   3.161   0.313  14.833 -0.3140 -0.0000 -0.8927
  769MPD2    C111349   3.093   0.415  14.897 -0.7266  0.6080 -0.4239
  769MPD2    C211350   3.144   0.469  15.015  0.5069 -1.0775 -0.1775
  769MPD2    C311351   3.269   0.429  15.069 -0.0059 -0.4589  0.7985
  769MPD2    C411352   3.339   0.334  14.995  0.0176  0.0633  0.2713
  769MPD2    C511353   3.284   0.281  14.881 -0.1916 -0.3910  1.5055
  769MPD2     H11354   3.098   0.554  15.065  0.2176 -0.0636 -2.1777
  769MPD2    H111355   3.435   0.293  15.024  0.6154 -1.5766 -4.0734
  769MPD2    H211356   3.111   0.273  14.746  2.6414 -2.0777 -1.6022
  769MPD2    H311357   3.334   0.197  14.834  0.5402  0.4509  0.7575
  769MPD2     N11358   3.302   0.479  15.199  0.2182 -0.2818  0.7190
  769MPD2    H511359   3.233   0.542  15.238 -0.0373 -1.3116  1.9349
  769MPD2    N111360   2.960   0.449  14.854  0.4944 -0.5984  0.3483
  769MPD2    H711361   2.914   0.391  14.785 -0.1534 -0.4107  0.6175
  770MPD2     C11362   2.326   4.655  15.355  0.2849  0.0746  0.5224
  770MPD2    C111363   2.389   4.613  15.242  0.5959 -0.1684  0.7950
  770MPD2    C211364   2.454   4.705  15.160 -0.7752 -0.3641  0.2730
  770MPD2    C311365   2.460   0.119  15.207 -0.1312 -0.1949  0.5981
  770MPD2    C411366   2.415   0.158  15.332  0.2251  0.1572  0.3296
  770MPD2    C511367   2.335   0.066  15.399 -0.2358  0.3707 -0.2754
  770MPD2     H11368   2.495   4.676  15.064  3.2350  1.8400  1.3147
  770MPD2    H111369   2.398   0.260  15.364  0.9776 -0.3571  2.3092
  770MPD2    H211370   2.278   4.584  15.421  0.5320  0.7064  1.3853
  770MPD2    H311371   2.278   0.095  15.487  2.2737  0.7227  1.2160
  770MPD2     N11372   2.511   0.212  15.115 -0.6721  0.2890 -0.3691
  770MPD2    H511373   2.521   0.177  15.020 -2.7335 -0.6268 -0.2392
  770MPD2    N111374   2.392   4.471  15.218 -1.0634 -0.3283 -0.1233
  770MPD2    H711375   2.351   4.413  15.291  0.8402 -0.9434  0.4613
  771MPD2     C11376   3.560   2.957  13.469  0.2015  0.3990 -0.7973
  771MPD2    C111377   3.521   3.092  13.471  0.5481 -0.6126 -0.1661
  771MPD2    C211378   3.415   3.125  13.391  0.7801  0.3899 -0.3876
  771MPD2    C311379   3.322   3.028  13.341  0.3471 -0.2206 -0.3537
  771MPD2    C411380   3.360   2.894  13.356  0.4301 -0.6813  0.3320
  771MPD2    C511381   3.469   2.865  13.427  0.5791  0.0052 -0.2716
  771MPD2     H11382   3.401   3.232  13.382  0.4758  0.4052  0.2429
  771MPD2    H111383   3.300   2.815  13.314 -0.1656  0.5208 -1.0669
  771MPD2    H211384   3.655   2.911  13.493 -0.1030  0.0836 -0.2105
  771MPD2    H311385   3.496   2.762  13.444  0.9945 -0.0805 -1.4421
  771MPD2     N11386   3.210   3.075  13.271  0.1193  0.4337  0.6250
  771MPD2    H511387   3.207   3.175  13.256 -1.6884  0.0842 -1.3835
  771MPD2    N111388   3.605   3.188  13.522 -0.3332 -1.4205  0.3416
  771MPD2    H711389   3.564   3.281  13.521 -0.0533 -1.2686  2.9194
  772MPD2     C11390   3.528   3.868  13.751 -0.1089 -0.2378 -0.5172
  772MPD2    C111391   3.506   3.734  13.727 -0.4413  0.1590  0.3612
  772MPD2    C211392   3.378   3.692  13.751  0.2077  0.1250 -0.1249
  772MPD2    C311393   3.280   3.768  13.802 -0.4589 -0.3479 -0.0732
  772MPD2    C411394   3.301   3.902  13.816  0.2855  0.6591  0.0677
  772MPD2    C511395   3.423   3.950  13.790 -0.4327 -0.0597 -0.3946
  772MPD2     H11396   3.370   3.584  13.751  0.7219  0.0789  1.4990
  772MPD2    H111397   3.232   3.974  13.858  0.9350  1.4467 -0.2126
  772MPD2    H211398   3.625   3.914  13.739 -0.4664  0.3491 -1.1512
  772MPD2    H311399   3.448   4.053  13.812 -0.6602 -0.1447  0.2551
  772MPD2     N11400   3.141   3.724  13.825  0.1014 -0.1211 -0.0955
  772MPD2    H511401   3.080   3.794  13.867  0.4903  0.9172 -1.2707
  772MPD2    N111402   3.602   3.635  13.691 -0.4822 -0.0931  0.1173
  772MPD2    H711403   3.579   3.536  13.687 -4.0667  0.8830 -2.7549
  773MPD2     C11404   3.004   4.628   0.854 -0.1399 -0.0595  0.6268
  773MPD2    C111405   2.986   4.561   0.738 -0.3125 -0.4727 -0.2531
  773MPD2    C211406   3.028   4.427   0.732 -0.8149 -0.0627  0.1516
  773MPD2    C311407   3.095   4.361   0.831 -0.1562  0.2222 -0.7100
  773MPD2    C411408   3.108   4.429   0.948  0.3727 -0.2853 -0.6534
  773MPD2    C511409   3.070   4.565   0.959 -1.0241 -0.5257  0.1080
  773MPD2     H11410   3.014   4.374   0.638 -2.6700  0.9222 -0.1389
  773MPD2    H111411   3.157   4.380   1.031  2.5051  4.0634  0.6547
  773MPD2    H211412   2.962   0.009   0.868 -0.2492  0.2464 -2.0324
  773MPD2    H311413   3.068   4.620   1.052  0.7471 -1.6724  0.8242
  773MPD2     N11414   3.143   4.239   0.800  0.2893  0.4127  0.1068
  773MPD2    H511415   3.134   4.202   0.706  1.6501  0.7736 -0.1690
  773MPD2    N111416   2.915   4.614   0.620  0.4460  0.2285  0.0043
  773MPD2    H711417   2.877   4.557   0.546  0.6349 -1.8403  1.5005
  774MPD2     C11418   1.324   3.828  13.690 -0.0694 -0.6418 -0.0026
  774MPD2    C111419   1.446   3.840  13.631  0.0075  0.4165 -0.2977
  774MPD2    C211420   1.492   3.973  13.606  0.1181  0.4147 -0.0259
  774MPD2    C311421   1.419   4.085  13.620  0.3041 -1.3075  0.0186
  774MPD2    C411422   1.292   4.065  13.678  0.4392  0.1740  0.4263
  774MPD2    C511423   1.248   3.941  13.713 -0.3039  0.1775 -0.6856
  774MPD2     H11424   1.593   3.982  13.569 -0.2240  0.8832 -0.8325
  774MPD2    H111425   1.225   4.147  13.700  0.2346  0.4069 -1.0717
  774MPD2    H211426   1.293   3.729  13.721  0.6696  0.0174  2.8514
  774MPD2    H311427   1.151   3.933  13.761  0.0831 -2.5711 -0.3722
  774MPD2     N11428   1.476   4.203  13.577 -0.6138 -0.0275 -0.0913
  774MPD2    H511429   1.572   4.201  13.542 -1.3557 -3.1074 -1.8893
  774MPD2    N111430   1.527   3.724  13.603  0.1927  0.7792  0.0372
  774MPD2    H711431   1.486   3.635  13.632  0.6507  0.0683 -1.5051
  775MPD2     C11432   3.376   0.334  16.138  0.4615 -0.1273  0.2034
  775MPD2    C111433   3.264   0.398  16.093 -0.0965  0.5686 -0.3867
  775MPD2    C211434   3.274   0.512  16.012 -0.4656 -0.1995  0.0100
  775MPD2    C311435   3.396   0.570  15.987  0.0849 -0.2852  0.6620
  775MPD2    C411436   3.506   0.509  16.039  0.5324  0.1597 -0.2817
  775MPD2    C511437   3.495   0.391  16.116  0.4418  0.3560  0.1990
  775MPD2     H11438   3.186   0.546  15.959 -0.1787  0.3909 -0.0825
  775MPD2    H111439   3.607   0.545  16.018  0.1973  2.1304  1.5377
  775MPD2    H211440   3.382   0.250  16.206  1.9143 -0.4980 -0.3992
  775MPD2    H311441   3.585   0.344  16.155 -0.1815  0.5485  1.8448
  775MPD2     N11442   3.425   0.676  15.898 -0.2018 -0.0641  0.3235
  775MPD2    H511443   3.519   0.707  15.872  0.0194 -1.1364 -0.1694
  775MPD2    N111444   3.141   0.334  16.125 -0.1971 -0.4636 -0.0967
  775MPD2    H711445   3.139   0.251  16.182 -2.7304 -1.4429 -1.6138
  776MPD2     C11446   2.042   1.137  11.009 -0.1336  0.0097 -0.0223
  776MPD2    C111447   2.119   1.089  11.119 -0.1970 -0.7331  0.2564
  776MPD2    C211448   2.225   1.165  11.156 -0.8299  0.8686  0.0596
  776MPD2    C311449   2.257   1.284  11.087 -0.7471 -1.3195  0.1327
  776MPD2    C411450   2.189   1.322  10.973  0.5712 -0.2158 -0.3149
  776MPD2    C511451   2.087   1.246  10.928 -0.5937  0.1371  0.0525
  776MPD2     H11452   2.278   1.137  11.246  0.8768  1.1942 -0.8225
  776MPD2    H111453   2.222   1.408  10.915  0.3448  1.7572  2.4813
  776MPD2    H211454   1.949   1.086  10.990  0.6605 -0.7631 -1.8643
  776MPD2    H311455   2.042   1.278  10.835  1.9294  0.4345 -1.0650
  776MPD2     N11456   2.366   1.368  11.116  0.4308  0.2726  0.2618
  776MPD2    H511457   2.384   1.440  11.048 -0.2751  1.2812  1.1390
  776MPD2    N111458   2.075   0.962  11.168 -0.0790  0.3230 -0.4378
  776MPD2    H711459   1.997   0.909  11.130  0.2564 -1.4024  1.2453
  777MPD2     C11460   2.802   3.041   0.824  0.0588 -0.3270  0.4383
  777MPD2    C111461   2.688   2.989   0.873 -1.0224 -0.7168  0.3937
  777MPD2    C211462   2.628   2.877   0.818 -0.3227 -0.4910  0.3859
  777MPD2    C311463   2.675   2.831   0.700  0.0130  0.3115 -0.5226
  777MPD2    C411464   2.781   2.890   0.644  0.2077  0.9010 -0.5838
  777MPD2    C511465   2.855   2.987   0.708 -1.1623 -0.7549  0.0540
  777MPD2     H11466   2.551   2.821   0.870 -0.7711  2.0467  2.4305
  777MPD2    H111467   2.815   2.856   0.547 -2.2733  2.1564 -1.8873
  777MPD2    H211468   2.855   3.120   0.877  0.0286 -0.3290  0.4717
  777MPD2    H311469   2.946   3.031   0.668 -2.1541  0.1097 -1.2415
  777MPD2     N11470   2.617   2.719   0.641 -0.0184  0.2871  0.1759
  777MPD2    H511471   2.531   2.685   0.685 -0.5033  2.7847  1.1725
  777MPD2    N111472   2.653   3.036   1.001  0.3298 -0.0024  0.2378
  777MPD2    H711473   2.721   3.099   1.043  0.4698  0.5077 -0.7383
  778MPD2     C11474   4.134   3.258  14.521  0.2614 -0.3000 -0.2956
  778MPD2    C111475   4.099   3.138  14.467  0.0936 -0.1802 -0.3718
  778MPD2    C211476   4.152   3.111  14.348 -0.2407 -0.2101 -0.0520
  778MPD2    C311477   4.241   3.195  14.284  0.3547 -0.1063 -0.5010
  778MPD2    C411478   4.289   3.315  14.353 -0.1866 -0.4372 -0.3866
  778MPD2    C511479   4.222   3.349  14.465 -0.3545  0.3192 -0.3383
  778MPD2     H11480   4.112   3.025  14.295  1.3304  0.4616 -2.3578
  778MPD2    H111481   4.368   3.381  14.319 -0.0008  0.2545  1.4225
  778MPD2    H211482   4.081   3.294  14.609 -0.5767  1.4167 -1.4939
  778MPD2    H311483   4.244   3.440  14.519  0.5716 -1.3898  2.1756
  778MPD2     N11484   4.291   3.168  14.148  0.3699  0.1824 -0.0754
  778MPD2    H511485   4.267   3.073  14.120  2.9922 -0.3525 -0.4561
  778MPD2    N111486   4.006   3.044  14.522  0.1635 -0.1596 -0.2646
  778MPD2    H711487   3.993   2.954  14.478 -0.0340  0.6474 -1.8477
  779MPD2     C11488   3.688   2.139  13.639 -0.3785 -0.3540  0.7295
  779MPD2    C111489   3.735   2.155  13.764  0.0551 -0.1782 -0.6451
  779MPD2    C211490   3.767   2.284  13.803 -0.0582  0.0759  0.7230
  779MPD2    C311491   3.768   2.394  13.718 -0.3427  0.2356  0.0491
  779MPD2    C411492   3.725   2.368  13.588  0.4586 -0.1319 -0.3457
  779MPD2    C511493   3.677   2.243  13.552  0.5681  0.2347  0.0493
  779MPD2     H11494   3.802   2.290  13.906  1.5702  0.1379  0.1580
  779MPD2    H111495   3.711   2.447  13.515  0.4740 -1.0766 -1.3644
  779MPD2    H211496   3.655   2.046  13.593 -2.2738  0.0945  1.1910
  779MPD2    H311497   3.664   2.223  13.446 -2.5858 -2.6072  0.9765
  779MPD2     N11498   3.818   2.516  13.762 -0.4289  0.1247 -0.4677
  779MPD2    H511499   3.843   2.519  13.861  1.5536  3.6066 -1.0420
  779MPD2    N111500   3.741   2.049  13.862  0.1839 -0.1142 -0.8427
  779MPD2    H711501   3.806   2.053  13.939 -0.2394 -0.8557 -0.4454
  780MPD2     C11502   3.291   2.588   1.123  0.7704 -0.2445  0.3285
  780MPD2    C111503   3.250   2.502   1.021  0.5330 -0.1143 -0.3462
  780MPD2    C211504   3.329   2.490   0.905 -0.4381 -0.4624 -0.5579
  780MPD2    C311505   3.452   2.550   0.901 -0.5718  0.1704  0.0115
  780MPD2    C411506   3.484   2.642   0.997 -0.2861  0.2845 -0.1719
  780MPD2    C511507   3.407   2.660   1.110 -0.2866  0.6289 -0.5465
  780MPD2     H11508   3.308   2.421   0.824  1.7546 -3.4449  1.4197
  780MPD2    H111509   3.571   2.705   0.984 -0.4782 -0.1123 -3.1605
  780MPD2    H211510   3.221   2.607   1.203  1.7856 -2.6666  1.8247
  780MPD2    H311511   3.445   2.733   1.180  0.8051 -0.2661 -0.1944
  780MPD2     N11512   3.532   2.517   0.791 -0.3421  0.1998  0.3813
  780MPD2    H511513   3.495   2.434   0.745  0.5872  0.5633 -1.0240
  780MPD2    N111514   3.140   2.417   1.034 -0.4374 -0.0427 -0.3598
  780MPD2    H711515   3.093   2.411   1.124 -0.1825 -1.8572 -0.3644
  781MPD2     C11516   0.277   4.014  11.748 -0.0180 -0.4985 -0.1328
  781MPD2    C111517   0.189   3.954  11.823  0.1004  0.6128 -0.4589
  781MPD2    C211518   0.103   3.855  11.767 -0.2825 -0.4723 -0.5600
  781MPD2    C311519   0.121   3.821  11.635 -0.1897 -0.2632 -0.5446
  781MPD2    C411520   0.219   3.892  11.558 -0.0812 -0.9636  0.3878
  781MPD2    C511521   0.300   3.982  11.615  0.0963  0.8506 -0.2058
  781MPD2     H11522   0.026   3.799  11.819 -1.0403  0.5820 -0.5467
  781MPD2    H111523   0.230   3.880  11.451 -2.1584  0.9634 -0.0426
  781MPD2    H211524   0.349   4.075  11.801 -1.3822  0.7987  0.2439
  781MPD2    H311525   0.378   4.033  11.559 -1.9370  4.3874  0.1641
  781MPD2     N11526   0.037   3.724  11.585  0.0041  0.3209 -0.0469
  781MPD2    H511527   4.680   3.684  11.640  0.2917  1.2892  1.0420
  781MPD2    N111528   0.184   3.974  11.965  0.1679  0.3296 -0.0482
  781MPD2    H711529   0.134   3.901  12.016 -1.1923  2.2995  1.4179
  782MPD2     C11530   2.334   4.230  10.242  0.2694 -0.7280 -0.4261
  782MPD2    C111531   2.459   4.185  10.227 -0.0392  0.1947 -0.1930
  782MPD2    C211532   2.568   4.267  10.224 -0.0845  0.4071  0.3483
  782MPD2    C311533   2.547   4.405  10.249  0.4310  0.2884 -0.1117
  782MPD2    C411534   2.422   4.454  10.271 -0.5478  0.0471 -0.2347
  782MPD2    C511535   2.315   4.366  10.263  0.0687  0.4984  0.5330
  782MPD2     H11536   2.668   4.227  10.209 -0.3934  0.8758 -3.0065
  782MPD2    H111537   2.398   4.557  10.290 -2.3389 -0.6611  1.2877
  782MPD2    H211538   2.249   4.163  10.242 -1.0040  0.8978  2.0062
  782MPD2    H311539   2.217   4.410  10.254 -0.8289 -1.3848  1.0103
  782MPD2     N11540   2.670   4.480  10.279 -0.3741  0.2147  0.4136
  782MPD2    H511541   2.752   4.420  10.288 -0.2611 -0.0281 -2.1987
  782MPD2    N111542   2.479   4.043  10.222 -0.2021  0.0242 -0.3792
  782MPD2    H711543   2.397   3.986  10.242  0.7045 -1.0737  0.1536
  783MPD2     C11544   2.352   3.853  11.012  0.7855  0.3384  0.1333
  783MPD2    C111545   2.380   3.962  10.939 -0.5638  0.1516 -0.4950
  783MPD2    C211546   2.446   3.952  10.814  0.8978 -0.5493 -0.0958
  783MPD2    C311547   2.467   3.830  10.763 -1.0809  1.0703  0.5430
  783MPD2    C411548   2.437   3.718  10.838 -0.2832  0.3710 -0.4532
  783MPD2    C511549   2.392   3.737  10.964  0.6324  0.2338 -0.0084
  783MPD2     H11550   2.461   4.031  10.741 -3.2481  1.7654  1.5775
  783MPD2    H111551   2.434   3.619  10.793 -0.3452  0.4267 -0.5682
  783MPD2    H211552   2.305   3.862  11.109 -0.8808 -1.4130 -0.5195
  783MPD2    H311553   2.367   3.653  11.027 -1.7444  0.9591  0.0064
  783MPD2     N11554   2.511   3.815  10.631  0.2817  0.2675 -0.3774
  783MPD2    H511555   2.525   3.898  10.575 -0.9576 -0.7300 -2.1882
  783MPD2    N111556   2.321   4.081  10.977 -0.1891  0.2351 -0.4140
  783MPD2    H711557   2.248   4.081  11.046  0.3047 -0.8956  0.1038
  784MPD2     C11558   1.529   0.146   0.801  0.5161  0.4613  0.7400
  784MPD2    C111559   1.504   0.238   0.894 -0.4356 -0.2534 -0.1506
  784MPD2    C211560   1.384   0.294   0.915 -0.1681  0.1928  0.7503
  784MPD2    C311561   1.269   0.248   0.853 -0.3532  0.6281  0.3509
  784MPD2    C411562   1.288   0.147   0.758  0.0876 -0.1317  0.7943
  784MPD2    C511563   1.415   0.099   0.737  0.2988  0.2421 -0.5588
  784MPD2     H11564   1.381   0.373   0.990  0.4673 -0.9204  1.9498
  784MPD2    H111565   1.215   0.112   0.685 -0.1922  0.7873  0.6370
  784MPD2    H211566   1.629   0.109   0.782  0.9514  1.1751  1.6706
  784MPD2    H311567   1.429   0.025   0.660 -0.0889  1.1825 -1.5324
  784MPD2     N11568   1.149   0.314   0.875 -0.1192  0.2364 -0.4969
  784MPD2    H511569   1.143   0.377   0.954 -2.6637 -0.7522  0.1124
  784MPD2    N111570   1.605   0.297   0.975 -0.1821  0.2715 -0.3788
  784MPD2    H711571   1.578   0.383   1.023 -0.7223  0.2033 -0.5573
  785MPD2     C11572   1.091   2.566  10.688 -0.0415 -0.1836 -0.1621
  785MPD2    C111573   0.985   2.660  10.710  0.2027  0.0590 -0.2941
  785MPD2    C211574   0.855   2.616  10.689 -0.2384 -0.5554  0.2061
  785MPD2    C311575   0.837   2.494  10.631 -0.1654 -0.0274 -0.1561
  785MPD2    C411576   0.944   2.406  10.616  0.1271  0.1098  0.2156
  785MPD2    C511577   1.064   2.439  10.667 -0.6217  0.1248  0.6199
  785MPD2     H11578   0.767   2.678  10.703  0.4465  0.3457  0.5344
  785MPD2    H111579   0.936   2.314  10.559  0.9595 -0.1431  0.4916
  785MPD2    H211580   1.194   2.596  10.704  0.1810 -0.0894 -1.7977
  785MPD2    H311581   1.148   2.370  10.670 -0.0868  0.7386 -0.2452
  785MPD2     N11582   0.703   2.463  10.581  0.0647  0.4221  0.6956
  785MPD2    H511583   0.637   2.538  10.595 -0.9639 -0.3121 -0.3247
  785MPD2    N111584   1.017   2.793  10.740  0.0469  0.0475  0.1912
  785MPD2    H711585   1.116   2.809  10.753 -0.4157  2.5568  0.5868
  786MPD2     C11586   4.605   1.752  14.416 -0.5366  0.3186  0.0937
  786MPD2    C111587   4.530   1.700  14.515 -0.3240 -0.3185 -0.5105
  786MPD2    C211588   4.590   1.662  14.636  0.0172  0.1638 -0.6258
  786MPD2    C311589   0.007   1.677  14.655 -0.0933 -0.1836 -0.0906
  786MPD2    C411590   0.084   1.727  14.554 -0.2674  0.2619  0.1465
  786MPD2    C511591   0.023   1.773  14.435  0.2612  0.3591 -0.1287
  786MPD2     H11592   4.530   1.617  14.713  0.3746 -1.7871 -1.4767
  786MPD2    H111593   0.189   1.750  14.560 -0.3637  0.3545  1.4844
  786MPD2    H211594   4.563   1.791  14.324  1.0307 -0.5437 -0.9927
  786MPD2    H311595   0.072   1.830  14.357 -0.3047  0.7327 -0.2156
  786MPD2     N11596   0.074   1.646  14.777  0.2863  0.4747 -0.1450
  786MPD2    H511597   0.174   1.639  14.760  0.5722 -0.7105  2.1204
  786MPD2    N111598   4.392   1.663  14.493  0.9189  0.3644  0.0365
  786MPD2    H711599   4.346   1.611  14.568 -0.2355 -0.0370 -0.9670
  787MPD2     C11600   3.665   1.483  14.879 -0.1174  0.0200 -1.0736
  787MPD2    C111601   3.804   1.480  14.847  0.0377  0.6142 -0.7198
  787MPD2    C211602   3.892   1.423  14.938  0.0075 -0.2974  0.2675
  787MPD2    C311603   3.843   1.358  15.047 -0.6263 -0.2961 -0.0580
  787MPD2    C411604   3.705   1.363  15.078  0.3063  0.1020 -0.1898
  787MPD2    C511605   3.615   1.430  14.996  0.1652  0.2022  0.2087
  787MPD2     H11606   3.999   1.409  14.927  0.0066  0.5767 -0.7735
  787MPD2    H111607   3.670   1.310  15.166  2.3579  1.7629  1.6006
  787MPD2    H211608   3.601   1.522  14.801 -1.8940 -0.3357  0.2028
  787MPD2    H311609   3.508   1.418  15.010  0.1721  1.3906  1.2733
  787MPD2     N11610   3.929   1.266  15.113 -0.4192 -0.1092  0.3959
  787MPD2    H511611   4.025   1.265  15.082 -0.4796 -1.0017  0.2461
  787MPD2    N111612   3.836   1.533  14.724  0.8493  0.0654 -0.4299
  787MPD2    H711613   3.758   1.558  14.664  0.4204 -2.0185 -0.7673
  788MPD2     C11614   1.643   4.265   0.646  0.4058 -0.3039 -0.3083
  788MPD2    C111615   1.692   4.206   0.523  0.1414  0.2037  0.5517
  788MPD2    C211616   1.713   4.281   0.412 -0.6031  0.3738 -0.6036
  788MPD2    C311617   1.693   4.418   0.418  0.2812  0.9336 -0.6494
  788MPD2    C411618   1.651   4.477   0.534 -0.0773  0.3936  0.1153
  788MPD2    C511619   1.622   4.400   0.645 -0.1562  0.0681  0.3806
  788MPD2     H11620   1.738   4.233   0.318  0.3998  2.5457 -1.4634
  788MPD2    H111621   1.633   4.584   0.530  0.0145  0.4369  0.9112
  788MPD2    H211622   1.628   4.213   0.740 -1.8454  0.9148  0.0157
  788MPD2    H311623   1.587   4.449   0.735  2.8680 -2.0040  2.6667
  788MPD2     N11624   1.698   4.501   0.303 -0.2457 -0.5202 -0.8505
  788MPD2    H511625   1.677   4.598   0.326  0.5666 -0.5880  0.1989
  788MPD2    N111626   1.700   4.065   0.514 -0.2045  0.2229  0.1372
  788MPD2    H711627   1.746   4.025   0.432  0.5942  0.0466  0.6787
  789MPD2     C11628   1.754   4.059  16.242 -0.3348 -0.5762  0.4628
  789MPD2    C111629   1.659   3.966  16.290 -0.8722 -0.3560  0.0739
  789MPD2    C211630   1.529   4.011  16.307 -0.0752 -0.2462 -0.2110
  789MPD2    C311631   1.497   4.143  16.309 -1.0364 -0.2671 -0.2168
  789MPD2    C411632   1.587   4.233  16.253 -0.1630 -0.0580  0.5109
  789MPD2    C511633   1.706   4.184  16.209  0.4904  0.0077 -0.3939
  789MPD2     H11634   1.465   3.931  16.343 -1.4889  1.5918  1.3516
  789MPD2    H111635   1.571   4.339  16.239 -1.4821 -0.0117  2.4160
  789MPD2    H211636   1.856   4.039  16.209 -0.0844 -0.3394  1.0862
  789MPD2    H311637   1.771   4.254  16.158  2.3634 -0.9959  0.6290
  789MPD2     N11638   1.373   4.193  16.354 -0.4685  0.2815 -0.1032
  789MPD2    H511639   1.362   4.294  16.355 -1.5024  0.1418  3.0847
  789MPD2    N111640   1.689   3.825  16.304 -0.5067  0.2915  0.1933
  789MPD2    H711641   1.621   3.755  16.333 -1.1878  0.9385  0.1612
  790MPD2     C11642   2.480   1.289  13.459  1.2516  0.1943 -1.5315
  790MPD2    C111643   2.526   1.168  13.477  0.3375  0.6851 -0.2655
  790MPD2    C211644   2.536   1.083  13.372 -0.0887  0.2278 -0.8528
  790MPD2    C311645   2.490   1.123  13.250  0.5775  0.9267 -0.4570
  790MPD2    C411646   2.446   1.247  13.228 -0.7120  0.2635 -0.1209
  790MPD2    C511647   2.442   1.330  13.335  0.3690 -0.2922  0.5589
  790MPD2     H11648   2.575   0.983  13.385 -0.2987  0.2300 -0.1923
  790MPD2    H111649   2.422   1.284  13.129  0.9276  1.6327 -0.0001
  790MPD2    H211650   2.478   1.354  13.546  1.1025 -0.7551 -0.8302
  790MPD2    H311651   2.395   1.427  13.322  3.0384  0.8021 -0.8759
  790MPD2     N11652   2.510   1.036  13.139  0.4635  0.4009 -0.0981
  790MPD2    H511653   2.563   0.951  13.155 -0.9393 -0.3926  0.3742
  790MPD2    N111654   2.564   1.128  13.607  0.2168  0.1249  0.1167
  790MPD2    H711655   2.543   1.195  13.680 -0.3351 -1.6276  1.5630
  791MPD2     C11656   2.127   0.935  12.449 -0.5624  0.5027 -1.0152
  791MPD2    C111657   2.171   0.827  12.520  0.1618  0.0980  0.5410
  791MPD2    C211658   2.110   0.700  12.480 -0.0774  0.0576 -0.2981
  791MPD2    C311659   2.006   0.702  12.392  0.2300 -0.1569 -0.1607
  791MPD2    C411660   1.975   0.827  12.331  0.5380  0.6906  0.3558
  791MPD2    C511661   2.033   0.942  12.353  0.1902  0.1868 -0.2786
  791MPD2     H11662   2.136   0.609  12.532 -0.1226  0.5801  0.6371
  791MPD2    H111663   1.895   0.834  12.258  0.7190  0.4127  0.1264
  791MPD2    H211664   2.176   1.025  12.483  1.1088 -0.7273 -0.1606
  791MPD2    H311665   1.997   1.035  12.310 -1.7323 -0.4393 -0.0309
  791MPD2     N11666   1.943   0.583  12.366 -0.1585 -0.3444 -0.0834
  791MPD2    H511667   1.990   0.502  12.404  0.6850  0.5161  0.7224
  791MPD2    N111668   2.270   0.839  12.623  0.0256  0.4429  0.2467
  791MPD2    H711669   2.306   0.932  12.644 -1.0294  1.1168 -0.8721
  792MPD2     C11670   2.899   0.460  11.058 -0.0320  0.5057 -0.4798
  792MPD2    C111671   2.782   0.522  11.030  0.0375  0.4260 -0.2016
  792MPD2    C211672   2.700   0.464  10.929 -0.0805 -0.6367  0.5046
  792MPD2    C311673   2.729   0.341  10.867  0.0508 -0.9451  0.2056
  792MPD2    C411674   2.850   0.283  10.909  0.0349 -0.1979  0.1730
  792MPD2    C511675   2.930   0.345  10.994  0.0444 -0.2527 -0.2480
  792MPD2     H11676   2.606   0.510  10.901  0.2862 -0.7641 -0.9282
  792MPD2    H111677   2.880   0.190  10.862 -1.7738 -1.5619  1.7293
  792MPD2    H211678   2.979   0.500  11.119 -0.1444 -0.5152  0.3284
  792MPD2    H311679   3.024   0.294  11.010 -0.7044 -1.8916 -0.9996
  792MPD2     N11680   2.640   0.267  10.786 -0.4837  0.7808 -0.2207
  792MPD2    H511681   2.675   0.175  10.762 -0.1064  0.7771  0.3404
  792MPD2    N111682   2.756   0.641  11.101  0.0064 -0.0140 -0.0637
  792MPD2    H711683   2.831   0.679  11.158 -0.4553  1.1383 -0.2307
  793MPD2     C11684   2.226   0.591   9.922  0.0598  0.1319  0.4043
  793MPD2    C111685   2.358   0.571   9.956  0.2878 -0.2485  0.2041
  793MPD2    C211686   2.382   0.492  10.067 -0.0816  0.1642 -0.3879
  793MPD2    C311687   2.282   0.450  10.149  0.2474 -0.3545 -0.2877
  793MPD2    C411688   2.149   0.480  10.118  0.4770  0.1555  0.3007
  793MPD2    C511689   2.125   0.551  10.005  0.5406 -0.8880 -0.4728
  793MPD2     H11690   2.484   0.462  10.089  0.5848 -0.0046 -3.6327
  793MPD2    H111691   2.072   0.463  10.193  1.0893 -3.2587  0.1898
  793MPD2    H211692   2.198   0.637   9.828  0.7435 -0.0022  0.1372
  793MPD2    H311693   2.026   0.572   9.966  1.1015  0.8933 -0.9674
  793MPD2     N11694   2.324   0.377  10.260  0.4341 -0.1607 -0.0108
  793MPD2    H511695   2.424   0.365  10.278  0.8434 -2.4696 -3.8911
  793MPD2    N111696   2.460   0.607   9.869 -0.2542 -1.1098 -0.4396
  793MPD2    H711697   2.550   0.565   9.892 -0.2271 -1.4418 -1.1452
  794MPD2     C11698   2.833   0.501  17.669  0.0846 -0.3607 -0.4833
  794MPD2    C111699   2.766   0.384  17.649 -0.0750  0.3090  0.2803
  794MPD2    C211700   2.688   0.369  17.539  0.0109  0.1094 -0.1326
  794MPD2    C311701   2.675   0.468  17.441  0.7302 -0.6359 -0.6524
  794MPD2    C411702   2.752   0.580  17.458  0.3681  0.5818 -0.0278
  794MPD2    C511703   2.831   0.598  17.570 -0.1803  0.4438  0.4996
  794MPD2     H11704   2.635   0.276  17.520 -1.2982  1.3413 -2.4686
  794MPD2    H111705   2.744   0.661  17.386  1.5416  0.1182 -0.6831
  794MPD2    H211706   2.890   0.522   0.085 -3.7029 -0.7026  1.9765
  794MPD2    H311707   2.897   0.683  17.582 -2.3400  1.9635  1.6307
  794MPD2     N11708   2.594   0.464  17.327 -0.1134 -0.2913  0.0923
  794MPD2    H511709   2.606   0.536  17.257  1.6185 -0.5191  0.1787
  794MPD2    N111710   2.746   0.285   0.076  0.5525 -0.0614 -0.3993
  794MPD2    H711711   2.678   0.212   0.057 -0.0723  0.4561 -0.1538
  795MPD2     C11712   0.405   2.425  12.937  0.3149 -0.4603 -0.1435
  795MPD2    C111713   0.347   2.321  13.007 -0.1541  0.9989  0.1278
  795MPD2    C211714   0.423   2.235  13.084 -0.3475  0.1873 -0.5077
  795MPD2    C311715   0.556   2.255  13.073 -0.4946  0.1062  0.3182
  795MPD2    C411716   0.614   2.358  13.001 -0.3589  0.0275 -0.2100
  795MPD2    C511717   0.537   2.444  12.934 -0.6151  0.3689 -0.1576
  795MPD2     H11718   0.379   2.154  13.142  0.2686 -0.1182 -0.4620
  795MPD2    H111719   0.721   2.377  12.992 -0.3264 -0.2769 -0.4880
  795MPD2    H211720   0.346   2.500  12.887  1.2098 -1.5448 -2.8068
  795MPD2    H311721   0.583   2.533  12.891  3.3965 -1.8767 -0.5352
  795MPD2     N11722   0.651   2.176  13.148 -0.5159  0.1409  0.6312
  795MPD2    H511723   0.746   2.190  13.115 -0.3983  1.2050  1.4408
  795MPD2    N111724   0.207   2.322  12.995 -0.0441 -0.1480  0.2302
  795MPD2    H711725   0.165   2.377  12.921 -1.6842  0.0595  1.3061
  796MPD2     C11726   0.035   4.475  15.988 -0.1767 -0.1624 -0.0265
  796MPD2    C111727   0.080   4.489  16.122  0.3365  0.3850  0.3762
  796MPD2    C211728   0.058   4.609  16.191  0.2994 -0.0448  0.6222
  796MPD2    C311729   4.710   4.715  16.133  0.2796 -0.0823  0.4902
  796MPD2    C411730   4.665   4.695  15.995  0.0698  0.4702  0.2809
  796MPD2    C511731   4.682   4.574  15.927  0.5584  0.3669 -0.4126
  796MPD2     H11732   0.079   4.618  16.297  1.8136 -2.4916  0.5290
  796MPD2    H111733   4.604   0.047  15.939  0.4529 -0.5608 -1.4184
  796MPD2    H211734   0.055   4.380  15.938 -0.0375 -1.0144  1.6438
  796MPD2    H311735   4.650   4.556  15.825  0.2101  1.7110 -0.5470
  796MPD2     N11736   4.662   0.101  16.211 -0.5817 -0.4472 -0.6936
  796MPD2    H511737   4.677   0.090  16.311 -0.3265 -0.8559 -0.7775
  796MPD2    N111738   0.125   4.381  16.190 -0.2027  0.1104 -0.3619
  796MPD2    H711739   0.116   4.292  16.141  0.9328  0.2832 -0.8702
  797MPD2     C11740   0.181   3.121  17.153  0.2514  0.6935 -0.3792
  797MPD2    C111741   0.216   3.169  17.273  0.9084 -0.2877  0.6391
  797MPD2    C211742   0.147   3.281  17.330  0.1852 -0.2808  1.1621
  797MPD2    C311743   0.051   3.346  17.255  0.3184 -0.1306 -0.4689
  797MPD2    C411744   0.017   3.296  17.126  0.3634  0.0483 -0.2378
  797MPD2    C511745   0.071   3.177  17.089  0.0625 -0.0424 -0.3931
  797MPD2     H11746   0.180   3.315  17.428  2.6721  4.9001 -1.4699
  797MPD2    H111747   4.671   3.357  17.063 -0.3801  0.2966  0.7546
  797MPD2    H211748   0.228   3.036  17.104  0.6095  1.7224 -1.8318
  797MPD2    H311749   0.045   3.137  16.991  0.6144  1.5579 -1.1957
  797MPD2     N11750   0.002   3.467  17.304 -0.7812 -0.1224  0.5737
  797MPD2    H511751   4.696   3.540  17.238  0.0399 -2.2896 -2.1033
  797MPD2    N111752   0.311   3.108  17.350  0.0835  0.1279 -0.1267
  797MPD2    H711753   0.333   3.143  17.443 -1.5449  0.4077  0.1550
  798MPD2     C11754   0.168   3.349   0.276 -0.5272  0.5017 -0.9594
  798MPD2    C111755   0.237   3.424   0.182  0.4834  0.4417  0.3058
  798MPD2    C211756   0.348   3.359   0.125 -0.4455 -0.1355  0.4989
  798MPD2    C311757   0.388   3.228   0.152  0.2479 -0.0087  0.1651
  798MPD2    C411758   0.307   3.160   0.245  0.2353  0.8915 -0.1275
  798MPD2    C511759   0.207   3.223   0.308 -0.2324  1.1577 -0.7794
  798MPD2     H11760   0.411   3.406   0.050  2.0621 -2.0477  1.3923
  798MPD2    H111761   0.324   3.055   0.265 -1.3207  0.5811 -0.3965
  798MPD2    H211762   0.088   3.398   0.330  2.7276  3.0952  1.5384
  798MPD2    H311763   0.150   3.163   0.379  2.3299  2.2686  2.2121
  798MPD2     N11764   0.493   3.172   0.073  0.3217  0.0914  0.5699
  798MPD2    H511765   0.522   3.230  17.669  1.4642  0.8734  1.5736
  798MPD2    N111766   0.195   3.554   0.143  0.1919  0.3662  0.1364
  798MPD2    H711767   0.108   3.594   0.178  0.1370  1.4471 -1.2568
  799MPD2     C11768   4.082   0.428  15.079  0.5616  0.3955  1.0570
  799MPD2    C111769   4.040   0.361  14.966 -0.2423  0.1033  0.3371
  799MPD2    C211770   3.988   0.433  14.862 -0.1777  0.9232  0.3741
  799MPD2    C311771   3.996   0.576  14.858  0.0873  0.3896 -0.0224
  799MPD2    C411772   4.042   0.641  14.969 -0.0756 -0.3810  0.0437
  799MPD2    C511773   4.086   0.564  15.081  0.1451 -0.2545  0.4489
  799MPD2     H11774   3.960   0.378  14.773 -0.2917 -0.0964  1.0357
  799MPD2    H111775   4.031   0.747  14.985  0.2825 -0.0657 -1.7671
  799MPD2    H211776   4.127   0.375  15.162  0.9818  0.1238  0.6582
  799MPD2    H311777   4.116   0.614  15.172 -2.0268  1.2468  0.3574
  799MPD2     N11778   3.957   0.655  14.751 -0.1552 -0.2999 -0.0131
  799MPD2    H511779   3.985   0.753  14.753  1.3875 -0.7258 -1.9423
  799MPD2    N111780   4.037   0.221  14.957 -0.4173  0.3736  0.0847
  799MPD2    H711781   3.982   0.173  14.887  1.3480 -1.0421 -0.3330
  800MPD2     C11782   0.016   1.524  14.118 -0.0889  0.7043  0.6372
  800MPD2    C111783   0.152   1.510  14.092 -0.4012 -0.2860 -0.4546
  800MPD2    C211784   0.189   1.409  14.007  0.0645  0.2070  0.2791
  800MPD2    C311785   0.104   1.340  13.931  0.2081 -0.0156 -0.0322
  800MPD2    C411786   4.690   1.361  13.948  0.0806  0.3072  0.3308
  800MPD2    C511787   4.651   1.446  14.042 -0.1708  0.5153 -0.3532
  800MPD2     H11788   0.294   1.386  13.997 -0.1370 -1.2882  1.5802
  800MPD2    H111789   4.617   1.323  13.878  0.3152  1.0455 -0.3193
  800MPD2    H211790   4.691   1.598  14.185  0.3113 -0.4771  2.1949
  800MPD2    H311791   4.551   1.488  14.038 -0.6382 -0.3898  1.7558
  800MPD2     N11792   0.154   1.256  13.837  0.7128 -0.1166  0.7493
  800MPD2    H511793   0.254   1.268  13.825  0.5701  0.3110 -0.0344
  800MPD2    N111794   0.247   1.589  14.165 -0.6960 -0.2352  0.3452
  800MPD2    H711795   0.214   1.678  14.203 -1.7563  0.3191 -1.8446
  801MPD2     C11796   0.151   2.178  14.480 -0.9124  0.3683  0.5635
  801MPD2    C111797   0.147   2.116  14.359 -0.5397 -0.0874  0.3132
  801MPD2    C211798   0.038   2.127  14.276 -0.1199 -0.4872  0.9013
  801MPD2    C311799   4.644   2.193  14.327 -0.2273 -0.6126  0.6039
  801MPD2    C411800   4.647   2.255  14.452 -0.2401  0.7443  0.3886
  801MPD2    C511801   0.051   2.254  14.521  0.5561  0.0315  0.4594
  801MPD2     H11802   0.043   2.073  14.182  0.8993  1.7875 -0.3554
  801MPD2    H111803   4.569   2.323  14.485  0.7791  2.0015  0.2198
  801MPD2    H211804   0.235   2.180  14.549 -0.6846 -2.4765  0.3429
  801MPD2    H311805   0.058   2.304  14.617  0.4160  2.7799 -0.9784
  801MPD2     N11806   4.525   2.202  14.249  0.0101  1.0393  0.1270
  801MPD2    H511807   4.457   2.265  14.291  1.0444  2.9665 -1.1489
  801MPD2    N111808   0.252   2.034  14.311 -0.2933 -0.2394  0.0234
  801MPD2    H711809   0.230   1.990  14.222 -0.3173  1.1590 -0.6675
  802MPD2     C11810   4.653   1.295   0.207  0.2402  0.2963 -0.1328
  802MPD2    C111811   4.573   1.408   0.215  0.2617 -0.5329  0.4224
  802MPD2    C211812   4.518   1.459   0.102 -0.5683 -0.6223  0.0462
  802MPD2    C311813   4.548   1.405  17.653  0.2740  0.3980 -0.1772
  802MPD2    C411814   4.630   1.295  17.650 -0.5036 -0.3657 -0.0612
  802MPD2    C511815   4.687   1.242   0.088 -0.3298 -0.6769  0.4057
  802MPD2     H11816   4.457   1.549   0.102 -1.7403 -1.4333  0.4441
  802MPD2    H111817   4.669   1.269  17.552  1.7053  1.9983  0.1860
  802MPD2    H211818   4.713   1.262   0.291  1.3507 -0.4482 -1.2246
  802MPD2    H311819   0.047   1.167   0.082  0.3872  0.2300 -1.6686
  802MPD2     N11820   4.508   1.474  17.538 -0.3938 -0.1840  0.2944
  802MPD2    H511821   4.455   1.557  17.560 -1.3184  0.1141 -3.0782
  802MPD2    N111822   4.548   1.483   0.328 -0.2176  0.0423  0.0895
  802MPD2    H711823   4.493   1.568   0.324 -0.5465 -0.1069  1.6621
  803MPD2     C11824   0.258   0.872  12.085  0.2389  0.3543 -0.2699
  803MPD2    C111825   0.393   0.904  12.078  0.3790  0.2661 -0.6197
  803MPD2    C211826   0.468   0.870  12.187 -0.7670  0.7068  0.4956
  803MPD2    C311827   0.409   0.830  12.309 -0.1288  0.1998  0.2880
  803MPD2    C411828   0.272   0.803  12.308 -1.0345 -0.6825  0.1353
  803MPD2    C511829   0.198   0.811  12.194 -0.5541  0.4653  0.3332
  803MPD2     H11830   0.571   0.904  12.183 -0.3036 -1.1789 -3.0746
  803MPD2    H111831   0.213   0.771  12.394 -2.8748 -0.4473 -1.0325
  803MPD2    H211832   0.190   0.879  12.000 -1.6239 -1.1560  1.0972
  803MPD2    H311833   0.092   0.786  12.191 -0.4734  0.0128  1.4286
  803MPD2     N11834   0.496   0.801  12.420 -0.3395 -0.0376  0.1539
  803MPD2    H511835   0.463   0.756  12.505  1.2687  0.6479  1.1505
  803MPD2    N111836   0.462   0.950  11.961  1.1898  0.7370  0.1241
  803MPD2    H711837   0.562   0.964  11.974  1.7662 -0.4792 -3.0104
  804MPD2     C11838   0.033   1.869  16.954  0.2270  0.2745 -0.7073
  804MPD2    C111839   0.097   1.892  17.069 -0.7259  0.1027  0.0406
  804MPD2    C211840   0.139   2.021  17.101  0.2502  0.1829 -0.2884
  804MPD2    C311841   0.127   2.117  17.003 -0.4584  0.3492  0.3312
  804MPD2    C411842   0.081   2.091  16.881  0.2216 -0.1804  0.4933
  804MPD2    C511843   0.033   1.966  16.852 -0.2564  0.1170  0.7753
  804MPD2     H11844   0.175   2.056  17.197 -0.7546  1.2739 -0.3026
  804MPD2    H111845   0.095   2.171  16.809  1.0882 -1.3453 -0.6242
  804MPD2    H211846   4.699   1.775  16.939 -0.1982  0.3031  0.6116
  804MPD2    H311847   4.692   1.941  16.764 -0.6976 -2.3653  1.7662
  804MPD2     N11848   0.176   2.249  17.036  0.0342  0.0490 -0.1087
  804MPD2    H511849   0.227   2.265  17.122  0.0928  3.2703 -0.7588
  804MPD2    N111850   0.113   1.785  17.158  0.7623 -0.3251 -0.0214
  804MPD2    H711851   0.169   1.803  17.241  0.5717 -3.2650  0.7631
  805MPD2     C11852   3.791   0.359  15.779  0.5589 -0.2322 -0.5579
  805MPD2    C111853   3.875   0.289  15.692  0.1201 -0.1208  0.0813
  805MPD2    C211854   4.012   0.306  15.698 -0.2604 -0.3284  0.7706
  805MPD2    C311855   4.064   0.399  15.785 -0.6832  0.4831  0.6618
  805MPD2    C411856   3.988   0.459  15.878  0.5366 -0.3142 -0.1365
  805MPD2    C511857   3.853   0.445  15.877  0.3100  0.1760 -0.2431
  805MPD2     H11858   4.080   0.269  15.623 -0.5861  1.8131 -0.5796
  805MPD2    H111859   4.032   0.530  15.947 -1.0383  0.7947 -0.2628
  805MPD2    H211860   3.683   0.369  15.773  0.5193 -1.2939 -1.4757
  805MPD2    H311861   3.777   0.496  15.936 -1.6654 -2.0407 -0.8450
  805MPD2     N11862   4.201   0.411  15.773 -0.3335 -0.2818  0.5554
  805MPD2    H511863   4.253   0.349  15.712 -0.8878 -1.9562  1.7892
  805MPD2    N111864   3.832   0.205  15.587 -0.2777 -0.2633  0.2698
  805MPD2    H711865   3.902   0.155  15.532  0.3353  0.2498  0.5899
  806MPD2     C11866   4.444   4.445   0.405  0.2643 -0.2287 -0.0229
  806MPD2    C111867   4.493   4.321   0.447  0.1375 -0.9181 -0.4359
  806MPD2    C211868   4.621   4.294   0.406  0.1852  0.1868  0.0265
  806MPD2    C311869   4.696   4.388   0.335 -0.1114  0.0757 -0.2253
  806MPD2    C411870   4.643   4.504   0.283 -0.2679 -0.2181  0.2867
  806MPD2    C511871   4.516   4.526   0.318  0.5181  0.2642  0.3436
  806MPD2     H11872   4.662   4.199   0.439 -2.5174 -0.6847  0.8996
  806MPD2    H111873   4.701   4.573   0.223 -2.2086  1.1327 -0.0133
  806MPD2    H211874   4.346   4.480   0.437 -0.5744 -3.1713  0.6194
  806MPD2    H311875   4.480   4.626   0.295  0.7851  0.8278  2.3752
  806MPD2     N11876   0.102   4.342   0.301 -0.5259  0.0288  0.2984
  806MPD2    H511877   0.141   4.282   0.372  2.0684  2.2940  0.7786
  806MPD2    N111878   4.421   4.237   0.535  0.3479  0.1210 -0.4259
  806MPD2    H711879   4.332   4.270   0.571  0.1626 -0.9831  0.1367
  807MPD2     C11880   3.897   4.063   1.102 -0.0773  0.2834 -0.1758
  807MPD2    C111881   4.024   4.012   1.127  0.2761  0.4040  0.3445
  807MPD2    C211882   4.062   3.966   1.252 -0.1991  0.1339 -0.7920
  807MPD2    C311883   3.966   3.964   1.352  0.1344 -0.6296 -0.0194
  807MPD2    C411884   3.840   4.017   1.326  0.0831  0.3619  0.5688
  807MPD2    C511885   3.806   4.065   1.204 -0.2631  0.4807 -0.2352
  807MPD2     H11886   4.158   3.918   1.270  0.0919  0.0522 -2.5358
  807MPD2    H111887   3.766   4.009   1.404  0.9526 -0.1550  1.3360
  807MPD2    H211888   3.872   4.099   1.003  0.0680 -0.4079 -0.4647
  807MPD2    H311889   3.705   4.098   1.184 -1.0840 -2.8020 -1.5730
  807MPD2     N11890   3.991   3.927   1.491 -0.4897  0.3119  0.1218
  807MPD2    H511891   4.088   3.905   1.510  0.0726  1.4564 -1.4087
  807MPD2    N111892   4.117   3.993   1.020 -0.0705 -0.0513  0.5172
  807MPD2    H711893   4.192   3.926   1.033 -1.5461 -1.8472 -0.2489
  808MPD2     C11894   4.668   0.585   9.469 -0.1521  0.0101  0.5608
  808MPD2    C111895   4.714   0.604   9.596  0.3006  0.2534 -0.1896
  808MPD2    C211896   0.034   0.733   9.628  0.1161  0.0771 -0.8449
  808MPD2    C311897   0.028   0.844   9.539  0.1208 -0.0708  0.1297
  808MPD2    C411898   4.695   0.819   9.413  0.5033  0.3769 -0.1514
  808MPD2    C511899   4.649   0.687   9.382  0.0636  0.4430 -0.8827
  808MPD2     H11900   0.084   0.757   9.721  0.2961  0.8113 -1.1287
  808MPD2    H111901   4.676   0.896   9.339 -1.1222 -0.4001 -0.5301
  808MPD2    H211902   4.628   0.495   9.423 -0.2624  0.8941 -1.0766
  808MPD2    H311903   4.610   0.672   9.282  0.6240 -0.4923 -0.9582
  808MPD2     N11904   0.071   0.975   9.566 -0.8256  0.2014 -0.2873
  808MPD2    H511905   0.057   1.045   9.494  1.1220 -1.0088 -1.8442
  808MPD2    N111906   0.018   0.498   9.684  0.4783  1.0724 -0.0918
  808MPD2    H711907   0.057   0.513   9.776  0.4880  1.2510 -0.1257
  809MPD2     C11908   0.374   1.379   8.951  0.1426  0.7648  0.5002
  809MPD2    C111909   0.460   1.401   9.057 -0.1278 -0.0906  0.2661
  809MPD2    C211910   0.409   1.399   9.183  0.3621  0.6261  0.0467
  809MPD2    C311911   0.280   1.354   9.209 -0.2767 -0.3286  0.4109
  809MPD2    C411912   0.205   1.309   9.103  0.0564 -0.0759 -0.3565
  809MPD2    C511913   0.251   1.330   8.975  0.1135 -0.3438  0.1774
  809MPD2     H11914   0.481   1.414   9.262  1.2166 -1.0243 -0.4139
  809MPD2    H111915   0.112   1.262   9.133  1.1026 -1.7158  0.3246
  809MPD2    H211916   0.395   1.397   8.847 -2.0098 -2.5073 -0.5279
  809MPD2    H311917   0.175   1.313   8.900  0.4671 -3.0914  0.4332
  809MPD2     N11918   0.226   1.337   9.337 -0.3185  0.2264  0.1993
  809MPD2    H511919   0.145   1.277   9.350 -1.3150  1.4473 -0.3773
  809MPD2    N111920   0.596   1.431   9.046 -0.4456 -0.0162 -0.4987
  809MPD2    H711921   0.647   1.450   9.132  1.8232 -0.3134 -1.7713
  810MPD2     C11922   4.315   4.667  10.763  0.3420 -0.1115 -0.0327
  810MPD2    C111923   4.294   0.031  10.654  0.7867  0.0189 -0.1246
  810MPD2    C211924   4.197   0.130  10.656  0.2473 -0.4745  0.1191
  810MPD2    C311925   4.119   0.149  10.768 -0.8324 -0.5141  0.3476
  810MPD2    C411926   4.135   0.063  10.876  0.0225  0.1824  0.8003
  810MPD2    C511927   4.235   4.684  10.875  0.7627  0.5394  0.1715
  810MPD2     H11928   4.187   0.193  10.568 -0.2815 -0.0372  0.4913
  810MPD2    H111929   4.075   0.075  10.965 -1.6246  1.0074 -0.4332
  810MPD2    H211930   4.386   4.585  10.752 -0.8120 -1.2655  1.0144
  810MPD2    H311931   4.249   4.621  10.962  0.3075  1.1575  0.6911
  810MPD2     N11932   4.011   0.231  10.768  0.1652  0.2350 -0.8182
  810MPD2    H511933   3.958   0.240  10.854 -0.0455 -0.2723 -0.8963
  810MPD2    N111934   4.371   0.014  10.536 -0.3655  0.3794  0.1052
  810MPD2    H711935   4.426   4.648  10.525  0.5697  1.4075 -3.0639
  811MPD2     C11936   4.055   0.131   9.709  0.5126 -0.7468  0.6590
  811MPD2    C111937   4.112   0.212   9.804 -0.0961 -0.6741 -0.2342
  811MPD2    C211938   4.065   0.342   9.817 -0.0485 -0.0874  0.4026
  811MPD2    C311939   3.969   0.393   9.732  0.0787  0.5153  0.4381
  811MPD2    C411940   3.918   0.313   9.632  0.5771  0.2228  0.0380
  811MPD2    C511941   3.957   0.183   9.623 -0.1915  0.6362  1.4767
  811MPD2     H11942   4.101   0.406   9.896  1.0393  1.1419 -1.1075
  811MPD2    H111943   3.840   0.346   9.564  1.5725  0.2207 -1.1161
  811MPD2    H211944   4.082   0.026   9.702 -0.2215 -0.8097 -1.4158
  811MPD2    H311945   3.909   0.121   9.548  1.6172  0.8553  0.1351
  811MPD2     N11946   3.933   0.533   9.752 -0.5945 -0.3680 -0.0979
  811MPD2    H511947   3.991   0.591   9.812  0.8000 -1.2602 -0.5865
  811MPD2    N111948   4.197   0.144   9.893 -0.6535  0.0262 -0.0087
  811MPD2    H711949   4.214   0.050   9.859 -1.6597  0.0013 -0.4225
  812MPD2     C11950   3.361   1.182  12.507  0.3671  0.0085  0.0158
  812MPD2    C111951   3.251   1.095  12.484  0.2177  0.2294  0.3645
  812MPD2    C211952   3.248   0.971  12.534  0.0034  0.0877  0.2534
  812MPD2    C311953   3.359   0.925  12.605  0.5802  0.3866 -0.4344
  812MPD2    C411954   3.471   1.004  12.620  0.2386  0.1989 -0.0330
  812MPD2    C511955   3.469   1.131  12.573 -0.4207  0.0248  0.0197
  812MPD2     H11956   3.164   0.907  12.512  0.6046 -0.3977 -0.6389
  812MPD2    H111957   3.563   0.972  12.667  0.1713 -0.3250 -0.2568
  812MPD2    H211958   3.372   1.285  12.474  0.1729 -0.0220 -0.1431
  812MPD2    H311959   3.559   1.189  12.589 -0.3160 -0.1838  0.1904
  812MPD2     N11960   3.351   0.794  12.665 -0.1055  0.1768  0.3473
  812MPD2    H511961   3.261   0.749  12.653 -0.5307  0.8261  1.1383
  812MPD2    N111962   3.148   1.150  12.409  0.1456  0.2667  0.0195
  812MPD2    H711963   3.165   1.246  12.379  0.6706  0.1632 -0.0023
  813MPD2     C11964   2.834   2.641  12.788 -0.4145 -0.5545  0.3797
  813MPD2    C111965   2.773   2.765  12.798  0.7697 -0.0646  0.4516
  813MPD2    C211966   2.661   2.779  12.872  0.7390  0.3086  0.0891
  813MPD2    C311967   2.610   2.669  12.943 -0.4868 -0.5272  0.0357
  813MPD2    C411968   2.671   2.545  12.932  0.5283 -0.4879 -0.0017
  813MPD2    C511969   2.779   2.535  12.846 -0.8052  0.2607  0.7793
  813MPD2     H11970   2.598   2.867  12.873  0.4484  0.0581  2.4998
  813MPD2    H111971   2.646   2.450  12.977  0.8275 -0.3602  0.4335
  813MPD2    H211972   2.907   2.632  12.709 -2.0877  1.3538 -1.3809
  813MPD2    H311973   2.834   2.442  12.835  0.6440  1.3716 -1.3175
  813MPD2     N11974   2.495   2.687  13.034 -0.5818  0.2523 -0.3346
  813MPD2    H511975   2.463   2.782  13.046  0.3871  0.3676  1.3547
  813MPD2    N111976   2.834   2.868  12.715  0.2099  0.5083 -0.1124
  813MPD2    H711977   2.918   2.832  12.671 -0.0727  1.4869 -1.4626
  814MPD2     C11978   2.757   3.875  12.531 -0.0685 -0.3070  0.2716
  814MPD2    C111979   2.746   3.943  12.412  0.4592 -0.4631  0.2557
  814MPD2    C211980   2.827   4.054  12.388 -1.0498  0.1014 -0.4859
  814MPD2    C311981   2.909   4.107  12.485 -0.0672 -0.8647 -0.4986
  814MPD2    C411982   2.910   4.040  12.605 -0.1482 -0.4465 -0.4625
  814MPD2    C511983   2.843   3.924  12.627 -0.4617 -0.1250 -0.2989
  814MPD2     H11984   2.811   4.113  12.298 -1.7225 -0.9910 -1.0775
  814MPD2    H111985   2.973   4.069  12.689 -1.3096  1.0587 -0.1159
  814MPD2    H211986   2.707   3.783  12.558  2.6911 -1.8402  0.1246
  814MPD2    H311987   2.850   3.878  12.725  1.7357 -2.0836 -1.3625
  814MPD2     N11988   2.985   4.230  12.471 -0.2189  0.2101 -0.0975
  814MPD2    H511989   3.044   4.251  12.551 -0.3476  0.6892 -0.1313
  814MPD2    N111990   2.668   3.899  12.302 -0.5999  0.3553 -0.2502
  814MPD2    H711991   2.690   3.946  12.215 -2.5956 -0.7292 -1.3244
  815MPD2     C11992   3.425   2.383  11.825 -0.5521 -0.3242  0.3201
  815MPD2    C111993   3.378   2.258  11.857  0.2628 -0.0154 -0.1958
  815MPD2    C211994   3.282   2.248  11.955  0.4465  0.6663 -0.3834
  815MPD2    C311995   3.227   2.352  12.020 -0.3756 -0.2423  0.3443
  815MPD2    C411996   3.269   2.477  11.985  0.1381 -0.4325 -0.2929
  815MPD2    C511997   3.367   2.493  11.888  0.7613 -0.2387 -0.0052
  815MPD2     H11998   3.241   2.150  11.974  0.3030  0.9419  0.7337
  815MPD2    H111999   3.238   2.568  12.035  1.8328  1.5163 -2.7888
  815MPD2    H212000   3.499   2.400  11.748  0.2908 -0.0676  1.1802
  815MPD2    H312001   3.401   2.595  11.885  0.8481 -0.1914  2.4050
  815MPD2     N12002   3.126   2.333  12.116 -0.1627 -0.5414 -0.3608
  815MPD2    H512003   3.113   2.233  12.132 -0.7189 -0.1022  1.8723
  815MPD2    N112004   3.415   2.154  11.774  0.7893 -1.4652  0.5065
  815MPD2    H712005   3.472   2.176  11.693 -1.4253  0.1453 -0.6015
  816MPD2     C12006   3.297   1.445  17.349  0.0613  0.4440  0.2008
  816MPD2    C112007   3.382   1.540  17.391  0.6668  0.1007 -0.6251
  816MPD2    C212008   3.517   1.529  17.362 -0.4953 -0.1735  0.4153
  816MPD2    C312009   3.564   1.424  17.289  0.2082 -0.5155  0.3208
  816MPD2    C412010   3.477   1.321  17.257  0.4605  0.6359  0.2229
  816MPD2    C512011   3.345   1.331  17.288 -0.2682 -0.3481  0.1493
  816MPD2     H12012   3.590   1.601  17.398 -1.6558  0.8616  0.7111
  816MPD2    H112013   3.501   1.228  17.207  1.6547  0.3151  1.3639
  816MPD2    H212014   3.191   1.456  17.368  0.3480  2.5349  0.5271
  816MPD2    H312015   3.271   1.253  17.273  1.6148 -1.8250 -1.3386
  816MPD2     N12016   3.699   1.421  17.250 -0.4390 -0.4280  0.3334
  816MPD2    H512017   3.753   1.504  17.272  0.2145 -0.6083 -0.6049
  816MPD2    N112018   3.318   1.652  17.460 -0.5080  0.6894 -0.2892
  816MPD2    H712019   3.219   1.639  17.480  0.1293 -1.6556  1.3766
  817MPD2     C12020   3.591   2.538  10.270 -0.0616  0.0176 -0.0096
  817MPD2    C112021   3.543   2.542  10.146  0.6595 -0.2214  0.5834
  817MPD2    C212022   3.568   2.657  10.071 -0.3606 -0.2849 -0.4259
  817MPD2    C312023   3.644   2.760  10.118 -0.3157 -0.2873 -0.1756
  817MPD2    C412024   3.684   2.758  10.247  0.4374  0.9756  0.1281
  817MPD2    C512025   3.663   2.647  10.320  0.1762  0.3111 -0.1453
  817MPD2     H12026   3.540   2.662   9.966 -1.2244  2.8053 -0.0329
  817MPD2    H112027   3.738   2.838  10.296 -2.7062  2.0840  1.8221
  817MPD2    H212028   3.582   2.455  10.339 -0.3322  1.7168  1.9659
  817MPD2    H312029   3.707   2.638  10.418 -0.9397  0.6980  0.3910
  817MPD2     N12030   3.657   2.870  10.027 -0.1024 -0.0021  0.3451
  817MPD2    H512031   3.608   2.868   9.938  0.1166 -0.1956  0.2287
  817MPD2    N112032   3.456   2.444  10.090  0.3715 -0.4899 -0.1183
  817MPD2    H712033   3.413   2.474  10.003  2.2147  0.7858 -0.5783
  818MPD2     C12034   1.277   2.898   9.910 -0.4560 -0.0895  0.7806
  818MPD2    C112035   1.224   2.883  10.044 -0.4920 -0.7177 -0.2530
  818MPD2    C212036   1.122   2.788  10.060 -0.0179  0.5626  0.5034
  818MPD2    C312037   1.074   2.714   9.945  0.0175 -0.2703 -0.4354
  818MPD2    C412038   1.123   2.746   9.821 -0.2656 -0.5621  0.1282
  818MPD2    C512039   1.222   2.835   9.804 -0.0257  0.0354  0.2841
  818MPD2     H12040   1.077   2.769  10.157 -0.6173  0.4218  0.1975
  818MPD2    H112041   1.081   2.694   9.736 -1.8656  0.7228  0.1180
  818MPD2    H212042   1.354   2.973   9.895 -0.3932 -0.1679  0.7092
  818MPD2    H312043   1.252   2.854   9.701  0.1252  1.9415  0.6786
  818MPD2     N12044   0.973   2.613   9.948  0.6853  0.5881 -0.4876
  818MPD2    H512045   0.960   2.555   9.866  2.8165  0.1930 -0.5343
  818MPD2    N112046   1.288   2.938  10.154 -0.0609  0.1294 -0.7313
  818MPD2    H712047   1.261   2.894  10.241 -0.3489  1.4957 -0.1349
  819MPD2     C12048   4.634   4.703  15.568 -1.0668  0.5847 -0.2319
  819MPD2    C112049   4.712   4.592  15.560 -0.1601  0.2473  0.0092
  819MPD2    C212050   0.130   4.602  15.588  0.2575 -0.3455  0.3615
  819MPD2    C312051   0.182   4.717  15.645 -0.4575  0.3175  0.5690
  819MPD2    C412052   0.089   0.097  15.670  0.3228 -0.8326 -0.7867
  819MPD2    C512053   4.680   0.096  15.630 -0.9783 -0.1322 -0.4899
  819MPD2     H12054   0.202   4.523  15.568  1.1026  0.3340  0.6960
  819MPD2    H112055   0.118   0.195  15.707 -4.9329  0.0837  0.8255
  819MPD2    H212056   4.531   4.708  15.537 -0.7872  0.2564 -1.1830
  819MPD2    H312057   4.619   0.185  15.637  2.2438  2.1393 -1.7141
  819MPD2     N12058   0.315   0.000  15.672 -0.5213 -0.2886  0.4038
  819MPD2    H512059   0.369   4.646  15.625 -2.3401  0.8714 -3.4409
  819MPD2    N112060   4.657   4.479  15.516  0.3633  0.0515  0.1951
  819MPD2    H712061   4.560   4.486  15.487 -0.1089 -0.7187  1.5953
  820MPD2     C12062   3.835   4.204  15.110 -0.0062  0.5284 -1.4183
  820MPD2    C112063   3.879   4.294  15.203 -0.2386 -0.2560 -0.5141
  820MPD2    C212064   4.002   4.271  15.256 -0.0229  0.4394 -0.0918
  820MPD2    C312065   4.077   4.163  15.215 -0.1387 -0.1335  0.2499
  820MPD2    C412066   4.029   4.075  15.123 -0.2153  0.3561  0.5752
  820MPD2    C512067   3.908   4.095  15.067 -0.2502 -0.4063  0.2130
  820MPD2     H12068   4.044   4.330  15.336 -0.0573  1.9563 -1.2055
  820MPD2    H112069   4.089   3.993  15.084 -0.8771  1.9415 -3.7526
  820MPD2    H212070   3.741   4.225  15.061 -0.5630  0.2797 -0.4350
  820MPD2    H312071   3.880   4.033  14.982 -2.5037 -0.7556  1.2226
  820MPD2     N12072   4.216   4.147  15.250  0.4609  0.2573  0.2595
  820MPD2    H512073   4.259   4.076  15.191 -1.3611  0.9375 -1.8508
  820MPD2    N112074   3.800   4.415  15.234  0.4535  0.9299 -0.0033
  820MPD2    H712075   3.702   4.409  15.206  0.0630  1.9231  1.1274
  821MPD2     C12076   0.348   1.306  13.042 -0.3010  0.0352  0.0459
  821MPD2    C112077   0.432   1.217  13.112  0.2175  0.0976  1.0243
  821MPD2    C212078   0.563   1.199  13.073  0.6108  1.1376  0.1857
  821MPD2    C312079   0.609   1.254  12.957  0.1762 -0.0888  0.7285
  821MPD2    C412080   0.528   1.331  12.881 -0.3903 -0.2357 -0.5835
  821MPD2    C512081   0.403   1.358  12.924  0.0652 -0.0521  0.1236
  821MPD2     H12082   0.618   1.142  13.147 -1.9578 -0.3982  0.9037
  821MPD2    H112083   0.563   1.399  12.804  0.0376 -0.0547 -0.2297
  821MPD2    H212084   0.249   1.339  13.073 -0.9994 -1.0869 -0.9906
  821MPD2    H312085   0.344   1.422  12.860  0.5751  0.3975  0.1103
  821MPD2     N12086   0.748   1.252  12.923 -0.2494  0.1855  0.1207
  821MPD2    H512087   0.767   1.294  12.833  1.5650  0.1188  0.4820
  821MPD2    N112088   0.405   1.151  13.233  0.0948 -0.0347 -0.3401
  821MPD2    H712089   0.485   1.100  13.269 -1.0742  0.4301  2.9466
  822MPD2     C12090   0.773   1.249  15.709  0.0258  0.5251  0.5429
  822MPD2    C112091   0.782   1.245  15.849 -0.4046 -0.2684 -0.4760
  822MPD2    C212092   0.705   1.329  15.923 -0.1069 -0.7067 -0.8054
  822MPD2    C312093   0.650   1.443  15.868 -0.0527 -0.6813  0.1537
  822MPD2    C412094   0.650   1.459  15.732  0.0826  0.8953  0.4224
  822MPD2    C512095   0.708   1.361  15.655  0.8093  0.1219  0.3133
  822MPD2     H12096   0.699   1.306  16.028 -1.8671  0.9731 -0.5420
  822MPD2    H112097   0.617   1.545  15.675 -1.6011  0.5484  0.8727
  822MPD2    H212098   0.839   1.189  15.649 -0.9040 -1.9940  2.0509
  822MPD2    H312099   0.713   1.387  15.550 -1.4677 -0.1425  0.1316
  822MPD2     N12100   0.586   1.528  15.960 -0.3078  0.5289  0.4032
  822MPD2    H512101   0.573   1.488  16.052 -1.6218 -1.1866 -0.5291
  822MPD2    N112102   0.854   1.142  15.921  0.8444  0.0620  0.1990
  822MPD2    H712103   0.833   1.147  16.020  2.2160 -0.4973  0.5254
  823MPD2     C12104   0.378   1.776  16.760  0.7293 -0.4952 -0.3460
  823MPD2    C112105   0.429   1.688  16.671  0.7715 -0.4592  0.2910
  823MPD2    C212106   0.465   1.563  16.711  0.3577  0.0243  0.0151
  823MPD2    C312107   0.457   1.531  16.843 -0.3006  0.6301  0.7721
  823MPD2    C412108   0.425   1.632  16.937  0.1590 -0.4159 -0.0788
  823MPD2    C512109   0.381   1.751  16.896 -0.6504  0.3098  0.0660
  823MPD2     H12110   0.503   1.492  16.638 -0.9273 -0.1531 -0.4649
  823MPD2    H112111   0.432   1.612  17.043 -2.3167 -1.1609 -0.0649
  823MPD2    H212112   0.333   1.868  16.723  1.6816  0.1484  0.0949
  823MPD2    H312113   0.348   1.826  16.967 -1.1923 -0.6503  0.8309
  823MPD2     N12114   0.501   1.418  16.905 -0.0379  0.0825 -0.4053
  823MPD2    H512115   0.501   1.433  17.006 -0.3961 -0.8922 -0.2655
  823MPD2    N112116   0.436   1.733  16.542 -0.6013 -0.0796 -0.5961
  823MPD2    H712117   0.418   1.833  16.540 -3.3349 -0.5184  1.3476
  824MPD2     C12118   1.096   0.291  16.045 -0.3576  0.6455  0.2191
  824MPD2    C112119   1.137   0.391  15.962  0.0557 -0.4594  0.0145
  824MPD2    C212120   1.233   0.359  15.867 -0.6789  0.8384 -0.1032
  824MPD2    C312121   1.294   0.238  15.860  0.1030  0.2097 -0.1138
  824MPD2    C412122   1.250   0.136  15.946  0.4291  0.2585  0.6190
  824MPD2    C512123   1.152   0.168  16.041 -0.0139 -0.1071  0.2583
  824MPD2     H12124   1.259   0.432  15.791 -1.1108 -0.7227 -1.7688
  824MPD2    H112125   1.310   0.047  15.960  0.4103  0.1710  0.1620
  824MPD2    H212126   1.023   0.320  16.120  0.5043  1.7138  0.6537
  824MPD2    H312127   1.131   0.095  16.118 -0.0953  0.4117  0.7323
  824MPD2     N12128   1.409   0.210  15.783 -0.4194 -0.0644 -0.2320
  824MPD2    H512129   1.465   0.131  15.811  1.6735  1.2113 -0.8009
  824MPD2    N112130   1.097   0.523  15.987  0.3425  0.1710 -0.3361
  824MPD2    H712131   1.032   0.539  16.063  0.4672 -0.0322 -0.1860
  825MPD2     C12132   2.126   0.376  15.184  0.2932  0.5827 -0.4030
  825MPD2    C112133   2.025   0.431  15.256 -0.8698  0.4090 -0.3650
  825MPD2    C212134   2.015   0.570  15.269 -0.3479 -0.6538 -0.1425
  825MPD2    C312135   2.105   0.651  15.200  0.6648  0.0632  0.1377
  825MPD2    C412136   2.204   0.595  15.127  0.3838 -0.1086  0.8699
  825MPD2    C512137   2.208   0.461  15.117 -0.0895 -0.6246 -0.4021
  825MPD2     H12138   1.931   0.617  15.317  0.4732  0.5909  0.0832
  825MPD2    H112139   2.278   0.654  15.073  0.0467  0.4990  1.0799
  825MPD2    H212140   2.141   0.268  15.181  2.9327  0.9536 -0.1472
  825MPD2    H312141   2.287   0.421  15.054  0.8599 -0.9010  0.9704
  825MPD2     N12142   2.118   0.794  15.207 -0.3240  0.2861 -0.1671
  825MPD2    H512143   2.210   0.829  15.185 -0.3843  2.0547  2.3156
  825MPD2    N112144   1.936   0.340  15.315  0.3344  0.2105 -0.6893
  825MPD2    H712145   1.947   0.241  15.297 -0.6556 -0.1276  0.5338
  826MPD2     C12146   1.920   1.173  13.943  0.0911  0.0900  0.0307
  826MPD2    C112147   1.881   1.041  13.920 -0.8548 -0.0567 -0.2656
  826MPD2    C212148   1.746   1.014  13.904 -0.5510  0.2615  0.2129
  826MPD2    C312149   1.652   1.112  13.894 -0.4599 -0.2246  0.3157
  826MPD2    C412150   1.695   1.242  13.889 -0.4961 -0.1850 -0.0108
  826MPD2    C512151   1.825   1.276  13.927 -0.2732 -0.0765 -0.3969
  826MPD2     H12152   1.716   0.910  13.895 -0.6820  0.4433 -1.4637
  826MPD2    H112153   1.619   1.319  13.881 -0.1422  0.3582  1.9414
  826MPD2    H212154   2.025   1.188  13.966  0.1028  3.2923 -2.0774
  826MPD2    H312155   1.845   1.381  13.946  0.9184 -0.5489  0.9686
  826MPD2     N12156   1.513   1.077  13.878  0.0960  0.1540  0.3858
  826MPD2    H512157   1.446   1.149  13.854  0.7648  0.2377 -1.2329
  826MPD2    N112158   1.987   0.941  13.917 -0.7843  0.3488  0.2423
  826MPD2    H712159   2.082   0.969  13.935 -0.9209  0.1638  1.2455
  827MPD2     C12160   2.135   1.646   9.938 -0.2290  0.6376  0.2226
  827MPD2    C112161   2.130   1.565  10.052 -1.2626 -0.9625 -0.7091
  827MPD2    C212162   2.073   1.445  10.038  0.3939 -0.5724  0.4671
  827MPD2    C312163   2.034   1.395   9.913 -0.1443  0.1639  0.3507
  827MPD2    C412164   2.051   1.470   9.799  0.7647  0.6892 -0.1089
  827MPD2    C512165   2.109   1.592   9.811 -0.2481  1.0126 -0.2521
  827MPD2     H12166   2.059   1.384  10.127  0.8872 -1.4695 -0.0600
  827MPD2    H112167   2.012   1.442   9.702  0.4839 -1.0117  0.5048
  827MPD2    H212168   2.178   1.745   9.935 -0.9764  0.9479 -0.2958
  827MPD2    H312169   2.127   1.649   9.721  1.6950 -0.8523 -1.0226
  827MPD2     N12170   1.944   1.281   9.915  0.5596  0.0614 -0.5249
  827MPD2    H512171   1.928   1.242  10.007  0.1580 -1.3021 -1.1696
  827MPD2    N112172   2.158   1.625  10.177 -0.1598  0.3297 -0.0034
  827MPD2    H712173   2.201   1.716  10.171  0.0592 -0.0220 -3.9217
  828MPD2     C12174   0.890   1.915  11.995  0.2111 -0.5725  0.2913
  828MPD2    C112175   0.807   1.813  11.950 -0.1283  0.1566 -0.4003
  828MPD2    C212176   0.845   1.739  11.843 -0.3509 -0.4316  0.3951
  828MPD2    C312177   0.968   1.764  11.787  0.1120 -0.4414  0.1539
  828MPD2    C412178   1.048   1.866  11.833 -0.1259  0.4732 -0.2864
  828MPD2    C512179   1.013   1.943  11.936  0.0292  0.8347  0.0961
  828MPD2     H12180   0.772   1.675  11.794  1.7741 -1.8787 -0.8902
  828MPD2    H112181   1.147   1.888  11.794  0.1280  1.0296  0.6651
  828MPD2    H212182   0.863   1.987  12.072  3.4945  0.8338  0.1385
  828MPD2    H312183   1.070   2.028  11.970 -3.7911  2.9053  1.3324
  828MPD2     N12184   1.013   1.685  11.679  0.1021 -0.0116 -0.0199
  828MPD2    H512185   1.104   1.715  11.648  0.3274 -0.8247 -0.1446
  828MPD2    N112186   0.681   1.792  12.011  0.2810  0.4114  0.5551
  828MPD2    H712187   0.630   1.709  11.983  1.9731  0.5182 -2.8641
  829MPD2     C12188   0.023   1.602  11.561 -0.3147 -0.4964  0.3230
  829MPD2    C112189   4.674   1.583  11.681  0.4703 -0.7303 -0.3840
  829MPD2    C212190   0.038   1.602  11.795 -0.3539 -0.2619  0.2118
  829MPD2    C312191   0.173   1.629  11.788 -0.9650  0.3208 -0.2417
  829MPD2    C412192   0.236   1.647  11.665  0.4707  0.0792  0.0488
  829MPD2    C512193   0.153   1.637  11.553  1.0436  0.5104 -0.4050
  829MPD2     H12194   4.707   1.593  11.891  1.3667  1.8372  1.2927
  829MPD2    H112195   0.339   1.679  11.660  0.2814  0.1936 -3.4918
  829MPD2    H212196   4.692   1.584  11.466  1.0625  0.6008 -0.5924
  829MPD2    H312197   0.197   1.660  11.457  1.1352  1.2762 -0.1871
  829MPD2     N12198   0.256   1.665  11.903 -0.3505  0.2280  0.2821
  829MPD2    H512199   0.351   1.698  11.890 -0.6590  0.2667 -1.7770
  829MPD2    N112200   4.540   1.548  11.681  0.2306  0.3502  0.0924
  829MPD2    H712201   4.497   1.535  11.590  0.6014  2.9629 -0.4716
  830MPD2     C12202   0.963   4.424  15.375 -0.0042 -0.1352 -0.0685
  830MPD2    C112203   0.901   4.544  15.371 -0.4818  0.0673 -0.2369
  830MPD2    C212204   0.913   4.620  15.259  0.1388  0.3588  0.7485
  830MPD2    C312205   0.965   4.568  15.147 -0.4686 -0.0867 -0.0674
  830MPD2    C412206   1.016   4.437  15.152 -1.0384 -0.1468 -0.4411
  830MPD2    C512207   1.015   4.362  15.267 -0.5066 -0.2000 -0.2579
  830MPD2     H12208   0.870   0.002  15.255 -1.3270 -0.3012  0.1499
  830MPD2    H112209   1.045   4.386  15.061 -2.0501 -2.7857  0.6983
  830MPD2    H212210   0.971   4.364  15.465  0.1320  0.6388  0.4439
  830MPD2    H312211   1.050   4.260  15.271 -0.2948 -0.1576 -0.9984
  830MPD2     N12212   0.967   4.650  15.034 -0.3297  0.4176 -0.0673
  830MPD2    H512213   0.918   0.020  15.026 -0.9873 -0.0088 -0.6627
  830MPD2    N112214   0.848   4.585  15.493 -0.2718  0.1863 -0.2250
  830MPD2    H712215   0.863   4.526  15.574  2.8384  0.4419 -0.6177
  831MPD2     C12216   0.897   1.610  16.315 -0.6122  0.0070  0.0476
  831MPD2    C112217   0.903   1.505  16.231  0.6143 -0.7420  0.2156
  831MPD2    C212218   0.829   1.391  16.252 -0.1711  0.3991  0.0033
  831MPD2    C312219   0.750   1.378  16.366 -0.1315 -0.1382 -0.3202
  831MPD2    C412220   0.742   1.484  16.446  0.0581  0.1255 -0.2457
  831MPD2    C512221   0.818   1.598  16.427 -0.4211 -0.1376 -0.5313
  831MPD2     H12222   0.841   1.309  16.183  0.1650 -0.5257  1.1547
  831MPD2    H112223   0.677   1.476  16.533 -0.4462 -0.4929 -0.6744
  831MPD2    H212224   0.964   1.694  16.305 -0.1930 -0.1625  1.4915
  831MPD2    H312225   0.820   1.682  16.495  0.3548  0.7745 -1.7026
  831MPD2     N12226   0.660   1.276  16.389 -0.1978  0.1357 -0.4030
  831MPD2    H512227   0.591   1.289  16.463  1.5062  3.8087  0.5354
  831MPD2    N112228   1.004   1.506  16.135  0.3497  0.3099  0.0396
  831MPD2    H712229   1.045   1.596  16.109 -0.1999  0.5970  0.1722
  832MPD2     C12230   4.114   2.660  17.250 -0.2883  0.4969 -0.0794
  832MPD2    C112231   4.043   2.778  17.230  0.6192 -0.4062 -0.1076
  832MPD2    C212232   3.926   2.779  17.165 -0.3188 -0.1232  0.1163
  832MPD2    C312233   3.860   2.661  17.147 -0.2141  0.1239  0.4741
  832MPD2    C412234   3.918   2.540  17.173 -0.0190 -0.0607  0.3873
  832MPD2    C512235   4.045   2.541  17.229 -0.3342  0.0181  0.3655
  832MPD2     H12236   3.869   2.871  17.154 -0.3817 -0.2423 -0.5137
  832MPD2    H112237   3.867   2.446  17.157  1.8962 -0.8144 -1.1507
  832MPD2    H212238   4.210   2.669  17.299 -0.3234  1.1082 -0.1261
  832MPD2    H312239   4.105   2.451  17.233 -0.6584 -0.2067  0.1224
  832MPD2     N12240   3.726   2.645  17.104  0.0950 -0.0471  0.2363
  832MPD2    H512241   3.695   2.549  17.113 -0.8316  0.0920 -1.4662
  832MPD2    N112242   4.109   2.894  17.279 -0.2871  0.4497  0.5347
  832MPD2    H712243   4.200   2.876  17.321 -0.0668  0.6274  0.1430
  833MPD2     C12244   1.040   4.326  12.158  0.4215  0.2179  0.1581
  833MPD2    C112245   1.077   4.451  12.109  0.2809 -0.6677 -0.3995
  833MPD2    C212246   1.187   4.460  12.024 -0.7092 -0.5616  0.4924
  833MPD2    C312247   1.261   4.342  11.988 -0.1709 -0.1770 -0.6722
  833MPD2    C412248   1.220   4.218  12.041  0.8125 -0.0938 -0.9367
  833MPD2    C512249   1.111   4.208  12.127  0.3971  0.4775  0.2220
  833MPD2     H12250   1.217   4.554  11.981  1.4082 -0.4022  2.3057
  833MPD2    H112251   1.271   4.125  12.016  1.9340  0.0559  0.7781
  833MPD2    H212252   0.958   4.313  12.228  1.2252 -0.4705  0.9798
  833MPD2    H312253   1.098   4.116  12.182  0.0429 -0.4914 -1.5004
  833MPD2     N12254   1.369   4.347  11.902 -0.0160 -0.7033 -0.0004
  833MPD2    H512255   1.388   4.256  11.863 -0.8266 -0.7392 -0.3056
  833MPD2    N112256   1.000   4.561  12.151  0.0247  0.9261 -0.6779
  833MPD2    H712257   0.915   4.541  12.203 -0.9707  1.7435 -2.0173
  834MPD2     C12258   0.979   3.891  11.440 -0.1313 -0.8129  0.2108
  834MPD2    C112259   1.038   3.942  11.331 -0.1062  0.1257  0.7583
  834MPD2    C212260   1.152   4.018  11.344 -0.0982  0.0884 -0.0043
  834MPD2    C312261   1.188   4.066  11.473 -0.0897  0.3284  0.0829
  834MPD2    C412262   1.114   4.024  11.581 -0.8295 -0.3602  0.6089
  834MPD2    C512263   1.009   3.941  11.564  0.2819 -0.1322 -0.4000
  834MPD2     H12264   1.217   4.041  11.260 -1.0200 -0.8735 -0.9715
  834MPD2    H112265   1.123   4.046  11.687  1.8269  1.1516  0.0874
  834MPD2    H212266   0.898   3.819  11.435  1.6949 -3.0049  2.2092
  834MPD2    H312267   0.965   3.908  11.657 -2.3265  0.1276 -1.5375
  834MPD2     N12268   1.296   4.158  11.484  0.7240 -0.0183  0.2685
  834MPD2    H512269   1.325   4.197  11.395  0.5859 -0.3512  0.0755
  834MPD2    N112270   0.992   3.894  11.207  0.5542 -0.5046 -0.7414
  834MPD2    H712271   0.919   3.824  11.215  0.3566 -0.2426 -0.2794
  835MPD2     C12272   1.526   1.473  11.024 -0.8716 -0.6142  0.8527
  835MPD2    C112273   1.478   1.601  11.030 -0.2313 -0.2263  0.5633
  835MPD2    C212274   1.531   1.693  11.122  0.2241  0.4803 -1.5088
  835MPD2    C312275   1.640   1.655  11.201  0.1295 -0.1127 -0.3629
  835MPD2    C412276   1.687   1.527  11.182 -0.2435  0.2159 -0.3285
  835MPD2    C512277   1.635   1.442  11.097  0.9098 -0.2918 -0.4778
  835MPD2     H12278   1.498   1.796  11.124  1.8348  0.9384  1.3861
  835MPD2    H112279   1.771   1.486  11.237  0.3837  0.5712 -1.0219
  835MPD2    H212280   1.493   1.398  10.954 -0.5767 -0.1896  0.2619
  835MPD2    H312281   1.683   1.345  11.098 -0.1562 -0.8411 -2.5214
  835MPD2     N12282   1.697   1.737  11.296  0.0713  0.2727 -0.4414
  835MPD2    H512283   1.768   1.697  11.355 -0.4638 -0.4816 -0.3126
  835MPD2    N112284   1.376   1.649  10.944  0.2207  0.1645 -0.0669
  835MPD2    H712285   1.354   1.745  10.970  0.2533  0.0166  0.5079
  836MPD2     C12286   1.769   2.369  11.993 -0.0996  0.8389 -0.3336
  836MPD2    C112287   1.678   2.278  11.939 -0.6024 -0.2449  0.2344
  836MPD2    C212288   1.568   2.239  12.014 -0.2588  0.1184  0.3708
  836MPD2    C312289   1.537   2.296  12.134  0.1821 -0.8717  0.1223
  836MPD2    C412290   1.632   2.380  12.195 -0.0368 -0.5731 -0.7564
  836MPD2    C512291   1.741   2.420  12.120  0.4880  0.4851 -0.3518
  836MPD2     H12292   1.512   2.152  11.984  1.2667 -0.5598 -0.5062
  836MPD2    H112293   1.615   2.421  12.294  0.6239  3.4001 -2.2896
  836MPD2    H212294   1.857   2.413  11.948  0.4368  0.8657  0.7396
  836MPD2    H312295   1.813   2.488  12.164 -1.0923  3.0314 -1.7290
  836MPD2     N12296   1.421   2.261  12.207  0.0131 -0.5658 -0.5331
  836MPD2    H512297   1.427   2.288  12.305 -0.0783  0.6129 -0.8506
  836MPD2    N112298   1.716   2.210  11.820  0.0035  0.1912  0.0364
  836MPD2    H712299   1.814   2.214  11.794 -0.0760  0.1748 -0.2622
  837MPD2     C12300   4.151   1.285   9.792  0.8953 -0.0556  0.1402
  837MPD2    C112301   4.063   1.248   9.897 -0.2543  0.9491  0.2483
  837MPD2    C212302   4.003   1.344   9.976  0.3547  0.1931  0.2101
  837MPD2    C312303   4.028   1.479   9.949  0.3261 -0.2999  0.6269
  837MPD2    C412304   4.135   1.506   9.867 -0.5944  0.2298 -0.3072
  837MPD2    C512305   4.192   1.413   9.791  0.7852  0.3466 -0.1451
  837MPD2     H12306   3.919   1.315  10.038 -0.6035 -0.2747 -1.2850
  837MPD2    H112307   4.157   1.608   9.838  0.0866 -0.1425 -1.0704
  837MPD2    H212308   4.198   1.208   9.731 -0.7136 -1.2591  0.4121
  837MPD2    H312309   4.274   1.443   9.726 -0.7852  2.9098 -0.9638
  837MPD2     N12310   3.934   1.572  10.006  0.6665 -1.4270 -0.5859
  837MPD2    H512311   3.860   1.531  10.062 -0.0411 -1.1657 -1.3198
  837MPD2    N112312   4.008   1.119   9.915 -0.2604 -0.1873  0.1073
  837MPD2    H712313   3.945   1.111   9.994 -0.0208 -0.3593  0.2815
  838MPD2     C12314   2.388   0.364  11.692  0.1277  0.1821  0.2938
  838MPD2    C112315   2.372   0.228  11.714  0.7847 -0.2178 -0.2133
  838MPD2    C212316   2.281   0.191  11.814 -0.1149 -0.3382  0.2141
  838MPD2    C312317   2.204   0.287  11.878 -0.6189  0.5356  0.2640
  838MPD2    C412318   2.223   0.420  11.855 -0.3189 -0.5793  0.0086
  838MPD2    C512319   2.320   0.460  11.767  0.3002  0.1160  0.1549
  838MPD2     H12320   2.272   0.086  11.842  2.0827 -0.2730  1.2073
  838MPD2    H112321   2.162   0.490  11.911  2.1842  2.1178 -0.6252
  838MPD2    H212322   2.456   0.404  11.617  0.9148 -1.0217  0.3606
  838MPD2    H312323   2.333   0.564  11.743 -0.7667 -0.2324 -1.9049
  838MPD2     N12324   2.087   0.237  11.950  0.6641 -0.0814 -0.0391
  838MPD2    H512325   2.059   0.140  11.940  0.8683 -0.1994  0.5602
  838MPD2    N112326   2.432   0.123  11.632 -0.3083  0.4433  0.2345
  838MPD2    H712327   2.401   0.028  11.650  0.3804  0.3162  0.7500
  839MPD2     C12328   1.809   4.359  11.414 -0.6155 -0.1277 -0.0310
  839MPD2    C112329   1.906   4.269  11.366  0.1929 -0.6396  0.0257
  839MPD2    C212330   2.032   4.320  11.340  0.2451 -0.1733 -0.0053
  839MPD2    C312331   2.066   4.452  11.375 -0.5182 -0.5230 -0.3736
  839MPD2    C412332   1.965   4.535  11.409  0.0568 -0.2218  0.2480
  839MPD2    C512333   1.838   4.490  11.427 -0.1332  0.5997 -0.8565
  839MPD2     H12334   2.103   4.245  11.311 -0.3805 -1.1065  0.8590
  839MPD2    H112335   1.980   4.639  11.439 -0.1138 -0.2060  0.2758
  839MPD2    H212336   1.704   4.334  11.418 -0.2419 -1.4133  1.6934
  839MPD2    H312337   1.758   4.554  11.461 -0.7096 -1.0643  0.9838
  839MPD2     N12338   2.194   4.515  11.389 -0.1307  0.1852 -0.1413
  839MPD2    H512339   2.189   4.611  11.419  1.7629  0.3506 -0.3382
  839MPD2    N112340   1.882   4.133  11.338  0.3363 -0.1571 -0.3701
  839MPD2    H712341   1.956   4.087  11.287  0.5495  0.0221 -0.2264
  840MPD2     C12342   2.481   2.122  10.187 -1.0349  0.0179  0.7409
  840MPD2    C112343   2.460   2.108  10.320  0.1403  0.2985 -0.3077
  840MPD2    C212344   2.524   2.193  10.409 -0.2385 -0.0729 -0.2792
  840MPD2    C312345   2.601   2.297  10.365 -0.0797 -0.4180  0.3012
  840MPD2    C412346   2.625   2.313  10.226 -0.0490 -0.6581 -0.9813
  840MPD2    C512347   2.570   2.219  10.139 -0.1349  0.1639  0.4096
  840MPD2     H12348   2.510   2.181  10.516 -0.3504  1.9652 -0.0804
  840MPD2    H112349   2.684   2.396  10.189  0.8540 -0.6886  0.3667
  840MPD2    H212350   2.435   2.061  10.111  1.5760 -2.8776  1.5263
  840MPD2    H312351   2.582   2.245  10.034 -0.2050  0.4793  0.4777
  840MPD2     N12352   2.681   2.375  10.456  0.2660  0.5111  0.5761
  840MPD2    H512353   2.747   2.445  10.422  1.8483 -1.2924 -0.0517
  840MPD2    N112354   2.372   2.002  10.360 -0.3279  0.2736  0.1312
  840MPD2    H712355   2.310   1.965  10.289  0.0498  0.7006 -0.4239
  841MPD2     C12356   2.330   1.777  14.492 -0.0664  0.1742 -0.2338
  841MPD2    C112357   2.455   1.742  14.483  0.3155  1.4914 -0.5649
  841MPD2    C212358   2.550   1.826  14.543 -0.3721  0.2351  0.0512
  841MPD2    C312359   2.508   1.943  14.609 -0.0070 -0.0798 -0.4240
  841MPD2    C412360   2.376   1.964  14.626  0.4022  0.1107 -0.1625
  841MPD2    C512361   2.286   1.875  14.568  0.2327 -0.1575  0.8027
  841MPD2     H12362   2.657   1.804  14.542 -0.4166  0.0178  0.1734
  841MPD2    H112363   2.338   2.052  14.677 -1.0320  1.5670 -3.6941
  841MPD2    H212364   2.254   1.725  14.434  0.0022 -0.6356  0.4105
  841MPD2    H312365   2.180   1.895  14.573  0.2858  0.7013 -1.7159
  841MPD2     N12366   2.598   2.037  14.669  0.1299 -0.2428  0.9254
  841MPD2    H512367   2.560   2.113  14.725 -1.8234 -1.1390  0.7998
  841MPD2    N112368   2.509   1.635  14.405  0.4089  0.4644  0.2393
  841MPD2    H712369   2.610   1.632  14.405  0.4055  0.8234 -1.2323
  842MPD2     C12370   3.064   3.022  16.714 -0.5164  0.7526  0.0782
  842MPD2    C112371   3.029   2.902  16.773 -0.4293 -1.3879 -0.2045
  842MPD2    C212372   3.071   2.884  16.905  0.2844 -0.4669  0.3984
  842MPD2    C312373   3.164   2.967  16.971 -0.0555 -0.1248 -0.2163
  842MPD2    C412374   3.202   3.082  16.900 -0.7366  0.7361 -0.7674
  842MPD2    C512375   3.146   3.109  16.780 -0.3360 -0.8317  0.6739
  842MPD2     H12376   3.055   2.791  16.958  2.9379 -1.4903 -0.5860
  842MPD2    H112377   3.265   3.153  16.953 -0.6275 -0.1644  0.3374
  842MPD2    H212378   3.026   3.034  16.614 -2.4189 -0.2733  0.6893
  842MPD2    H312379   3.169   3.199  16.724 -0.6185 -0.6770  0.8088
  842MPD2     N12380   3.199   2.954  17.106  0.6014  0.2557  0.3524
  842MPD2    H512381   3.257   3.030  17.140 -0.2246  1.7762 -1.6288
  842MPD2    N112382   2.951   2.804  16.709 -0.6321 -0.5839  0.0129
  842MPD2    H712383   2.947   2.802  16.607 -3.0854 -0.5479  0.1278
  843MPD2     C12384   0.665   3.081   0.496 -1.2884  0.4672 -1.0479
  843MPD2    C112385   0.798   3.050   0.499  0.2060 -0.0027  0.1448
  843MPD2    C212386   0.883   3.129   0.426 -0.9544  0.1468 -0.3480
  843MPD2    C312387   0.837   3.239   0.352 -0.6409 -0.3311  0.4537
  843MPD2    C412388   0.703   3.277   0.365 -0.0599  0.0965  0.4776
  843MPD2    C512389   0.615   3.194   0.434 -0.3203 -0.2723  0.0828
  843MPD2     H12390   0.989   3.110   0.431 -0.7062  1.6843  0.3670
  843MPD2    H112391   0.665   3.371   0.329 -1.2527 -0.0223  1.4316
  843MPD2    H212392   0.601   3.024   0.563  0.4060 -0.2758 -0.0744
  843MPD2    H312393   0.510   3.216   0.447 -0.1849  0.2869  0.2346
  843MPD2     N12394   0.926   3.329   0.288  0.2200  0.3405  0.0564
  843MPD2    H512395   0.888   3.418   0.258 -0.5750 -0.4991 -1.4144
  843MPD2    N112396   0.836   2.930   0.571  0.5691  0.2127 -0.5334
  843MPD2    H712397   0.761   2.883   0.621  1.2301  0.9702  1.1640
  844MPD2     C12398   3.359   2.178  16.686 -0.4072  0.5483 -0.0939
  844MPD2    C112399   3.476   2.133  16.625  0.0184  0.4005  0.0962
  844MPD2    C212400   3.594   2.193  16.664  0.4515  0.7082  0.1113
  844MPD2    C312401   3.597   2.315  16.727 -0.8281  0.5344  0.1830
  844MPD2    C412402   3.479   2.366  16.772  0.0817 -0.7183  0.3996
  844MPD2    C512403   3.361   2.296  16.762  0.9247  0.5161 -0.1554
  844MPD2     H12404   3.677   2.135  16.624  0.5121  2.6446 -2.5261
  844MPD2    H112405   3.477   2.444  16.847  0.4088 -0.1711 -0.1683
  844MPD2    H212406   3.265   2.125  16.671 -0.9949  1.3826  0.6439
  844MPD2    H312407   3.273   2.340  16.807 -0.6086 -2.9633  0.3064
  844MPD2     N12408   3.719   2.375  16.753 -0.7546 -0.9480 -0.0930
  844MPD2    H512409   3.798   2.313  16.742 -0.2451 -0.1313 -1.0819
  844MPD2    N112410   3.473   2.031  16.525 -0.9342  0.7921  0.2213
  844MPD2    H712411   3.563   1.995  16.494 -1.0695  0.8115 -0.1896
  845MPD2     C12412   4.063   3.326  16.877  0.2050 -0.2700 -0.9141
  845MPD2    C112413   3.970   3.255  16.955  0.2054  0.3872  0.5384
  845MPD2    C212414   3.956   3.120  16.938 -0.7470 -0.5259 -0.0692
  845MPD2    C312415   4.042   3.046  16.863 -0.7185  0.2322  1.1454
  845MPD2    C412416   4.134   3.117  16.791 -0.2017  1.0855  0.4049
  845MPD2    C512417   4.145   3.255  16.793 -0.1516  0.4363  0.0672
  845MPD2     H12418   3.879   3.062  16.988 -0.7299 -0.2600  0.2658
  845MPD2    H112419   4.199   3.069  16.719  1.0706  1.3580  1.3725
  845MPD2    H212420   4.074   3.434  16.878 -0.6245 -0.2022  0.4466
  845MPD2    H312421   4.216   3.306  16.730  2.1459 -3.3185 -0.3608
  845MPD2     N12422   4.024   2.908  16.857 -0.0544  0.2262  0.6174
  845MPD2    H512423   3.947   2.867  16.910 -0.2353 -1.9547 -1.3265
  845MPD2    N112424   3.897   3.316  17.056 -0.6177 -0.2459  0.3495
  845MPD2    H712425   3.840   3.250  17.107  0.3031  0.2799  2.0436
  846MPD2     C12426   0.728   3.946  13.382 -0.4908 -0.1606  0.1429
  846MPD2    C112427   0.688   4.055  13.460 -0.1829 -0.1627 -0.0507
  846MPD2    C212428   0.673   4.031  13.596  0.8519  0.2700  0.3010
  846MPD2    C312429   0.702   3.907  13.649 -1.2661  0.0358  0.4427
  846MPD2    C412430   0.749   3.804  13.567  0.1356  0.0012  0.0232
  846MPD2    C512431   0.766   3.822  13.433  0.2306 -0.2510 -0.3511
  846MPD2     H12432   0.656   4.110  13.668  1.9428  1.2330 -0.5056
  846MPD2    H112433   0.773   3.708  13.610 -0.6352 -1.3717 -2.6030
  846MPD2    H212434   0.743   3.948  13.275  0.8880 -0.0598  0.3407
  846MPD2    H312435   0.798   3.745  13.365  1.1958  0.0108 -0.1919
  846MPD2     N12436   0.685   3.896  13.796 -0.6499  0.6094  0.0079
  846MPD2    H512437   0.640   3.978  13.837  1.4374  2.2549 -0.9712
  846MPD2    N112438   0.659   4.184  13.411  0.3476 -0.2796 -0.0741
  846MPD2    H712439   0.630   4.258  13.474 -0.8959  0.1285 -1.1381
  847MPD2     C12440   4.640   0.164  14.408 -0.2181 -0.2008 -0.4926
  847MPD2    C112441   0.039   0.139  14.474  0.0887  0.5969 -0.2416
  847MPD2    C212442   0.119   0.036  14.425  0.2409  0.4390 -0.3967
  847MPD2    C312443   0.089   4.689  14.304 -0.4415  0.1617  0.2774
  847MPD2    C412444   4.689   0.001  14.242  0.5602  0.4464 -0.2914
  847MPD2    C512445   4.604   0.096  14.297  0.5323 -0.4320  0.1797
  847MPD2     H12446   0.208   0.008  14.481 -0.7139  0.7251  1.2786
  847MPD2    H112447   4.663   4.669  14.149  0.8255  2.6642 -1.5340
  847MPD2    H212448   4.570   0.242  14.436 -0.4681 -0.9382  0.8699
  847MPD2    H312449   4.506   0.125  14.260  0.4005 -1.1348 -0.0274
  847MPD2     N12450   0.186   4.616  14.236  0.0146 -0.6996 -0.3387
  847MPD2    H512451   0.175   4.596  14.137  0.8266  0.8814 -0.7642
  847MPD2    N112452   0.095   0.237  14.559 -0.0558  0.1904 -0.7613
  847MPD2    H712453   0.187   0.219  14.596  0.0635 -0.5470 -1.4301
  848MPD2     C12454   3.332   2.786  16.440 -0.1704 -0.1698  0.3929
  848MPD2    C112455   3.360   2.872  16.538 -0.4326 -0.6474 -0.9177
  848MPD2    C212456   3.372   3.007  16.513 -0.0284  0.2225 -0.5319
  848MPD2    C312457   3.340   3.060  16.383 -0.2053 -0.4973  0.6676
  848MPD2    C412458   3.318   2.973  16.280  0.1126 -0.7061  0.1901
  848MPD2    C512459   3.314   2.837  16.311 -0.1449  0.0214 -0.0706
  848MPD2     H12460   3.392   3.076  16.594 -0.1272 -0.1272 -0.2038
  848MPD2    H112461   3.303   3.008  16.178 -0.9709 -1.9680 -0.0842
  848MPD2    H212462   3.311   2.681  16.458 -2.1332  0.0567 -0.5169
  848MPD2    H312463   3.290   2.774  16.226 -0.2434  0.4483 -0.3591
  848MPD2     N12464   3.331   3.202  16.358  0.2788 -0.1643  0.2413
  848MPD2    H512465   3.299   3.226  16.265  0.2816  2.9204  1.0545
  848MPD2    N112466   3.368   2.835  16.668 -0.4211  0.5189 -0.0484
  848MPD2    H712467   3.391   2.893  16.748  1.3026  1.9891 -1.5954
  849MPD2     C12468   2.495   2.701  14.319 -0.8020  0.4115 -0.3984
  849MPD2    C112469   2.540   2.607  14.227 -0.3511  0.2496 -0.6565
  849MPD2    C212470   2.671   2.565  14.235 -0.3893  0.5978 -0.1202
  849MPD2    C312471   2.751   2.603  14.339  0.1786 -0.2903  0.3828
  849MPD2    C412472   2.705   2.682  14.438  0.2608  0.0360 -0.0666
  849MPD2    C512473   2.582   2.732  14.426  0.1807  0.1420 -0.7398
  849MPD2     H12474   2.713   2.489  14.171 -0.0076 -0.1184  0.9902
  849MPD2    H112475   2.763   2.716  14.524  3.0073 -0.9468 -1.5202
  849MPD2    H212476   2.395   2.743  14.318 -1.6431 -1.5795  0.3459
  849MPD2    H312477   2.551   2.806  14.498  1.3133 -0.7781  0.6737
  849MPD2     N12478   2.886   2.561  14.333  0.6998 -0.0429 -0.0537
  849MPD2    H512479   2.918   2.507  14.253 -0.2653 -0.8280  0.0960
  849MPD2    N112480   2.457   2.577  14.112 -0.3246  0.0946 -0.0138
  849MPD2    H712481   2.365   2.619  14.110 -1.0978 -1.5954  0.0222
  850MPD2     C12482   1.563   0.910  14.349 -0.0304 -0.1300  0.2661
  850MPD2    C112483   1.513   0.952  14.470  0.1566 -0.0286  0.1894
  850MPD2    C212484   1.566   0.892  14.590  0.0793  0.2685 -0.1293
  850MPD2    C312485   1.679   0.809  14.580 -0.5259  0.4557  0.3385
  850MPD2    C412486   1.733   0.780  14.458  0.6258  0.0402 -0.3248
  850MPD2    C512487   1.675   0.831  14.345 -0.2295  0.3835 -0.2739
  850MPD2     H12488   1.518   0.914  14.685  1.0678 -0.9270  0.6449
  850MPD2    H112489   1.809   0.704  14.444  1.6602  0.8118  1.0334
  850MPD2    H212490   1.514   0.935  14.255  0.6637  0.2487  0.0080
  850MPD2    H312491   1.712   0.789  14.252 -1.0674 -1.7190  0.3435
  850MPD2     N12492   1.743   0.766  14.698 -0.1372 -0.0358  0.6688
  850MPD2    H512493   1.839   0.733  14.693 -0.0309  0.3299  0.3009
  850MPD2    N112494   1.402   1.042  14.481  0.1053 -0.5443  0.6102
  850MPD2    H712495   1.345   1.066  14.400 -0.2338 -0.5432  0.8508
  851MPD2     C12496   1.308   0.684  14.456 -0.9864 -0.2388 -0.0622
  851MPD2    C112497   1.185   0.685  14.507 -0.4209  0.0782 -0.1788
  851MPD2    C212498   1.117   0.572  14.546 -0.2567 -0.2056 -0.0081
  851MPD2    C312499   1.180   0.453  14.541 -0.7714 -0.1883  0.3104
  851MPD2    C412500   1.312   0.454  14.503 -0.2809  0.1744 -0.3479
  851MPD2    C512501   1.374   0.563  14.450 -0.7333  0.0781  0.1611
  851MPD2     H12502   1.012   0.576  14.570 -0.6209  0.8303 -1.8001
  851MPD2    H112503   1.366   0.360  14.508 -1.6180 -0.5644  0.2366
  851MPD2    H212504   1.362   0.772  14.420 -0.8064 -1.0255 -1.7370
  851MPD2    H312505   1.473   0.559  14.407 -0.7673 -0.2677  0.1181
  851MPD2     N12506   1.115   0.338  14.583 -0.0744 -0.1004  0.1159
  851MPD2    H512507   1.014   0.340  14.594  0.0035  0.5050  0.7540
  851MPD2    N112508   1.139   0.815  14.523  0.0107  0.5677 -0.0558
  851MPD2    H712509   1.208   0.886  14.502  1.8610 -1.0725  0.4747
  852MPD2     C12510   0.495   2.522   9.843 -0.4927  0.3926 -0.1969
  852MPD2    C112511   0.522   2.606   9.950  0.3893 -0.3185  0.3413
  852MPD2    C212512   0.593   2.724   9.936 -0.0409  0.4796  0.4236
  852MPD2    C312513   0.652   2.749   9.812  0.1201 -0.5691  0.1738
  852MPD2    C412514   0.631   2.665   9.709 -0.3579  0.7065 -0.2812
  852MPD2    C512515   0.548   2.555   9.721  0.4494  0.2474  0.1943
  852MPD2     H12516   0.603   2.789  10.022 -2.2127  1.3482  0.0229
  852MPD2    H112517   0.680   2.678   9.613  3.0088  0.7020  1.4304
  852MPD2    H212518   0.438   2.430   9.857 -1.1271  0.6296 -1.1902
  852MPD2    H312519   0.528   2.491   9.636  1.6648 -1.8751  1.5132
  852MPD2     N12520   0.723   2.871   9.792 -0.5292  0.0376  0.2632
  852MPD2    H512521   0.737   2.924   9.878 -0.3065  0.6546 -0.1500
  852MPD2    N112522   0.496   2.568  10.083  0.6646  0.1719 -0.5850
  852MPD2    H712523   0.519   2.629  10.161 -0.1061 -3.8083  2.7615
  853MPD2     C12524   2.529   3.317  12.349 -0.7540 -0.2031 -0.6008
  853MPD2    C112525   2.406   3.375  12.325  0.0413  0.1193  1.0330
  853MPD2    C212526   2.341   3.358  12.207  0.4841  0.3043 -0.1543
  853MPD2    C312527   2.405   3.288  12.107  0.5495  0.3612 -1.5671
  853MPD2    C412528   2.531   3.233  12.129  0.1696 -0.3915 -0.0945
  853MPD2    C512529   2.591   3.245  12.250  0.4582 -0.3393 -0.4946
  853MPD2     H12530   2.241   3.398  12.192 -0.0274 -0.3396  1.5012
  853MPD2    H112531   2.584   3.194  12.043 -1.3440  0.1965 -1.3052
  853MPD2    H212532   2.583   3.321  12.442 -1.3044  1.8354 -0.3605
  853MPD2    H312533   2.688   3.200  12.264  0.0230 -0.5228  1.9010
  853MPD2     N12534   2.349   3.279  11.976  0.0768  0.5508 -0.4021
  853MPD2    H512535   2.413   3.255  11.901 -1.1876  1.6900 -1.8404
  853MPD2    N112536   2.347   3.455  12.430 -0.7680  0.6049  0.6164
  853MPD2    H712537   2.394   3.444  12.519  0.4633 -0.0749 -0.1114
  854MPD2     C12538   3.798   3.214  13.206 -0.4641 -0.4033 -0.1570
  854MPD2    C112539   3.912   3.288  13.178 -0.2580 -0.6857  0.1867
  854MPD2    C212540   4.028   3.218  13.135 -0.3184  0.4826  0.6591
  854MPD2    C312541   4.020   3.076  13.137 -0.1311 -0.3411  0.3387
  854MPD2    C412542   3.914   3.010  13.194 -0.4737 -1.0584 -0.1658
  854MPD2    C512543   3.799   3.080  13.221  0.0565 -0.0009  0.2790
  854MPD2     H12544   4.118   3.273  13.110 -1.0638  0.9629 -0.9235
  854MPD2    H112545   3.908   2.902  13.205  1.3108 -1.1476 -0.1383
  854MPD2    H212546   3.712   3.272  13.239  0.4447  1.5064 -1.1165
  854MPD2    H312547   3.718   3.028  13.271 -0.3511 -1.1151 -1.5430
  854MPD2     N12548   4.125   2.998  13.096 -0.0077  0.5162 -0.0470
  854MPD2    H512549   4.117   2.898  13.112  0.3395  0.3102 -1.1766
  854MPD2    N112550   3.919   3.434  13.171 -0.2133  0.0911  0.2289
  854MPD2    H712551   4.006   3.471  13.134  0.1455 -1.3490 -0.3586
  855MPD2     C12552   4.161   2.463  13.673  0.3191 -0.0025 -0.0756
  855MPD2    C112553   4.282   2.532  13.668  0.3049  0.3407  0.5513
  855MPD2    C212554   4.326   2.577  13.543 -0.1042  0.1333 -0.2473
  855MPD2    C312555   4.254   2.562  13.431  0.4079 -0.6349  0.3035
  855MPD2    C412556   4.136   2.489  13.439 -0.0052 -0.1140  0.0427
  855MPD2    C512557   4.093   2.436  13.560 -0.2607  0.2013  0.1873
  855MPD2     H12558   4.418   2.635  13.547 -0.5459  0.7887  0.2782
  855MPD2    H112559   4.077   2.453  13.356 -0.2100 -0.9509  0.5610
  855MPD2    H212560   4.125   2.421  13.766  0.4245  1.0946  0.4663
  855MPD2    H312561   4.005   2.372  13.559 -0.0068 -0.1453 -1.0804
  855MPD2     N12562   4.295   2.620  13.315 -0.1019  0.1105  0.2633
  855MPD2    H512563   4.225   2.639  13.245  1.5432 -0.2889 -1.5136
  855MPD2    N112564   4.352   2.557  13.785  0.3607 -0.2344  0.4062
  855MPD2    H712565   4.441   2.605  13.773  0.6404 -1.5072 -2.5912
  856MPD2     C12566   1.463   4.076  13.983 -0.4727  0.5477  0.2552
  856MPD2    C112567   1.579   4.130  13.934 -0.2990  1.4856 -0.0939
  856MPD2    C212568   1.576   4.267  13.911  0.0842  0.3244 -0.0688
  856MPD2    C312569   1.465   4.348  13.921 -0.2390 -0.4935 -0.8238
  856MPD2    C412570   1.350   4.283  13.959  0.8879  0.2736 -0.0867
  856MPD2    C512571   1.344   4.148  13.988 -0.2804  0.7282  0.4448
  856MPD2     H12572   1.671   4.314  13.888  0.3351 -0.8436 -1.4157
  856MPD2    H112573   1.261   4.343  13.971  0.8948  0.2105  0.2944
  856MPD2    H212574   1.462   3.968  13.998 -1.5018  0.2809 -1.7824
  856MPD2    H312575   1.250   4.096  14.005 -0.5526  1.7283  1.9948
  856MPD2     N12576   1.457   4.487  13.907 -0.1753  0.0864 -0.5057
  856MPD2    H512577   1.367   4.523  13.936  0.0064 -2.0667  2.7768
  856MPD2    N112578   1.699   4.059  13.924 -0.2222  0.3863  0.2562
  856MPD2    H712579   1.776   4.103  13.874  1.0159 -0.9424  0.9975
  857MPD2     C12580   3.217   1.478  12.741  0.9868  0.7024  0.2123
  857MPD2    C112581   3.342   1.483  12.796 -0.4661 -0.3379  0.4121
  857MPD2    C212582   3.402   1.602  12.812 -0.3547 -0.7423 -0.3498
  857MPD2    C312583   3.342   1.720  12.766 -0.1372  0.3082  0.0466
  857MPD2    C412584   3.227   1.719  12.699 -0.0629  0.6072  0.2037
  857MPD2    C512585   3.168   1.594  12.690  0.3961 -0.4315 -0.2520
  857MPD2     H12586   3.491   1.604  12.873 -0.6927  2.6948  0.0333
  857MPD2    H112587   3.179   1.808  12.659  2.2089  2.1653  0.9127
  857MPD2    H212588   3.163   1.384  12.730 -0.6931  1.6592  0.3025
  857MPD2    H312589   3.076   1.602  12.634 -1.1733  0.2157  2.3832
  857MPD2     N12590   3.413   1.843  12.798 -0.1021  0.5044  0.7461
  857MPD2    H512591   3.498   1.827  12.852 -0.8047 -2.8327  0.8422
  857MPD2    N112592   3.402   1.363  12.839  0.2643  0.9218 -0.6149
  857MPD2    H712593   3.347   1.278  12.839  2.2494 -0.3694 -2.4910
  858MPD2     C12594   3.848   0.560  16.709  0.0410 -0.5992 -0.2109
  858MPD2    C112595   3.930   0.471  16.772 -0.0968  0.0865 -0.5699
  858MPD2    C212596   4.021   0.518  16.867 -0.1715  0.1678 -0.9465
  858MPD2    C312597   4.017   0.652  16.906  0.6158 -0.9301  0.1522
  858MPD2    C412598   3.929   0.732  16.845 -0.2687  0.4881 -0.0860
  858MPD2    C512599   3.844   0.691  16.749 -0.2636 -0.3951 -0.2504
  858MPD2     H12600   4.090   0.456  16.924 -0.4478 -0.7287 -1.5999
  858MPD2    H112601   3.906   0.832  16.879  2.2611  1.2453 -0.5479
  858MPD2    H212602   3.778   0.525  16.633 -0.1738  0.2340 -0.3908
  858MPD2    H312603   3.771   0.762  16.710  1.5096  1.6496  0.1828
  858MPD2     N12604   4.078   0.707  17.017  0.1860 -0.2958  0.5465
  858MPD2    H512605   4.029   0.786  17.057  0.8671  0.5025 -0.1825
  858MPD2    N112606   3.918   0.330  16.745 -0.4347 -0.0386  0.1065
  858MPD2    H712607   3.848   0.305  16.675  0.7860 -2.1950 -0.3340
  859MPD2     C12608   2.876   3.184  15.615  0.2633  0.3208 -0.3882
  859MPD2    C112609   2.837   3.087  15.525 -0.1512  0.6703  0.6087
  859MPD2    C212610   2.797   2.966  15.575 -0.2837  0.0767 -0.6192
  859MPD2    C312611   2.790   2.938  15.714 -0.7018  0.1436  0.5388
  859MPD2    C412612   2.826   3.038  15.804  0.8230  0.5660 -0.0880
  859MPD2    C512613   2.869   3.160  15.755 -0.0172 -0.0247 -0.4279
  859MPD2     H12614   2.773   2.890  15.501  0.7748  0.6416 -1.5240
  859MPD2    H112615   2.821   3.019  15.911 -3.4027  1.1133 -0.2092
  859MPD2    H212616   2.901   3.284  15.583 -1.2423  0.1693 -2.0128
  859MPD2    H312617   2.912   3.234  15.821  0.7437 -0.9623  0.1292
  859MPD2     N12618   2.766   2.808  15.760  0.6264  0.2023  0.6184
  859MPD2    H512619   2.750   2.802  15.860 -0.2744  1.3809  0.5444
  859MPD2    N112620   2.848   3.114  15.387  0.2564  0.5412  0.1115
  859MPD2    H712621   2.916   3.181  15.352 -0.6460  2.8667  2.8028
  860MPD2     C12622   0.333   3.255  11.418 -0.1409  0.1782 -0.1163
  860MPD2    C112623   0.365   3.226  11.548 -0.1209 -0.2630  0.1924
  860MPD2    C212624   0.272   3.188  11.642  0.1414 -0.2433 -0.4500
  860MPD2    C312625   0.142   3.190  11.611 -0.0473 -0.4893 -0.1338
  860MPD2    C412626   0.111   3.215  11.479 -0.5922  0.4850 -0.8115
  860MPD2    C512627   0.204   3.240  11.384  0.2495 -0.2236  0.3060
  860MPD2     H12628   0.290   3.171  11.748  2.0313  1.1513 -0.5663
  860MPD2    H112629   0.008   3.217  11.447 -0.3826  0.7038 -1.4903
  860MPD2    H212630   0.397   3.277  11.334 -0.0685 -1.6790 -0.5475
  860MPD2    H312631   0.166   3.258  11.284  2.4191  0.1102 -0.4618
  860MPD2     N12632   0.053   3.170  11.723  0.4596 -0.2077 -0.0006
  860MPD2    H512633   0.092   3.150  11.815 -0.7958  0.6865  0.7351
  860MPD2    N112634   0.503   3.224  11.585  0.1439 -0.2349 -0.0627
  860MPD2    H712635   0.527   3.178  11.672 -0.6192 -0.2019  0.1609
  861MPD2     C12636   3.885   0.863  11.089  0.3982 -0.1282  0.1581
  861MPD2    C112637   3.806   0.922  11.181  0.4850  0.1704  0.3287
  861MPD2    C212638   3.676   0.951  11.134 -0.1512 -0.1407  0.3108
  861MPD2    C312639   3.633   0.948  11.006 -0.0003  0.8618  0.1047
  861MPD2    C412640   3.725   0.899  10.917 -0.1576  0.6444 -0.3219
  861MPD2    C512641   3.854   0.859  10.954  0.1385  0.6964 -0.4630
  861MPD2     H12642   3.601   0.972  11.209 -1.1193 -1.6631 -0.2256
  861MPD2    H112643   3.706   0.894  10.810 -1.6486 -0.0278 -0.0190
  861MPD2    H212644   3.972   0.803  11.111  1.5395  1.6670  0.5893
  861MPD2    H312645   3.931   0.836  10.881  1.6900 -2.0907  2.0536
  861MPD2     N12646   3.508   0.994  10.954 -0.1370  0.5800 -0.1934
  861MPD2    H512647   3.497   0.967  10.856  0.8244 -2.1585  0.4468
  861MPD2    N112648   3.842   0.943  11.315 -1.0693 -0.1778 -0.1050
  861MPD2    H712649   3.764   0.977  11.370 -0.5090  0.1093  0.5147
  862MPD2     C12650   3.052   0.987  10.413 -0.3487 -0.1519 -0.3637
  862MPD2    C112651   3.174   0.958  10.482 -0.6613 -0.0105  0.0277
  862MPD2    C212652   3.230   0.831  10.466 -0.6420  0.3774 -0.2484
  862MPD2    C312653   3.172   0.743  10.374 -0.8205 -0.7335  0.2991
  862MPD2    C412654   3.060   0.779  10.301 -0.0566 -0.0971  0.3966
  862MPD2    C512655   3.004   0.900  10.322 -0.2858  0.1745 -0.3887
  862MPD2     H12656   3.317   0.808  10.526 -0.2040  0.9399 -0.6713
  862MPD2    H112657   3.008   0.708  10.238  1.5738 -0.9753  0.0427
  862MPD2    H212658   3.000   1.081  10.420  0.1939 -0.0089  1.8640
  862MPD2    H312659   2.908   0.912  10.273  0.4099  2.2778 -1.2067
  862MPD2     N12660   3.233   0.615  10.359  0.0799  0.2949  0.6955
  862MPD2    H512661   3.184   0.554  10.295  1.4619  0.3597 -0.4408
  862MPD2    N112662   3.219   1.031  10.594 -0.2113 -0.0841  0.8361
  862MPD2    H712663   3.289   0.985  10.652 -0.1248  0.1779  0.9398
  863MPD2     C12664   2.399   4.629  17.167  0.6786 -0.1471  0.5549
  863MPD2    C112665   2.393   4.495  17.157 -0.4506 -1.4096  0.3209
  863MPD2    C212666   2.508   4.416  17.173 -0.4313 -0.0996  0.3858
  863MPD2    C312667   2.626   4.474  17.224 -0.1298 -0.4264 -0.1035
  863MPD2    C412668   2.623   4.607  17.244 -0.3251 -0.6084 -0.4925
  863MPD2    C512669   2.518   4.682  17.208  0.1806 -0.3776  0.3879
  863MPD2     H12670   2.507   4.308  17.159  1.3756 -0.1072  0.2984
  863MPD2    H112671   2.706   4.663  17.284 -1.1561  1.7843 -2.1310
  863MPD2    H212672   2.320   4.702  17.151 -0.0896 -0.2172  4.0650
  863MPD2    H312673   2.529   0.072  17.218 -2.6392 -0.1784  1.2789
  863MPD2     N12674   2.743   4.410  17.270 -0.1770 -0.0686  0.5596
  863MPD2    H512675   2.814   4.476  17.300  2.3117 -2.6587  0.4664
  863MPD2    N112676   2.273   4.449  17.108 -0.6006  0.1273 -0.5602
  863MPD2    H712677   2.198   4.517  17.100  1.0326  2.1427  0.9585
  864MPD2     C12678   3.134   0.827  17.324 -0.5100  0.7333  0.0389
  864MPD2    C112679   3.039   0.734  17.276  0.4099 -0.0605  0.1583
  864MPD2    C212680   2.936   0.779  17.190  0.0953  0.2285  0.5783
  864MPD2    C312681   2.922   0.920  17.178 -0.0058  0.2904  0.7048
  864MPD2    C412682   3.012   1.008  17.232  0.1030 -0.3963  0.5367
  864MPD2    C512683   3.123   0.961  17.300  0.3668  0.1705  0.6704
  864MPD2     H12684   2.866   0.709  17.147 -0.9952  1.0194  1.0776
  864MPD2    H112685   3.005   1.114  17.213  0.0027 -0.4656  0.2008
  864MPD2    H212686   3.220   0.805  17.386 -0.0893 -0.2430 -0.8936
  864MPD2    H312687   3.201   1.028  17.335  0.8174 -0.1323  0.2551
  864MPD2     N12688   2.829   0.980  17.085  0.1384  0.5206  0.0533
  864MPD2    H512689   2.828   1.078  17.059  1.5976 -0.3188 -3.1401
  864MPD2    N112690   3.066   0.601  17.297  0.2093 -0.2565  0.1291
  864MPD2    H712691   3.152   0.589  17.350  1.9242 -0.5678 -2.7229
  865MPD2     C12692   2.421   0.701  16.173 -0.0846  0.6175  0.0982
  865MPD2    C112693   2.468   0.637  16.283  1.4601  0.4453  0.6288
  865MPD2    C212694   2.459   0.701  16.405  0.0506  0.1599  0.0964
  865MPD2    C312695   2.418   0.833  16.408 -0.7373 -0.2354  0.2383
  865MPD2    C412696   2.366   0.891  16.297 -0.3583  0.7137 -0.3189
  865MPD2    C512697   2.373   0.823  16.181  0.0452 -0.2215 -0.1815
  865MPD2     H12698   2.519   0.665  16.488  0.2621  0.7573  0.2008
  865MPD2    H112699   2.319   0.988  16.296 -1.7773 -0.0088 -2.8277
  865MPD2    H212700   2.422   0.659  16.073  0.4063  2.0042 -0.4836
  865MPD2    H312701   2.338   0.885  16.099  0.1875 -0.8850 -0.7436
  865MPD2     N12702   2.431   0.918  16.521  0.1258 -0.5587  0.3722
  865MPD2    H512703   2.396   1.013  16.516 -2.7717 -1.6033  0.7029
  865MPD2    N112704   2.541   0.522  16.256 -0.2049  0.5129  0.8778
  865MPD2    H712705   2.550   0.498  16.157 -3.2522  0.6114  0.5594
  866MPD2     C12706   4.487   1.075  11.384 -0.4692 -0.4198 -0.9623
  866MPD2    C112707   4.430   1.057  11.266  0.6124 -0.0022  0.4225
  866MPD2    C212708   4.302   1.115  11.239  0.7956 -0.0965  0.2082
  866MPD2    C312709   4.241   1.195  11.337 -0.1857 -0.0728  0.2869
  866MPD2    C412710   4.305   1.201  11.461 -0.6439  0.1273 -0.4568
  866MPD2    C512711   4.427   1.143  11.485  0.5398 -0.2761 -0.6804
  866MPD2     H12712   4.254   1.078  11.149  2.1340 -1.7999  0.1925
  866MPD2    H112713   4.263   1.261  11.541 -2.9444 -2.3353  0.1731
  866MPD2    H212714   4.583   1.028  11.403  0.8816  2.8076  0.2729
  866MPD2    H312715   4.479   1.162  11.578  2.3588 -1.0460 -1.5457
  866MPD2     N12716   4.116   1.262  11.311 -0.0382  0.3380 -0.5021
  866MPD2    H512717   4.076   1.299  11.397 -1.1997  2.3588 -1.9128
  866MPD2    N112718   4.510   0.991  11.172  0.0903  0.2419 -0.2749
  866MPD2    H712719   4.593   0.936  11.192 -0.2445 -0.5130 -0.9516
  867MPD2     C12720   2.166   0.949  16.777  0.4180 -0.1131  0.2928
  867MPD2    C112721   2.206   0.916  16.909 -0.9607  0.0559  0.4771
  867MPD2    C212722   2.213   1.022  16.998 -0.0019 -0.5726 -0.1227
  867MPD2    C312723   2.180   1.151  16.960  0.3981 -0.3999 -0.0119
  867MPD2    C412724   2.135   1.184  16.830  0.0339  0.3652  0.5039
  867MPD2    C512725   2.131   1.080  16.736  0.1625 -0.1586  0.5450
  867MPD2     H12726   2.254   0.998  17.095  0.6937  0.3133 -0.1956
  867MPD2    H112727   2.107   1.285  16.803  2.0302  1.3230  2.0059
  867MPD2    H212728   2.179   0.875  16.699  0.3258  0.2722 -0.0847
  867MPD2    H312729   2.117   1.103  16.631  2.0731  0.2120  0.3691
  867MPD2     N12730   2.175   1.259  17.047  0.1716  0.2711 -0.1987
  867MPD2    H512731   2.155   1.349  17.004 -2.6346  0.6956  2.0257
  867MPD2    N112732   2.238   0.786  16.940  0.2739 -0.0643  0.5876
  867MPD2    H712733   2.227   0.716  16.868 -1.2590  1.7238 -0.9227
  868MPD2     C12734   3.793   0.137  13.406 -0.4975 -0.5761  0.0403
  868MPD2    C112735   3.750   0.008  13.442  0.2333 -0.4793 -1.2686
  868MPD2    C212736   3.640   4.713  13.528 -0.0270 -0.0665  0.3041
  868MPD2    C312737   3.580   0.105  13.584  0.6242 -0.3664 -0.7694
  868MPD2    C412738   3.627   0.230  13.556 -0.2283 -0.2052 -0.6670
  868MPD2    C512739   3.734   0.242  13.472  0.6309 -0.5447  0.0712
  868MPD2     H12740   3.607   4.611  13.547  1.1629 -1.0223 -2.7440
  868MPD2    H112741   3.587   0.320  13.601  1.3906  0.3985 -0.4303
  868MPD2    H212742   3.867   0.158  13.330 -1.4111  3.7136  0.3278
  868MPD2    H312743   3.768   0.342  13.447  3.8093 -1.8207 -0.6825
  868MPD2     N12744   3.468   0.083  13.670  0.0389  0.1885  0.6993
  868MPD2    H512745   3.431   4.706  13.677  0.6383  0.0725  2.1188
  868MPD2    N112746   3.815   4.619  13.373 -0.3667  0.8721  0.2180
  868MPD2    H712747   3.880   4.646  13.300  1.3479 -1.1889  0.9783
  869MPD2     C12748   0.662   3.069   2.271 -0.3522  0.3091  0.2299
  869MPD2    C112749   0.628   3.187   2.213 -0.6838 -0.3444  0.2028
  869MPD2    C212750   0.617   3.187   2.073 -0.1323  0.5473 -0.3115
  869MPD2    C312751   0.642   3.078   1.992 -0.0274 -0.5116 -0.0182
  869MPD2    C412752   0.683   2.964   2.053 -0.2508  0.9109 -0.3230
  869MPD2    C512753   0.697   2.964   2.187 -0.4483  0.3147 -0.5934
  869MPD2     H12754   0.562   3.271   2.035 -0.4498  1.2564  1.7347
  869MPD2    H112755   0.711   2.878   1.992  0.6503  0.1771  1.1168
  869MPD2    H212756   0.660   3.054   2.379 -1.6369 -1.5082 -0.0488
  869MPD2    H312757   0.732   2.872   2.232  0.3126  1.3791  0.9719
  869MPD2     N12758   0.609   3.077   1.854 -0.4344 -0.5452  0.2506
  869MPD2    H512759   0.601   2.990   1.803  1.3020  1.3133 -3.1912
  869MPD2    N112760   0.574   3.294   2.290 -0.1638  0.0858 -0.1914
  869MPD2    H712761   0.562   3.271   2.388  1.6815 -0.0770 -0.0105
  870MPD2     C12762   4.459   1.979   2.030  0.1555 -0.6756 -0.3039
  870MPD2    C112763   4.512   1.886   1.941 -0.3430 -0.2331 -0.0317
  870MPD2    C212764   4.588   1.934   1.834  0.1305 -0.0066 -0.3770
  870MPD2    C312765   4.608   2.075   1.816  0.0284 -0.5594  0.1518
  870MPD2    C412766   4.560   2.166   1.908 -0.5366 -0.5552 -0.2253
  870MPD2    C512767   4.488   2.114   2.015  0.0014 -0.3415  0.5118
  870MPD2     H12768   4.621   1.876   1.749 -0.9389 -1.6654  0.3388
  870MPD2    H112769   4.563   2.275   1.903 -0.4993 -0.4002  2.9204
  870MPD2    H212770   4.399   1.947   2.114 -2.7146  0.9386 -1.7781
  870MPD2    H312771   4.452   2.181   2.092  2.9867  1.7851  0.0719
  870MPD2     N12772   4.678   2.119   1.694 -0.1722 -0.0696  0.0321
  870MPD2    H512773   4.683   2.046   1.624  0.8320 -0.5795  0.6301
  870MPD2    N112774   4.485   1.749   1.955  0.5342 -0.5537 -0.1262
  870MPD2    H712775   4.521   1.686   1.884  0.3490 -2.7960  1.7523
  871MPD2     C12776   0.763   0.730  16.622 -0.4585 -0.4218 -0.6814
  871MPD2    C112777   0.797   0.736  16.751 -1.3394 -0.1459  0.1243
  871MPD2    C212778   0.853   0.626  16.809 -0.2015  0.4725 -0.7382
  871MPD2    C312779   0.886   0.517  16.734  0.0224 -0.1658 -0.0957
  871MPD2    C412780   0.838   0.510  16.601  0.8946  0.7753 -0.6982
  871MPD2    C512781   0.781   0.619  16.550 -0.5829 -0.3836  0.0702
  871MPD2     H12782   0.889   0.632  16.911 -2.8237 -0.3170  0.2254
  871MPD2    H112783   0.831   0.418  16.544 -1.2257  0.4386  0.1035
  871MPD2    H212784   0.719   0.819  16.578 -0.9801 -0.3555 -0.0183
  871MPD2    H312785   0.736   0.615  16.451 -0.6473 -2.2700  0.1726
  871MPD2     N12786   0.953   0.411  16.799 -0.4907 -0.1609  0.5791
  871MPD2    H512787   0.964   0.420  16.899  0.7036  0.9060  0.3602
  871MPD2    N112788   0.762   0.860  16.817 -0.0532  0.0565  0.1744
  871MPD2    H712789   0.714   0.927  16.759 -1.1387 -0.6283  0.2843
  872MPD2     C12790   1.537   3.012  13.760  0.0632  0.3647  0.6486
  872MPD2    C112791   1.500   3.143  13.770  0.5272  0.5024  0.0672
  872MPD2    C212792   1.383   3.171  13.833  0.6301  0.7239  0.0660
  872MPD2    C312793   1.312   3.073  13.903  0.2412  0.2230  0.4300
  872MPD2    C412794   1.348   2.945  13.895 -0.1280  0.0278 -0.0769
  872MPD2    C512795   1.465   2.915  13.823 -0.2962 -0.5739 -0.2285
  872MPD2     H12796   1.350   3.274  13.827  0.0244  0.3580 -2.5891
  872MPD2    H112797   1.298   2.872  13.957  1.9557  0.6856  2.4074
  872MPD2    H212798   1.624   2.970  13.712 -0.1061 -1.0496  1.5688
  872MPD2    H312799   1.510   2.816  13.823 -0.7754 -0.8060 -2.8181
  872MPD2     N12800   1.206   3.102  13.989 -0.0549  0.2256 -0.1985
  872MPD2    H512801   1.184   3.022  14.047 -5.0455  0.7275 -1.3792
  872MPD2    N112802   1.560   3.254  13.702 -0.4468  0.2942 -0.2547
  872MPD2    H712803   1.519   3.344  13.722  0.9149  0.2798  2.6143
  873MPD2     C12804   3.266   2.975   0.918  0.2786  0.0123 -0.1196
  873MPD2    C112805   3.148   2.998   0.977  0.1631  0.9471 -0.2952
  873MPD2    C212806   3.054   2.894   0.981  0.3388  0.6505 -0.0340
  873MPD2    C312807   3.057   2.795   0.890 -0.0279  0.6799  0.4147
  873MPD2    C412808   3.170   2.780   0.807  0.0442  0.1624  0.7259
  873MPD2    C512809   3.273   2.865   0.832 -0.2329  0.2993 -0.1457
  873MPD2     H12810   2.975   2.903   1.055 -0.7516 -0.8930 -1.0132
  873MPD2    H112811   3.185   2.691   0.747  0.3117  1.2877 -0.8595
  873MPD2    H212812   3.343   3.051   0.917  0.4474 -0.1621 -0.9740
  873MPD2    H312813   3.357   2.862   0.763 -1.6620 -0.0134 -1.8695
  873MPD2     N12814   2.955   2.688   0.891  0.7730  0.6412 -0.3685
  873MPD2    H512815   2.968   2.615   0.821  1.6389  1.1228 -0.7050
  873MPD2    N112816   3.138   3.116   1.051 -0.8203  0.8550 -0.1661
  873MPD2    H712817   3.227   3.163   1.063  1.2254 -3.2820  0.8296
  874MPD2     C12818   2.673   2.964  16.128 -0.3229 -0.4712  0.0059
  874MPD2    C112819   2.757   2.934  16.231 -0.0821 -0.3314 -0.7027
  874MPD2    C212820   2.841   3.038  16.275  0.3766  0.0016  0.3951
  874MPD2    C312821   2.832   3.163  16.221 -0.9193  0.3067 -0.4789
  874MPD2    C412822   2.744   3.184  16.119 -0.0010 -0.1891  0.2899
  874MPD2    C512823   2.662   3.083  16.072 -0.2167  0.1525  0.0159
  874MPD2     H12824   2.925   3.022  16.341 -0.7493 -1.4308  1.4927
  874MPD2    H112825   2.738   3.282  16.072  2.3074 -0.1118  0.1695
  874MPD2    H212826   2.603   2.889  16.092 -1.1569 -0.8637  2.3763
  874MPD2    H312827   2.589   3.105  15.995 -0.8809 -0.2414  0.5393
  874MPD2     N12828   2.922   3.261  16.275 -0.0515  0.4148 -0.3168
  874MPD2    H512829   2.989   3.228  16.343 -0.7082 -0.2318  0.0105
  874MPD2    N112830   2.750   2.805  16.289 -0.0410  0.0793 -0.1626
  874MPD2    H712831   2.681   2.744  16.246  0.7530 -1.4829  0.8107
  875MPD2     C12832   4.064   1.986  14.424  0.3805 -0.4161 -0.3583
  875MPD2    C112833   3.935   1.932  14.432  0.6378 -0.2562 -0.4552
  875MPD2    C212834   3.877   1.926  14.560 -0.7978  0.0626 -0.2669
  875MPD2    C312835   3.940   1.960  14.682 -0.4712  0.1938  0.2264
  875MPD2    C412836   4.072   2.012  14.663 -0.9267  0.2403 -0.0761
  875MPD2    C512837   4.129   2.026  14.540  0.2642 -0.2797 -0.6486
  875MPD2     H12838   3.783   1.873  14.569 -1.2723  0.7006 -1.4849
  875MPD2    H112839   4.134   2.039  14.747  1.9049 -0.3365 -1.9967
  875MPD2    H212840   4.104   2.005  14.325  1.3675  1.8709  0.4744
  875MPD2    H312841   4.220   2.084  14.528  0.5682 -0.5741  0.1741
  875MPD2     N12842   3.883   1.940  14.810 -0.4963 -0.2970 -0.1672
  875MPD2    H512843   3.926   1.992  14.885 -2.0570  2.8289 -1.4306
  875MPD2    N112844   3.879   1.880  14.313  0.2587  0.2059 -0.5081
  875MPD2    H712845   3.923   1.902  14.225  1.6022  1.3234  0.4523
  876MPD2     C12846   3.153   2.956  15.927 -0.2546  0.3218 -0.0647
  876MPD2    C112847   3.197   2.878  15.821  0.1780  0.4593  0.2801
  876MPD2    C212848   3.168   2.742  15.829 -0.0346  0.1119 -0.2843
  876MPD2    C312849   3.098   2.694  15.943 -0.4739  0.4915 -0.9941
  876MPD2    C412850   3.044   2.781  16.034 -0.9112  0.2948 -0.5393
  876MPD2    C512851   3.069   2.913  16.023  0.3412  0.2748 -0.2888
  876MPD2     H12852   3.190   2.673  15.748 -0.8986  0.9459 -1.2231
  876MPD2    H112853   2.982   2.742  16.114  0.7145 -1.5458 -0.1737
  876MPD2    H212854   3.167   3.063  15.927 -0.4791  0.3498 -1.3246
  876MPD2    H312855   3.029   2.980  16.098  0.6934 -1.6725  1.6552
  876MPD2     N12856   3.073   2.558  15.937  0.2452  0.2355 -0.1968
  876MPD2    H512857   3.071   2.506  15.850  2.3224  0.6875 -0.5258
  876MPD2    N112858   3.265   2.938  15.715  0.3218 -0.5894 -0.4729
  876MPD2    H712859   3.300   3.033  15.727 -0.7037 -0.2342 -0.2712
  877MPD2     C12860   3.040   3.375  15.133  0.3614  1.0367 -0.3354
  877MPD2    C112861   3.179   3.357  15.118  0.0875 -1.1221  0.3197
  877MPD2    C212862   3.236   3.379  14.991  0.6687  0.2992  0.2128
  877MPD2    C312863   3.159   3.417  14.877 -0.4891  0.4923 -0.1482
  877MPD2    C412864   3.024   3.433  14.902 -0.9493 -0.3124 -0.7136
  877MPD2    C512865   2.965   3.414  15.024  0.3342 -0.1469 -0.1519
  877MPD2     H12866   3.342   3.368  14.972  0.7766  1.7294  0.0477
  877MPD2    H112867   2.957   3.459  14.821 -0.6924  1.0734 -0.4734
  877MPD2    H212868   2.986   3.349  15.224 -0.4482 -1.3294 -1.5115
  877MPD2    H312869   2.858   3.423  15.042  0.6132  0.0935  1.3639
  877MPD2     N12870   3.215   3.447  14.753 -0.9422 -0.0771  0.0715
  877MPD2    H512871   3.157   3.459  14.671  1.1049  3.9309 -0.8267
  877MPD2    N112872   3.266   3.316  15.220 -0.0149  0.1988 -0.3960
  877MPD2    H712873   3.364   3.313  15.196 -0.2299 -1.6912 -1.0205
  878MPD2     C12874   2.456   3.215  13.409  0.3048  0.1662 -0.0041
  878MPD2    C112875   2.504   3.110  13.332  0.3584 -0.6887  0.4946
  878MPD2    C212876   2.488   2.983  13.388 -0.1545 -0.6242  0.4734
  878MPD2    C312877   2.431   2.966  13.516  0.3961 -0.2267  0.0527
  878MPD2    C412878   2.376   3.074  13.575 -0.3042  0.3078  0.4723
  878MPD2    C512879   2.400   3.197  13.527 -0.3055  0.2320  0.0572
  878MPD2     H12880   2.533   2.899  13.337 -0.3398 -0.8230  0.6359
  878MPD2    H112881   2.332   3.067  13.674  1.0750 -1.6779  0.9372
  878MPD2    H212882   2.479   3.314  13.371  2.7487 -0.4023 -0.0330
  878MPD2    H312883   2.366   3.278  13.591  0.9546  0.3011  0.6450
  878MPD2     N12884   2.429   2.839  13.570 -0.2287  0.7366  0.2342
  878MPD2    H512885   2.473   2.766  13.514 -1.4262  1.8951 -2.2094
  878MPD2    N112886   2.553   3.146  13.208 -0.4523 -0.1831 -0.2664
  878MPD2    H712887   2.542   3.244  13.183 -1.5256 -0.4720 -0.9398
  879MPD2     C12888   3.369   4.586  17.205  0.0403 -0.1589  0.4391
  879MPD2    C112889   3.407   4.477  17.276  0.1371 -0.6285 -0.1127
  879MPD2    C212890   3.347   4.352  17.260  0.4237  0.2378  0.0892
  879MPD2    C312891   3.256   4.336  17.151 -0.2278 -0.0798  0.2657
  879MPD2    C412892   3.212   4.449  17.081  0.2995  0.0728 -0.5128
  879MPD2    C512893   3.265   4.572  17.116 -0.3231 -0.0066  0.6801
  879MPD2     H12894   3.383   4.263  17.310  1.5023 -0.5037 -1.9986
  879MPD2    H112895   3.135   4.451  17.005 -2.2953  0.1113  2.0917
  879MPD2    H212896   3.415   4.684  17.217 -0.7344  0.2636 -0.0352
  879MPD2    H312897   3.231   4.657  17.057  0.1868  0.6125  1.2885
  879MPD2     N12898   3.190   4.211  17.123  0.6184  0.6747 -0.1936
  879MPD2    H512899   3.133   4.204  17.039 -1.1300 -0.0370  1.0546
  879MPD2    N112900   3.513   4.494  17.370  0.5290  0.0080 -0.4539
  879MPD2    H712901   3.515   4.589  17.407 -3.8956 -0.2211  0.4668
  880MPD2     C12902   0.704   1.126   0.472  0.2724 -0.3091 -0.1467
  880MPD2    C112903   0.640   1.134   0.596 -0.4474 -0.0926 -0.0374
  880MPD2    C212904   0.648   1.017   0.679  0.3077  0.0083 -0.5250
  880MPD2    C312905   0.702   0.898   0.630 -0.0033 -0.8327 -0.4976
  880MPD2    C412906   0.759   0.896   0.505 -0.2172 -0.0048 -0.0223
  880MPD2    C512907   0.757   1.008   0.430 -0.2698 -0.1898 -0.1974
  880MPD2     H12908   0.603   1.017   0.777 -0.3289  0.3171 -0.8141
  880MPD2    H112909   0.801   0.808   0.458 -0.0742  0.0204  0.0568
  880MPD2    H212910   0.708   1.213   0.408 -1.1864 -0.2435 -0.1563
  880MPD2    H312911   0.811   0.996   0.337 -0.0379  0.1731 -0.1079
  880MPD2     N12912   0.711   0.788   0.713 -0.2096 -0.2238  0.4097
  880MPD2    H512913   0.657   0.792   0.799 -0.4021 -0.3479  0.2946
  880MPD2    N112914   0.557   1.241   0.619  0.8182 -0.4069 -0.2945
  880MPD2    H712915   0.559   1.309   0.544 -1.1920 -2.4924 -2.2385
  881MPD2     C12916   4.700   1.772   0.081 -0.4131  0.0612 -0.6807
  881MPD2    C112917   0.082   1.681   0.079 -0.1488 -0.2541  0.0533
  881MPD2    C212918   0.125   1.633   0.200 -0.2940 -0.1276 -0.2805
  881MPD2    C312919   0.098   1.696   0.316  0.8801 -0.2263  0.3153
  881MPD2    C412920   0.012   1.803   0.316  0.1003  0.0017  0.1139
  881MPD2    C512921   4.678   1.841   0.194  0.1523 -0.1768  0.0013
  881MPD2     H12922   0.188   1.544   0.202  2.6778  1.9533 -1.8777
  881MPD2    H112923   4.709   1.865   0.403  3.1800  0.6449  0.3875
  881MPD2    H212924   4.662   1.807  17.660 -0.6153 -1.2850 -1.0956
  881MPD2    H312925   4.617   1.930   0.184 -0.0377 -0.3303 -0.1998
  881MPD2     N12926   0.153   1.657   0.441 -1.0668 -0.1349 -0.0054
  881MPD2    H512927   0.148   1.726   0.516  1.8977  0.2493 -0.1838
  881MPD2    N112928   0.095   1.621  17.628  0.9275 -0.5912  0.4582
  881MPD2    H712929   0.027   1.653  17.559  0.5180 -0.5143  0.8984
  882MPD2     C12930   3.040   3.269  14.083  0.2822 -0.0999  0.3249
  882MPD2    C112931   3.006   3.368  14.171  1.0096  0.0389  0.4229
  882MPD2    C212932   2.872   3.405  14.188  0.4074 -0.8701  0.1359
  882MPD2    C312933   2.766   3.339  14.122 -0.7438 -0.5105 -0.1442
  882MPD2    C412934   2.803   3.236  14.032  0.7713 -0.4754  0.0489
  882MPD2    C512935   2.939   3.200  14.022 -0.5507 -0.6289  0.0196
  882MPD2     H12936   2.845   3.485  14.256  1.6521 -0.0490 -0.3429
  882MPD2    H112937   2.730   3.178  13.977 -0.6731  4.3535 -3.1121
  882MPD2    H212938   3.140   3.242  14.055  0.8257  0.8005  1.3548
  882MPD2    H312939   2.955   3.117  13.954  0.6682 -1.8715  1.8592
  882MPD2     N12940   2.633   3.365  14.144  0.6132 -0.1979  0.4344
  882MPD2    H512941   2.566   3.340  14.073 -0.1332 -0.6049  1.2883
  882MPD2    N112942   3.112   3.432  14.231 -0.6983  0.1788 -0.6963
  882MPD2    H712943   3.200   3.387  14.208  1.3646  3.3385  1.0015
  883MPD2     C12944   0.066   3.611  16.401 -0.1834 -0.0407  0.2538
  883MPD2    C112945   0.141   3.684  16.315 -0.3172  0.2665  0.8401
  883MPD2    C212946   0.260   3.723  16.366 -0.5489 -0.3041  0.1166
  883MPD2    C312947   0.314   3.697  16.489  0.0509 -0.0665  0.2589
  883MPD2    C412948   0.234   3.622  16.578 -0.7434 -0.1126  0.0683
  883MPD2    C512949   0.111   3.585  16.530  0.4329  0.3229  0.2565
  883MPD2     H12950   0.324   3.769  16.291 -0.8702  0.0177  0.0441
  883MPD2    H112951   0.256   3.609  16.683 -0.5399  0.6120  0.1180
  883MPD2    H212952   4.682   3.580  16.379 -0.0805  0.4265 -0.8757
  883MPD2    H312953   0.044   3.539  16.601  2.0588 -1.6222  0.5127
  883MPD2     N12954   0.444   3.738  16.513  0.0627  0.2991  0.4623
  883MPD2    H512955   0.502   3.765  16.434 -0.8373  1.1163  0.0833
  883MPD2    N112956   0.100   3.727  16.194  0.0285  0.1615 -0.4122
  883MPD2    H712957   0.165   3.786  16.142  1.6042  0.3292  1.7636
  884MPD2     C12958   2.068   3.951  15.557  0.6173 -0.0074  0.2376
  884MPD2    C112959   2.056   4.038  15.453  0.1720 -0.0167 -0.5466
  884MPD2    C212960   1.934   4.097  15.436  0.3498  0.5867 -0.5870
  884MPD2    C312961   1.820   4.066  15.509 -0.2153 -0.3128  0.3589
  884MPD2    C412962   1.841   3.972  15.608  0.1845 -0.0781 -0.4710
  884MPD2    C512963   1.958   3.910  15.628 -0.1157  0.5118 -0.1118
  884MPD2     H12964   1.924   4.173  15.359  1.0984  1.7534  0.4570
  884MPD2    H112965   1.761   3.945  15.676  1.1942  2.8668  1.9212
  884MPD2    H212966   2.158   3.891  15.571  0.0001 -0.6963  1.2552
  884MPD2    H312967   1.969   3.825  15.695 -1.5600  1.9392  1.9118
  884MPD2     N12968   1.703   4.130  15.485 -0.1866 -0.2721  0.3351
  884MPD2    H512969   1.707   4.212  15.425  2.3777  0.9857  2.1882
  884MPD2    N112970   2.156   4.070  15.363 -0.1355 -0.6302  0.0400
  884MPD2    H712971   2.143   4.131  15.283 -1.2647 -1.8397 -0.6873
  885MPD2     C12972   0.181   3.920   0.244 -0.2020  0.2774  0.9406
  885MPD2    C112973   0.316   3.886   0.236  0.3793  0.0143 -0.2141
  885MPD2    C212974   0.393   3.959   0.150  0.5530  0.2134  0.4590
  885MPD2    C312975   0.342   4.061   0.071 -0.0730 -0.1751  0.4389
  885MPD2    C412976   0.207   4.089   0.081 -0.2074 -0.0677  0.3333
  885MPD2    C512977   0.127   4.016   0.170 -0.1823  0.1826  0.1146
  885MPD2     H12978   0.497   3.932   0.135  0.2636 -1.8913  2.2949
  885MPD2    H112979   0.152   4.166   0.029 -1.0025 -0.2332  0.9201
  885MPD2    H212980   0.114   3.870   0.313 -1.6218  1.0785  0.1216
  885MPD2    H312981   0.024   4.043   0.191  0.0171  0.2583  1.0302
  885MPD2     N12982   0.424   4.133  17.659 -0.1695 -0.8036  0.5538
  885MPD2    H512983   0.523   4.110  17.655 -0.1478 -0.7997  1.0589
  885MPD2    N112984   0.369   3.786   0.319  0.3632 -0.3746 -0.7220
  885MPD2    H712985   0.304   3.758   0.391  0.3701 -0.3513 -0.7066
  886MPD2     C12986   1.428   2.757  15.184  0.3020 -0.8452 -0.0076
  886MPD2    C112987   1.566   2.756  15.192  0.0200  0.0605  0.0908
  886MPD2    C212988   1.630   2.874  15.164 -0.1599  0.5052  0.4467
  886MPD2    C312989   1.568   2.984  15.108 -0.3044  0.0777  0.2960
  886MPD2    C412990   1.435   2.976  15.095  0.1350 -0.3316  0.0270
  886MPD2    C512991   1.362   2.865  15.139 -0.0893  0.4125 -0.2630
  886MPD2     H12992   1.736   2.865  15.184 -0.4323 -1.1296  1.1736
  886MPD2    H112993   1.375   3.055  15.049 -0.4781 -0.0265  1.3582
  886MPD2    H212994   1.361   2.677  15.212 -3.4520  2.6890  1.1420
  886MPD2    H312995   1.256   2.862  15.118  0.3292 -0.1361 -2.2971
  886MPD2     N12996   1.634   3.098  15.060 -0.3452 -0.3228 -0.0062
  886MPD2    H512997   1.577   3.171  15.018  2.6812  0.6362 -2.5060
  886MPD2    N112998   1.643   2.645  15.237 -0.5033  0.0513  0.8072
  886MPD2    H712999   1.743   2.652  15.227 -0.4754  0.7810  1.6447
  887MPD2     C13000   2.295   2.529  15.543  1.0556  0.1542  0.1096
  887MPD2    C113001   2.174   2.588  15.548  0.5747 -0.4167 -0.7174
  887MPD2    C213002   2.157   2.699  15.619 -0.0519 -0.2225  1.2725
  887MPD2    C313003   2.264   2.762  15.692 -0.8321  0.3040 -0.7866
  887MPD2    C413004   2.386   2.694  15.681 -0.5823  0.1566  0.6278
  887MPD2    C513005   2.397   2.575  15.616  0.5961  0.4310 -0.1062
  887MPD2     H13006   2.057   2.738  15.628 -0.1268  0.2075 -1.4496
  887MPD2    H113007   2.477   2.722  15.733 -0.6436  1.3530  0.0944
  887MPD2    H213008   2.320   2.444  15.480 -3.2670  0.8946 -2.5459
  887MPD2    H313009   2.495   2.535  15.593 -0.8040 -3.1100  0.0360
  887MPD2     N13010   2.243   2.881  15.759  0.4637  0.4123  0.3091
  887MPD2    H513011   2.146   2.913  15.761  0.5940  0.9851 -2.7454
  887MPD2    N113012   2.056   2.535  15.487  0.0692  0.5784 -0.8246
  887MPD2    H713013   1.976   2.597  15.485  0.1487  0.6514 -1.7470
  888MPD2     C13014   4.247   2.912  14.876 -0.3840  0.2383  0.8513
  888MPD2    C113015   4.254   2.950  15.011  0.1325  0.0024  0.2753
  888MPD2    C213016   4.309   3.074  15.040 -0.4729  0.2130  0.7417
  888MPD2    C313017   4.340   3.165  14.939 -0.5592  0.4570 -0.6760
  888MPD2    C413018   4.306   3.137  14.809  0.0545 -0.0319 -0.0161
  888MPD2    C513019   4.265   3.013  14.784 -0.2135  0.0135  0.1490
  888MPD2     H13020   4.340   3.096  15.142 -0.4575 -0.8557  0.9719
  888MPD2    H113021   4.318   3.212  14.731  0.9095  0.6823  0.8048
  888MPD2    H213022   4.206   2.817  14.843  1.8823 -0.4955  0.1059
  888MPD2    H313023   4.243   2.989  14.680  2.3694 -2.6638  0.2005
  888MPD2     N13024   4.414   3.280  14.980  0.4360  0.4694  0.0476
  888MPD2    H513025   4.439   3.279  15.078  2.1351  0.9187 -0.3850
  888MPD2    N113026   4.200   2.869  15.117  0.0454  0.4499 -0.3246
  888MPD2    H713027   4.192   2.921  15.204 -1.2463 -1.2368  0.5726
  889MPD2     C13028   3.389   2.575  12.500 -0.2753  0.3818  0.9022
  889MPD2    C113029   3.418   2.565  12.638  0.1336  0.1120  0.3257
  889MPD2    C213030   3.368   2.669  12.710 -0.1643 -0.4847  0.4368
  889MPD2    C313031   3.305   2.780  12.663 -0.7838  0.7998 -0.9747
  889MPD2    C413032   3.276   2.786  12.532  0.0858 -0.3523  0.1084
  889MPD2    C513033   3.317   2.680  12.457  0.0026 -0.2610 -0.1108
  889MPD2     H13034   3.360   2.657  12.818  2.3924 -0.7518  0.5952
  889MPD2    H113035   3.229   2.862  12.472 -2.1108  0.6808  3.1786
  889MPD2    H213036   3.404   2.493  12.431  0.1881  0.3620  1.0267
  889MPD2    H313037   3.292   2.684  12.351 -1.4510 -1.0183  0.2060
  889MPD2     N13038   3.256   2.878  12.750  0.0236 -0.2137  0.0968
  889MPD2    H513039   3.286   2.863  12.846  0.9917 -0.7847 -0.2917
  889MPD2    N113040   3.453   2.446  12.697  0.2960  0.2141  0.1074
  889MPD2    H713041   3.467   2.362  12.641 -1.0485 -0.8574  1.3778
  890MPD2     C13042   2.538   4.075  14.718 -0.4996 -0.4448 -0.1850
  890MPD2    C113043   2.670   4.119  14.735  0.0281 -0.0108 -0.4309
  890MPD2    C213044   2.749   4.039  14.817 -0.1688  0.5872  0.4891
  890MPD2    C313045   2.704   3.925  14.886 -0.2364 -0.5076  0.0499
  890MPD2    C413046   2.576   3.888  14.867 -0.5989 -0.3060 -0.2549
  890MPD2    C513047   2.497   3.960  14.782  0.0144 -0.0551  0.5149
  890MPD2     H13048   2.852   4.064  14.841  0.8249 -2.3856 -0.6820
  890MPD2    H113049   2.514   3.818  14.923 -2.8353  3.0250  1.4381
  890MPD2    H213050   2.468   4.137  14.663  0.9224  1.8163  0.5639
  890MPD2    H313051   2.391   3.941  14.772  0.3270 -2.6423  2.1613
  890MPD2     N13052   2.793   3.860  14.971  0.1163  0.3574 -0.1546
  890MPD2    H513053   2.889   3.891  14.963  0.6622 -1.2399  0.2774
  890MPD2    N113054   2.714   4.252  14.707  0.6381 -0.5879  0.0523
  890MPD2    H713055   2.659   4.309  14.643 -1.3519 -2.5709 -0.0075
  891MPD2     C13056   1.172   3.005  16.597 -0.3011 -0.2360  0.6064
  891MPD2    C113057   1.081   2.995  16.703 -0.2335  0.0930  0.3025
  891MPD2    C213058   1.110   2.915  16.812 -0.3716 -0.8852 -0.0816
  891MPD2    C313059   1.234   2.853  16.818  0.1385  0.5648 -0.0311
  891MPD2    C413060   1.319   2.862  16.714  0.2399  0.3269  0.2278
  891MPD2    C513061   1.294   2.943  16.603  0.4431  0.2095  0.8077
  891MPD2     H13062   1.040   2.909  16.894  0.8732  0.0086  1.0518
  891MPD2    H113063   1.410   2.808  16.691 -0.1650 -0.3520  0.2298
  891MPD2    H213064   1.131   3.062  16.514 -0.6082 -3.0582 -1.1691
  891MPD2    H313065   1.357   2.937  16.515 -0.0609  1.4909  0.3528
  891MPD2     N13066   1.270   2.767  16.925  0.8101 -0.2438 -0.0811
  891MPD2    H513067   1.192   2.758  16.990  0.3565  0.5477 -0.5248
  891MPD2    N113068   0.962   3.069  16.687  0.1170  0.2652  0.4575
  891MPD2    H713069   0.943   3.122  16.603 -1.5791  0.5076  0.9881
  892MPD2     C13070   2.143   3.707  14.992  0.9565  0.4527  0.1417
  892MPD2    C113071   2.077   3.749  14.880 -0.2658  0.0291 -0.3944
  892MPD2    C213072   2.121   3.714  14.757  0.1788 -0.7927 -0.4982
  892MPD2    C313073   2.231   3.630  14.740  0.2519  0.2406  1.1880
  892MPD2    C413074   2.313   3.606  14.850 -0.1718 -0.7113  0.3294
  892MPD2    C513075   2.271   3.653  14.970 -0.0977 -1.0442 -0.7083
  892MPD2     H13076   2.066   3.743  14.668  0.6167  0.2035 -0.4448
  892MPD2    H113077   2.391   3.532  14.835 -0.5254 -1.2671  1.2653
  892MPD2    H213078   2.112   3.721  15.095 -3.3971  1.1261 -1.2532
  892MPD2    H313079   2.332   3.624  15.055 -1.8718  0.7713  1.1790
  892MPD2     N13080   2.270   3.574  14.615 -0.0722  0.0351 -0.2947
  892MPD2    H513081   2.358   3.526  14.600 -0.2605  0.2942 -2.2831
  892MPD2    N113082   1.946   3.810  14.899 -0.6665  0.1703  0.2383
  892MPD2    H713083   1.913   3.827  14.994 -1.0430 -0.0486  0.1471
  893MPD2     C13084   4.490   2.770   1.101  0.1560 -0.2091  0.2699
  893MPD2    C113085   4.450   2.851   1.204 -0.0974  0.6582 -0.4528
  893MPD2    C213086   4.311   2.871   1.220  0.2119 -0.6240 -0.0731
  893MPD2    C313087   4.225   2.813   1.131  0.2286 -0.6958  0.1565
  893MPD2    C413088   4.266   2.751   1.021 -0.9526  0.0417 -0.7381
  893MPD2    C513089   4.398   2.714   1.011 -0.5589  0.0455  0.3261
  893MPD2     H13090   4.278   2.931   1.304  1.2732 -1.3462  0.8610
  893MPD2    H113091   4.195   2.701   0.957  0.1695 -1.5756 -0.7385
  893MPD2    H213092   4.593   2.741   1.080 -0.2333 -2.3436  1.3649
  893MPD2    H313093   4.430   2.644   0.935 -1.1331 -1.0770  1.1102
  893MPD2     N13094   4.079   2.815   1.147  0.1596  0.7384 -0.1891
  893MPD2    H513095   4.026   2.792   1.063  0.2964 -0.3569  0.0160
  893MPD2    N113096   4.545   2.900   1.289 -0.2822  0.0740 -0.2465
  893MPD2    H713097   4.643   2.886   1.265 -0.4582 -0.7436 -0.4649
  894MPD2     C13098   2.145   4.308   1.239 -0.3881  0.8514 -0.1680
  894MPD2    C113099   2.204   4.429   1.271 -0.2173  0.5455  0.2828
  894MPD2    C213100   2.179   4.535   1.182 -0.1363  0.1808  0.3894
  894MPD2    C313101   2.114   4.522   1.068 -0.1246 -0.4201 -0.4079
  894MPD2    C413102   2.050   4.403   1.038 -0.6427  0.1686  0.3467
  894MPD2    C513103   2.060   4.302   1.133 -0.1583  0.0150  0.0416
  894MPD2     H13104   2.235   4.624   1.206 -1.0062  0.7921  0.1126
  894MPD2    H113105   1.991   4.376   0.952 -0.9783 -1.4745  1.0798
  894MPD2    H213106   2.155   4.219   1.300  0.5078  0.3093 -1.0868
  894MPD2    H313107   2.023   4.203   1.112 -1.0761  0.3770 -0.0220
  894MPD2     N13108   2.123   4.627   0.976 -0.0975 -0.6749  0.2547
  894MPD2    H513109   2.169   4.714   1.001  2.1254 -1.7212 -0.1585
  894MPD2    N113110   2.298   4.457   1.371  0.5414  0.1861 -0.7916
  894MPD2    H713111   2.328   4.554   1.372  0.4368  0.1979  0.8190
  895MPD2     C13112   1.023   3.308  13.467 -0.2213  0.0421  0.6312
  895MPD2    C113113   1.047   3.274  13.337 -0.8380 -0.0805 -0.7451
  895MPD2    C213114   1.138   3.178  13.311 -0.1743 -0.1383  0.0636
  895MPD2    C313115   1.211   3.116  13.407 -0.1916 -0.6674  0.1268
  895MPD2    C413116   1.184   3.152  13.539  0.0121  0.3273 -0.7629
  895MPD2    C513117   1.086   3.239  13.571  0.0708  0.4823  0.4439
  895MPD2     H13118   1.133   3.140  13.210  1.0833  0.8707 -0.3824
  895MPD2    H113119   1.251   3.111  13.614  0.0605  2.9681  0.6343
  895MPD2    H213120   0.941   3.375  13.490 -0.5509 -0.2471  0.3097
  895MPD2    H313121   1.068   3.262  13.675 -0.2256  0.5142  0.3846
  895MPD2     N13122   1.302   3.013  13.388  0.0095 -0.8025 -0.3605
  895MPD2    H513123   1.323   2.954  13.468 -1.0229 -0.0644  0.4498
  895MPD2    N113124   0.974   3.335  13.231 -0.0581 -0.0572 -0.1754
  895MPD2    H713125   0.989   3.299  13.137  0.8962 -1.4451  0.5119
  896MPD2     C13126   3.346   0.948   1.253  0.0782 -0.3101 -0.1298
  896MPD2    C113127   3.408   0.890   1.151 -0.2948  0.7262 -0.3361
  896MPD2    C213128   3.343   0.777   1.097 -0.0408  0.2158  0.5673
  896MPD2    C313129   3.214   0.744   1.133  0.1104 -0.2049  0.0036
  896MPD2    C413130   3.146   0.815   1.227  0.0695 -0.0365  0.2510
  896MPD2    C513131   3.217   0.918   1.285 -0.3399 -0.1979  0.2400
  896MPD2     H13132   3.390   0.708   1.029 -0.3658 -1.3939  1.9940
  896MPD2    H113133   3.044   0.811   1.263  0.0995 -0.3774  0.3042
  896MPD2    H213134   3.398   1.031   1.299  1.4967 -0.1597 -2.0213
  896MPD2    H313135   3.169   0.985   1.355  1.9501 -0.1676  1.7658
  896MPD2     N13136   3.150   0.634   1.072  0.0415 -0.2328 -0.5019
  896MPD2    H513137   3.194   0.597   0.989  2.0584 -0.3520  0.6142
  896MPD2    N113138   3.534   0.938   1.128 -0.2083  0.1255 -0.3498
  896MPD2    H713139   3.564   1.025   1.172 -2.1279  0.6624 -0.1059
  897MPD2     C13140   4.015   1.510  10.350  0.5365 -0.5969 -0.5249
  897MPD2    C113141   4.030   1.648  10.325 -0.4558  0.1300 -0.4684
  897MPD2    C213142   3.933   1.726  10.387 -0.1173  0.2879  0.1559
  897MPD2    C313143   3.841   1.683  10.475 -0.2829  0.3728 -0.1333
  897MPD2    C413144   3.827   1.546  10.483 -0.7079 -0.0647  0.3529
  897MPD2    C513145   3.912   1.459  10.420 -0.6356 -0.0273 -0.7382
  897MPD2     H13146   3.950   1.833  10.399 -0.6148  0.0867  2.7098
  897MPD2    H113147   3.752   1.510  10.552 -1.0014 -0.9459 -0.4354
  897MPD2    H213148   4.085   1.436  10.312 -0.2063 -1.9662  0.8082
  897MPD2    H313149   3.906   1.354  10.446 -0.0465  0.7380  2.5245
  897MPD2     N13150   3.772   1.773  10.559  0.6046  0.4428  0.8012
  897MPD2    H513151   3.782   1.870  10.529  1.3767  0.1427  0.0942
  897MPD2    N113152   4.145   1.691  10.256 -0.3942  0.2771 -1.0934
  897MPD2    H713153   4.203   1.624  10.207 -0.9069  0.6189 -2.1622
  898MPD2     C13154   1.075   3.605  17.528  0.1057 -0.5938  0.5080
  898MPD2    C113155   1.202   3.645  17.495  0.3354  0.2718 -0.8726
  898MPD2    C213156   1.222   3.782  17.475 -0.2394 -0.8922 -0.1282
  898MPD2    C313157   1.120   3.874  17.488  0.2370 -0.3782  0.2204
  898MPD2    C413158   0.995   3.826  17.530  0.0117 -0.2979 -0.6708
  898MPD2    C513159   0.970   3.694  17.552 -0.2490  0.0952  0.5964
  898MPD2     H13160   1.315   3.814  17.430 -1.4699  2.1373 -0.4803
  898MPD2    H113161   0.910   3.892  17.544  1.2613  1.0548  0.6299
  898MPD2    H213162   1.047   3.500  17.525 -1.6376 -0.0863 -0.6291
  898MPD2    H313163   0.871   3.657  17.575 -0.2946  0.2789  0.6957
  898MPD2     N13164   1.142   4.006  17.445 -0.4424  0.0160 -0.3029
  898MPD2    H513165   1.232   4.025  17.403 -0.6474 -0.9004 -1.1506
  898MPD2    N113166   1.306   3.553  17.458  0.3271 -0.4695 -0.3457
  898MPD2    H713167   1.395   3.593  17.430 -0.2032  0.2471 -1.0062
  899MPD2     C13168   2.758   3.682  17.559  0.6374 -0.0323 -0.0551
  899MPD2    C113169   2.811   3.773  17.648 -0.2024 -0.1716  1.1957
  899MPD2    C213170   2.793   3.759   0.114 -0.3215 -0.5126  0.3161
  899MPD2    C313171   2.744   3.636   0.164  0.0199  0.7339 -0.4715
  899MPD2    C413172   2.710   3.541   0.073 -0.7315  1.0090 -0.0300
  899MPD2    C513173   2.715   3.570  17.615  0.2085  0.3465  0.2693
  899MPD2     H13174   2.824   3.836   0.184 -0.5776 -2.0392  2.1057
  899MPD2    H113175   2.667   3.447   0.104  2.3999 -0.4827 -0.2426
  899MPD2    H213176   2.747   3.694  17.451 -1.3837 -0.7877  0.0544
  899MPD2    H313177   2.671   3.504  17.540  0.3806  0.8001 -0.2372
  899MPD2     N13178   2.727   3.623   0.303 -0.0365 -0.1218  0.7318
  899MPD2    H513179   2.676   3.539   0.327  1.5032 -1.9987 -2.5964
  899MPD2    N113180   2.852   3.891  17.588  0.4363  0.4939 -0.3723
  899MPD2    H713181   2.837   3.903  17.489  0.6150 -1.9482 -0.6867
  900MPD2     C13182   2.362   1.062  12.038 -0.7048 -0.0322 -0.8690
  900MPD2    C113183   2.265   0.964  12.043  0.6573  0.6207 -0.0345
  900MPD2    C213184   2.133   1.003  12.027 -0.3395 -0.4582  0.0066
  900MPD2    C313185   2.099   1.139  12.008  0.2006 -0.2778 -0.8771
  900MPD2    C413186   2.202   1.226  11.999  0.2037  0.3376  0.1707
  900MPD2    C513187   2.333   1.191  12.019  0.2471  0.0191  0.7093
  900MPD2     H13188   2.050   0.933  12.033  0.2838 -1.0608  1.5200
  900MPD2    H113189   2.176   1.331  11.987 -0.9793 -0.0798 -0.8784
  900MPD2    H213190   2.463   1.035  12.066 -0.4450  0.1094 -1.6544
  900MPD2    H313191   2.405   1.271  12.028 -1.7057  1.9590 -1.0167
  900MPD2     N13192   1.962   1.171  11.990  0.6069 -0.1048  0.3104
  900MPD2    H513193   1.898   1.093  11.991  0.4329  0.0519  2.0293
  900MPD2    N113194   2.311   0.830  12.079  0.2594 -0.0139  0.4228
  900MPD2    H713195   2.403   0.820  12.120  0.3671  1.9296  0.6532
  901MPD2     C13196   2.151   4.577  12.548  0.0219 -0.0359 -0.1337
  901MPD2    C113197   2.240   4.566  12.446 -0.2539  0.6104 -0.0766
  901MPD2    C213198   2.277   4.677  12.374 -0.1784  0.5903 -0.0119
  901MPD2    C313199   2.227   0.077  12.396  0.4146  0.0283 -0.2372
  901MPD2    C413200   2.119   0.091  12.484 -0.1133 -0.1024 -0.5443
  901MPD2    C513201   2.086   4.696  12.556  0.9150 -0.7817  0.0047
  901MPD2     H13202   2.354   4.670  12.298 -1.3746 -2.6799 -0.9243
  901MPD2    H113203   2.076   0.185  12.516 -0.5603 -0.0492 -1.3175
  901MPD2    H213204   2.114   4.493  12.605  1.4505 -2.1648 -2.3203
  901MPD2    H313205   2.002   4.698  12.625  0.1281  0.7073 -1.0077
  901MPD2     N13206   2.280   0.184  12.325 -0.1596  0.2473 -0.3030
  901MPD2    H513207   2.358   0.174  12.260 -0.5421 -0.4559 -0.6525
  901MPD2    N113208   2.300   4.440  12.429 -0.3330  0.0852 -0.0831
  901MPD2    H713209   2.275   4.361  12.488 -0.0687 -1.1127 -1.5740
  902MPD2     C13210   1.142   3.574  13.042  0.2200  0.4828 -0.2829
  902MPD2    C113211   1.114   3.634  12.921 -0.2754 -0.5936 -0.2138
  902MPD2    C213212   1.204   3.607  12.819  0.0259 -0.2036 -0.5103
  902MPD2    C313213   1.304   3.512  12.825  0.3111  0.2355  0.1556
  902MPD2    C413214   1.333   3.458  12.949 -0.0392 -0.1306  0.5187
  902MPD2    C513215   1.250   3.495  13.050  0.0053  0.5559  0.3039
  902MPD2     H13216   1.185   3.663  12.728 -0.1543 -2.0542 -1.6053
  902MPD2    H113217   1.409   3.384  12.967 -0.2378 -0.0415  1.7311
  902MPD2    H213218   1.075   3.591  13.125 -0.0744  3.8852 -1.2274
  902MPD2    H313219   1.260   3.433  13.138  2.1561  0.6081  0.1029
  902MPD2     N13220   1.387   3.486  12.713  0.3831  0.5108 -0.3996
  902MPD2    H513221   1.437   3.398  12.720  1.3331  1.1046  0.4806
  902MPD2    N113222   1.013   3.735  12.899  0.8363  0.1849  0.8142
  902MPD2    H713223   1.007   3.765  12.802 -1.6358 -0.9042  0.6220
  903MPD2     C13224   1.240   3.794  12.016 -0.3849 -0.9709 -0.2068
  903MPD2    C113225   1.291   3.669  12.027  0.4047  0.4025 -0.1075
  903MPD2    C213226   1.245   3.555  11.964  0.1750  0.5781 -0.1770
  903MPD2    C313227   1.140   3.580  11.874  0.0250  0.2893 -0.1504
  903MPD2    C413228   1.088   3.706  11.856 -0.5674 -0.4672  0.8759
  903MPD2    C513229   1.135   3.815  11.924  0.3704 -0.5583 -0.4109
  903MPD2     H13230   1.285   3.455  11.972 -0.5566  0.3847  1.1139
  903MPD2    H113231   1.003   3.738  11.797 -0.4916  0.9714  1.5366
  903MPD2    H213232   1.296   3.879  12.054 -0.8047 -0.8967  0.2370
  903MPD2    H313233   1.079   3.908  11.918 -1.2153 -1.3582  1.8281
  903MPD2     N13234   1.090   3.472  11.801 -0.3469  0.2416 -0.1178
  903MPD2    H513235   1.121   3.380  11.830  1.1944  0.2395 -1.7934
  903MPD2    N113236   1.391   3.665  12.124  0.1413 -0.6761  0.0066
  903MPD2    H713237   1.420   3.743  12.182 -0.7702 -0.1248 -0.2806
  904MPD2     C13238   1.059   1.934  14.049 -0.2072 -0.2446  0.1482
  904MPD2    C113239   1.110   2.044  13.980 -0.9657  0.1848  1.2966
  904MPD2    C213240   1.239   2.089  14.009  0.0890  0.2665  0.0465
  904MPD2    C313241   1.310   2.024  14.108  1.0502  0.0433  0.3285
  904MPD2    C413242   1.262   1.919  14.176  0.1201  0.0822 -0.3181
  904MPD2    C513243   1.138   1.873  14.141 -0.8654  0.3467  0.0828
  904MPD2     H13244   1.275   2.170  13.947  2.2309  0.0914  1.0331
  904MPD2    H113245   1.319   1.858  14.246 -0.5599 -0.8486 -0.5783
  904MPD2    H213246   0.961   1.894  14.027  0.1166 -0.3850 -0.9934
  904MPD2    H313247   1.096   1.781  14.182 -0.6852  0.5501  0.7174
  904MPD2     N13248   1.441   2.056  14.147  0.2187  0.3942 -0.1262
  904MPD2    H513249   1.489   1.985  14.200  0.5280  0.5607 -0.1854
  904MPD2    N113250   1.024   2.119  13.900  0.3303 -0.3294  0.2543
  904MPD2    H713251   1.052   2.213  13.873  0.2590 -0.2179  0.5697
  905MPD2     C13252   0.720   2.599  13.215  0.0847 -0.0803  0.6983
  905MPD2    C113253   0.813   2.523  13.275  0.8729 -0.2373  0.0424
  905MPD2    C213254   0.940   2.522  13.222 -0.6298 -0.2177  0.9571
  905MPD2    C313255   0.967   2.608  13.113  0.0430  0.4233  0.0072
  905MPD2    C413256   0.873   2.689  13.051  0.1520 -0.3894  0.1911
  905MPD2    C513257   0.749   2.677  13.105 -0.0245 -0.4493  0.8841
  905MPD2     H13258   1.017   2.466  13.273  0.3275  1.1346  1.0008
  905MPD2    H113259   0.893   2.757  12.969 -1.1984 -0.4649 -0.2023
  905MPD2    H213260   0.622   2.616  13.257  0.0728  2.6796 -0.4887
  905MPD2    H313261   0.666   2.730  13.060 -0.0224 -1.4905 -0.3387
  905MPD2     N13262   1.097   2.637  13.067 -0.5982  0.5484  0.3077
  905MPD2    H513263   1.105   2.723  13.013  0.0231 -1.0469 -2.1191
  905MPD2    N113264   0.774   2.458  13.392 -0.0718 -0.2055  0.3181
  905MPD2    H713265   0.680   2.485  13.420 -0.5255 -0.5071 -0.9304
  906MPD2     C13266   2.790   2.646  11.249 -1.1333  0.0958  0.1794
  906MPD2    C113267   2.776   2.535  11.165  0.1548 -0.8894 -0.0446
  906MPD2    C213268   2.744   2.422  11.226 -0.2286 -0.4201  0.3853
  906MPD2    C313269   2.731   2.410  11.362 -0.6536 -0.5788  0.2029
  906MPD2    C413270   2.737   2.520  11.440 -0.2409  0.0032  0.2752
  906MPD2    C513271   2.773   2.638  11.379 -0.2730  0.2173 -0.2034
  906MPD2     H13272   2.732   2.332  11.167  2.7513 -1.6059  1.5311
  906MPD2    H113273   2.721   2.512  11.547  0.9126 -0.2379  0.4264
  906MPD2    H213274   2.803   2.748  11.216 -0.6554  0.0213  0.1357
  906MPD2    H313275   2.796   2.718  11.449 -0.2971  0.2423 -0.2237
  906MPD2     N13276   2.702   2.290  11.434 -0.0583  0.3061  0.2022
  906MPD2    H513277   2.680   2.287  11.533 -1.5121 -2.2941 -0.1991
  906MPD2    N113278   2.796   2.529  11.024 -0.6238  0.8133 -0.0670
  906MPD2    H713279   2.808   2.436  10.985  0.6697  0.1467  1.9057
  907MPD2     C13280   2.023   1.395  15.811 -0.4250 -0.1931 -1.1227
  907MPD2    C113281   2.014   1.265  15.775  0.0373 -0.5292 -0.5962
  907MPD2    C213282   1.996   1.167  15.877  0.7073 -0.3113 -0.0969
  907MPD2    C313283   1.992   1.204  16.009 -0.3923 -0.0526 -0.3341
  907MPD2    C413284   2.012   1.339  16.042 -0.5311 -1.0700  0.2585
  907MPD2    C513285   2.025   1.427  15.945 -0.1274  0.0662  0.5307
  907MPD2     H13286   1.991   1.060  15.860 -2.4509 -0.1105 -0.4993
  907MPD2    H113287   2.022   1.367  16.146 -0.3631  2.7756 -0.8066
  907MPD2    H213288   2.054   1.474  15.743 -0.2415  1.2717  0.6331
  907MPD2    H313289   2.044   1.529  15.974  1.7345  0.0106 -0.4604
  907MPD2     N13290   1.973   1.101  16.105 -0.1924 -0.4041 -0.2241
  907MPD2    H513291   1.954   1.004  16.080  1.6146 -0.8683  0.2298
  907MPD2    N113292   2.028   1.211  15.653  0.0458 -0.3975  0.1894
  907MPD2    H713293   2.007   1.112  15.645 -3.7106  0.4696 -0.4228
  908MPD2     C13294   4.512   1.306   9.608 -0.3996  0.2561 -0.2744
  908MPD2    C113295   4.501   1.266   9.741  0.7395 -0.8116 -0.6641
  908MPD2    C213296   4.505   1.368   9.838  0.1762  1.1900  0.1305
  908MPD2    C313297   4.515   1.503   9.806 -0.2156 -0.0990  0.0490
  908MPD2    C413298   4.535   1.534   9.671  0.7599  0.0900  0.6540
  908MPD2    C513299   4.526   1.439   9.575 -0.2695 -0.1276 -0.6042
  908MPD2     H13300   4.488   1.342   9.942 -1.4840 -1.2025 -0.7381
  908MPD2    H113301   4.549   1.635   9.635  1.1587 -0.4542 -0.7267
  908MPD2    H213302   4.509   1.235   9.527 -1.0541 -0.1476  0.1117
  908MPD2    H313303   4.539   1.469   9.472 -1.0246 -0.1554 -0.7091
  908MPD2     N13304   4.491   1.603   9.900 -0.5960 -0.1700 -0.2530
  908MPD2    H513305   4.481   1.569   9.996  0.8140  1.9277  0.6330
  908MPD2    N113306   4.492   1.124   9.769  0.0768  0.4675 -0.1069
  908MPD2    H713307   4.491   1.065   9.686  3.9606 -0.7034  0.6821
  909MPD2     C13308   0.203   4.321  11.646  0.1895  0.6274 -0.3310
  909MPD2    C113309   0.245   4.454  11.638 -0.7997  0.1149  0.2397
  909MPD2    C213310   0.176   4.548  11.716 -0.2433  1.1554  0.0449
  909MPD2    C313311   0.081   4.499  11.817 -0.4865  0.3153  0.1251
  909MPD2    C413312   0.047   4.366  11.816 -0.8553 -0.2859  0.2550
  909MPD2    C513313   0.094   4.277  11.724  0.1113  0.4506 -0.7749
  909MPD2     H13314   0.194   4.655  11.719  1.5390  0.8763 -0.8277
  909MPD2    H113315   4.683   4.338  11.882 -0.8815 -0.1508  0.2804
  909MPD2    H213316   0.241   4.240  11.584 -1.1266 -0.5403  0.3897
  909MPD2    H313317   0.073   4.171  11.726  0.5990  0.3949  1.4532
  909MPD2     N13318   0.029   4.595  11.904 -0.3328 -0.6052 -0.3609
  909MPD2    H513319   0.074   4.685  11.922  0.0189 -0.5936 -1.2809
  909MPD2    N113320   0.351   4.499  11.560 -0.1317 -0.2866 -0.1048
  909MPD2    H713321   0.361   4.599  11.545  1.8988 -0.4730 -0.0847
  910MPD2     C13322   1.142   1.853  15.714  0.1739 -0.4428  0.4731
  910MPD2    C113323   1.232   1.795  15.630 -0.2664  0.0129 -0.0450
  910MPD2    C213324   1.203   1.790  15.498  0.5015 -0.1147  0.1486
  910MPD2    C313325   1.101   1.866  15.439  0.3133 -0.4226 -0.2726
  910MPD2    C413326   1.019   1.935  15.522  0.2637 -0.5642  0.6817
  910MPD2    C513327   1.034   1.921  15.660  0.4735 -0.2097  0.4897
  910MPD2     H13328   1.272   1.727  15.442 -0.8446 -1.1497 -0.3636
  910MPD2    H113329   0.932   1.994  15.496  0.0011 -2.1567 -2.0821
  910MPD2    H213330   1.152   1.850  15.822 -3.4896  1.0673  0.8575
  910MPD2    H313331   0.961   1.966  15.725 -0.3425  0.2340 -0.7496
  910MPD2     N13332   1.074   1.877  15.299 -0.2598 -0.9580 -0.3807
  910MPD2    H513333   0.987   1.924  15.276 -0.1960  1.0844  3.5714
  910MPD2    N113334   1.339   1.719  15.667  0.0056 -0.2324  0.0392
  910MPD2    H713335   1.391   1.678  15.590 -0.5043 -0.9931  0.0899
  911MPD2     C13336   4.074   2.340  16.503 -0.2681 -0.1042  0.8494
  911MPD2    C113337   4.118   2.471  16.490 -0.1225  0.0798  0.0765
  911MPD2    C213338   4.026   2.566  16.462 -0.6532 -0.3930 -0.4982
  911MPD2    C313339   3.898   2.525  16.425 -0.0181  0.4213  0.1586
  911MPD2    C413340   3.853   2.390  16.432 -0.3018 -0.2127  0.1572
  911MPD2    C513341   3.948   2.301  16.463  0.0835 -0.4890 -0.3005
  911MPD2     H13342   4.062   2.665  16.437 -1.5218 -0.3605 -1.6139
  911MPD2    H113343   3.751   2.367  16.406 -0.1271 -3.8726  2.6893
  911MPD2    H213344   4.144   2.264  16.536  2.1146  2.2007  1.1001
  911MPD2    H313345   3.926   2.195  16.467  0.9963 -0.7499 -2.1476
  911MPD2     N13346   3.805   2.617  16.362  0.7182 -0.1175  0.0963
  911MPD2    H513347   3.719   2.577  16.327 -0.6976  2.1364  1.0218
  911MPD2    N113348   4.244   2.508  16.540  0.1869  0.2256  0.5469
  911MPD2    H713349   4.312   2.439  16.571 -0.5972 -0.7959 -0.0011
  912MPD2     C13350   3.491   2.421  15.762  0.2615 -0.3689 -0.3158
  912MPD2    C113351   3.458   2.441  15.898 -0.1440 -0.4272 -0.4578
  912MPD2    C213352   3.426   2.336  15.977 -0.1103  0.2675  0.5762
  912MPD2    C313353   3.427   2.205  15.932  0.6424  0.5173  0.5420
  912MPD2    C413354   3.458   2.181  15.794  0.2805 -0.2300 -0.4069
  912MPD2    C513355   3.482   2.293  15.714  0.9142  0.5010 -0.4352
  912MPD2     H13356   3.402   2.354  16.081  0.5811 -2.1612  1.1512
  912MPD2    H113357   3.454   2.083  15.749  0.3363 -1.1632  1.6111
  912MPD2    H213358   3.520   2.503  15.697 -0.7246 -1.1776 -1.7766
  912MPD2    H313359   3.513   2.279  15.611 -0.6137  0.3086 -0.8613
  912MPD2     N13360   3.388   2.104  16.029 -0.4913 -0.1045 -0.1502
  912MPD2    H513361   3.362   2.133  16.123 -2.1183 -2.6704  0.1965
  912MPD2    N113362   3.493   2.569  15.953 -0.0127  0.1708  0.0193
  912MPD2    H713363   3.547   2.632  15.895  2.4445 -0.4872  1.5684
  913MPD2     C13364   4.717   2.966  10.295 -0.2678  0.1113 -0.2936
  913MPD2    C113365   4.680   3.084  10.347 -0.5566 -0.1109 -0.1444
  913MPD2    C213366   4.691   3.198  10.276 -0.4185  0.9057  0.1094
  913MPD2    C313367   0.018   3.202  10.144 -0.1509  0.5326  0.6748
  913MPD2    C413368   0.051   3.081  10.092  0.3945  0.4279 -0.4642
  913MPD2    C513369   0.044   2.964  10.162 -0.2671 -0.0561  0.0863
  913MPD2     H13370   4.664   3.294  10.319 -1.5606  0.2628  0.7969
  913MPD2    H113371   0.081   3.067   9.989 -3.3887  1.6644 -1.7470
  913MPD2    H213372   4.711   2.875  10.353  0.0522  0.7348  0.7076
  913MPD2    H313373   0.079   2.872  10.116  1.6963  0.4812  0.4807
  913MPD2     N13374   0.025   3.319  10.066 -0.9715  0.5184  0.2886
  913MPD2    H513375   0.065   3.316   9.973  0.1374  1.4898  0.7332
  913MPD2    N113376   4.635   3.088  10.486  0.0352  0.7945  0.2613
  913MPD2    H713377   4.643   3.004  10.543 -0.0671  0.8329  0.3321
  914MPD2     C13378   1.764   4.243  12.049  0.3755 -0.3640 -0.4530
  914MPD2    C113379   1.861   4.340  12.059  0.1641 -0.0795 -0.2805
  914MPD2    C213380   1.993   4.302  12.078  0.4595 -0.1761 -0.3614
  914MPD2    C313381   2.029   4.172  12.094  0.1638  0.2526 -0.2245
  914MPD2    C413382   1.933   4.072  12.090 -0.9476  0.0641 -0.6908
  914MPD2    C513383   1.802   4.112  12.072 -0.6233 -0.2768  0.1550
  914MPD2     H13384   2.068   4.380  12.083 -0.5836  0.7738  0.3839
  914MPD2    H113385   1.958   3.968  12.105 -1.2539 -0.0578 -1.0316
  914MPD2    H213386   1.659   4.269  12.035  0.0034 -0.0398  2.8392
  914MPD2    H313387   1.728   4.033  12.076  0.1789 -1.0534 -0.4133
  914MPD2     N13388   2.163   4.148  12.135  0.3350  0.4872  0.2537
  914MPD2    H513389   2.220   4.231  12.148 -0.0239  0.6648  0.6934
  914MPD2    N113390   1.822   4.477  12.053 -0.0448 -0.3890  0.3479
  914MPD2    H713391   1.722   4.496  12.051  0.3200  1.4068 -0.6398
  915MPD2     C13392   0.728   4.209  15.712  0.1951 -0.3411  0.2642
  915MPD2    C113393   0.643   4.311  15.686  0.3820 -0.2792 -0.5519
  915MPD2    C213394   0.599   4.376  15.797 -0.0443 -0.1934  0.1286
  915MPD2    C313395   0.650   4.352  15.923  0.7425  0.4931 -0.2383
  915MPD2    C413396   0.735   4.243  15.943 -0.3491 -1.0154 -0.7965
  915MPD2    C513397   0.772   4.170  15.833  0.3402  0.2082  0.6021
  915MPD2     H13398   0.525   4.454  15.786 -0.4986 -0.4506  1.3651
  915MPD2    H113399   0.783   4.222  16.038  1.4752  1.2469 -1.2269
  915MPD2    H213400   0.766   4.146  15.633 -0.7074 -2.2286  1.3460
  915MPD2    H313401   0.849   4.094  15.842  2.3834  2.0627 -1.3991
  915MPD2     N13402   0.602   4.430  16.033  0.7571  0.1512 -0.3118
  915MPD2    H513403   0.537   4.505  16.011  1.9196  1.7745  1.7776
  915MPD2    N113404   0.595   4.314  15.554 -0.2569  0.2705 -0.2160
  915MPD2    H713405   0.609   4.228  15.502  0.2074  1.8136 -2.6327
  916MPD2     C13406   3.197   2.184  15.499 -0.1130 -0.1594  0.0328
  916MPD2    C113407   3.130   2.097  15.583 -0.4225 -0.0501 -0.0964
  916MPD2    C213408   3.068   1.987  15.526 -0.1068  0.0053  0.6924
  916MPD2    C313409   3.079   1.957  15.395 -0.5306 -0.1950  0.0580
  916MPD2    C413410   3.143   2.051  15.313  0.0313  0.2101 -0.2478
  916MPD2    C513411   3.204   2.163  15.366 -0.0709  0.7267  0.0027
  916MPD2     H13412   3.019   1.923  15.599 -1.1420 -2.6226 -2.2794
  916MPD2    H113413   3.154   2.039  15.206 -1.7412 -0.2258 -0.3809
  916MPD2    H213414   3.254   2.263  15.545 -1.4806  0.6671  0.3204
  916MPD2    H313415   3.244   2.243  15.304  1.1208  0.2497  0.1489
  916MPD2     N13416   3.013   1.844  15.346  0.4140  0.4927  0.4291
  916MPD2    H513417   2.960   1.785  15.410  1.4639  0.5367  1.3370
  916MPD2    N113418   3.128   2.132  15.725 -0.0523 -0.1604 -0.8077
  916MPD2    H713419   3.150   2.230  15.741  0.4462 -0.6364  1.4543
  917MPD2     C13420   3.884   4.410  11.715 -0.6071 -0.3697 -0.9529
  917MPD2    C113421   3.778   4.397  11.634 -0.6428 -0.5721  0.0977
  917MPD2    C213422   3.799   4.375  11.494 -0.2989  0.0666 -0.4561
  917MPD2    C313423   3.931   4.389  11.443  0.1151 -0.3853  0.2035
  917MPD2    C413424   4.038   4.384  11.531  0.3281  0.6689 -0.0745
  917MPD2    C513425   4.008   4.394  11.668  0.0648 -0.1584 -0.5215
  917MPD2     H13426   3.715   4.368  11.427  0.2400  0.8718 -1.2104
  917MPD2    H113427   4.139   4.382  11.492  1.4432  0.0330  2.8370
  917MPD2    H213428   3.865   4.423  11.821 -2.1110  0.1546 -1.2874
  917MPD2    H313429   4.090   4.418  11.734 -0.9368  1.9920 -0.0638
  917MPD2     N13430   3.958   4.386  11.310 -0.3550 -0.6375 -0.6837
  917MPD2    H513431   4.056   4.379  11.285  0.1054 -2.1064  1.5627
  917MPD2    N113432   3.651   4.405  11.695 -0.1330  0.0803 -0.3720
  917MPD2    H713433   3.637   4.436  11.791  1.3649 -2.7711  0.7874
  918MPD2     C13434   3.561   0.223  12.267  0.1599 -0.4553  0.1129
  918MPD2    C113435   3.652   0.120  12.251  0.9189 -0.4517  0.1940
  918MPD2    C213436   3.610   0.006  12.195 -0.1384  0.2964  0.3543
  918MPD2    C313437   3.477   4.709  12.151 -0.2269 -0.1721 -0.0162
  918MPD2    C413438   3.384   0.087  12.195 -0.2539 -0.0804 -0.0666
  918MPD2    C513439   3.429   0.210  12.245  0.1814  0.0483 -0.1217
  918MPD2     H13440   3.695   4.661  12.174 -1.4316 -1.8837  1.5834
  918MPD2    H113441   3.277   0.083  12.175 -0.7170 -0.5967  2.4906
  918MPD2    H213442   3.600   0.320  12.296 -1.2243  0.5292 -1.3185
  918MPD2    H313443   3.363   0.293  12.268 -0.3510 -0.6912  1.0016
  918MPD2     N13444   3.446   4.604  12.059  0.2193  0.5780 -0.0185
  918MPD2    H513445   3.528   4.560  12.017  0.7351  0.7136  0.8574
  918MPD2    N113446   3.788   0.125  12.281  0.4260 -0.2869  0.6065
  918MPD2    H713447   3.848   0.045  12.263  1.4598  0.7322 -0.5077
  919MPD2     C13448   3.679   3.199  11.387  0.2383 -0.2837 -0.1203
  919MPD2    C113449   3.799   3.129  11.380 -0.2028  0.1984  0.7259
  919MPD2    C213450   3.846   3.104  11.254  0.6003 -0.1181 -0.2881
  919MPD2    C313451   3.787   3.157  11.142 -0.1914  0.2165 -0.8447
  919MPD2    C413452   3.675   3.243  11.159 -0.2199  0.6735  0.2831
  919MPD2    C513453   3.626   3.262  11.284 -0.5648 -0.2924 -0.1597
  919MPD2     H13454   3.936   3.043  11.248  0.1841 -0.8216  0.6905
  919MPD2    H113455   3.632   3.302  11.079 -0.8541 -0.8599 -0.5068
  919MPD2    H213456   3.630   3.218  11.482  0.2927 -2.4950  0.3543
  919MPD2    H313457   3.552   3.341  11.293  0.0061  0.2333 -0.1267
  919MPD2     N13458   3.832   3.124  11.008  0.0606 -0.2083  0.2565
  919MPD2    H513459   3.774   3.156  10.931  0.6699  0.4683  0.0820
  919MPD2    N113460   3.856   3.061  11.485 -0.0450  0.2941  0.0267
  919MPD2    H713461   3.938   3.007  11.459 -0.5023  0.3288 -1.4518
  920MPD2     C13462   3.799   3.543  10.140  0.2345  0.4567 -0.0936
  920MPD2    C113463   3.692   3.459  10.169  0.1597  0.0995 -0.2761
  920MPD2    C213464   3.709   3.366  10.270 -0.7096  0.2767  0.7278
  920MPD2    C313465   3.824   3.352  10.342 -0.2938 -0.3288 -0.3041
  920MPD2    C413466   3.931   3.430  10.307 -0.6364  0.3178 -0.1159
  920MPD2    C513467   3.919   3.527  10.208 -0.3748  0.5167  0.3119
  920MPD2     H13468   3.623   3.304  10.293  1.0157 -3.0073 -1.5541
  920MPD2    H113469   4.012   3.428  10.378 -1.0336 -0.8156  0.2979
  920MPD2    H213470   3.784   3.618  10.063  2.9715 -0.9077 -1.9896
  920MPD2    H313471   4.003   3.594  10.197 -0.5522  1.4051  4.3443
  920MPD2     N13472   3.832   3.246  10.428 -0.4237  0.3728 -0.9416
  920MPD2    H513473   3.745   3.195  10.431  0.1016 -0.5171 -0.8782
  920MPD2    N113474   3.572   3.469  10.090  0.2596 -0.4443  0.1571
  920MPD2    H713475   3.576   3.547  10.026  1.5845 -0.2972  0.4223
  921MPD2     C13476   0.064   3.333  16.770  0.9329  0.1008  0.1886
  921MPD2    C113477   0.158   3.230  16.752 -0.8219  0.2417 -0.1098
  921MPD2    C213478   0.104   3.105  16.708  0.0222 -0.4990  0.2733
  921MPD2    C313479   4.687   3.091  16.679 -0.3392  0.5237  0.4590
  921MPD2    C413480   4.599   3.195  16.714 -0.1094  0.2425 -0.7926
  921MPD2    C513481   4.653   3.314  16.750  0.6616 -0.8818 -0.4611
  921MPD2     H13482   0.177   3.025  16.704 -0.7426 -1.1988  0.2901
  921MPD2    H113483   4.493   3.201  16.691 -0.1517  0.5266 -0.5148
  921MPD2    H213484   0.096   3.425  16.819  1.3279 -0.7130  1.4669
  921MPD2    H313485   4.585   3.394  16.775  1.0092  0.0192 -2.3418
  921MPD2     N13486   4.633   2.973  16.626 -0.6380  0.2029 -0.0541
  921MPD2    H513487   4.534   2.982  16.606 -0.5348  0.6830 -0.3501
  921MPD2    N113488   0.299   3.256  16.774  0.5036 -0.4999  0.5551
  921MPD2    H713489   0.316   3.354  16.791 -0.3251 -0.4731  1.2385
  922MPD2     C13490   1.344   0.720  17.165  0.3898 -0.2608 -0.5909
  922MPD2    C113491   1.377   0.817  17.253 -0.1628  0.3044 -0.1914
  922MPD2    C213492   1.370   0.790  17.386  0.1540 -0.5379  0.5183
  922MPD2    C313493   1.315   0.669  17.431 -0.4464  0.0458  0.4062
  922MPD2    C413494   1.273   0.577  17.337  0.2257 -0.2778  0.1246
  922MPD2    C513495   1.298   0.596  17.203  0.1060  0.1451 -0.2614
  922MPD2     H13496   1.410   0.870  17.448 -0.4079 -0.0407  0.2387
  922MPD2    H113497   1.223   0.483  17.359  2.2321 -1.2086  0.7024
  922MPD2    H213498   1.343   0.733  17.057  1.2488  0.3715 -0.5190
  922MPD2    H313499   1.268   0.522  17.130  0.2546 -0.9207  0.7467
  922MPD2     N13500   1.304   0.648  17.572 -0.0742  0.4856 -0.2530
  922MPD2    H513501   1.341   0.721  17.632 -3.2035 -1.5893  4.1627
  922MPD2    N113502   1.431   0.939  17.209  0.3075 -0.5011 -0.0661
  922MPD2    H713503   1.459   0.996  17.288  1.1801 -0.9297 -0.0737
  923MPD2     C13504   2.467   1.919   9.325 -0.2966  0.0184  0.3165
  923MPD2    C113505   2.364   1.842   9.386  0.8158  0.0690 -0.0736
  923MPD2    C213506   2.394   1.792   9.513  0.0575  0.1418 -0.7853
  923MPD2    C313507   2.516   1.812   9.578  0.1955  0.3396  0.3508
  923MPD2    C413508   2.614   1.881   9.516  0.3615  0.3076 -0.3139
  923MPD2    C513509   2.585   1.934   9.394  0.0208 -0.1759  0.7603
  923MPD2     H13510   2.315   1.744   9.570  0.6714 -0.1188 -0.1392
  923MPD2    H113511   2.708   1.895   9.566 -1.3983 -0.7326  3.2746
  923MPD2    H213512   2.449   1.967   9.229 -1.5786  0.1796  0.6390
  923MPD2    H313513   2.658   1.992   9.338 -1.1860 -0.9949 -1.6442
  923MPD2     N13514   2.543   1.753   9.699 -0.0045 -0.6539  0.0307
  923MPD2    H513515   2.635   1.769   9.741  0.0920  0.9253 -0.7768
  923MPD2    N113516   2.238   1.834   9.317 -0.1435 -0.1216  1.0329
  923MPD2    H713517   2.230   1.878   9.226  0.0711 -1.0709  0.5572
  924MPD2     C13518   1.779   0.246  16.443  0.0170  0.3232 -0.3914
  924MPD2    C113519   1.794   0.321  16.327 -0.2391  0.1155  0.5587
  924MPD2    C213520   1.886   0.426  16.329 -0.2935  0.5996  0.4560
  924MPD2    C313521   1.961   0.451  16.439  0.2787  0.2245 -0.9595
  924MPD2    C413522   1.937   0.386  16.560 -0.4548  1.0024 -0.0774
  924MPD2    C513523   1.847   0.285  16.558  0.7012  1.0856 -0.5683
  924MPD2     H13524   1.900   0.478  16.235 -0.0522  0.0368  0.1867
  924MPD2    H113525   1.991   0.420  16.647 -0.0109  5.4089 -2.0980
  924MPD2    H213526   1.704   0.168  16.443  0.8587 -0.4624  2.7830
  924MPD2    H313527   1.826   0.230  16.649 -2.3493 -1.3045 -2.6976
  924MPD2     N13528   2.040   0.565  16.443  0.3870 -0.2297 -0.2748
  924MPD2    H513529   2.073   0.597  16.534 -1.7953  0.2976  0.3406
  924MPD2    N113530   1.716   0.305  16.209  0.2057 -0.0656 -0.4596
  924MPD2    H713531   1.747   0.359  16.128  0.6923 -1.2816 -1.0989
  925MPD2     C13532   1.095   3.039  14.738 -0.0296 -0.2477  0.1487
  925MPD2    C113533   0.970   3.079  14.692 -0.5562  0.4835 -0.9039
  925MPD2    C213534   0.862   3.084  14.781  0.5043  0.2977  0.0590
  925MPD2    C313535   0.879   3.045  14.913 -0.8215 -0.1197  0.3079
  925MPD2    C413536   1.007   3.006  14.955 -0.6260 -0.5239  0.5472
  925MPD2    C513537   1.113   2.999  14.866 -0.2829 -0.0517 -1.0978
  925MPD2     H13538   0.759   3.096  14.749  1.6224  0.7904 -3.4190
  925MPD2    H113539   1.031   2.965  15.052 -1.1202 -2.2176 -0.0429
  925MPD2    H213540   1.184   3.036  14.678  1.8789 -0.1498  2.9681
  925MPD2    H313541   1.203   2.948  14.899 -1.4540 -1.1356  0.4271
  925MPD2     N13542   0.780   3.047  15.013  0.0441 -0.1515 -0.1468
  925MPD2    H513543   0.803   3.000  15.100  2.2590  1.6734  0.2696
  925MPD2    N113544   0.956   3.131  14.559  0.3600  0.6808  0.6372
  925MPD2    H713545   0.865   3.170  14.538  0.7470  0.6996 -0.9821
  926MPD2     C13546   0.624   1.518  13.213  0.0825 -0.4142  0.0554
  926MPD2    C113547   0.530   1.616  13.227 -0.7100 -0.4414 -0.5926
  926MPD2    C213548   0.524   1.718  13.130  0.2813 -0.1276  0.5909
  926MPD2    C313549   0.623   1.728  13.028  0.7411  0.6071  0.5962
  926MPD2    C413550   0.722   1.641  13.023 -0.9089  0.0569  0.2551
  926MPD2    C513551   0.721   1.537  13.113  0.3363 -0.2512  0.0413
  926MPD2     H13552   0.448   1.796  13.129 -1.9391 -2.2907 -1.8356
  926MPD2    H113553   0.793   1.646  12.941 -0.4202  1.3915  0.7611
  926MPD2    H213554   0.632   1.430  13.276  1.3526  0.7864  1.5667
  926MPD2    H313555   0.792   1.455  13.110 -0.2178 -0.7944  1.7605
  926MPD2     N13556   0.630   1.837  12.941 -0.4867  0.0652 -0.2725
  926MPD2    H513557   0.716   1.854  12.891  0.4127 -1.1468  0.8624
  926MPD2    N113558   0.436   1.614  13.333  0.2029  0.0953  0.3579
  926MPD2    H713559   0.374   1.693  13.343 -0.7395 -0.7839  1.5897
  927MPD2     C13560   4.076   4.435   0.257  0.5082 -0.8693 -0.5501
  927MPD2    C113561   4.108   4.299   0.259 -1.0975  0.5072  0.0646
  927MPD2    C213562   4.217   4.255   0.185 -0.6554  0.8345 -0.2224
  927MPD2    C313563   4.294   4.346   0.108 -1.3341  0.4090  0.1438
  927MPD2    C413564   4.256   4.480   0.104 -0.1882  0.1675  0.3264
  927MPD2    C513565   4.150   4.522   0.182 -0.3580  0.4309 -0.3001
  927MPD2     H13566   4.246   4.151   0.191 -0.0410  0.9931 -0.4561
  927MPD2    H113567   4.314   4.551   0.046  0.2052  0.0047  0.5187
  927MPD2    H213568   3.985   4.476   0.301  0.8012  0.3095 -1.0480
  927MPD2    H313569   4.118   4.626   0.180  0.3782  0.6492 -0.9021
  927MPD2     N13570   4.409   4.306   0.029 -0.3730  0.0092  0.4414
  927MPD2    H513571   4.449   4.380  17.647  1.4903 -0.0132  1.7327
  927MPD2    N113572   4.033   4.220   0.346  0.0203  0.0608 -0.1288
  927MPD2    H713573   3.965   4.270   0.403  0.4016 -0.1974  0.5438
  928MPD2     C13574   1.673   2.570   0.402  0.1562  0.1692 -0.5637
  928MPD2    C113575   1.732   2.565   0.520 -0.4986  0.8071 -0.2981
  928MPD2    C213576   1.870   2.564   0.520  0.1239  0.2966  0.3250
  928MPD2    C313577   1.942   2.561   0.399 -0.1392  0.0685  0.2865
  928MPD2    C413578   1.876   2.564   0.278  0.1029 -0.0979 -0.4280
  928MPD2    C513579   1.734   2.565   0.279 -0.2397 -0.5181 -0.1797
  928MPD2     H13580   1.916   2.543   0.616 -1.6768  2.4885  1.6689
  928MPD2    H113581   1.936   2.570   0.188 -0.3009 -1.2633 -0.7657
  928MPD2    H213582   1.570   2.602   0.403  0.8770  2.5339 -1.3013
  928MPD2    H313583   1.682   2.590   0.188 -1.2668 -0.5378  0.4021
  928MPD2     N13584   2.088   2.545   0.403  0.2643  0.7157 -0.2602
  928MPD2    H513585   2.136   2.535   0.314  0.1786  0.0553 -0.2313
  928MPD2    N113586   1.649   2.571   0.642 -0.3352 -0.2005  0.8235
  928MPD2    H713587   1.549   2.585   0.634 -0.1139  0.5368 -0.7152
  929MPD2     C13588   0.913   1.830   9.456 -0.0380  0.7383  0.7735
  929MPD2    C113589   0.997   1.821   9.561  0.2178  0.2583 -0.8449
  929MPD2    C213590   0.969   1.902   9.675 -0.1338  0.3329  0.2817
  929MPD2    C313591   0.870   1.998   9.677  1.1714 -0.5480 -0.2706
  929MPD2    C413592   0.784   2.007   9.570  0.6020  0.0466  0.3626
  929MPD2    C513593   0.810   1.919   9.464 -0.1636 -0.1077 -0.2065
  929MPD2     H13594   1.037   1.895   9.759 -0.5558 -0.5329  0.5568
  929MPD2    H113595   0.709   2.084   9.562  1.1818  0.3321 -2.1474
  929MPD2    H213596   0.918   1.760   9.374  3.8621  1.2335  0.5787
  929MPD2    H313597   0.744   1.921   9.378  0.1282  1.2613 -0.3929
  929MPD2     N13598   0.866   2.085   9.787  0.2006 -0.2899  0.0566
  929MPD2    H513599   0.921   2.057   9.868 -0.9996 -1.9010  0.3151
  929MPD2    N113600   1.108   1.735   9.545 -0.0589  0.3557 -0.2071
  929MPD2    H713601   1.106   1.689   9.455 -0.8631 -0.4161  0.2078
  930MPD2     C13602   3.830   4.585  14.443 -1.0204 -0.1705 -0.1404
  930MPD2    C113603   3.825   4.713  14.381  0.2157 -0.1281  0.2867
  930MPD2    C213604   3.784   4.717  14.249 -0.2467  0.5277  1.0602
  930MPD2    C313605   3.738   4.607  14.183 -0.7001 -0.6850  0.0823
  930MPD2    C413606   3.738   4.483  14.246 -0.1676 -0.2143  0.1492
  930MPD2    C513607   3.787   4.475  14.378  0.1657  0.0340 -0.0052
  930MPD2     H13608   3.793   0.095  14.199 -0.3245  0.8967  1.7487
  930MPD2    H113609   3.710   4.393  14.192 -0.6429  0.7804 -1.2567
  930MPD2    H213610   3.876   4.581  14.541 -1.2261 -0.5701 -0.0608
  930MPD2    H313611   3.784   4.375  14.419  3.2223 -1.7163 -4.1112
  930MPD2     N13612   3.712   4.605  14.045  0.0749  0.3554 -0.2374
  930MPD2    H513613   3.703   4.513  14.003  0.6833 -0.7027  1.9380
  930MPD2    N113614   3.879   0.109  14.447 -0.3306  0.4362 -0.1401
  930MPD2    H713615   3.936   0.080  14.526  1.3416  1.3490 -1.0040
  931MPD2     C13616   4.177   3.446   0.485  0.2174 -0.0556 -0.1785
  931MPD2    C113617   4.107   3.502   0.587 -0.2065  0.2878 -0.1462
  931MPD2    C213618   4.105   3.441   0.712 -0.5463 -0.0367 -0.2519
  931MPD2    C313619   4.179   3.328   0.737  0.5950 -0.4847  0.2061
  931MPD2    C413620   4.254   3.278   0.636 -0.3430 -0.2082  0.3849
  931MPD2    C513621   4.252   3.330   0.511 -0.3685  0.2388 -0.2394
  931MPD2     H13622   4.060   3.498   0.792  1.7281  0.3043  0.7874
  931MPD2    H113623   4.313   3.189   0.656 -2.5426 -1.9414 -0.8943
  931MPD2    H213624   4.179   3.491   0.387 -0.1773  1.2610  0.4125
  931MPD2    H313625   4.312   3.279   0.436  0.1117  1.8606 -0.9623
  931MPD2     N13626   4.194   3.266   0.862  0.1316  0.0099  0.2362
  931MPD2    H513627   4.260   3.190   0.874 -0.4123 -0.3663  0.8243
  931MPD2    N113628   4.038   3.625   0.562 -0.1373  0.1906 -0.2405
  931MPD2    H713629   4.043   3.667   0.470  1.2109  0.6484  0.0388
  932MPD2     C13630   0.708   3.277  11.096 -0.3932 -0.2060 -0.1216
  932MPD2    C113631   0.832   3.334  11.117 -0.1817  0.7877  0.9486
  932MPD2    C213632   0.923   3.270  11.200 -0.2465  0.4518  0.2853
  932MPD2    C313633   0.891   3.148  11.259  0.1898 -0.3919 -0.4886
  932MPD2    C413634   0.770   3.095  11.226  0.7503 -0.1736  0.3167
  932MPD2    C513635   0.677   3.162  11.151 -0.1502  0.0956  0.0524
  932MPD2     H13636   1.015   3.324  11.222  0.3200 -0.5117  0.3016
  932MPD2    H113637   0.744   2.999  11.268 -1.7987  0.5123  0.2987
  932MPD2    H213638   0.632   3.318  11.029  0.5230  1.1505 -0.3514
  932MPD2    H313639   0.580   3.114  11.141 -1.0259  2.1337 -1.3001
  932MPD2     N13640   0.980   3.076  11.343  0.1325 -0.1182  0.4923
  932MPD2    H513641   0.948   2.985  11.375 -0.0726 -0.1112  0.3123
  932MPD2    N113642   0.871   3.454  11.053 -0.6605 -0.4421 -0.2282
  932MPD2    H713643   0.964   3.493  11.064  0.4484 -3.3821  0.6065
  933MPD2     C13644   0.994   2.832   1.124  0.0440 -0.0090 -0.5504
  933MPD2    C113645   1.102   2.852   1.036 -0.1016 -0.1230  0.0155
  933MPD2    C213646   1.113   2.976   0.977 -0.3373 -0.3885 -0.1318
  933MPD2    C313647   1.026   3.074   1.015  0.2143  0.1071  0.0438
  933MPD2    C413648   0.921   3.049   1.096 -0.2102 -0.8211  0.2996
  933MPD2    C513649   0.907   2.929   1.157 -0.4685  0.6064  0.1529
  933MPD2     H13650   1.194   3.003   0.911 -1.5614 -1.4157 -2.0856
  933MPD2    H113651   0.848   3.126   1.116 -0.5703 -1.0966  0.0390
  933MPD2    H213652   0.978   2.735   1.171  1.4174 -0.2477 -0.5800
  933MPD2    H313653   0.818   2.909   1.214 -0.7188  2.7445  0.4942
  933MPD2     N13654   1.046   3.208   0.965 -0.2646 -0.5819 -0.5032
  933MPD2    H513655   1.134   3.227   0.918  0.3455 -0.9063  0.5116
  933MPD2    N113656   1.197   2.750   1.018  0.3380  0.6403  0.1046
  933MPD2    H713657   1.190   2.672   1.083 -0.4680  1.0927  0.5552
  934MPD2     C13658   3.188   0.986   1.652 -0.3294  0.0349 -0.2141
  934MPD2    C113659   3.262   0.873   1.639  0.0109 -0.0898 -0.3061
  934MPD2    C213660   3.197   0.754   1.621  1.0313  0.0809 -1.2669
  934MPD2    C313661   3.059   0.751   1.601  0.2116 -0.1332  0.3635
  934MPD2    C413662   2.989   0.870   1.601  0.3716 -0.1260  0.7418
  934MPD2    C513663   3.050   0.980   1.642  0.2602 -0.5976 -0.2453
  934MPD2     H13664   3.256   0.663   1.631  0.2292 -0.2907  0.0669
  934MPD2    H113665   2.883   0.870   1.578  0.4955 -3.4007  0.2875
  934MPD2    H213666   3.228   1.084   1.674 -3.6317  1.6828 -1.6066
  934MPD2    H313667   2.992   1.072   1.638 -0.0503 -0.6963  2.3714
  934MPD2     N13668   2.987   0.636   1.569  0.1530  0.1309 -0.1898
  934MPD2    H513669   2.886   0.642   1.561 -0.0099 -0.7547  1.1983
  934MPD2    N113670   3.404   0.869   1.663  0.4965 -0.7660 -0.1803
  934MPD2    H713671   3.437   0.774   1.675  0.8870 -0.4266  1.3921
  935MPD2     C13672   3.098   4.416   1.925 -0.1669  0.1017  0.4893
  935MPD2    C113673   3.062   4.407   1.794 -1.1250 -0.0943 -0.1082
  935MPD2    C213674   3.007   4.520   1.734  0.3041 -0.0044  0.3594
  935MPD2    C313675   2.993   4.638   1.802 -0.7296  0.3828  0.1539
  935MPD2    C413676   3.041   4.645   1.932 -0.0739 -0.2340 -0.0394
  935MPD2    C513677   3.092   4.536   1.994 -0.2082  0.2194  0.5461
  935MPD2     H13678   2.971   4.521   1.632  2.7487  1.0808 -0.4944
  935MPD2    H113679   3.043   0.017   1.991 -0.1210  0.3043 -0.8538
  935MPD2    H213680   3.143   4.337   1.984  1.1679  1.3718  1.1677
  935MPD2    H313681   3.120   4.541   2.098 -1.3655 -0.2767  0.8807
  935MPD2     N13682   2.941   0.037   1.742 -0.0682  0.2443 -0.6929
  935MPD2    H513683   2.945   0.122   1.796  1.3609 -1.4251  1.8430
  935MPD2    N113684   3.081   4.289   1.718 -0.5936  0.1928 -0.4695
  935MPD2    H713685   3.042   4.287   1.624  0.3438 -0.0764 -0.8662
  936MPD2     C13686   1.699   1.279  12.899  0.1586  0.7577 -0.3741
  936MPD2    C113687   1.782   1.322  12.996  0.2153 -0.0500  0.1757
  936MPD2    C213688   1.830   1.452  12.968  0.7159  0.2641 -0.3518
  936MPD2    C313689   1.817   1.522  12.852 -0.1017 -1.0120 -0.8501
  936MPD2    C413690   1.740   1.467  12.757  0.4157  0.1125 -0.3105
  936MPD2    C513691   1.684   1.341  12.777  0.0078  0.0243 -0.4973
  936MPD2     H13692   1.907   1.493  13.033 -1.1427  0.2671  1.8621
  936MPD2    H113693   1.716   1.510  12.660 -0.6160 -0.9665 -0.5329
  936MPD2    H213694   1.640   1.191  12.925 -2.1422  1.5959 -2.6945
  936MPD2    H313695   1.615   1.293  12.708 -0.5160 -2.5268  1.7989
  936MPD2     N13696   1.891   1.645  12.848  0.0794 -0.5208 -0.3333
  936MPD2    H513697   1.946   1.665  12.931  0.0990  0.1009 -0.5009
  936MPD2    N113698   1.817   1.257  13.114 -0.0097  0.1444  0.5903
  936MPD2    H713699   1.878   1.303  13.180  1.8492  0.0646 -1.0748
  937MPD2     C13700   4.257   2.433  11.645 -0.0578  0.6612  0.4190
  937MPD2    C113701   4.206   2.542  11.566  0.0694 -0.8016  0.5717
  937MPD2    C213702   4.259   2.549  11.436 -0.3899 -0.5616  0.6106
  937MPD2    C313703   4.345   2.447  11.381 -0.1719 -0.3948  0.1739
  937MPD2    C413704   4.384   2.341  11.459  0.4145 -0.1160 -0.4531
  937MPD2    C513705   4.342   2.334  11.592  0.1877 -0.1628 -0.2785
  937MPD2     H13706   4.235   2.636  11.375 -0.7681  0.6805  2.5551
  937MPD2    H113707   4.453   2.267  11.420  0.5202 -1.4174  2.1606
  937MPD2    H213708   4.225   2.429  11.749  0.5062 -1.1998  0.5169
  937MPD2    H313709   4.375   2.252  11.655  0.9983  0.3815 -0.0069
  937MPD2     N13710   4.405   2.476  11.259  0.5173 -0.3319  0.0724
  937MPD2    H513711   4.364   2.555  11.209 -0.6048  0.1231  1.7290
  937MPD2    N113712   4.134   2.651  11.618  0.2587  0.4576  0.2022
  937MPD2    H713713   4.104   2.729  11.560  1.9333  0.8689 -0.1139
  938MPD2     C13714   2.084   4.041   0.614 -0.3992 -0.1518 -0.7736
  938MPD2    C113715   2.008   4.138   0.670 -0.1860 -0.2635  0.1218
  938MPD2    C213716   1.958   4.119   0.798  0.7197  0.6306 -0.1516
  938MPD2    C313717   1.984   4.005   0.864 -0.0920 -0.4306 -0.4106
  938MPD2    C413718   2.076   3.912   0.814 -0.1475 -0.4083 -0.4713
  938MPD2    C513719   2.122   3.930   0.691  0.2969 -0.4784 -0.3083
  938MPD2     H13720   1.905   4.202   0.843  0.2847  0.6065 -0.6224
  938MPD2    H113721   2.124   3.829   0.865  2.1088 -0.4101 -2.5841
  938MPD2    H213722   2.127   4.043   0.515 -0.3030 -2.5280 -0.7755
  938MPD2    H313723   2.185   3.859   0.639 -0.1772 -1.0206 -0.1477
  938MPD2     N13724   1.911   3.966   0.981  0.1415 -0.1781 -0.7584
  938MPD2    H513725   1.936   3.874   1.015 -0.2516  2.1342  5.7689
  938MPD2    N113726   2.002   4.263   0.610  0.0704  0.2779  0.4896
  938MPD2    H713727   1.972   4.341   0.667  1.1772  1.4881 -0.5945
  939MPD2     C13728   3.807   1.246   0.829 -0.0916  0.6818  0.5375
  939MPD2    C113729   3.903   1.291   0.913  0.8576 -0.2996 -0.6462
  939MPD2    C213730   4.035   1.268   0.865  0.1722  0.6853  0.8958
  939MPD2    C313731   4.064   1.202   0.746  0.1425 -0.2099 -0.2223
  939MPD2    C413732   3.964   1.176   0.657  0.1830 -0.1267  0.0211
  939MPD2    C513733   3.833   1.188   0.704  0.1730 -0.6045  0.3865
  939MPD2     H13734   4.123   1.305   0.918 -0.2895  3.0854 -0.0213
  939MPD2    H113735   3.974   1.128   0.560  1.6429 -1.7355  0.9681
  939MPD2    H213736   3.701   1.248   0.853 -0.4248 -1.3113 -0.7884
  939MPD2    H313737   3.751   1.153   0.643  1.1086 -2.2624  0.0895
  939MPD2     N13738   4.199   1.179   0.724 -0.1918 -0.1610  0.7111
  939MPD2    H513739   4.267   1.219   0.788 -1.0948  2.1184  0.2500
  939MPD2    N113740   3.870   1.376   1.025  0.1095 -0.0747 -0.0841
  939MPD2    H713741   3.772   1.387   1.051  0.2922  0.3461  0.4159
  940MPD2     C13742   2.468   1.427  12.793  0.2575 -0.3670 -0.3112
  940MPD2    C113743   2.570   1.355  12.854 -0.1736  0.4201 -0.2833
  940MPD2    C213744   2.618   1.241  12.795  0.1676  0.2286  0.4654
  940MPD2    C313745   2.573   1.212  12.669  0.0845  0.6630  0.2498
  940MPD2    C413746   2.486   1.291  12.599  0.2212  1.0387 -0.0957
  940MPD2    C513747   2.432   1.397  12.664  0.2373  0.1440  0.2065
  940MPD2     H13748   2.681   1.175  12.855  0.6541  0.9699  0.7715
  940MPD2    H113749   2.444   1.268  12.502  0.8822  1.3204 -0.4490
  940MPD2    H213750   2.420   1.507  12.848 -0.2978  0.9939 -2.8105
  940MPD2    H313751   2.352   1.451  12.615  0.2835 -0.1304 -0.1727
  940MPD2     N13752   2.623   1.106  12.594 -0.2241  0.2480 -0.8981
  940MPD2    H513753   2.577   1.080  12.508  0.1283 -1.8424 -0.4394
  940MPD2    N113754   2.620   1.382  12.988  0.4444 -0.6106 -0.8019
  940MPD2    H713755   2.669   1.312  13.044  2.2520 -1.5246 -3.5027
  941MPD2     C13756   1.185   0.260   9.421  0.3514 -0.2259 -0.8192
  941MPD2    C113757   1.177   0.215   9.551  0.0138  0.4808  0.2588
  941MPD2    C213758   1.081   0.117   9.579 -0.2826 -0.6464 -0.0903
  941MPD2    C313759   1.003   0.070   9.482 -0.3413  0.5421  0.2281
  941MPD2    C413760   1.022   0.099   9.349 -0.1435 -0.4744  0.0748
  941MPD2    C513761   1.106   0.201   9.321 -0.1354 -1.2426 -0.4989
  941MPD2     H13762   1.081   0.076   9.680  0.5063 -0.0031  0.1725
  941MPD2    H113763   0.964   0.050   9.272 -1.5122  0.4882  0.4835
  941MPD2    H213764   1.267   0.328   9.398  0.5772 -0.1181  0.3121
  941MPD2    H313765   1.135   0.223   9.219 -0.8267 -1.7293 -0.7984
  941MPD2     N13766   0.903   4.695   9.510 -0.3861  1.1506 -0.1585
  941MPD2    H513767   0.857   4.658   9.428 -0.2477 -1.0633  0.7721
  941MPD2    N113768   1.252   0.267   9.663  0.4111  0.7713  0.5047
  941MPD2    H713769   1.243   0.223   9.754 -0.3038  0.2216  0.1676
  942MPD2     C13770   1.896   1.350   9.165 -0.1463  0.0012 -0.0743
  942MPD2    C113771   1.965   1.342   9.052 -0.0511 -0.3254  0.3374
  942MPD2    C213772   2.090   1.398   9.044 -0.1372  0.1796  0.1948
  942MPD2    C313773   2.161   1.438   9.161  0.3464  0.5484 -0.3378
  942MPD2    C413774   2.092   1.438   9.276 -0.6416  0.2633  0.1446
  942MPD2    C513775   1.964   1.396   9.275 -0.4380  0.0583 -0.4342
  942MPD2     H13776   2.140   1.411   8.948 -0.0583 -1.0345  0.0733
  942MPD2    H113777   2.129   1.486   9.365 -3.3616  2.5021  0.0918
  942MPD2    H213778   1.795   1.315   9.184  0.4132 -2.8952 -2.4187
  942MPD2    H313779   1.906   1.398   9.367 -2.6190 -0.5579 -1.7985
  942MPD2     N13780   2.290   1.495   9.175  0.7324  0.5411 -0.4053
  942MPD2    H513781   2.328   1.507   9.268 -1.9420 -2.2684  1.0888
  942MPD2    N113782   1.913   1.284   8.930 -0.0662 -0.2773  0.2660
  942MPD2    H713783   1.972   1.291   8.848  1.0889 -2.8935  0.8859
  943MPD2     C13784   0.194   0.315   9.315  0.6182  0.1012  0.1952
  943MPD2    C113785   0.158   0.187   9.338 -0.2111 -0.0538  0.3819
  943MPD2    C213786   0.090   0.115   9.243 -0.5783 -0.2691 -0.1985
  943MPD2    C313787   0.060   0.174   9.122 -0.2950  0.1270  0.1143
  943MPD2    C413788   0.121   0.296   9.092  0.6506  0.0021  0.9762
  943MPD2    C513789   0.181   0.373   9.193 -0.1339  0.1819  0.8758
  943MPD2     H13790   0.056   0.017   9.274  0.8863 -0.8883 -0.5643
  943MPD2    H113791   0.092   0.353   9.004  0.4967 -1.1019  0.3153
  943MPD2    H213792   0.249   0.363   9.395  1.4342 -0.0258 -0.2809
  943MPD2    H313793   0.220   0.474   9.184  0.1451 -0.0034  0.0437
  943MPD2     N13794   4.688   0.114   9.028  0.1892 -0.2910  0.0324
  943MPD2    H513795   4.678   0.149   8.933 -0.8916  4.1962  1.8280
  943MPD2    N113796   0.200   0.125   9.457  0.1301 -0.1714  0.3536
  943MPD2    H713797   0.251   0.183   9.523  0.2739 -0.6478  0.6646
  944MPD2     C13798   4.240   3.686  11.165  0.2497 -0.0041  0.5606
  944MPD2    C113799   4.371   3.705  11.134 -0.1989 -0.6819 -0.2336
  944MPD2    C213800   4.453   3.766  11.219  0.0360 -0.0337  0.3980
  944MPD2    C313801   4.400   3.823  11.334  0.2985  0.1565  0.0180
  944MPD2    C413802   4.269   3.791  11.372  0.7431 -0.4618 -0.1580
  944MPD2    C513803   4.191   3.721  11.282 -0.3934  0.7903  0.3458
  944MPD2     H13804   4.554   3.793  11.191 -0.4172  1.9344  0.7141
  944MPD2    H113805   4.218   3.833  11.458  0.5726 -1.0922  0.0554
  944MPD2    H213806   4.165   3.637  11.104 -2.0744  1.4387  2.2627
  944MPD2    H313807   4.084   3.713  11.298  0.0003  0.1067  2.5635
  944MPD2     N13808   4.471   3.917  11.409 -0.0165 -0.5710  0.1702
  944MPD2    H513809   4.551   3.955  11.360  1.7308  0.2162  3.6899
  944MPD2    N113810   4.411   3.675  11.004 -0.1399  1.1239 -0.2662
  944MPD2    H713811   4.350   3.618  10.947 -0.2564  0.4895  0.4801
    1TCq1    O113812   3.391   0.513  14.557  0.2782 -0.1406  0.3198
    1TCq1    C113813   3.405   0.583  14.675 -0.5005 -0.1984  0.2310
    1TCq1    O213814   3.505   0.599  14.742 -0.0656 -1.1428 -0.0302
    1TCq1    C213815   3.294   0.659  14.713  0.6543  0.2231  0.9940
    1TCq1    C313816   3.201   0.695  14.618  0.1939 -0.2994 -0.2212
    1TCq1    C413817   3.107   0.794  14.649 -0.2456 -0.2111  0.1566
    1TCq1    C513818   3.099   0.855  14.769  0.0233  0.1217  0.3570
    1TCq1    C613819   3.185   0.816  14.868 -0.3190  0.1014 -0.0604
    1TCq1    C713820   3.282   0.720  14.840 -0.8044  0.3205  0.1726
    1TCq1    C813821   3.194   0.898  14.986  0.2909 -0.1617 -0.5433
    1TCq1    O413822   3.227   0.855  15.094  0.4613  0.2569 -0.3772
    1TCq1    C913823   3.018   0.839  14.547  0.8041  0.0586 -0.6738
    1TCq1    O513824   2.903   0.874  14.583 -0.0564 -0.2004  0.0225
    1TCq1    O613825   3.050   0.814  14.431 -0.2110  0.6576  0.4066
    1TCq1    H113826   3.296   0.501  14.535 -0.0844 -1.8474  2.7947
    1TCq1    H213827   3.201   0.644  14.523  1.4961  0.2844 -0.5320
    1TCq1    H313828   3.020   0.927  14.779 -1.7367 -1.7524 -0.0369
    1TCq1    H413829   3.350   0.681  14.915 -2.1483 -1.3332  0.5223
    2MPD2     C13830   3.244   1.386  15.170 -0.0478  0.0123  0.0168
    2MPD2    C113831   3.242   1.390  15.032 -0.7522 -0.2695  0.4471
    2MPD2    C213832   3.227   1.272  14.967  0.4146 -0.0097 -0.0749
    2MPD2    C313833   3.220   1.146  15.027  0.0295  1.4862  0.2081
    2MPD2    C413834   3.227   1.149  15.168 -0.3870  0.3257  0.0353
    2MPD2    C513835   3.248   1.268  15.242  0.1235 -0.1237 -0.3371
    2MPD2     H13836   3.236   1.282  14.860 -1.2395  0.8767 -0.1375
    2MPD2    H113837   3.205   1.060  15.227  0.2934 -0.3266 -0.6855
    2MPD2    H213838   3.246   1.483  15.220  0.9531  0.3076 -0.5965
    2MPD2    H313839   3.260   1.278  15.349  0.7634  0.1275 -0.4329
    2MPD2     N13840   3.194   1.029  14.943  0.1280  0.6987 -0.2757
    2MPD2    H513841   3.180   1.051  14.845  0.2477 -0.9993 -0.6739
    2MPD2    N113842   3.245   1.519  14.968 -0.6232  0.0349 -0.3850
    2MPD2    H713843   3.248   1.604  15.023 -1.3901  0.8246 -1.5675
    3TMC2    C113844   3.239   1.678  14.787 -0.1857 -0.3469  0.6742
    3TMC2    C213845   3.277   1.767  14.877  0.6291 -0.1945  0.0042
    3TMC2    C313846   3.324   1.882  14.828 -0.4781 -0.3584 -0.0221
    3TMC2    C413847   3.254   1.696  14.649  0.6908  0.5409  0.2999
    3TMC2    C513848   3.307   1.812  14.605 -0.6575 -0.4870 -0.1436
    3TMC2    C613849   3.334   1.910  14.698 -0.3676 -0.2769  0.4739
    3TMC2     C13850   3.232   1.539  14.832  0.3897 -0.5666  0.5854
    3TMC2     O13851   3.221   1.454  14.743 -0.2718 -0.1723  0.4459
    3TMC2     H13852   3.260   1.759  14.984  0.3264 -1.9018 -0.1753
    3TMC2    H113853   3.244   1.616  14.577 -0.2584 -0.1167  1.1675
    3TMC2    H213854   3.342   2.013  14.663 -2.2080  0.3325  1.8488
    3TMC2    C713855   3.295   1.851  14.465  0.1588 -0.2069  1.0242
    3TMC2    C813856   3.382   1.969  14.921 -0.1276  0.2957 -0.4882
    3TMC2    O113857   3.204   1.801  14.402  0.5401 -0.3543  0.5343
    3TMC2    O213858   3.467   2.051  14.885 -0.1224  0.1911  0.7083
    3TMC2    O513859   3.300   1.984  15.027  1.0438  0.3725 -0.1567
    3TMC2    H513860   3.219   1.930  15.025  0.5121  1.2003 -0.9349
    4MPD2     C13861   2.181   2.012  13.620 -0.3284 -0.4038 -0.5383
    4MPD2    C113862   2.254   2.093  13.531 -0.3843 -0.3046 -0.1857
    4MPD2    C213863   2.388   2.115  13.567 -0.7246  0.7258  0.2509
    4MPD2    C313864   2.441   2.065  13.686  0.2145  1.0101 -0.5377
    4MPD2    C413865   2.361   1.985  13.770 -0.9035  0.4579  0.1340
    4MPD2    C513866   2.231   1.959  13.739  0.1009 -0.5292  0.6212
    4MPD2     H13867   2.458   2.167  13.503  0.0088  0.7217  1.0386
    4MPD2    H113868   2.401   1.930  13.855  1.4240  0.1643 -1.1383
    4MPD2    H213869   2.078   1.980  13.610 -0.6780  0.5408  0.1172
    4MPD2    H313870   2.174   1.888  13.797 -0.0206 -1.0342 -0.1222
    4MPD2     N13871   2.577   2.070  13.695 -0.0713  0.2952  0.3333
    4MPD2    H513872   2.632   2.080  13.610  2.0550 -1.0260  1.5547
    4MPD2    N113873   2.191   2.145  13.413  0.1465 -0.2969  0.0420
    4MPD2    H713874   2.095   2.115  13.398  0.3515 -0.6995 -0.4624
    5TCq2    C113875   2.640   2.046  13.804 -0.4043 -0.1567  0.3546
    5TCq2    O213876   2.596   2.034  13.916  0.3439 -1.2084  0.3757
    5TCq2    C213877   2.788   2.042  13.790 -0.7281  0.0670 -0.0497
    5TCq2    C313878   2.837   2.064  13.664 -0.2567 -0.2565  0.9539
    5TCq2    C413879   2.973   2.038  13.646 -0.1343  0.2875 -0.5168
    5TCq2    C513880   3.053   2.026  13.757  0.3802 -0.6514 -0.1309
    5TCq2    C613881   2.998   2.009  13.887 -0.0079  0.4745  0.1763
    5TCq2    C713882   2.864   2.009  13.901 -0.4385  0.6141 -0.2145
    5TCq2    C813883   3.082   1.990  14.008  0.6566  0.1683  0.3737
    5TCq2    O413884   3.023   1.953  14.110 -0.9089 -0.6069 -0.4200
    5TCq2    C913885   3.034   2.053  13.515 -0.0101  0.0940  0.1294
    5TCq2    O513886   2.950   2.068  13.419  0.4494  0.9383 -0.1045
    5TCq2    O613887   3.157   2.021  13.509 -0.4013 -0.2588 -0.4454
    5TCq2    H213888   2.776   2.098  13.581  2.1924 -0.3535 -0.8880
    5TCq2    H313889   3.159   2.011  13.736  0.6717  1.0019  0.1886
    5TCq2    H413890   2.814   2.022  13.997  0.2145 -2.2333  0.5086
    6MPD1     C13891   1.762   3.844  12.521  0.1343 -0.6458 -0.0839
    6MPD1    C113892   1.730   3.831  12.649 -0.1858  0.1509 -0.9902
    6MPD1    C213893   1.745   3.708  12.707 -0.2839  0.2660 -0.4731
    6MPD1    C313894   1.808   3.605  12.640 -0.4253  0.0322 -0.6960
    6MPD1    C413895   1.845   3.626  12.510  0.1259  0.3372  0.1749
    6MPD1    C513896   1.826   3.748  12.454 -0.4237  0.0213 -0.0842
    6MPD1     H13897   1.710   3.697  12.809  2.9346  2.1829  0.8314
    6MPD1    H113898   1.896   3.549  12.454  1.0512  0.8736  0.2750
    6MPD1    H213899   1.731   3.935  12.472  0.2384 -0.4430  0.2268
    6MPD1    H313900   1.860   3.758  12.352  1.9276 -2.4278  0.4306
    6MPD1     N13901   1.812   3.468  12.685  0.3737 -0.3478 -0.4181
    6MPD1    H513902   1.845   3.397  12.620 -0.0355  0.0616 -1.0654
    6MPD1    N113903   1.666   3.932  12.714  0.0880  0.2432  0.1292
    6MPD1    H613904   1.689   4.022  12.671 -0.8892  1.2075  1.6149
    6MPD1    H713905   1.681   3.933  12.814 -1.0344 -1.6875  0.3103
    7MPD2     C13906   1.745   2.880  13.359  0.1750 -0.5332 -0.3442
    7MPD2    C113907   1.754   2.829  13.233 -0.0759  0.3567  0.0120
    7MPD2    C213908   1.778   2.691  13.218  0.3779  0.5321 -0.5386
    7MPD2    C313909   1.805   2.620  13.331  0.0843 -0.0365  0.7908
    7MPD2    C413910   1.791   2.677  13.458  0.6890 -0.1115 -0.0525
    7MPD2    C513911   1.757   2.807  13.474 -0.5910 -0.1072 -0.0484
    7MPD2     H13912   1.786   2.640  13.123  0.1195 -2.0319  0.8097
    7MPD2    H113913   1.811   2.619  13.547  2.5125 -1.8529 -1.5918
    7MPD2    H213914   1.736   2.987  13.372  0.6342 -0.4919 -0.3810
    7MPD2    H313915   1.754   2.861  13.568  1.1567  0.9045 -0.5762
    7MPD2     N13916   1.835   2.483  13.326 -0.6016 -0.1350 -0.1237
    7MPD2    H513917   1.890   2.452  13.406 -0.8046  0.4846  0.2586
    7MPD2    N113918   1.757   2.908  13.117 -0.2381 -0.4559 -0.4069
    7MPD2    H713919   1.795   2.860  13.036 -0.0085 -1.4624  0.3062
    8TMC3    C113920   1.903   2.293  13.193  0.2704 -0.1716 -0.0810
    8TMC3    C213921   2.008   2.289  13.278  0.0949  0.1762 -1.0930
    8TMC3    C313922   2.135   2.268  13.224  0.4030 -0.0528  0.4630
    8TMC3    C413923   1.934   2.291  13.058  0.5724  0.0470 -0.6691
    8TMC3    C513924   2.059   2.289  13.010  0.2366 -0.1843  0.1075
    8TMC3    C613925   2.170   2.282  13.091  0.7382 -0.2714 -0.3751
    8TMC3     C13926   1.805   2.397  13.221 -0.5129  1.0689 -0.0458
    8TMC3     O13927   1.730   2.423  13.127  0.1268 -0.5863 -0.9366
    8TMC3     H13928   1.986   2.295  13.384 -1.8505  2.5950 -1.6361
    8TMC3    H113929   1.849   2.270  12.993  0.2337 -0.2920 -0.1159
    8TMC3    H213930   2.274   2.292  13.061  0.5210  3.6555  0.1445
    8TMC3    C713931   2.055   2.393  12.904  0.6441  0.5433 -0.0081
    8TMC3    C813932   2.241   2.228  13.315  0.4997 -0.7886  0.2524
    8TMC3    O113933   1.947   2.435  12.859 -0.5817 -0.1470 -0.3270
    8TMC3    O213934   2.356   2.269  13.304 -0.6739  0.3044  0.5089
    9TMC3    C113935   1.781   3.282  12.841  0.0030 -0.2192  0.3189
    9TMC3    C213936   1.886   3.216  12.777  0.6579 -0.7457  0.4841
    9TMC3    C313937   1.944   3.104  12.828  0.1135 -0.3372  0.3128
    9TMC3    C413938   1.719   3.215  12.947 -0.0714  0.0259 -0.0313
    9TMC3    C513939   1.771   3.097  12.988  0.1859  0.5187  0.2146
    9TMC3    C613940   1.881   3.041  12.932 -0.3177  0.0064  1.1377
    9TMC3     C13941   1.765   3.424  12.808 -0.4582  1.0917  0.7298
    9TMC3     O13942   1.695   3.484  12.886 -0.1565 -0.1600 -0.4017
    9TMC3     H13943   1.937   3.261  12.692 -1.0107  0.1307 -0.0585
    9TMC3    H113944   1.651   3.272  13.011  0.3576 -0.8626  1.2064
    9TMC3    H213945   1.941   2.974  12.993 -0.0610 -0.0317  0.8432
    9TMC3    C713946   1.715   3.036  13.109 -0.4950  0.6131 -0.0694
    9TMC3    C813947   2.050   3.029  12.756  0.1313 -0.1176  0.3376
    9TMC3    O113948   1.664   3.114  13.184 -0.4333  0.2407 -0.1303
    9TMC3    O213949   2.114   3.085  12.667 -0.5966  0.3420  0.4189
   10MPD2     C13950   2.313   2.575  12.737  0.1972  0.4754  0.0038
   10MPD2    C113951   2.199   2.560  12.807  0.2145  0.2049 -0.0725
   10MPD2    C213952   2.108   2.663  12.822 -0.3253 -0.0492  0.3183
   10MPD2    C313953   2.131   2.789  12.768  0.2000  0.0482 -0.1854
   10MPD2    C413954   2.249   2.802  12.703  0.7608 -0.6294  0.5127
   10MPD2    C513955   2.335   2.699  12.688  0.0883 -0.6214  0.0985
   10MPD2     H13956   2.023   2.654  12.888  1.2443  0.6793  2.4167
   10MPD2    H113957   2.287   2.900  12.678 -3.8466  1.4548  1.6583
   10MPD2    H213958   2.388   2.497  12.735  2.0231  2.2040  0.6014
   10MPD2    H313959   2.438   2.726  12.666  0.3986 -1.9820 -0.1257
   10MPD2     N13960   2.043   2.896  12.796 -0.5409 -0.1908 -0.0101
   10MPD2    H513961   1.961   2.873  12.851 -1.3326  2.4442 -0.0850
   10MPD2    N113962   2.180   2.445  12.874  0.1369  0.2886 -0.0658
   10MPD2    H713963   2.257   2.381  12.889 -1.7673 -2.3413 -1.3254
   11MPD2     C13964   3.513   2.083  14.274 -0.4646  0.1031  0.6388
   11MPD2    C113965   3.404   2.002  14.296  0.7840  0.2570 -0.7618
   11MPD2    C213966   3.308   1.974  14.200  0.0865 -0.2319  1.0495
   11MPD2    C313967   3.318   2.033  14.078 -0.0331  0.5288  0.3358
   11MPD2    C413968   3.430   2.104  14.051 -0.4237 -0.2586  0.6673
   11MPD2    C513969   3.524   2.134  14.144  0.0568 -0.2802 -0.4308
   11MPD2     H13970   3.216   1.920  14.222 -0.9301  1.5547  1.1963
   11MPD2    H113971   3.442   2.166  13.962 -1.5401 -0.0207  0.6808
   11MPD2    H213972   3.583   2.107  14.354 -0.4593 -1.6760  1.1631
   11MPD2    H313973   3.592   2.212  14.113 -2.5611  1.5646 -1.5901
   11MPD2     N13974   3.206   2.050  13.987  0.2907  0.0990 -0.4544
   11MPD2    H513975   3.217   2.112  13.907 -1.7966 -1.7190 -2.1702
   11MPD2    N113976   3.391   1.949  14.425 -0.2253 -0.0982  0.6558
   11MPD2    H713977   3.460   1.993  14.486  0.5375 -2.0996  1.2287
    1MPD1     C13978   1.193   3.299  17.139 -0.1091 -0.2422  0.3032
    1MPD1    C113979   1.260   3.174  17.123  0.4152  0.2707 -0.6198
    1MPD1    C213980   1.387   3.171  17.068 -0.2457 -0.1575  0.3857
    1MPD1    C313981   1.448   3.296  17.031  1.4841  0.4122 -0.4197
    1MPD1    C413982   1.373   3.415  17.039 -0.1036  0.6860 -0.0647
    1MPD1    C513983   1.250   3.413  17.089 -0.0504  0.4221  0.1590
    1MPD1     H13984   1.436   3.075  17.057  0.2408  0.0024  1.1311
    1MPD1    H113985   1.415   3.511  17.012 -0.0029  0.7317  0.2614
    1MPD1    H213986   1.099   3.312  17.191 -0.1543  1.0634 -0.1131
    1MPD1    H313987   1.201   3.509  17.097 -0.3351  0.4326 -1.7043
    1MPD1     N13988   1.579   3.300  16.991 -1.0459  0.0663 -0.1525
    1MPD1    H513989   1.628   3.389  16.986  0.2699 -0.6279  0.4275
    1MPD1    N113990   1.200   3.060  17.182 -0.7684 -0.0923  0.0853
    1MPD1    H613991   1.099   3.067  17.170 -0.9516 -1.8777  0.5222
    1MPD1    H713992   1.228   2.984  17.121  0.5507 -0.2734  0.9233
    2MPD1     C13993   2.564   2.982  16.642  0.0324 -0.4215 -0.2376
    2MPD1    C113994   2.525   3.097  16.584  1.0284 -0.0031  0.1030
    2MPD1    C213995   2.417   3.161  16.636 -0.0676  0.2220  0.2652
    2MPD1    C313996   2.336   3.100  16.728 -0.0935  0.6217 -0.0944
    2MPD1    C413997   2.368   2.978  16.770 -0.2402 -0.3060 -0.6420
    2MPD1    C513998   2.483   2.918  16.728 -0.1743  0.3916  0.3366
    2MPD1     H13999   2.382   3.256  16.597  1.2850 -0.3015 -2.1584
    2MPD1    H114000   2.314   2.924  16.847 -0.2645  0.7749  0.1056
    2MPD1    H214001   2.651   2.931  16.602  0.4858  0.2008 -0.0487
    2MPD1    H314002   2.511   2.820  16.767 -1.1163 -0.0631 -0.1497
    2MPD1     N14003   2.220   3.169  16.770  0.5079  0.4305  0.1728
    2MPD1    H514004   2.217   3.266  16.739 -0.8207 -0.8738 -3.7851
    2MPD1    N114005   2.619   3.159  16.495  0.5794 -1.1647 -0.3059
    2MPD1    H614006   2.564   3.218  16.432  2.4058 -1.6786 -2.3788
    2MPD1    H714007   2.664   3.097  16.428 -1.3247 -2.3050 -0.5539
    3TMC3    C114008   2.009   3.218  16.852 -0.0298 -0.0883  0.4342
    3TMC3    C214009   2.027   3.351  16.826 -0.0428  0.8676 -0.5195
    3TMC3    C314010   1.926   3.439  16.842  0.0383  0.0023  0.2220
    3TMC3    C414011   1.890   3.167  16.886 -0.4703 -0.0103  0.4368
    3TMC3    C514012   1.790   3.256  16.914 -0.2493  0.2011  0.2144
    3TMC3    C614013   1.801   3.391  16.883 -0.4673 -0.6024 -0.0698
    3TMC3     C14014   2.116   3.123  16.840 -0.9990 -0.3871  0.9474
    3TMC3     O14015   2.103   3.011  16.885 -0.1915  0.5870  0.1128
    3TMC3     H14016   2.124   3.395  16.804  1.1414 -0.7952  1.2511
    3TMC3    H114017   1.871   3.062  16.907  0.8998  0.1149  2.2906
    3TMC3    H214018   1.725   3.468  16.891  0.9836  0.6763  1.6059
    3TMC3    C714019   1.667   3.205  16.953  0.9920  0.0506  0.6628
    3TMC3    C814020   1.939   3.570  16.780  0.2779 -0.0517 -0.1811
    3TMC3    O114021   1.664   3.086  16.985  0.2219 -0.1217 -0.2806
    3TMC3    O214022   2.030   3.581  16.698 -0.2791  0.5116  0.5299
    4MPD1     C14023   1.763   4.030  16.631  0.2297 -0.4964  0.0597
    4MPD1    C114024   1.686   3.990  16.741  0.1385 -0.1743 -0.6617
    4MPD1    C214025   1.717   3.858  16.790  0.2104  0.2052 -0.4763
    4MPD1    C314026   1.822   3.782  16.747  0.2175 -0.2837  0.2492
    4MPD1    C414027   1.895   3.824  16.642  0.4544  0.5727 -0.0923
    4MPD1    C514028   1.864   3.944  16.581 -0.0705  0.7085 -0.0607
    4MPD1     H14029   1.655   3.814  16.868  0.6334  0.5250  0.0446
    4MPD1    H114030   1.983   3.774  16.602 -1.4018 -2.5727 -0.2770
    4MPD1    H214031   1.739   4.121  16.577 -0.1860  0.4718  1.8960
    4MPD1    H314032   1.919   3.978  16.494  0.2562  1.0458  0.2742
    4MPD1     N14033   1.838   3.660  16.812  0.2399 -0.1257  0.3791
    4MPD1    H514034   1.771   3.626  16.880 -0.4118  1.0820  0.3316
    4MPD1    N114035   1.559   4.044  16.767  0.0413  0.3898  0.3022
    4MPD1    H614036   1.517   4.019  16.857  0.9678 -0.0848  0.6079
    4MPD1    H714037   1.549   4.138  16.731  2.3623  1.1493  1.6780
    1TCq1    O114038   1.754   2.496  11.000  0.8448  0.0030 -0.5047
    1TCq1    C114039   1.653   2.583  11.031 -0.6492 -0.2996 -0.1426
    1TCq1    O214040   1.604   2.584  11.140  0.4618 -0.1051  0.2218
    1TCq1    C214041   1.683   2.706  10.961 -0.1965 -0.7262  0.6172
    1TCq1    C314042   1.674   2.826  11.023  0.0649  0.1945 -0.6237
    1TCq1    C414043   1.724   2.931  10.952 -0.2887 -0.4900 -0.2450
    1TCq1    C514044   1.731   2.929  10.818  0.4264  0.5251  0.0059
    1TCq1    C614045   1.723   2.805  10.755 -0.0497 -0.0329  0.4816
    1TCq1    C714046   1.704   2.691  10.828  0.8315 -0.3974  0.4360
    1TCq1    C814047   1.757   2.793  10.614 -0.5422  0.2810 -0.2023
    1TCq1    O414048   1.710   2.692  10.565 -0.7140 -0.0043 -0.2485
    1TCq1    C914049   1.722   3.059  11.017  0.0104 -0.2167 -0.2870
    1TCq1    O514050   1.720   3.164  10.944  0.4283  0.1412  0.2302
    1TCq1    O614051   1.717   3.062  11.145 -0.0450  0.5806 -1.4135
    1TCq1    H114052   1.807   2.515  10.919 -0.6544 -2.2803 -2.0170
    1TCq1    H214053   1.657   2.828  11.130  1.9502  0.0385 -0.3227
    1TCq1    H314054   1.771   3.018  10.772  1.8823 -0.1966 -0.1112
    1TCq1    H414055   1.698   2.588  10.792  0.3886  0.6299 -2.4393
    2MPD1     C14056   1.806   3.007  10.150 -0.2342  0.6714 -0.2818
    2MPD1    C114057   1.858   3.101  10.240 -0.5667 -0.2391  0.6120
    2MPD1    C214058   1.880   3.052  10.369  0.6927  0.0189 -0.6042
    2MPD1    C314059   1.814   2.936  10.414 -1.3235 -0.0463  0.0573
    2MPD1    C414060   1.732   2.865  10.330 -0.1220 -0.0707 -0.1878
    2MPD1    C514061   1.735   2.900  10.199 -0.2542 -0.2843  0.0143
    2MPD1     H14062   1.941   3.112  10.435  0.3069 -1.0240  0.6963
    2MPD1    H114063   1.669   2.784  10.365  2.4165 -1.3523  1.4310
    2MPD1    H214064   1.812   3.023  10.043 -1.3089  2.3133 -0.0889
    2MPD1    H314065   1.671   2.839  10.135  1.8570  0.0242 -2.4121
    2MPD1     N14066   1.823   2.898  10.555 -0.2144  0.7180  0.0047
    2MPD1    H514067   1.883   2.949  10.618  0.6648  0.7084 -0.8394
    2MPD1    N114068   1.928   3.217  10.202 -0.1741  0.2911 -0.5412
    2MPD1    H614069   1.862   3.259  10.137  1.7130  2.3406 -1.1459
    2MPD1    H714070   1.920   3.278  10.282  2.8797 -0.4422  0.3198
    1TCq1    O114071   2.124   0.601   0.916  0.2458 -0.2256  0.3667
    1TCq1    C114072   2.194   0.688   0.984  0.3391 -0.5387  0.1170
    1TCq1    O214073   2.207   0.695   1.101 -0.0366 -0.2009 -0.2844
    1TCq1    C214074   2.191   0.807   0.905 -1.1203  0.8240 -0.1160
    1TCq1    C314075   2.310   0.878   0.898 -1.1320 -0.1547 -0.1488
    1TCq1    C414076   2.303   1.004   0.848  0.1595 -0.4516  0.1015
    1TCq1    C514077   2.185   1.065   0.827 -0.5355 -0.2019  0.3339
    1TCq1    C614078   2.070   0.993   0.840  0.4455 -0.0193 -0.2959
    1TCq1    C714079   2.072   0.861   0.884  0.4892  0.5873  0.3086
    1TCq1    C814080   1.947   1.073   0.826  0.8226 -0.0208 -0.3259
    1TCq1    O414081   1.960   1.196   0.836  0.0973  0.0216  0.0961
    1TCq1    C914082   2.422   1.078   0.865  0.0826 -0.2781 -0.3221
    1TCq1    O514083   2.521   1.015   0.909 -0.0452 -0.8043  0.2518
    1TCq1    O614084   2.417   1.206   0.871 -0.5064 -0.1462 -0.5108
    1TCq1    H114085   2.137   0.617   0.820 -3.2902  1.9533  0.2573
    1TCq1    H214086   2.404   0.833   0.929 -0.3137 -0.6802 -3.4529
    1TCq1    H314087   2.193   1.171   0.810  0.6209 -0.3525 -0.0478
    1TCq1    H414088   1.979   0.809   0.906 -0.6385  1.6984 -1.7345
    2MPD1     C14089   1.438   1.102   0.808  0.0085 -0.0256 -0.5665
    2MPD1    C114090   1.473   0.972   0.814  0.5159 -1.3067  0.5794
    2MPD1    C214091   1.607   0.939   0.824 -0.1394 -0.3867  0.0670
    2MPD1    C314092   1.701   1.039   0.807 -1.0753  0.0673  0.2499
    2MPD1    C414093   1.669   1.172   0.797 -0.2750  0.4917  0.2745
    2MPD1    C514094   1.533   1.198   0.818 -0.3895 -0.2478 -0.8539
    2MPD1     H14095   1.634   0.837   0.851  1.3229  0.5567  2.2248
    2MPD1    H114096   1.744   1.250   0.800 -1.5970  1.6864  1.5302
    2MPD1    H214097   1.337   1.143   0.807  0.8110  1.8965 -2.0681
    2MPD1    H314098   1.503   1.302   0.824  1.4306  0.3224 -1.6307
    2MPD1     N14099   1.837   0.994   0.809 -0.4720  0.3764 -0.0420
    2MPD1    H514100   1.850   0.894   0.801  1.0516  0.3663  2.7093
    2MPD1    N114101   1.379   0.873   0.844 -0.2118  0.2910  0.0104
    2MPD1    H614102   1.407   0.782   0.806 -0.5741 -0.0099  0.4598
    2MPD1    H714103   1.285   0.889   0.809 -0.2366 -0.0415 -0.0753
    1MPD1     C14104   3.974   1.493  12.019 -0.7945 -0.8588  0.0639
    1MPD1    C114105   4.072   1.593  12.042 -0.1030  0.5773 -0.1115
    1MPD1    C214106   4.060   1.706  11.957 -0.0618 -0.5438 -0.7262
    1MPD1    C314107   3.962   1.723  11.859  0.4084 -0.6744  0.2206
    1MPD1    C414108   3.878   1.620  11.838  0.2704 -0.3215 -0.2588
    1MPD1    C514109   3.881   1.505  11.913  0.6411  0.6619 -0.0160
    1MPD1     H14110   4.126   1.791  11.962  2.1670 -2.1313 -2.9635
    1MPD1    H114111   3.809   1.615  11.755  1.6640  3.3287 -1.6162
    1MPD1    H214112   3.964   1.410  12.088  0.0033 -0.8454  0.1916
    1MPD1    H314113   3.809   1.429  11.885  1.0426 -0.9020  3.2032
    1MPD1     N14114   3.964   1.846  11.784 -0.0893 -0.4830  0.0547
    1MPD1    H514115   4.027   1.918  11.816  0.8927 -0.9404 -0.8310
    1MPD1    N114116   4.155   1.591  12.153  0.3635  0.4074 -0.2884
    1MPD1    H614117   4.184   1.496  12.175  2.0318  0.3281 -2.7998
    1MPD1    H714118   4.240   1.643  12.131  2.3973 -1.8027  2.2412
    2MPD1     C14119   2.460   3.514  11.355  0.2412 -0.0214  1.0061
    2MPD1    C114120   2.380   3.438  11.272  0.6037 -0.5988  0.0805
    2MPD1    C214121   2.427   3.396  11.149 -0.2711 -0.4052 -0.3289
    2MPD1    C314122   2.549   3.450  11.103  0.1693  0.7025 -0.8546
    2MPD1    C414123   2.618   3.540  11.182 -0.5324  0.4186 -0.2843
    2MPD1    C514124   2.578   3.560  11.313 -0.4612  0.1627 -0.0950
    2MPD1     H14125   2.373   3.319  11.095 -1.7800 -1.4466  2.6065
    2MPD1    H114126   2.709   3.584  11.141  0.2873 -1.0520 -0.0333
    2MPD1    H214127   2.432   3.540  11.456  0.5087  1.5929  0.6659
    2MPD1    H314128   2.635   3.623  11.380 -2.2550  0.7023  0.9515
    2MPD1     N14129   2.602   3.424  10.972  0.2863 -0.1243 -0.5978
    2MPD1    H514130   2.684   3.478  10.947  1.3294 -1.8869 -1.0064
    2MPD1    N114131   2.260   3.386  11.320  0.1669 -0.3406  0.3692
    2MPD1    H614132   2.218   3.336  11.243  1.8572 -1.3457  0.0782
    2MPD1    H714133   2.204   3.452  11.374 -0.6500 -0.6422 -0.1212
    3MPD1     C14134   2.503   2.637  10.233 -0.2172 -0.2457 -0.1217
    3MPD1    C114135   2.614   2.710  10.187 -0.6296 -0.1129  0.0018
    3MPD1    C214136   2.658   2.816  10.268 -0.0057  0.0917  0.3274
    3MPD1    C314137   2.594   2.856  10.380 -1.0034 -0.1611  0.2149
    3MPD1    C414138   2.491   2.774  10.425  0.3138  0.1706  0.0751
    3MPD1    C514139   2.443   2.680  10.345  0.3319  0.5230 -0.5582
    3MPD1     H14140   2.746   2.873  10.241  0.1809  0.2564  1.3043
    3MPD1    H114141   2.438   2.782  10.519  2.7453  1.8717  1.3123
    3MPD1    H214142   2.467   2.547  10.184  3.2131  0.8311 -4.6161
    3MPD1    H314143   2.377   2.612  10.398  0.9421  1.4426  1.3990
    3MPD1     N14144   2.648   2.972  10.456  0.3602  0.8319  0.2984
    3MPD1    H514145   2.735   3.016  10.431  0.8387  1.0437  2.3466
    3MPD1    N114146   2.692   2.661  10.084 -0.6966 -0.3184 -0.0877
    3MPD1    H614147   2.629   2.619  10.016 -0.1185 -0.4789 -0.5212
    3MPD1    H714148   2.746   2.733  10.038 -0.4519 -0.1983  0.3891
    4MPD2     C14149   3.735   2.570  11.720  0.0085 -0.1821  0.1189
    4MPD2    C114150   3.790   2.528  11.600  0.2717  0.4948 -0.3990
    4MPD2    C214151   3.771   2.607  11.490  0.1686 -0.3540  0.0461
    4MPD2    C314152   3.692   2.716  11.497 -0.1979  0.2129 -0.5318
    4MPD2    C414153   3.623   2.752  11.611 -0.0873  0.2538  0.3600
    4MPD2    C514154   3.654   2.684  11.726  0.4156  0.1885 -0.3521
    4MPD2     H14155   3.817   2.582  11.395  0.1639 -0.8170  0.1697
    4MPD2    H114156   3.549   2.831  11.614  1.1596  1.4496 -0.4137
    4MPD2    H214157   3.738   2.513  11.812 -3.2138 -1.9547 -0.8959
    4MPD2    H314158   3.602   2.706  11.819 -0.5202 -0.0009 -0.8323
    4MPD2     N14159   3.674   2.795  11.385  0.5213  0.2046 -0.1052
    4MPD2    H514160   3.595   2.859  11.379  0.9331  0.6999 -0.2834
    4MPD2    N114161   3.872   2.415  11.586  0.8743  0.3938 -0.1991
    4MPD2    H714162   3.892   2.385  11.491 -1.3668  0.2575 -0.6270
    5TMC3    C114163   3.968   2.210  11.638 -0.1657 -0.0154 -0.4968
    5TMC3    C214164   3.918   2.095  11.696 -0.5235  0.5415  0.2112
    5TMC3    C314165   3.888   2.000  11.613  0.6189  0.4097  0.3909
    5TMC3    C414166   3.981   2.223  11.501  0.3735  0.2784 -0.0415
    5TMC3    C514167   3.940   2.124  11.421 -0.5954  0.3238  0.3724
    5TMC3    C614168   3.896   2.009  11.477 -0.2861 -0.4833  0.9835
    5TMC3     C14169   3.912   2.334  11.690 -0.3438 -0.8023  0.2091
    5TMC3     O14170   3.879   2.326  11.810 -0.2264  0.0469  0.1607
    5TMC3     H14171   3.901   2.088  11.802  0.8290  0.6520  0.4280
    5TMC3    H114172   4.045   2.295  11.452 -0.2375  0.7310 -0.1839
    5TMC3    H214173   3.884   1.921  11.414 -1.8176  0.0662  0.5043
    5TMC3    C714174   3.874   2.183  11.306  0.6793  0.6742 -0.5576
    5TMC3    C814175   3.886   1.865  11.671 -0.3229  0.4990  0.7781
    5TMC3    O114176   3.902   2.303  11.293 -0.0749 -0.4857 -0.3320
    5TMC3    O214177   3.825   1.785  11.608  0.2962  0.2479  0.1975
    6TMC3    C114178   2.632   3.319  10.764 -0.2103  0.3447  0.4869
    6TMC3    C214179   2.570   3.218  10.699 -0.2966 -0.0401  0.6739
    6TMC3    C314180   2.652   3.130  10.629  0.1715  0.3461 -0.1254
    6TMC3    C414181   2.766   3.327  10.766 -0.2344  0.1176  0.1327
    6TMC3    C514182   2.836   3.229  10.710  0.0086  0.6718  0.3559
    6TMC3    C614183   2.786   3.136  10.630 -0.0450  0.1854 -0.4116
    6TMC3     C14184   2.559   3.324  10.888 -0.4409  0.1309  0.0445
    6TMC3     O14185   2.479   3.238  10.909 -0.4185  0.2303  0.6746
    6TMC3     H14186   2.462   3.215  10.689 -0.2344 -0.8526  0.1957
    6TMC3    H114187   2.803   3.423  10.800 -0.6389  0.2848  0.1015
    6TMC3    H214188   2.844   3.058  10.581  0.7159 -0.3235  1.3173
    6TMC3    C714189   2.963   3.198  10.773 -0.3980 -0.1086 -0.3408
    6TMC3    C814190   2.590   3.017  10.570 -0.1953 -1.1152  0.0500
    6TMC3    O114191   3.034   3.112  10.726  0.2577 -0.6057 -0.1619
    6TMC3    O214192   2.472   2.992  10.608 -0.3996 -0.3555  0.5888
    7MPD2     C14193   3.425   2.269  11.067  0.0062 -0.0426 -0.8684
    7MPD2    C114194   3.544   2.337  11.057  0.4583  0.0998  0.1024
    7MPD2    C214195   3.656   2.283  11.122 -0.1796  0.0287  0.0477
    7MPD2    C314196   3.653   2.165  11.188 -0.0116  0.0512  0.1231
    7MPD2    C414197   3.541   2.097  11.170 -0.7066 -0.4634  0.8530
    7MPD2    C514198   3.431   2.143  11.112 -0.2466  0.7377 -1.1694
    7MPD2     H14199   3.749   2.338  11.126  0.4617 -1.0270 -0.2331
    7MPD2    H114200   3.531   2.000  11.218 -1.4393 -0.0598  1.5257
    7MPD2    H214201   3.333   2.310  11.026 -1.2740 -0.4609  1.6233
    7MPD2    H314202   3.345   2.077  11.104  0.3406 -0.1624 -0.0313
    7MPD2     N14203   3.757   2.119  11.271  0.1066  0.1219 -0.2540
    7MPD2    H514204   3.745   2.027  11.314  1.9957  0.7017  1.5479
    7MPD2    N114205   3.542   2.466  10.999  0.3773 -0.0208  0.0598
    7MPD2    H714206   3.454   2.509  10.975 -0.8981 -1.7881  1.5492
    8TMC3    C114207   3.631   2.680  10.990  0.2912  0.1241  0.3204
    8TMC3    C214208   3.504   2.739  10.993 -0.1762 -0.4275  0.5755
    8TMC3    C314209   3.475   2.838  11.076  0.3188  0.2464  0.2468
    8TMC3    C414210   3.738   2.737  11.057 -1.4261 -1.2122  1.0067
    8TMC3    C514211   3.705   2.834  11.147  0.0248  0.4519  0.4944
    8TMC3    C614212   3.581   2.893  11.149  0.2397 -0.0174 -0.8870
    8TMC3     C14213   3.657   2.537  10.968 -0.7799 -0.1684 -0.2942
    8TMC3     O14214   3.775   2.510  10.974 -0.0950 -0.4062 -0.1275
    8TMC3     H14215   3.432   2.702  10.921 -0.4876  0.5023  0.4017
    8TMC3    H114216   3.836   2.692  11.065 -1.8631 -2.5960 -1.6162
    8TMC3    H214217   3.572   2.983  11.210 -0.8003  0.3812 -1.6296
    8TMC3    C714218   3.755   2.787  11.277 -0.1059 -0.4824  0.4233
    8TMC3    C814219   3.376   2.932  11.029 -0.3026 -1.0659  0.8538
    8TMC3    O114220   3.875   2.774  11.280  0.0766 -0.1475  0.2037
    8TMC3    O214221   3.341   2.925  10.912  0.7272  0.0883 -0.6805
    9MPD2     C14222   3.261   3.240  11.201  0.5983 -0.0561  0.1537
    9MPD2    C114223   3.258   3.147  11.100  0.6207 -0.8697 -0.8797
    9MPD2    C214224   3.172   3.154  10.987 -0.4045 -1.1893  0.1580
    9MPD2    C314225   3.079   3.254  10.989  0.2113  0.0195  0.5000
    9MPD2    C414226   3.092   3.360  11.086 -0.1453 -1.6672 -0.3747
    9MPD2    C514227   3.182   3.352  11.193  0.1579 -0.3646 -0.0769
    9MPD2     H14228   3.150   3.082  10.909  1.3039 -1.9221  0.3508
    9MPD2    H114229   3.028   3.447  11.089  0.3234 -1.3607  0.8863
    9MPD2    H214230   3.343   3.243  11.272  1.0425 -0.1911 -0.3474
    9MPD2    H314231   3.204   3.447  11.241  0.6232 -0.2839 -0.4478
    9MPD2     N14232   2.983   3.277  10.887 -0.2444  0.2038  0.4269
    9MPD2    H514233   2.927   3.362  10.892  0.5468  0.8451 -1.6251
    9MPD2    N114234   3.347   3.034  11.114 -0.5280  0.1395  0.1644
    9MPD2    H714235   3.404   3.032  11.198  0.1986 -1.4461 -0.3685
    1MPD1     C14236   2.401   1.808  15.004 -0.9101 -0.2025 -0.0938
    1MPD1    C114237   2.444   1.682  14.972 -0.2104 -0.6518  1.0293
    1MPD1    C214238   2.467   1.599  15.080 -0.0792  0.0416  1.0267
    1MPD1    C314239   2.417   1.619  15.209 -0.0713  0.6482  0.2814
    1MPD1    C414240   2.355   1.740  15.229 -0.6789 -0.0572  0.6500
    1MPD1    C514241   2.341   1.828  15.127 -0.0512 -0.7033  0.5040
    1MPD1     H14242   2.530   1.511  15.070  1.3072  1.1661 -0.0041
    1MPD1    H114243   2.323   1.762  15.330  1.8866 -0.6918  1.6056
    1MPD1    H214244   2.392   1.892  14.935  1.7688 -0.2477 -0.5055
    1MPD1    H314245   2.292   1.924  15.144  0.1619 -0.0894 -2.3131
    1MPD1     N14246   2.439   1.532  15.320 -0.5813 -0.3103  0.3114
    1MPD1    H514247   2.398   1.562  15.409  2.1274  4.9871 -0.1939
    1MPD1    N114248   2.494   1.654  14.845 -0.5368  0.3981  0.0529
    1MPD1    H614249   2.441   1.698  14.771  1.3721  2.5341 -0.0604
    1MPD1    H714250   2.504   1.555  14.823  0.0667  0.0014  2.1250
    2MPD1     C14251   2.422   1.810  16.100 -0.9023  0.0965 -0.0831
    2MPD1    C114252   2.512   1.829  16.004 -0.4375  0.5710  0.0113
    2MPD1    C214253   2.527   1.733  15.905  0.5038 -0.1610  0.0366
    2MPD1    C314254   2.448   1.618  15.903 -0.1139  0.4633  0.0008
    2MPD1    C414255   2.343   1.610  16.002 -0.1632  0.0631 -0.2143
    2MPD1    C514256   2.334   1.699  16.102 -0.5423 -0.2132  0.0847
    2MPD1     H14257   2.608   1.732  15.833  0.4944  1.4221  0.0027
    2MPD1    H114258   2.270   1.530  16.003 -0.4155  0.2908 -0.4994
    2MPD1    H214259   2.409   1.875  16.186 -1.6861  0.4492 -0.4620
    2MPD1    H314260   2.257   1.673  16.173  0.3692  1.2681  1.6148
    2MPD1     N14261   2.470   1.522  15.807  0.2158 -0.0332 -0.2150
    2MPD1    H514262   2.540   1.540  15.736 -2.0815  3.3870 -1.6591
    2MPD1    N114263   2.612   1.928  16.019 -0.2192  0.1820 -0.3521
    2MPD1    H614264   2.576   2.018  16.050 -1.3615 -1.7187  3.7798
    2MPD1    H714265   2.676   1.937  15.940  1.0235  1.2330  0.7786
    3TCq2    C114266   2.414   1.397  15.805  0.0843  0.3749  0.5694
    3TCq2    O214267   2.368   1.338  15.900  0.6159 -0.1884 -0.1758
    3TCq2    C214268   2.434   1.331  15.678  0.2581 -0.3384  0.4785
    3TCq2    C314269   2.417   1.201  15.673 -0.8298  0.1799  0.8821
    3TCq2    C414270   2.432   1.131  15.556  0.4746 -0.8014  0.3274
    3TCq2    C514271   2.465   1.194  15.437 -0.0575 -0.8169 -0.4421
    3TCq2    C614272   2.487   1.328  15.446  0.5305 -0.2665 -0.2930
    3TCq2    C714273   2.469   1.399  15.565 -1.3449  0.2493 -0.4992
    3TCq2    C814274   2.505   1.408  15.318 -0.4032 -0.2786 -0.2480
    3TCq2    O414275   2.559   1.351  15.224 -0.5527  0.3114  0.7204
    3TCq2    C914276   2.414   0.993  15.564 -0.4128  0.3631 -0.2142
    3TCq2    O514277   2.427   0.923  15.458 -0.0035  0.1327  0.0310
    3TCq2    O614278   2.383   0.949  15.676  0.0490  0.3459 -0.4457
    3TCq2    H214279   2.395   1.142  15.762  0.5030 -1.2500  0.2587
    3TCq2    H314280   2.497   1.141  15.347 -0.3136 -2.0243  0.1881
    3TCq2    H414281   2.471   1.507  15.571 -0.7160  0.1969  0.3326
    1TCq1    O114282   0.772   0.964  12.051  0.4997 -0.4615 -0.1969
    1TCq1    C114283   0.862   1.053  12.100 -0.1567  0.4235  0.0317
    1TCq1    O214284   0.852   1.176  12.096 -0.4726 -0.2229 -0.2523
    1TCq1    C214285   0.983   0.993  12.144 -0.1297  0.5387 -0.3076
    1TCq1    C314286   0.983   0.897  12.240  0.1798 -0.1678  0.2728
    1TCq1    C414287   1.101   0.868  12.304  0.2843 -0.1646  0.2356
    1TCq1    C514288   1.207   0.950  12.285 -0.1435 -0.3893  0.3952
    1TCq1    C614289   1.198   1.047  12.189  0.4212 -0.7398 -0.1178
    1TCq1    C714290   1.086   1.077  12.121 -0.2622 -0.7500 -0.0499
    1TCq1    C814291   1.295   1.159  12.175 -0.4464 -0.7834 -0.3895
    1TCq1    O414292   1.286   1.244  12.084 -0.3628 -0.5510 -0.0408
    1TCq1    C914293   1.119   0.749  12.388 -0.3876 -0.9593 -0.8607
    1TCq1    O514294   1.027   0.664  12.395 -0.0340 -0.2098 -0.2119
    1TCq1    O614295   1.235   0.733  12.439 -0.3599 -0.1757  0.3813
    1TCq1    H114296   0.815   0.876  12.055  1.5631 -0.0239 -1.6945
    1TCq1    H214297   0.912   0.816  12.253  1.0030 -0.8005  0.8782
    1TCq1    H314298   1.304   0.929  12.329  0.6959  1.5236 -0.5644
    1TCq1    H414299   1.080   1.149  12.039 -0.1993 -0.4065  0.2484
    2MPD2     C14300   1.530   1.348  12.201  0.3540  0.8569 -0.3012
    2MPD2    C114301   1.506   1.239  12.280 -0.2177 -0.1692 -0.0479
    2MPD2    C214302   1.601   1.202  12.372  0.0818 -0.3844  0.2376
    2MPD2    C314303   1.728   1.259  12.377 -0.1270 -0.6016  0.7057
    2MPD2    C414304   1.750   1.368  12.295 -0.3834 -0.7845 -0.6456
    2MPD2    C514305   1.651   1.409  12.213  0.1471  0.3210  0.3380
    2MPD2     H14306   1.586   1.110  12.427  0.0795 -0.0591  0.7776
    2MPD2    H114307   1.844   1.421  12.302 -1.0169  0.2079  0.3362
    2MPD2    H214308   1.452   1.381  12.133  0.3178  1.6894  0.1508
    2MPD2    H314309   1.684   1.499  12.161 -0.6184 -0.4598 -1.5191
    2MPD2     N14310   1.815   1.216  12.479  0.4138  1.0028  0.0793
    2MPD2    H514311   1.785   1.147  12.547 -0.2519  1.5344  0.3202
    2MPD2    N114312   1.388   1.155  12.274  0.0738  0.0595 -0.1153
    2MPD2    H714313   1.377   1.091  12.352  2.2633 -2.7191 -2.1090
    3TCq1    O114314   2.163   1.314  13.053  0.7825  0.1461  0.4570
    3TCq1    C114315   2.171   1.362  12.934  0.5568  1.0332  0.1320
    3TCq1    O214316   2.151   1.477  12.905  0.5304 -0.1468 -0.0613
    3TCq1    C214317   2.115   1.261  12.841 -0.2115  0.0931 -0.0026
    3TCq1    C314318   2.074   1.138  12.887 -0.5091 -0.3391 -0.6919
    3TCq1    C414319   1.986   1.064  12.816  0.4797 -0.1619 -0.2460
    3TCq1    C514320   1.933   1.113  12.700  0.1575  0.8434  0.1213
    3TCq1    C614321   1.974   1.236  12.647 -0.3577 -0.1628 -0.0382
    3TCq1    C714322   2.072   1.302  12.719 -0.1619  0.1118  1.2569
    3TCq1    C814323   1.923   1.288  12.526  0.3985 -0.2198  0.0805
    3TCq1    O414324   1.989   1.378  12.475  0.0543  0.0835 -0.7953
    3TCq1    C914325   1.954   0.939  12.877  0.2413 -0.3274 -0.9938
    3TCq1    O514326   2.027   0.894  12.971  0.0569  0.6267 -0.2880
    3TCq1    O614327   1.874   0.872  12.813 -0.4338 -0.1874  0.5210
    3TCq1    H114328   2.202   1.224  13.045 -0.7221 -0.4126 -0.4084
    3TCq1    H214329   2.100   1.100  12.985 -0.9683 -2.5315 -1.4184
    3TCq1    H314330   1.857   1.048  12.657 -0.0270  0.9683  0.2562
    3TCq1    H414331   2.104   1.403  12.696  0.8745 -0.2355  1.1489
    1MPD2     C14332   1.640   2.040  14.690 -0.3340 -0.2997  0.0787
    1MPD2    C114333   1.517   1.988  14.674 -0.3634 -0.9181 -0.0109
    1MPD2    C214334   1.496   1.876  14.750  0.1316  0.0779 -0.7331
    1MPD2    C314335   1.587   1.830  14.842  0.2771  0.5850  0.3851
    1MPD2    C414336   1.706   1.885  14.867  0.7760 -0.3110  0.1041
    1MPD2    C514337   1.733   1.992  14.785 -0.1089  0.0287  0.7640
    1MPD2     H14338   1.409   1.813  14.738  0.8366 -0.6683 -1.9689
    1MPD2    H114339   1.788   1.850  14.929  1.1988  0.9294  0.2518
    1MPD2    H214340   1.655   2.138  14.647  0.6763  0.2857  1.7769
    1MPD2    H314341   1.828   2.043  14.792  0.5095 -1.3674  2.4989
    1MPD2     N14342   1.549   1.712  14.914  0.6120  0.0603 -0.0022
    1MPD2    H514343   1.456   1.675  14.899  0.8929  0.0222 -1.5959
    1MPD2    N114344   1.415   2.055  14.598  0.4054  0.2318 -0.0000
    1MPD2    H714345   1.438   2.149  14.566  0.1287 -0.4764 -2.2428
    2TMC3    C114346   1.200   2.089  14.513  0.0598 -0.7273  0.7241
    2TMC3    C214347   1.083   2.027  14.500 -0.6746  0.3318  0.7316
    2TMC3    C314348   0.978   2.088  14.561 -0.1574  0.0154 -0.1819
    2TMC3    C414349   1.200   2.212  14.566  0.6466 -0.2483  0.3580
    2TMC3    C514350   1.087   2.281  14.605  0.2289  0.4766 -0.7760
    2TMC3    C614351   0.970   2.213  14.609 -0.2389 -0.0933 -0.0905
    2TMC3     C14352   1.296   2.000  14.567 -0.0071 -0.1221  0.3336
    2TMC3     O14353   1.251   1.892  14.603  0.8745  0.1309  0.2808
    2TMC3     H14354   1.075   1.925  14.465  0.4445 -0.5176  2.9572
    2TMC3    H114355   1.286   2.277  14.557 -0.5118  1.3569  0.6676
    2TMC3    H214356   0.893   2.246  14.678 -1.3526 -2.1308 -0.3418
    2TMC3    C714357   1.080   2.429  14.614 -0.2362 -0.1185 -0.3610
    2TMC3    C814358   0.887   1.998  14.632  0.2653  0.3351  0.0954
    2TMC3    O114359   0.985   2.501  14.591  0.3070  0.3525 -0.3225
    2TMC3    O214360   0.766   2.023  14.650 -0.3926  0.0353 -0.3650
    3TCq1    O114361   2.250   2.925  14.773 -0.5539  0.3662  0.2070
    3TCq1    C114362   2.158   2.898  14.679  0.5077 -1.0071 -0.7815
    3TCq1    O214363   2.143   2.954  14.569  0.0182 -0.3305 -0.3929
    3TCq1    C214364   2.041   2.835  14.746 -0.4603  0.3808 -0.0146
    3TCq1    C314365   2.066   2.751  14.853  1.0827  0.5395  0.4417
    3TCq1    C414366   1.959   2.705  14.928 -0.1128 -0.0947 -0.3561
    3TCq1    C514367   1.828   2.745  14.902  0.2844  0.0937 -0.0114
    3TCq1    C614368   1.804   2.812  14.783 -0.2359 -0.2802 -0.8020
    3TCq1    C714369   1.911   2.862  14.711  0.0549  0.3760 -0.0836
    3TCq1    C814370   1.671   2.852  14.741 -0.2052  0.3403 -0.6698
    3TCq1    O414371   1.667   2.935  14.650  0.0019  0.2050 -0.4090
    3TCq1    C914372   1.986   2.638  15.049 -0.1031  1.5891  0.4378
    3TCq1    O514373   1.899   2.670  15.132 -0.0547  0.4226 -0.1832
    3TCq1    O614374   2.107   2.611  15.060 -0.0754  0.4123  0.0185
    3TCq1    H114375   2.232   2.869  14.852  1.7835 -1.6674 -0.6851
    3TCq1    H214376   2.165   2.717  14.880  1.2494  1.3300  0.8124
    3TCq1    H314377   1.749   2.706  14.966  0.5213 -1.8264 -0.8954
    3TCq1    H414378   1.889   2.903  14.614 -1.6235  1.5714  0.7924
    4MPD2     C14379   1.394   2.840  14.625 -0.2316  0.4549 -0.1874
    4MPD2    C114380   1.449   2.741  14.709  0.4069 -0.4373 -0.5972
    4MPD2    C214381   1.372   2.629  14.730 -0.4482  0.8203  0.1427
    4MPD2    C314382   1.254   2.602  14.664  0.6251  0.4503  0.0095
    4MPD2    C414383   1.207   2.689  14.573 -0.6994  0.3737 -0.5119
    4MPD2    C514384   1.273   2.809  14.559 -0.1387  0.0322 -0.1354
    4MPD2     H14385   1.403   2.553  14.800  0.9840  1.3394  0.0522
    4MPD2    H114386   1.124   2.680  14.504 -1.6032  2.3046  0.3169
    4MPD2    H214387   1.445   2.934  14.611 -0.3758  0.6096  0.3237
    4MPD2    H314388   1.218   2.882  14.500 -0.4942 -1.1098 -1.2143
    4MPD2     N14389   1.199   2.469  14.679 -0.4089  0.2683 -0.3706
    4MPD2    H514390   1.253   2.400  14.731 -1.4596  0.9252  1.6233
    4MPD2    N114391   1.571   2.760  14.776 -0.4688  0.4804 -0.3369
    4MPD2    H714392   1.603   2.689  14.840 -0.6454  1.1352  0.4709
    5TMC2    C114393   1.324   1.456  15.013  0.9259 -0.5009  1.0314
    5TMC2    C214394   1.292   1.465  15.149  0.1379 -0.3356 -0.6442
    5TMC2    C314395   1.390   1.498  15.240 -0.2160 -0.3160 -0.3122
    5TMC2    C414396   1.448   1.493  14.979  0.1910  0.8075  0.2632
    5TMC2    C514397   1.533   1.546  15.069  0.1695  0.4096 -0.3504
    5TMC2    C614398   1.508   1.545  15.198 -0.7671 -0.4166  0.1948
    5TMC2     C14399   1.235   1.530  14.933  0.1129  0.4481 -0.0327
    5TMC2     O14400   1.291   1.619  14.868  0.4317  0.9460  0.2433
    5TMC2     H14401   1.195   1.463  15.197  0.1396 -2.0693 -0.7126
    5TMC2    H114402   1.464   1.481  14.873 -0.2010 -1.2241  0.4463
    5TMC2    H214403   1.593   1.573  15.259  0.7056 -0.3076 -1.8983
    5TMC2    C714404   1.615   1.658  15.024  0.2142  0.2789  1.2138
    5TMC2    C814405   1.374   1.459  15.374 -0.5457 -0.6502 -0.1957
    5TMC2    O114406   1.704   1.705  15.095  0.0292  0.3774  0.6183
    5TMC2    O214407   1.421   1.524  15.467  0.0469  0.2674  0.6903
    5TMC2    O514408   1.336   1.331  15.382  0.4995  0.0290  0.1776
    5TMC2    H514409   1.338   1.286  15.294  2.0871  1.2205 -0.3917
    6MPD2     C14410   0.806   1.801  14.839  0.5155  0.1445  1.0493
    6MPD2    C114411   0.929   1.799  14.780 -0.9831  0.9000  0.1041
    6MPD2    C214412   1.024   1.704  14.819 -0.4200 -0.1478 -0.1806
    6MPD2    C314413   0.997   1.606  14.913  0.3655  0.5066  0.7698
    6MPD2    C414414   0.877   1.602  14.971 -0.0511 -0.7369  0.0513
    6MPD2    C514415   0.779   1.698  14.933 -0.0319  0.1490 -0.5270
    6MPD2     H14416   1.125   1.713  14.781 -0.3934  0.5811  0.0699
    6MPD2    H114417   0.866   1.527  15.048 -0.6748 -0.4642  0.2347
    6MPD2    H214418   0.734   1.881  14.832  0.2060 -0.1356  1.0167
    6MPD2    H314419   0.687   1.700  14.990 -0.3130  1.1044 -1.0150
    6MPD2     N14420   1.100   1.510  14.966 -0.3402 -0.1497  0.1482
    6MPD2    H514421   1.069   1.432  15.025  0.5254 -0.3019  0.3949
    6MPD2    N114422   0.966   1.901  14.692  0.3724  0.4070  0.1294
    6MPD2    H714423   1.065   1.904  14.671  0.3916 -2.0032 -0.1430
  945NH4     N114424   2.326   3.921  16.656  0.7739 -0.3669 -0.1040
  945NH4     H214425   2.360   3.859  16.579  1.4946  1.9334 -1.6419
  945NH4     H314426   2.395   3.991  16.689  2.6971 -1.3806 -1.9871
  945NH4     H414427   2.293   3.861  16.734  1.0257  0.6434  0.7841
  945NH4     H514428   2.252   3.986  16.622  0.8628 -0.9120 -1.3559
  946SOD     NA14429   4.103   4.271   9.144 -0.2805 -0.0902  0.2806
  947SOD     NA14430   0.640   2.151  14.830 -0.1958  0.3375  0.0373
  948SOD     NA14431   4.427   2.317   9.516 -0.0103 -0.0491 -0.3758
  949SOD     NA14432   3.711   0.454  15.185 -0.2636  0.2607 -0.3507
  950SOD     NA14433   4.068   4.542   5.279 -0.4477  0.3922  0.1736
  951SOD     NA14434   1.147   4.047  10.212  0.2634 -0.0337 -0.2885
  952SOD     NA14435   3.905   1.649  12.630 -0.0883 -0.0440 -0.6281
  953SOD     NA14436   1.893   0.646  11.989  0.4616  0.0802  0.2490
  954SOD     NA14437   4.076   1.902  12.702  0.3761  0.0051 -0.0461
  955SOD     NA14438   1.186   0.970  11.399  0.1703  0.0353  0.0419
  956SOD     NA14439   1.427   0.677  12.402  0.0938 -0.4135  0.0283
  957SOD     NA14440   2.954   0.272  12.564  0.4175 -0.5098 -0.3218
  958SOD     NA14441   2.427   0.729  15.587 -0.0776  0.0966 -0.3332
  959SOD     NA14442   1.937   0.631  10.449  0.3837  0.1386 -0.3843
  960SOD     NA14443   1.840   1.755  12.409 -0.2589  0.0878 -0.2463
  961SOD     NA14444   2.712   1.235  14.778 -0.0294 -0.2786  0.1681
  962SOD     NA14445   2.342   3.119  17.438  0.0446 -0.0113 -0.0654
  963SOD     NA14446   2.190   1.523   1.106  0.2541  0.4323  0.2062
  964SOD     NA14447   1.166   2.378  11.631  0.3868  0.6733 -0.0750
  965SOD     NA14448   2.569   2.324  13.250 -0.0012  0.4264 -0.5891
  966SOD     NA14449   1.479   2.382  10.434 -0.4051  0.0311 -0.4503
  967SOD     NA14450   0.363   4.028   2.033 -0.0197  0.1124 -0.0699
  968SOD     NA14451   0.056   0.889   1.340  0.0287  0.4473 -0.0676
  969SOD     NA14452   0.580   3.803   1.413  0.5034 -0.0300 -0.2388
  970SOD     NA14453   1.473   2.260   2.236 -0.3092  0.4727  0.0323
  971SOD     NA14454   2.410   3.723   2.273  0.1766 -0.0854  0.0464
  972SOD     NA14455   2.699   0.909  14.622 -0.1012  0.2759 -0.4478
  973SOD     NA14456   4.404   4.025  10.516 -0.0796  0.2801  0.1736
  974SOD     NA14457   0.350   0.270  10.323  0.1318 -0.5083  0.0057
  975SOD     NA14458   4.309   1.140   1.391  0.1266 -0.1284  0.1153
  976SOD     NA14459   0.270   0.581  10.055  0.4971  0.2116  0.3334
  977SOD     NA14460   1.817   3.109  11.338 -0.0723  0.5779 -0.1045
  978SOD     NA14461   0.517   0.072  10.138  0.4058  0.1172  0.1683
  979SOD     NA14462   3.399   0.569   8.259 -0.5690  0.2937 -0.3395
  980SOD     NA14463   2.283   0.987  14.321 -0.4781  0.3498  0.7365
  981SOD     NA14464   2.525   3.562  16.781  0.2188  0.3550  0.1160
  982SOD     NA14465   1.698   4.681  10.127 -0.3978  0.0322  0.0430
  983SOD     NA14466   2.022   4.386  14.101 -0.7686 -0.4936  0.0742
  984SOD     NA14467   4.418   3.002   9.374 -0.5157 -0.1503 -0.2085
  985SOD     NA14468   3.537   0.146   3.959 -0.4903  0.5863 -0.2903
  986SOD     NA14469   4.387   0.599  10.335  0.0712 -0.1273  0.1831
  987SOD     NA14470   3.639   0.296  14.180  0.2643  0.0468 -0.0548
  988SOD     NA14471   2.409   2.122  15.888  0.2064  0.0673 -0.4327
  989SOD     NA14472   1.316   3.696   4.955  0.2924  0.1841 -0.0833
  990SOD     NA14473   3.753   2.944   2.021  0.4853  0.8841  0.3118
  991SOD     NA14474   2.580   2.676  14.875  0.1944 -0.3237 -0.1507
  992SOD     NA14475   4.620   3.598  13.728  0.2478  0.5108  0.4547
  993SOD     NA14476   3.605   3.795   1.469  0.1695  0.2791 -0.0025
  994SOD     NA14477   1.174   0.548  15.015  0.2723 -0.1643  0.0625
  995SOD     NA14478   4.458   3.451  10.345  0.4665 -0.1742 -0.1551
  996SOD     NA14479   3.032   1.341  14.698 -0.2484 -0.3697  0.0350
  997SOD     NA14480   0.402   3.533   5.602  0.0733  0.1055 -0.6502
  998SOD     NA14481   4.528   4.303  10.886 -0.2329 -0.0226 -0.0581
  999SOD     NA14482   3.910   1.611  13.208 -0.3008  0.1975 -0.2297
 1000SOD     NA14483   1.892   0.270  10.835  0.2784  0.1626 -0.1260
 1001SOD     NA14484   1.582   2.823  16.064  0.4350  0.3420  0.0688
 1002SOD     NA14485   0.195   1.116   0.849 -0.4606 -0.2379  0.3496
 1003SOD     NA14486   2.385   0.048   0.009  0.0013 -0.5840  0.2917
 1004SOD     NA14487   2.852   0.889  14.369 -0.2507 -0.5253 -0.2940
 1005SOD     NA14488   3.145   0.368   0.149  0.2330 -0.0527 -0.0762
 1006SOD     NA14489   0.833   0.890  13.138  0.5055 -0.2017 -0.1592
 1007SOD     NA14490   1.320   4.707  10.102  0.4486 -0.1470 -0.1791
 1008SOD     NA14491   1.662   3.034   6.228  0.0342 -0.0815 -0.2027
 1009SOD     NA14492   2.739   2.067  11.029  0.0302 -0.0416  0.4955
 1010SOD     NA14493   4.366   0.142   2.072 -0.1874  0.1129 -0.1186
 1011SOL     OW14494   2.427   4.448   9.078  0.7617  0.6517 -0.0462
 1011SOL    HW114495   2.391   4.419   9.161 -0.7626  1.8196 -0.2837
 1011SOL    HW214496   2.378   4.396   9.014  0.6186  2.2066 -1.2300
 1012SOL     OW14497   1.313   2.826  12.254 -0.0853  0.0430  0.4715
 1012SOL    HW114498   1.392   2.792  12.297 -1.1012 -2.0558  0.6650
 1012SOL    HW214499   1.308   2.787  12.167 -0.4950  0.3334  0.3648
 1013SOL     OW14500   0.123   2.505  17.635 -0.4422  0.3235 -0.0870
 1013SOL    HW114501   0.061   2.567   0.001 -1.0539  0.3100 -1.0064
 1013SOL    HW214502   0.131   2.434   0.024  1.5437 -0.5936 -1.3886
 1014SOL     OW14503   1.659   1.666   5.856 -0.0657  0.2644 -0.1096
 1014SOL    HW114504   1.635   1.737   5.915 -0.9264 -1.2651  1.3950
 1014SOL    HW214505   1.643   1.700   5.768 -1.1918 -0.7112 -0.2764
 1015SOL     OW14506   2.181   2.080   8.106 -0.0677 -0.3563 -0.3123
 1015SOL    HW114507   2.152   2.117   8.023  0.4045  0.3814 -0.1563
 1015SOL    HW214508   2.165   1.986   8.098  2.7024 -0.8056 -0.6170
 1016SOL     OW14509   4.509   0.836   9.062 -0.0400  0.8157  0.3300
 1016SOL    HW114510   4.563   0.763   9.030 -1.1587  0.8592 -1.6185
 1016SOL    HW214511   4.457   0.850   8.984 -0.4910 -1.0435  0.2890
 1017SOL     OW14512   4.399   2.674   8.691  0.6067  0.6457 -0.6851
 1017SOL    HW114513   4.421   2.581   8.688 -1.9088  0.0019  0.9170
 1017SOL    HW214514   4.486   2.709   8.714  1.0715 -1.5302  0.8487
 1018SOL     OW14515   2.373   3.782   3.060  1.0143 -0.6380 -0.1173
 1018SOL    HW114516   2.378   3.772   3.155 -1.3928  0.6171  0.1448
 1018SOL    HW214517   2.451   3.736   3.029  2.3616  1.1661  0.6130
 1019SOL     OW14518   0.517   4.004   7.384  0.3095  0.4811  0.3903
 1019SOL    HW114519   0.566   3.988   7.304  1.2532 -0.4782  1.1628
 1019SOL    HW214520   0.590   3.977   7.440 -0.3823 -1.9329  0.1181
 1020SOL     OW14521   1.086   2.952   8.997 -0.1921  0.3162 -0.4175
 1020SOL    HW114522   1.075   2.975   8.905 -2.5505  2.6646  0.4426
 1020SOL    HW214523   1.068   2.858   8.996 -3.2576  0.8940  0.2499
 1021SOL     OW14524   0.540   2.679   0.677  0.2438 -0.6434 -0.2853
 1021SOL    HW114525   0.568   2.602   0.727  0.6156 -0.2824  0.0640
 1021SOL    HW214526   0.468   2.713   0.729 -0.2087 -3.2523  0.7955
 1022SOL     OW14527   4.270   1.821   4.999 -0.4117  0.2539 -0.4406
 1022SOL    HW114528   4.204   1.772   4.951  0.2519  0.4277 -1.5516
 1022SOL    HW214529   4.213   1.895   5.020 -1.0383 -0.4827  0.4582
 1023SOL     OW14530   2.181   3.301   5.925  0.4064 -0.3190  0.4304
 1023SOL    HW114531   2.126   3.376   5.945  0.6512 -0.1965  0.6408
 1023SOL    HW214532   2.256   3.327   5.979 -0.2252  1.5110  0.3966
 1024SOL     OW14533   2.412   3.195   5.517  0.4376 -0.0243 -0.0583
 1024SOL    HW114534   2.394   3.150   5.600 -0.3571 -1.5068 -1.0214
 1024SOL    HW214535   2.413   3.116   5.463 -0.9694  0.6844 -1.1216
 1025SOL     OW14536   3.492   3.051   5.345 -0.2352 -0.1377  0.5145
 1025SOL    HW114537   3.562   3.110   5.315  1.4665 -2.0512  0.7071
 1025SOL    HW214538   3.532   3.004   5.418 -1.4505  0.5110  1.5902
 1026SOL     OW14539   1.770   0.759   6.201 -0.4102 -0.7929  0.2818
 1026SOL    HW114540   1.690   0.795   6.239  0.2164  1.8662 -0.8743
 1026SOL    HW214541   1.739   0.741   6.112 -0.5919  0.6711  0.0497
 1027SOL     OW14542   1.963   4.681   2.860  0.3046 -0.3910  0.1108
 1027SOL    HW114543   2.009   4.689   2.943 -1.0082 -2.1749  1.0052
 1027SOL    HW214544   1.892   4.619   2.872  0.0989 -0.1642  0.0536
 1028SOL     OW14545   2.055   4.495   3.542  0.0379 -0.1732 -0.3702
 1028SOL    HW114546   2.022   4.405   3.547  0.9002 -0.4316  0.7527
 1028SOL    HW214547   1.979   4.540   3.505 -0.7869 -0.0028  1.5384
 1029SOL     OW14548   1.462   4.688   8.985  0.3911 -0.4846 -0.2789
 1029SOL    HW114549   1.463   0.041   9.050  0.2151  0.0942 -0.9101
 1029SOL    HW214550   1.423   0.017   8.911 -1.0358 -0.8506  0.2534
 1030SOL     OW14551   4.094   2.500   1.273 -0.7107  0.1196 -0.7463
 1030SOL    HW114552   4.060   2.417   1.307 -4.0654  1.2388 -1.3816
 1030SOL    HW214553   4.128   2.473   1.188  0.3117 -1.2892  0.1066
 1031SOL     OW14554   4.690   2.520   5.175 -0.8851 -0.4036  0.3107
 1031SOL    HW114555   0.006   2.431   5.171 -1.1665 -0.4574 -0.7902
 1031SOL    HW214556   4.635   2.507   5.253 -0.5327 -1.7420  0.3296
 1032SOL     OW14557   1.134   3.971   6.133 -0.2049 -0.1434 -0.7031
 1032SOL    HW114558   1.094   3.956   6.218 -0.8657  0.5829 -0.8909
 1032SOL    HW214559   1.165   4.061   6.140 -1.4926  0.3318 -1.1844
 1033SOL     OW14560   4.088   1.752   6.820 -0.2970 -0.2736  0.2890
 1033SOL    HW114561   4.114   1.838   6.851 -1.1792 -0.0032  0.2672
 1033SOL    HW214562   4.055   1.786   6.737  2.0278  0.5097 -0.3040
 1034SOL     OW14563   0.679   4.016  11.294 -0.4410 -0.3394  0.2639
 1034SOL    HW114564   0.711   4.054  11.212 -1.9817 -0.2820 -0.3024
 1034SOL    HW214565   0.745   4.057  11.350 -0.1295  0.3050 -0.5870
 1035SOL     OW14566   3.811   1.095  16.865  0.2373  0.0648 -0.1981
 1035SOL    HW114567   3.860   1.099  16.783 -0.9223 -1.0485 -0.9363
 1035SOL    HW214568   3.769   1.181  16.871 -3.0306 -1.6364  1.4439
 1036SOL     OW14569   0.518   2.506  11.270 -0.4071 -0.3549  0.2690
 1036SOL    HW114570   0.457   2.478  11.202 -0.6590  1.1288 -0.0988
 1036SOL    HW214571   0.447   2.524  11.332  0.6312  1.3802  0.9433
 1037SOL     OW14572   1.799   1.139   3.570  0.2604  0.5267  0.2977
 1037SOL    HW114573   1.880   1.126   3.521 -0.3107  2.3471 -1.1459
 1037SOL    HW214574   1.726   1.151   3.508 -0.4233  0.2184  1.0491
 1038SOL     OW14575   3.696   3.522   3.255  0.0099 -0.5808 -0.0847
 1038SOL    HW114576   3.670   3.519   3.163  0.1256 -0.8716 -0.1105
 1038SOL    HW214577   3.791   3.513   3.244 -0.2015  0.6804 -2.7846
 1039SOL     OW14578   3.918   4.521  12.415  0.2037 -0.0244 -0.4164
 1039SOL    HW114579   3.917   4.427  12.397  0.9837 -0.2816  0.9358
 1039SOL    HW214580   3.921   4.566  12.331 -0.9448  1.2769  0.2306
 1040SOL     OW14581   4.404   2.794   3.031 -0.0574 -0.2428 -0.2755
 1040SOL    HW114582   4.464   2.814   2.959  0.7748 -1.4165  0.1010
 1040SOL    HW214583   4.319   2.810   2.990  0.2910  0.1207 -0.8588
 1041SOL     OW14584   3.761   3.601   2.582 -0.1399 -0.2775 -0.6983
 1041SOL    HW114585   3.816   3.612   2.504 -2.0043 -0.2245 -2.0105
 1041SOL    HW214586   3.777   3.514   2.617 -0.8117  0.0443  0.4192
 1042SOL     OW14587   4.121   3.754  17.109  0.0146  0.4430 -0.3641
 1042SOL    HW114588   4.040   3.796  17.137 -0.6302 -0.9925 -0.0323
 1042SOL    HW214589   4.085   3.672  17.074  0.8038  0.4169 -1.1288
 1043SOL     OW14590   1.644   3.764   6.313 -0.0112  0.1185 -0.3534
 1043SOL    HW114591   1.696   3.844   6.321 -2.7479  2.0484 -1.7843
 1043SOL    HW214592   1.629   3.728   6.401  1.3351  0.4127 -0.0039
 1044SOL     OW14593   1.781   2.584   8.588  0.2101 -0.3933 -0.6977
 1044SOL    HW114594   1.762   2.541   8.672  2.8521 -2.7451 -1.2963
 1044SOL    HW214595   1.785   2.679   8.601  0.4424 -0.5632  0.5001
 1045SOL     OW14596   3.030   3.799   9.636 -0.7488 -0.1769 -0.6118
 1045SOL    HW114597   2.989   3.883   9.659 -0.1082  0.2971 -1.2047
 1045SOL    HW214598   2.987   3.770   9.556  0.9287  0.4946 -1.7371
 1046SOL     OW14599   2.477   4.543  14.802  0.4072  0.2496 -0.2649
 1046SOL    HW114600   2.504   4.497  14.882 -2.3637  0.1033  0.5720
 1046SOL    HW214601   2.485   4.476  14.734 -3.1855 -1.2125  0.7574
 1047SOL     OW14602   3.912   2.486   4.756  0.3097  0.0263  0.2042
 1047SOL    HW114603   3.994   2.533   4.742  0.0636  1.0498  2.2062
 1047SOL    HW214604   3.937   2.394   4.747  0.6482  0.0292  1.1341
 1048SOL     OW14605   1.021   1.384  10.866 -0.2360 -0.1539 -0.5986
 1048SOL    HW114606   1.061   1.299  10.883 -1.5920 -0.8606 -0.9490
 1048SOL    HW214607   0.947   1.390  10.927 -1.7897  0.3277 -2.5072
 1049SOL     OW14608   3.441   4.645  14.415  0.4984 -0.0647  0.0817
 1049SOL    HW114609   3.513   4.626  14.476 -0.8282  0.5536  1.8321
 1049SOL    HW214610   3.378   4.654  14.486  0.3492  0.2643 -0.0956
 1050SOL     OW14611   0.535   0.120   9.265  0.2134 -0.0917  0.3465
 1050SOL    HW114612   0.530   0.155   9.354 -4.9092  0.3394 -0.1255
 1050SOL    HW214613   0.528   0.029   9.294 -1.6926 -0.4251 -1.1860
 1051SOL     OW14614   0.133   1.981  12.634 -0.2515 -0.5478 -0.2994
 1051SOL    HW114615   0.198   2.048  12.612 -0.0137 -0.9191 -0.7387
 1051SOL    HW214616   0.189   1.910  12.664  0.6748  1.0837  1.7900
 1052SOL     OW14617   4.050   1.987   4.839 -0.1407 -0.5359  0.0427
 1052SOL    HW114618   4.062   1.947   4.753 -0.4717  1.3071 -0.8659
 1052SOL    HW214619   4.109   2.062   4.831  0.2741 -1.0826 -1.8940
 1053SOL     OW14620   2.183   0.970   8.786  0.2204  0.1003 -0.3655
 1053SOL    HW114621   2.144   0.969   8.699 -1.6879  4.2840  0.4670
 1053SOL    HW214622   2.109   0.956   8.845 -0.0266  1.1912 -0.4186
 1054SOL     OW14623   3.922   3.758  16.675  0.2453  0.2093  0.3121
 1054SOL    HW114624   3.932   3.732  16.583 -1.1218 -0.9503  0.4856
 1054SOL    HW214625   3.896   3.675  16.716  1.1398 -1.1093 -1.7940
 1055SOL     OW14626   1.196   2.939   2.698  0.2080  0.1348 -0.3582
 1055SOL    HW114627   1.137   2.945   2.623 -0.4727  0.1631  0.1775
 1055SOL    HW214628   1.160   3.012   2.749 -0.4423 -0.8760  0.6447
 1056SOL     OW14629   0.206   3.216   6.863  0.3369 -0.6683 -0.1886
 1056SOL    HW114630   0.204   3.157   6.938 -0.7504  0.8702  0.9510
 1056SOL    HW214631   0.279   3.182   6.809 -0.9101  0.1237 -2.3764
 1057SOL     OW14632   4.228   3.113  16.201  0.4081 -0.0648  0.1525
 1057SOL    HW114633   4.290   3.045  16.172 -0.0856  0.5818 -2.3839
 1057SOL    HW214634   4.204   3.089  16.291 -1.7419  0.0174 -0.4177
 1058SOL     OW14635   1.763   0.003   3.343 -0.2434 -0.0649  0.6133
 1058SOL    HW114636   1.795   4.669   3.417  0.8469  2.6328  2.0414
 1058SOL    HW214637   1.681   4.671   3.338 -1.0568  1.1011  2.0671
 1059SOL     OW14638   3.470   0.078   2.841 -0.3280 -0.1329 -0.3883
 1059SOL    HW114639   3.532   0.095   2.912 -0.4248 -0.0567 -0.3225
 1059SOL    HW214640   3.467   0.167   2.805  2.2790 -0.0279 -0.3806
 1060SOL     OW14641   4.664   0.278   8.783 -0.0696  0.2880  0.1046
 1060SOL    HW114642   4.656   0.227   8.703 -1.5175 -1.4324  1.3411
 1060SOL    HW214643   4.587   0.333   8.770  0.6081  1.4171  0.8738
 1061SOL     OW14644   3.313   3.632  11.427  0.0393  0.0321  0.5630
 1061SOL    HW114645   3.385   3.602  11.371 -0.0415  1.9076 -0.5662
 1061SOL    HW214646   3.337   3.725  11.434 -0.2436 -0.1079  3.4820
 1062SOL     OW14647   1.024   2.570  16.139  0.2009  0.9061 -0.3973
 1062SOL    HW114648   0.982   2.542  16.057 -2.8183  0.7213  1.2163
 1062SOL    HW214649   1.112   2.536  16.123  1.1929  2.2290  2.2651
 1063SOL     OW14650   2.996   1.070  14.302 -0.0728 -0.7462  0.0232
 1063SOL    HW114651   3.023   1.123  14.377  2.5084 -2.9034  0.6075
 1063SOL    HW214652   3.077   1.070  14.252 -0.9045  0.6986 -1.3327
 1064SOL     OW14653   0.455   0.974   6.689 -0.5313 -0.8326  0.2199
 1064SOL    HW114654   0.433   0.898   6.742 -0.2419 -1.5979 -0.7605
 1064SOL    HW214655   0.453   1.045   6.754 -0.4361 -2.2027  1.7011
 1065SOL     OW14656   0.062   1.353   2.181 -0.0992 -0.0779 -0.0091
 1065SOL    HW114657   0.002   1.305   2.123  0.5824  1.6526 -2.1561
 1065SOL    HW214658   0.031   1.310   2.260  0.4618  0.0355  0.2745
 1066SOL     OW14659   0.928   4.697   6.111  0.4919 -0.3209 -0.2741
 1066SOL    HW114660   0.994   4.680   6.043 -0.6630  2.1478 -2.0004
 1066SOL    HW214661   0.846   4.672   6.069  1.3146 -1.0765 -1.4355
 1067SOL     OW14662   3.364   3.067   4.768 -0.4647  0.2180 -0.3146
 1067SOL    HW114663   3.386   3.092   4.858 -0.9835  0.8299 -0.3561
 1067SOL    HW214664   3.283   3.113   4.745 -1.2333 -0.5407  0.8618
 1068SOL     OW14665   1.240   3.880  16.733 -0.0473  0.4634 -0.1380
 1068SOL    HW114666   1.280   3.927  16.660 -2.7203  3.2126  0.1671
 1068SOL    HW214667   1.289   3.914  16.808 -0.8329  0.3403  0.4362
 1069SOL     OW14668   1.336   1.219   2.047 -0.1812 -0.1653  0.0945
 1069SOL    HW114669   1.354   1.229   1.953  2.1513  0.3746  0.5895
 1069SOL    HW214670   1.330   1.313   2.061 -0.4817 -0.0133 -1.0184
 1070SOL     OW14671   3.996   0.545  15.503 -0.4759 -0.1404  0.2856
 1070SOL    HW114672   4.041   0.629  15.513  0.3339 -0.5337 -0.0366
 1070SOL    HW214673   3.991   0.522  15.595 -1.0050 -1.4266 -0.0703
 1071SOL     OW14674   3.687   2.483  12.377  0.0974  0.0499 -0.0076
 1071SOL    HW114675   3.637   2.516  12.302 -1.1351  0.5208  1.0073
 1071SOL    HW214676   3.776   2.485  12.342 -0.2401 -0.8591 -0.9097
 1072SOL     OW14677   0.108   3.978   7.212  0.0907 -0.9173  0.2104
 1072SOL    HW114678   0.153   4.022   7.284 -0.5403  0.6128 -0.3433
 1072SOL    HW214679   0.015   3.990   7.230 -0.1780  0.4617 -2.1227
 1073SOL     OW14680   0.239   0.553   2.538 -0.5752  0.4098  0.4128
 1073SOL    HW114681   0.284   0.494   2.599  0.4003  0.1428 -0.5615
 1073SOL    HW214682   0.199   0.608   2.606 -1.7804 -1.7473  1.4579
 1074SOL     OW14683   3.691   4.301   4.899  0.1082  0.0071  0.3912
 1074SOL    HW114684   3.780   4.266   4.900  0.7266  1.5221 -2.5846
 1074SOL    HW214685   3.636   4.246   4.845  1.0827 -0.6379  0.0619
 1075SOL     OW14686   1.608   4.483   2.203  0.5342 -0.0285 -0.6724
 1075SOL    HW114687   1.646   4.571   2.202 -0.1895  0.2922 -0.3416
 1075SOL    HW214688   1.534   4.502   2.261  1.9263 -0.5672  1.2965
 1076SOL     OW14689   0.266   0.220   2.327  0.3655  0.0868 -0.5353
 1076SOL    HW114690   0.318   0.298   2.306  1.9393 -0.8159 -0.0459
 1076SOL    HW214691   0.332   0.159   2.360  0.7647  1.3388  1.0092
 1077SOL     OW14692   4.014   4.288   8.922  0.3861  0.6675 -0.0599
 1077SOL    HW114693   4.045   4.318   8.836  1.5818  0.4051  0.2759
 1077SOL    HW214694   3.921   4.302   8.904 -0.1493 -0.0947  2.1177
 1078SOL     OW14695   2.559   1.684   7.474  0.3264 -0.4188  0.2518
 1078SOL    HW114696   2.491   1.714   7.534  1.4336 -1.3287  1.9473
 1078SOL    HW214697   2.587   1.759   7.421 -2.8506  1.9068  1.8704
 1079SOL     OW14698   1.483   1.237   7.234 -0.5940 -0.5429 -0.2386
 1079SOL    HW114699   1.424   1.213   7.306  0.1505 -0.3402  0.4362
 1079SOL    HW214700   1.560   1.187   7.259 -0.4462  1.2689  2.8817
 1080SOL     OW14701   1.810   0.515   6.684 -0.4845 -0.0626  0.2951
 1080SOL    HW114702   1.785   0.589   6.628  1.3299  0.9272  0.8163
 1080SOL    HW214703   1.905   0.511   6.685 -0.5964 -2.8831 -0.0016
 1081SOL     OW14704   4.141   0.279   0.855 -0.1618  0.2324 -0.0559
 1081SOL    HW114705   4.110   0.243   0.772  0.6017 -1.4783  0.3990
 1081SOL    HW214706   4.071   0.343   0.865 -0.2088  0.0933  0.5090
 1082SOL     OW14707   1.211   3.561  14.141  0.3224  0.2798 -0.5277
 1082SOL    HW114708   1.122   3.591  14.160  0.6729  0.4225  0.8821
 1082SOL    HW214709   1.228   3.570  14.047 -1.3545  1.3484 -0.7279
 1083SOL     OW14710   0.584   2.909   8.998 -0.2034 -0.4924 -0.3022
 1083SOL    HW114711   0.649   2.838   8.998 -0.6162 -0.8679 -0.9645
 1083SOL    HW214712   0.502   2.862   8.989 -0.4163 -0.2756  0.5259
 1084SOL     OW14713   3.621   3.761   6.532  0.0529 -0.4257 -0.0742
 1084SOL    HW114714   3.587   3.673   6.543 -1.2199  0.0584 -0.1914
 1084SOL    HW214715   3.541   3.811   6.514 -0.5562 -1.8724 -1.3169
 1085SOL     OW14716   0.121   3.230   2.621 -0.0846 -0.0395  0.2374
 1085SOL    HW114717   0.168   3.189   2.549 -0.6061 -0.9841  0.4471
 1085SOL    HW214718   0.054   3.277   2.571 -1.3102  1.2731  3.0411
 1086SOL     OW14719   0.195   3.289   9.844  0.3442  0.0681  0.0296
 1086SOL    HW114720   0.254   3.215   9.832  2.8421  2.3549 -1.7557
 1086SOL    HW214721   0.256   3.361   9.831 -0.6611  0.4942 -2.3950
 1087SOL     OW14722   2.170   0.574   3.117  0.0885 -0.2597 -0.5274
 1087SOL    HW114723   2.118   0.500   3.149  0.5502 -0.3276  0.0648
 1087SOL    HW214724   2.253   0.556   3.161 -1.4039 -1.5378  1.7235
 1088SOL     OW14725   0.542   4.559   0.901 -0.3038  0.1065 -0.0728
 1088SOL    HW114726   0.578   4.645   0.923  0.1793 -0.4131  1.1521
 1088SOL    HW214727   0.585   4.545   0.817 -1.6430  0.7124 -0.8680
 1089SOL     OW14728   1.443   2.332  12.877 -0.3967 -0.0076  0.1382
 1089SOL    HW114729   1.399   2.285  12.807 -1.7226  0.0981  0.8899
 1089SOL    HW214730   1.426   2.278  12.954 -0.1052  0.5850  0.6245
 1090SOL     OW14731   1.002   2.917  13.767 -0.4986 -0.4597 -0.2309
 1090SOL    HW114732   0.917   2.960  13.767  0.8332  2.1962 -0.5223
 1090SOL    HW214733   1.044   2.999  13.795 -3.1301  0.4848  0.8992
 1091SOL     OW14734   3.581   4.228   3.716 -1.1718  0.2813  0.3145
 1091SOL    HW114735   3.654   4.170   3.696 -1.8110 -0.2492 -0.4496
 1091SOL    HW214736   3.498   4.192   3.683 -1.1030  1.0675 -0.7182
 1092SOL     OW14737   1.270   4.115   5.776 -0.4095 -0.1638 -0.0462
 1092SOL    HW114738   1.318   4.181   5.825  1.7545 -0.4472 -1.8146
 1092SOL    HW214739   1.340   4.059   5.743 -0.9038 -0.5221 -0.4989
 1093SOL     OW14740   3.802   0.879   7.661  0.0311 -0.1984 -0.1489
 1093SOL    HW114741   3.799   0.974   7.655 -0.5677 -0.2621 -0.7957
 1093SOL    HW214742   3.805   0.851   7.570  1.2185 -1.9468  0.4192
 1094SOL     OW14743   3.533   3.732   3.261  0.4316 -0.4062  0.4758
 1094SOL    HW114744   3.560   3.641   3.249  1.8279 -0.3459  3.2464
 1094SOL    HW214745   3.437   3.728   3.264  0.3678  0.5332 -0.2229
 1095SOL     OW14746   3.952   0.863   5.209 -0.1861  0.5396 -0.4240
 1095SOL    HW114747   4.002   0.898   5.283  1.1615 -2.5477  0.0963
 1095SOL    HW214748   3.866   0.879   5.247  0.4688 -1.1482  1.7122
 1096SOL     OW14749   1.423   3.524  13.816  0.2370 -0.1883 -1.0669
 1096SOL    HW114750   1.439   3.599  13.874  0.5460  1.0747 -2.7794
 1096SOL    HW214751   1.327   3.528  13.808  0.0515 -2.8618 -0.0588
 1097SOL     OW14752   3.461   0.146  14.235 -0.2195  0.1424 -0.0126
 1097SOL    HW114753   3.458   0.091  14.314 -0.5092  2.1226  1.3562
 1097SOL    HW214754   3.374   0.185  14.233 -0.1214  0.4792  2.2171
 1098SOL     OW14755   2.734   0.782  16.005 -0.0475  0.4211 -0.0696
 1098SOL    HW114756   2.650   0.803  15.963 -0.5234 -0.8057  0.2658
 1098SOL    HW214757   2.722   0.817  16.093  0.2125  0.8109 -0.1857
 1099SOL     OW14758   0.672   1.440  10.805  0.1872 -0.2821 -0.1731
 1099SOL    HW114759   0.697   1.510  10.864 -2.0187 -2.4843  3.4061
 1099SOL    HW214760   0.723   1.459  10.727 -0.8592  0.7415 -0.6127
 1100SOL     OW14761   0.096   4.235  10.565 -0.2176  0.0297  0.0631
 1100SOL    HW114762   0.182   4.277  10.563 -0.0582 -0.3327 -0.5657
 1100SOL    HW214763   0.113   4.162  10.625 -0.6505 -0.5319 -0.4973
 1101SOL     OW14764   3.534   1.348  13.305  0.5009 -0.0258 -0.5585
 1101SOL    HW114765   3.469   1.407  13.266  1.1846  0.8011 -0.4378
 1101SOL    HW214766   3.489   1.265  13.316  0.7936 -0.4686 -2.5444
 1102SOL     OW14767   0.064   3.790  16.843 -0.8500  0.2566 -0.3820
 1102SOL    HW114768   0.087   3.721  16.781 -1.0630 -1.8872  1.9199
 1102SOL    HW214769   0.044   3.741  16.922 -0.3639 -2.4684 -1.9649
 1103SOL     OW14770   4.540   4.542  13.731  0.1063  0.4441 -0.0712
 1103SOL    HW114771   4.503   4.627  13.710  1.2159  0.9810  0.1522
 1103SOL    HW214772   4.469   4.490  13.692  1.3491 -0.9721 -0.4750
 1104SOL     OW14773   1.472   1.370  10.600 -0.1585 -0.2477  0.1138
 1104SOL    HW114774   1.419   1.419  10.663 -1.2200  1.3802 -2.0780
 1104SOL    HW214775   1.496   1.445  10.546  0.8944 -1.3068 -0.8929
 1105SOL     OW14776   2.502   2.405   3.102 -0.1217  0.0464 -0.1238
 1105SOL    HW114777   2.491   2.338   3.170  0.7029 -0.7571 -0.7912
 1105SOL    HW214778   2.589   2.392   3.064  0.4161  1.4595  0.6070
 1106SOL     OW14779   1.131   1.577   3.844 -0.7974 -0.5968 -0.3538
 1106SOL    HW114780   1.205   1.524   3.815  1.4474  2.2883  0.1249
 1106SOL    HW214781   1.059   1.536   3.796 -1.2062 -1.2220  0.7959
 1107SOL     OW14782   1.754   4.333  12.983  0.2556 -0.4040 -0.2586
 1107SOL    HW114783   1.741   4.241  12.962 -3.2957  0.0520 -0.1491
 1107SOL    HW214784   1.734   4.371  12.897  0.2261  0.7917  0.2672
 1108SOL     OW14785   1.416   3.052   3.334 -0.5380 -0.3780 -0.2569
 1108SOL    HW114786   1.466   2.981   3.293 -0.8028 -0.9124  0.3479
 1108SOL    HW214787   1.340   3.046   3.276  0.7934  1.9003 -2.2441
 1109SOL     OW14788   4.650   1.588  12.272  0.2176  0.0258  1.0088
 1109SOL    HW114789   0.010   1.618  12.225 -1.3183  0.7662 -1.0694
 1109SOL    HW214790   4.685   1.524  12.333 -0.3168 -0.9456  0.2944
 1110SOL     OW14791   0.751   0.598   2.589 -0.0613  0.6363 -0.4327
 1110SOL    HW114792   0.840   0.584   2.557 -0.1517  0.4494 -0.6028
 1110SOL    HW214793   0.691   0.554   2.529 -0.1825  0.1412  0.0555
 1111SOL     OW14794   1.911   1.512   4.379 -0.2060  0.3639 -0.1964
 1111SOL    HW114795   1.990   1.545   4.422  0.1778 -1.1843  0.2769
 1111SOL    HW214796   1.854   1.589   4.385 -0.1962  0.3724 -0.2116
 1112SOL     OW14797   1.775   0.425  12.847 -0.8000 -0.1912  0.2637
 1112SOL    HW114798   1.681   0.409  12.856 -0.6282 -0.9751  0.6770
 1112SOL    HW214799   1.802   0.353  12.790 -0.8152  0.0391 -0.0368
 1113SOL     OW14800   1.992   0.651  15.583 -0.0132  0.3152 -0.5217
 1113SOL    HW114801   1.966   0.682  15.497 -0.1697  2.3402  0.2406
 1113SOL    HW214802   2.044   0.725  15.616  1.8568 -0.8047 -0.9444
 1114SOL     OW14803   1.795   0.912  12.000 -0.0965 -0.6019 -0.0845
 1114SOL    HW114804   1.781   0.884  11.909 -0.3802  1.5250 -0.6839
 1114SOL    HW214805   1.705   0.911  12.034 -0.5182  1.6158 -1.1432
 1115SOL     OW14806   0.177   2.850   0.592  0.2290 -0.1582 -0.2459
 1115SOL    HW114807   0.154   2.804   0.674 -0.8926 -2.1277 -1.6680
 1115SOL    HW214808   0.206   2.930   0.636 -0.1322  0.5012 -1.2151
 1116SOL     OW14809   3.458   3.286   2.648  0.1166 -0.1443  0.2042
 1116SOL    HW114810   3.547   3.318   2.665  0.4965 -0.8945 -0.3729
 1116SOL    HW214811   3.460   3.239   2.565  0.6243  1.9501 -0.9418
 1117SOL     OW14812   2.925   0.630  15.823  0.2981  0.0138  1.0004
 1117SOL    HW114813   2.866   0.642  15.897 -2.4673  2.2669 -1.5406
 1117SOL    HW214814   3.008   0.601  15.860  0.6296  0.0674  0.2954
 1118SOL     OW14815   2.575   0.000   7.648 -0.1247  0.3095  0.0930
 1118SOL    HW114816   2.508   4.695   7.712 -0.4760 -1.4550 -0.8864
 1118SOL    HW214817   2.633   0.069   7.681  0.8938 -0.5362  0.0763
 1119SOL     OW14818   2.155   3.647   3.431  0.6163  0.6002 -0.3157
 1119SOL    HW114819   2.125   3.556   3.425 -1.5150  1.1815  1.5245
 1119SOL    HW214820   2.115   3.684   3.353 -0.1139  0.6724  0.1000
 1120SOL     OW14821   1.210   2.100   1.583  0.3236  0.4816  0.1541
 1120SOL    HW114822   1.303   2.109   1.564  0.1649  1.3733 -0.1889
 1120SOL    HW214823   1.174   2.186   1.564 -0.6468  0.1209  0.3797
 1121SOL     OW14824   0.783   2.605   2.784 -0.0253 -0.2170 -0.2077
 1121SOL    HW114825   0.743   2.520   2.764 -0.0790 -0.4838  0.9826
 1121SOL    HW214826   0.871   2.573   2.801 -0.1776 -0.5217  0.0115
 1122SOL     OW14827   2.316   3.622   1.290 -0.5699  0.0657  0.3034
 1122SOL    HW114828   2.351   3.591   1.373  1.8128 -0.1388 -0.7923
 1122SOL    HW214829   2.382   3.587   1.230  0.7712  0.2329  1.6821
 1123SOL     OW14830   0.985   2.646   5.686 -0.3236  0.1534  0.2687
 1123SOL    HW114831   0.983   2.628   5.592  0.3672  5.0113 -0.6678
 1123SOL    HW214832   0.919   2.582   5.714  0.4822 -0.2869  1.1480
 1124SOL     OW14833   2.573   0.506   7.330 -0.5500  0.6963  0.6099
 1124SOL    HW114834   2.622   0.567   7.275  2.0798 -2.4133 -0.4832
 1124SOL    HW214835   2.609   0.418   7.320  0.3476  0.9495  1.6184
 1125SOL     OW14836   0.351   1.168   6.236  0.6245 -0.1779 -0.1286
 1125SOL    HW114837   0.421   1.103   6.235 -1.4571 -2.4107 -0.1345
 1125SOL    HW214838   0.329   1.164   6.329  0.2154 -1.3257 -0.2703
 1126SOL     OW14839   4.171   4.004   5.794 -0.2385  0.4854  0.5299
 1126SOL    HW114840   4.169   3.964   5.881  0.5754 -0.4157  0.1414
 1126SOL    HW214841   4.247   4.062   5.797  0.0990  0.0231  0.7503
 1127SOL     OW14842   3.495   3.189  17.620 -0.1189  0.3442 -0.1487
 1127SOL    HW114843   3.584   3.168  17.590  0.0552 -0.8774  1.1803
 1127SOL    HW214844   3.515   3.243   0.022  0.0012  0.0715  0.0161
 1128SOL     OW14845   3.908   2.921   3.326 -0.0362 -1.0717  0.4543
 1128SOL    HW114846   3.963   2.873   3.388 -0.2834 -0.9078  0.8012
 1128SOL    HW214847   3.826   2.924   3.375  1.3975  0.7499  2.7522
 1129SOL     OW14848   4.520   1.195   7.837  0.2236  0.1176  0.1336
 1129SOL    HW114849   4.498   1.102   7.835 -1.5405  0.4872  2.1753
 1129SOL    HW214850   4.436   1.241   7.845 -0.6399 -1.5146  0.3846
 1130SOL     OW14851   0.145   2.079   2.094 -0.2865 -0.2248  0.1145
 1130SOL    HW114852   0.209   2.009   2.086  1.6951  1.5202  0.5482
 1130SOL    HW214853   0.148   2.107   2.003 -1.1780  1.8639  0.7222
 1131SOL     OW14854   4.632   2.321   8.542  0.6852 -0.6431  0.8027
 1131SOL    HW114855   4.611   2.228   8.554  0.4260 -0.4265  2.1066
 1131SOL    HW214856   4.690   2.327   8.618 -0.0052  0.3334  1.2395
 1132SOL     OW14857   3.288   3.676   7.863  0.2350 -0.5700  0.0126
 1132SOL    HW114858   3.238   3.602   7.900  1.3845 -0.7595  1.2029
 1132SOL    HW214859   3.278   3.666   7.769  2.5501 -1.1255 -0.1688
 1133SOL     OW14860   3.237   1.988  12.293  0.1822 -0.0679  0.3261
 1133SOL    HW114861   3.163   1.964  12.348 -0.7382 -1.2007 -1.4212
 1133SOL    HW214862   3.194   2.002  12.209  0.3628 -1.4379 -0.0002
 1134SOL     OW14863   2.724   2.169   4.469  0.1222  0.4406 -0.3393
 1134SOL    HW114864   2.644   2.205   4.430  0.4079 -0.3779 -1.6889
 1134SOL    HW214865   2.794   2.215   4.423  0.7347 -0.9114 -0.7547
 1135SOL     OW14866   1.387   3.283   6.413 -0.4060  0.5055 -0.3535
 1135SOL    HW114867   1.397   3.235   6.496  0.9439 -0.4914 -1.0977
 1135SOL    HW214868   1.328   3.356   6.431  1.5577  1.9542  0.1433
 1136SOL     OW14869   3.659   4.294   2.003 -0.5513 -0.1829 -0.3695
 1136SOL    HW114870   3.581   4.242   1.983 -1.2956  1.2019 -1.1426
 1136SOL    HW214871   3.718   4.267   1.933 -1.4793 -1.8753 -0.4895
 1137SOL     OW14872   0.437   1.268   6.765  0.0640 -0.5775  0.3672
 1137SOL    HW114873   0.422   1.361   6.781  0.0735 -0.6889  1.0291
 1137SOL    HW214874   0.520   1.253   6.810  0.6766 -1.3844 -1.0245
 1138SOL     OW14875   1.726   3.352  11.155  0.1273  0.0968 -0.5543
 1138SOL    HW114876   1.669   3.276  11.170  1.6878 -0.9321  0.2034
 1138SOL    HW214877   1.750   3.338  11.064  0.0989  0.1608 -0.5718
 1139SOL     OW14878   2.140   2.870   7.176  0.3700 -0.0248  0.4117
 1139SOL    HW114879   2.125   2.802   7.111 -1.1748 -0.1511  0.8872
 1139SOL    HW214880   2.050   2.896   7.196  0.8248  1.4367  0.6088
 1140SOL     OW14881   2.805   0.201   8.813  0.2573 -0.8240 -0.1926
 1140SOL    HW114882   2.886   0.251   8.825  0.6050 -1.1208 -1.2634
 1140SOL    HW214883   2.833   0.156   8.734 -0.6063  0.1921 -1.0908
 1141SOL     OW14884   1.052   1.389   5.939 -0.0120 -0.0861 -0.0879
 1141SOL    HW114885   1.050   1.462   5.877 -0.3178 -1.0802 -1.2508
 1141SOL    HW214886   0.983   1.333   5.903 -0.2309 -0.7082  1.3392
 1142SOL     OW14887   4.419   2.982  17.313  0.3568 -0.3812  0.1959
 1142SOL    HW114888   4.452   2.898  17.344 -1.7934 -1.0427  0.7069
 1142SOL    HW214889   4.480   3.042  17.356  0.5124  0.3986 -1.0972
 1143SOL     OW14890   2.130   0.126   6.095  0.2123  0.4365  0.1173
 1143SOL    HW114891   2.135   0.219   6.073  2.6399  0.6686  1.5459
 1143SOL    HW214892   2.170   0.077   6.023 -0.2132  0.9564 -0.4699
 1144SOL     OW14893   4.650   2.845   4.165  0.2755 -0.6022 -0.4611
 1144SOL    HW114894   4.623   2.933   4.137  2.5414 -0.0732 -0.9899
 1144SOL    HW214895   4.571   2.791   4.161 -0.9722  1.2091 -0.6196
 1145SOL     OW14896   3.599   4.088  15.697  0.6851  0.2574  0.0244
 1145SOL    HW114897   3.657   4.016  15.722  0.9963  0.1783 -0.9401
 1145SOL    HW214898   3.657   4.136  15.639  1.1758 -0.4484 -0.0730
 1146SOL     OW14899   1.566   2.438   6.666  0.1929 -0.0453  0.0013
 1146SOL    HW114900   1.548   2.353   6.706 -0.1162 -0.8760 -1.8841
 1146SOL    HW214901   1.619   2.478   6.734  0.8829 -0.8386 -0.0723
 1147SOL     OW14902   2.418   4.321   6.349 -0.4499  0.1490 -0.1902
 1147SOL    HW114903   2.485   4.261   6.317 -0.7858 -1.0777  1.4813
 1147SOL    HW214904   2.444   4.322   6.441  0.0132 -0.2517 -0.3174
 1148SOL     OW14905   2.600   4.207   8.389 -0.1671 -0.4633  0.0995
 1148SOL    HW114906   2.590   4.282   8.330  2.2197 -0.3199 -0.1131
 1148SOL    HW214907   2.531   4.229   8.451 -3.0070 -2.3534 -2.3413
 1149SOL     OW14908   0.577   1.258   2.752 -0.2574  0.5813 -0.7378
 1149SOL    HW114909   0.519   1.193   2.714  2.7680 -1.6437 -1.5060
 1149SOL    HW214910   0.637   1.214   2.813 -1.7411 -2.9608 -1.8665
 1150SOL     OW14911   2.461   3.042   5.069  0.1049 -0.1289 -0.4442
 1150SOL    HW114912   2.413   2.993   5.001  0.4437 -1.7522  0.4697
 1150SOL    HW214913   2.408   3.119   5.087 -1.7985 -1.9505  1.8313
 1151SOL     OW14914   3.369   3.647  13.015 -0.0161 -0.7706  0.5017
 1151SOL    HW114915   3.359   3.660  12.921  1.9846 -0.6928  0.3002
 1151SOL    HW214916   3.348   3.730  13.058 -1.8721 -2.1022  2.1898
 1152SOL     OW14917   1.562   0.018   1.199  0.2810 -0.2439 -0.2372
 1152SOL    HW114918   1.508   0.096   1.185  1.1448  0.1743 -1.2474
 1152SOL    HW214919   1.504   4.695   1.263  1.6325 -1.4836  0.1790
 1153SOL     OW14920   0.416   1.857  11.439  0.6191 -0.6741  0.2086
 1153SOL    HW114921   0.449   1.943  11.414 -1.6018  0.3894  0.9322
 1153SOL    HW214922   0.402   1.874  11.533  2.3811  1.0605  0.1497
 1154SOL     OW14923   2.765   1.118   1.436 -0.6132 -0.0426  0.3993
 1154SOL    HW114924   2.712   1.185   1.393 -2.7455 -2.2313 -0.4373
 1154SOL    HW214925   2.844   1.111   1.382 -1.2257 -0.4413 -0.4622
 1155SOL     OW14926   0.464   0.069   8.118  0.4177 -0.2234 -0.1516
 1155SOL    HW114927   0.547   0.087   8.162 -0.0918  0.1249  0.6730
 1155SOL    HW214928   0.481   4.701   8.078  2.4599 -0.6101  1.5718
 1156SOL     OW14929   1.415   0.026   1.966  0.4086  0.4107 -0.7540
 1156SOL    HW114930   1.429   4.669   2.025  0.8210 -0.4044 -1.8798
 1156SOL    HW214931   1.384   0.093   2.026  0.0235  0.7657 -1.3488
 1157SOL     OW14932   0.386   4.286   3.519  0.0414  0.2447 -0.0456
 1157SOL    HW114933   0.342   4.253   3.597  1.0260  2.6144  1.5076
 1157SOL    HW214934   0.320   4.274   3.450  2.1310  0.3694 -2.0560
 1158SOL     OW14935   1.468   2.266   4.398  0.3717  0.1738 -0.9601
 1158SOL    HW114936   1.424   2.323   4.334 -4.6035  0.2509  2.5633
 1158SOL    HW214937   1.424   2.182   4.386  2.2033 -0.8082 -0.6648
 1159SOL     OW14938   2.565   0.943   7.409  0.1978  0.0478 -0.1453
 1159SOL    HW114939   2.553   1.037   7.425 -4.6607 -0.2088 -2.2800
 1159SOL    HW214940   2.479   0.919   7.374 -0.7731  1.1850  1.4265
 1160SOL     OW14941   3.312   1.578   6.135 -0.4019 -0.2101 -0.6491
 1160SOL    HW114942   3.270   1.649   6.184  2.2750  1.8895 -1.4110
 1160SOL    HW214943   3.255   1.572   6.059 -0.4374  1.5544 -0.7583
 1161SOL     OW14944   1.539   0.214   8.440  0.4193  0.5914 -0.4617
 1161SOL    HW114945   1.459   0.160   8.440  0.0593  1.1281 -0.9151
 1161SOL    HW214946   1.529   0.257   8.525 -0.7724 -1.0934  0.2626
 1162SOL     OW14947   3.784   4.487   4.394  0.0957  1.0615  0.1155
 1162SOL    HW114948   3.692   4.510   4.409  0.3855  1.0336  1.8901
 1162SOL    HW214949   3.814   4.552   4.330  0.7616  0.4119 -0.2314
 1163SOL     OW14950   3.543   3.757  11.005 -0.1082  0.3177  0.0251
 1163SOL    HW114951   3.471   3.787  10.950  0.4677  1.4075 -0.1281
 1163SOL    HW214952   3.594   3.838  11.002 -0.8623  0.7576 -1.0943
 1164SOL     OW14953   2.970   0.464   5.900 -0.3620 -0.2678  0.1903
 1164SOL    HW114954   3.042   0.502   5.850 -1.5999 -2.9009 -3.6362
 1164SOL    HW214955   2.948   0.392   5.841  1.4025 -0.4830 -0.1998
 1165SOL     OW14956   0.221   1.120  14.837  0.0998 -0.2186  0.1687
 1165SOL    HW114957   0.204   1.049  14.776 -0.1199  0.0783 -0.1124
 1165SOL    HW214958   0.186   1.199  14.796 -3.0170 -1.2732  0.8273
 1166SOL     OW14959   2.304   2.765   1.378 -0.3774  0.0669  0.5930
 1166SOL    HW114960   2.297   2.728   1.466  1.2363  1.5929  1.3456
 1166SOL    HW214961   2.213   2.795   1.366 -0.3401 -0.0560  0.0415
 1167SOL     OW14962   3.387   0.409  11.687  0.0534 -0.3518  0.0304
 1167SOL    HW114963   3.349   0.355  11.618 -0.2392 -0.0921 -0.0087
 1167SOL    HW214964   3.316   0.390  11.748 -0.7546  0.6833 -0.5876
 1168SOL     OW14965   0.268   0.890   7.437 -0.0792 -0.0511 -0.9077
 1168SOL    HW114966   0.255   0.949   7.363  0.2157 -1.3227 -1.9593
 1168SOL    HW214967   0.364   0.886   7.433 -0.0246 -0.8404  1.2021
 1169SOL     OW14968   3.927   0.921   4.925  0.2067 -0.1756 -0.1144
 1169SOL    HW114969   3.898   1.012   4.917  0.1750 -0.0752  1.1142
 1169SOL    HW214970   3.928   0.905   5.019  1.5057 -1.2102 -0.3119
 1170SOL     OW14971   2.833   0.297   9.404 -0.3439 -0.1748  0.4807
 1170SOL    HW114972   2.842   0.205   9.380  0.1237  1.0676 -4.0226
 1170SOL    HW214973   2.888   0.332   9.334  0.5383  0.3237  1.4267
 1171SOL     OW14974   1.073   3.649   8.299  0.3991  0.0372 -0.4170
 1171SOL    HW114975   1.120   3.676   8.379 -1.9461 -0.0637  0.9923
 1171SOL    HW214976   1.000   3.711   8.302  1.9832  2.0720 -3.2172
 1172SOL     OW14977   4.343   3.144   6.804  0.2767 -0.3138 -0.3222
 1172SOL    HW114978   4.435   3.160   6.824  0.2894 -0.0951 -0.5491
 1172SOL    HW214979   4.322   3.106   6.889 -3.0026 -0.3247 -1.1393
 1173SOL     OW14980   1.536   2.678   2.734 -0.0194  0.4405  0.0108
 1173SOL    HW114981   1.548   2.740   2.807 -0.0702  2.8265 -2.0188
 1173SOL    HW214982   1.625   2.646   2.723 -0.1870 -0.6690  1.8972
 1174SOL     OW14983   3.347   4.216   8.735 -0.4890  0.2328 -0.0327
 1174SOL    HW114984   3.418   4.213   8.671 -0.4099  2.3533 -0.0381
 1174SOL    HW214985   3.341   4.312   8.740  2.8976  0.2988  2.1390
 1175SOL     OW14986   4.110   3.053   6.247 -0.3545 -0.5467  0.7062
 1175SOL    HW114987   4.150   3.135   6.274  1.8232 -1.4089  0.1518
 1175SOL    HW214988   4.023   3.084   6.221  0.7513  1.5287 -0.4958
 1176SOL     OW14989   2.330   4.564   3.450 -0.1576  0.3023 -0.2943
 1176SOL    HW114990   2.373   4.490   3.408  0.3859 -0.3359  1.3981
 1176SOL    HW214991   2.251   4.517   3.476  0.1454 -1.1736 -2.0840
 1177SOL     OW14992   4.393   2.741   4.174  0.0842 -0.1087  0.0329
 1177SOL    HW114993   4.312   2.693   4.153 -0.7788  2.1338 -1.7993
 1177SOL    HW214994   4.345   2.811   4.218  0.3701  0.5067 -0.6291
 1178SOL     OW14995   3.943   1.530   5.676  0.6678 -0.3483  0.2259
 1178SOL    HW114996   3.970   1.611   5.633 -0.9683 -0.0211 -0.1926
 1178SOL    HW214997   3.886   1.567   5.743  0.0336 -1.3429  0.2375
 1179SOL     OW14998   0.719   0.941  13.540 -0.4936  0.3394  0.5166
 1179SOL    HW114999   0.800   0.973  13.579 -0.1470  0.1328 -0.0361
 1179SOL    HW215000   0.708   0.855  13.582 -1.6987  0.1646 -0.1527
 1180SOL     OW15001   3.279   4.582   5.288 -0.3144  0.4547  0.3122
 1180SOL    HW115002   3.278   4.575   5.192  2.0501 -1.9105  0.4650
 1180SOL    HW215003   3.212   4.645   5.312 -0.3967  1.2361 -1.9658
 1181SOL     OW15004   2.319   1.477   3.797  0.4177 -0.2384 -0.5129
 1181SOL    HW115005   2.396   1.424   3.775  0.4270  0.2533 -1.6669
 1181SOL    HW215006   2.250   1.418   3.829  0.1297  0.9555  1.0477
 1182SOL     OW15007   2.871   1.830   7.827 -0.0359  0.5531  0.4592
 1182SOL    HW115008   2.922   1.800   7.751  1.9306  1.6372  1.3524
 1182SOL    HW215009   2.806   1.762   7.843 -0.1159  0.1197 -1.6414
 1183SOL     OW15010   2.440   0.838   7.056  0.5553 -0.2680 -0.0766
 1183SOL    HW115011   2.373   0.906   7.056  0.3424 -0.4858  2.7549
 1183SOL    HW215012   2.524   0.884   7.051  0.5004 -0.1160  0.3842
 1184SOL     OW15013   3.398   0.334   4.751 -0.1033  0.6677 -0.0161
 1184SOL    HW115014   3.355   0.248   4.750  3.0320 -0.8863 -0.0436
 1184SOL    HW215015   3.329   0.384   4.795 -1.4386 -2.0476  1.0432
 1185SOL     OW15016   3.505   0.241  14.528 -0.8199 -0.0816 -0.0492
 1185SOL    HW115017   3.537   0.304  14.463 -0.6690 -1.4688 -1.3238
 1185SOL    HW215018   3.418   0.277  14.541 -1.0096 -0.6103  0.1604
 1186SOL     OW15019   0.672   0.089  16.812  0.3971 -0.1861  0.4157
 1186SOL    HW115020   0.669   0.170  16.863 -1.2855 -0.2878  0.4871
 1186SOL    HW215021   0.646   0.029  16.883 -0.0312  0.4128  0.7664
 1187SOL     OW15022   0.123   0.543  12.849 -0.3152  0.5404  0.0417
 1187SOL    HW115023   0.058   0.582  12.908 -1.4505  1.9479 -2.1349
 1187SOL    HW215024   0.127   0.619  12.790 -0.0454  0.1115 -0.4967
 1188SOL     OW15025   2.766   2.461  13.243  0.1819  0.3544  0.2236
 1188SOL    HW115026   2.821   2.383  13.237  0.1623  0.3312  0.3415
 1188SOL    HW215027   2.821   2.539  13.234  1.7318 -0.7894 -0.1343
 1189SOL     OW15028   1.833   1.397  10.769 -0.3333 -0.4454  0.2405
 1189SOL    HW115029   1.900   1.465  10.767  0.1657 -0.9571 -0.0285
 1189SOL    HW215030   1.752   1.442  10.741 -1.5300 -1.9445  1.2853
 1190SOL     OW15031   3.200   1.174   6.031 -0.2933  0.6175  0.4156
 1190SOL    HW115032   3.292   1.182   6.005 -0.5454  2.3932  0.1326
 1190SOL    HW215033   3.204   1.082   6.057 -0.4988 -0.0049 -1.7208
 1191SOL     OW15034   2.042   3.354   4.277 -0.6734 -0.0339 -0.2296
 1191SOL    HW115035   2.041   3.258   4.273 -3.4333  0.0396 -1.5292
 1191SOL    HW215036   2.021   3.371   4.185 -2.1439  2.9349  0.6826
 1192SOL     OW15037   2.009   3.007  12.431  0.3017  0.0090 -0.5803
 1192SOL    HW115038   2.045   3.049  12.509 -1.9344  0.6972  0.0740
 1192SOL    HW215039   1.975   2.926  12.468  1.3064 -0.3724 -0.5071
 1193SOL     OW15040   2.990   0.128   2.263  0.1675 -0.9869 -0.1131
 1193SOL    HW115041   2.932   0.054   2.281 -0.5945 -0.6835 -1.3343
 1193SOL    HW215042   2.939   0.208   2.277  0.1745 -1.1946  1.0438
 1194SOL     OW15043   1.284   3.854   5.360 -0.5091 -0.2656  0.4498
 1194SOL    HW115044   1.339   3.903   5.299 -1.3703  0.4665  0.2550
 1194SOL    HW215045   1.332   3.775   5.387  1.8090  1.1528  0.5134
 1195SOL     OW15046   3.659   0.215  11.357 -0.1239  0.2453  0.0149
 1195SOL    HW115047   3.579   0.266  11.345 -1.0382 -0.9485  0.9292
 1195SOL    HW215048   3.650   0.163  11.278 -0.0051  0.1801  0.0444
 1196SOL     OW15049   2.359   2.351  15.828  0.1306 -0.1260  0.1390
 1196SOL    HW115050   2.323   2.407  15.897  0.1381 -1.1603  0.9608
 1196SOL    HW215051   2.354   2.412  15.753  0.2790  0.3561  0.5181
 1197SOL     OW15052   3.577   1.768   6.068  0.2429 -0.2465 -0.5433
 1197SOL    HW115053   3.575   1.819   6.149  1.6318  0.3909 -0.9153
 1197SOL    HW215054   3.620   1.825   6.004  2.0745  0.2156  1.0845
 1198SOL     OW15055   3.925   1.576   2.981 -0.3216  0.3840 -0.4566
 1198SOL    HW115056   3.877   1.591   2.900  1.4786  0.5976 -1.4908
 1198SOL    HW215057   4.013   1.571   2.944  0.0692  0.1196  0.5135
 1199SOL     OW15058   2.740   2.923  17.181 -0.2608  0.2563  0.2238
 1199SOL    HW115059   2.750   2.956  17.091 -2.8674 -0.8568 -0.4798
 1199SOL    HW215060   2.785   2.839  17.182  0.6032  0.6975 -1.7804
 1200SOL     OW15061   1.671   2.930   1.009 -0.8167  0.4063 -0.3886
 1200SOL    HW115062   1.642   2.933   0.917  0.0631  0.2856 -0.6694
 1200SOL    HW215063   1.597   2.971   1.052 -0.6243 -0.3531  0.6633
 1201SOL     OW15064   3.570   4.617   8.189 -0.3212 -0.8337  0.6402
 1201SOL    HW115065   3.525   4.660   8.116  1.6823 -1.2377 -0.8310
 1201SOL    HW215066   3.590   4.695   8.240  1.1077 -1.1176  0.5142
 1202SOL     OW15067   1.342   1.346   3.349  0.4149 -0.0810  0.0746
 1202SOL    HW115068   1.373   1.354   3.259 -1.5973  0.7848 -0.5488
 1202SOL    HW215069   1.361   1.256   3.375 -0.7983 -1.4146 -3.5822
 1203SOL     OW15070   1.107   3.817  12.333 -0.1176 -0.2318  0.0008
 1203SOL    HW115071   1.014   3.798  12.321  0.0432 -0.7457 -0.4317
 1203SOL    HW215072   1.131   3.740  12.385 -0.1297  0.0012  0.3494
 1204SOL     OW15073   0.344   3.861  15.894  0.5532 -0.2702 -0.6808
 1204SOL    HW115074   0.274   3.897  15.949  0.7290 -1.7409  0.5012
 1204SOL    HW215075   0.426   3.882  15.938  0.1486 -2.6140  1.1610
 1205SOL     OW15076   0.591   0.505   6.449  0.1413 -0.0714  0.9022
 1205SOL    HW115077   0.591   0.557   6.529  3.3283 -0.7414  1.3394
 1205SOL    HW215078   0.651   0.557   6.396 -0.0810 -0.9738 -0.2447
 1206SOL     OW15079   3.136   2.391  16.583 -0.5040  0.1213  0.2126
 1206SOL    HW115080   3.194   2.462  16.611 -0.6767 -0.0986  1.1342
 1206SOL    HW215081   3.143   2.393  16.488 -1.3120 -0.8336  0.1364
 1207SOL     OW15082   2.532   3.951   5.992 -0.4883 -0.6158  0.1229
 1207SOL    HW115083   2.514   3.940   5.899  0.7616 -2.2595  0.0797
 1207SOL    HW215084   2.493   4.036   6.012 -1.0327 -0.8427  0.0406
 1208SOL     OW15085   4.687   3.102   6.505 -0.4320 -0.5655  0.3701
 1208SOL    HW115086   4.631   3.162   6.555  0.7039  0.7649  0.0420
 1208SOL    HW215087   4.636   3.109   6.424  1.6671  0.8256 -0.8191
 1209SOL     OW15088   3.755   2.181   6.388 -0.5206 -0.4072 -0.1433
 1209SOL    HW115089   3.745   2.095   6.346 -0.9963 -0.8204  0.8134
 1209SOL    HW215090   3.842   2.209   6.361 -0.0759 -2.7957 -1.1391
 1210SOL     OW15091   4.330   2.087  16.199 -0.0006  0.8960 -0.3898
 1210SOL    HW115092   4.344   2.003  16.156 -1.6154 -0.6989  2.2527
 1210SOL    HW215093   4.335   2.053  16.288  2.5184  0.2908 -0.7609
 1211SOL     OW15094   2.533   3.475  16.556  0.3990  0.6995  0.3463
 1211SOL    HW115095   2.629   3.467  16.552  0.0584 -3.2534 -0.4287
 1211SOL    HW215096   2.514   3.451  16.466 -0.1894 -2.0916  1.1889
 1212SOL     OW15097   0.531   3.427   5.441  0.3061  0.0753  0.0495
 1212SOL    HW115098   0.514   3.438   5.347 -1.6163 -0.2568  0.3600
 1212SOL    HW215099   0.615   3.470   5.457  0.8337 -0.3306 -1.5675
 1213SOL     OW15100   2.832   3.129   3.117  0.1095 -0.1275  0.0175
 1213SOL    HW115101   2.815   3.035   3.113  0.6140 -0.1630 -1.4557
 1213SOL    HW215102   2.875   3.143   3.032 -0.3620 -2.0385 -0.5359
 1214SOL     OW15103   2.302   0.911   5.577  0.1521 -0.5877 -0.2308
 1214SOL    HW115104   2.356   0.843   5.618 -1.6440 -0.3648  2.5632
 1214SOL    HW215105   2.303   0.887   5.485 -1.1612  0.3312 -0.4845
 1215SOL     OW15106   2.690   1.603  15.631  0.2859 -0.0082 -0.6561
 1215SOL    HW115107   2.758   1.640  15.687 -0.4793  1.0075 -0.3928
 1215SOL    HW215108   2.739   1.544  15.574 -1.5072 -0.6785 -1.5237
 1216SOL     OW15109   2.296   0.121   6.972  0.0238  0.8340  0.1533
 1216SOL    HW115110   2.293   0.169   6.889  1.7251 -1.4283 -1.2454
 1216SOL    HW215111   2.336   0.185   7.031 -0.6756  1.4562 -0.0494
 1217SOL     OW15112   2.950   0.692  16.838 -0.4572 -0.0151 -0.3452
 1217SOL    HW115113   2.955   0.622  16.903 -0.7692  1.0471  0.8147
 1217SOL    HW215114   2.856   0.692  16.818 -0.6984  1.8906  0.8312
 1218SOL     OW15115   2.710   0.238   5.871  0.0893 -0.0889 -0.6842
 1218SOL    HW115116   2.702   0.142   5.877 -1.1782  0.0997  0.5794
 1218SOL    HW215117   2.741   0.266   5.956 -1.8394 -1.7108  0.5616
 1219SOL     OW15118   3.399   1.777  10.899  0.1262  0.0827  0.2843
 1219SOL    HW115119   3.360   1.845  10.844 -0.2288 -0.7696 -0.5294
 1219SOL    HW215120   3.338   1.791  10.971  0.5348 -0.5468  0.7562
 1220SOL     OW15121   3.093   3.047   6.936 -0.0781  0.1151  0.1640
 1220SOL    HW115122   3.091   3.102   7.014  0.3764 -2.7246  2.1577
 1220SOL    HW215123   3.086   2.956   6.964 -1.6120 -0.2387 -1.3172
 1221SOL     OW15124   3.566   0.367   5.321 -0.3719 -0.4259 -0.3897
 1221SOL    HW115125   3.540   0.407   5.238 -0.7209  1.9280  0.8448
 1221SOL    HW215126   3.613   0.289   5.294 -1.5261 -1.1036 -0.4209
 1222SOL     OW15127   2.565   3.144   8.876  0.1274  0.3752 -0.1882
 1222SOL    HW115128   2.484   3.096   8.890  2.5140 -3.2352  1.4166
 1222SOL    HW215129   2.630   3.084   8.913 -1.3654 -1.2931 -0.2839
 1223SOL     OW15130   4.036   3.772   7.049  0.0835 -0.1722  0.5423
 1223SOL    HW115131   4.077   3.686   7.060  0.0295 -0.4202 -1.1152
 1223SOL    HW215132   4.108   3.833   7.036  1.7598 -1.9843  1.2319
 1224SOL     OW15133   3.564   1.350  13.622 -0.3463  0.1045 -0.1450
 1224SOL    HW115134   3.475   1.315  13.622 -0.5368  0.6272 -1.6693
 1224SOL    HW215135   3.562   1.372  13.715 -0.8751  0.6368 -0.2858
 1225SOL     OW15136   2.142   1.727   2.321 -0.1891  0.1218  0.3619
 1225SOL    HW115137   2.169   1.819   2.315  3.0351 -0.7768  1.0628
 1225SOL    HW215138   2.228   1.684   2.322  0.4034  1.2445 -1.8866
 1226SOL     OW15139   4.655   0.268   7.087  0.8901 -0.1603  0.5494
 1226SOL    HW115140   4.629   0.273   6.995 -3.0110 -0.6202  1.6578
 1226SOL    HW215141   4.618   0.347   7.125  0.6912  0.5963 -1.1763
 1227SOL     OW15142   2.081   0.082   3.122  0.7627 -0.0443 -0.0568
 1227SOL    HW115143   2.062   0.167   3.162 -3.1801 -1.2993  0.7236
 1227SOL    HW215144   2.172   0.065   3.146 -0.0203 -0.7603  2.4672
 1228SOL     OW15145   0.372   1.577   2.067  0.2205 -0.3570 -0.0391
 1228SOL    HW115146   0.369   1.483   2.084  1.8090  0.0112  2.2335
 1228SOL    HW215147   0.386   1.582   1.972 -1.1272 -2.7712 -0.3518
 1229SOL     OW15148   0.983   0.717  17.221  0.3025  0.1661 -0.0911
 1229SOL    HW115149   0.919   0.758  17.163 -0.0224  1.9067  1.4910
 1229SOL    HW215150   1.053   0.783  17.225  2.8041 -2.3849 -1.7118
 1230SOL     OW15151   2.837   0.282   2.457 -0.5759  0.1665  0.3114
 1230SOL    HW115152   2.844   0.377   2.451  1.1888  0.0733  1.1967
 1230SOL    HW215153   2.742   0.280   2.470 -0.5172  1.1219  0.8956
 1231SOL     OW15154   3.442   3.851   8.388 -0.0775 -0.1874 -0.2774
 1231SOL    HW115155   3.471   3.858   8.480 -0.5961  0.9161 -0.2028
 1231SOL    HW215156   3.350   3.844   8.413 -0.2973 -0.6596 -1.2536
 1232SOL     OW15157   1.511   4.475   9.613 -0.6651  0.1227  0.1369
 1232SOL    HW115158   1.538   4.541   9.676 -1.5772  0.9750 -0.3614
 1232SOL    HW215159   1.484   4.534   9.542  0.4223  0.8676  0.3492
 1233SOL     OW15160   4.667   4.397   4.609  0.2224  0.0094 -0.0831
 1233SOL    HW115161   0.034   4.387   4.566  0.2011 -0.6456  0.0232
 1233SOL    HW215162   4.611   4.328   4.572 -0.4773  1.9482 -2.6710
 1234SOL     OW15163   3.824   4.519   6.702 -0.2735 -0.3848  0.0480
 1234SOL    HW115164   3.811   4.433   6.741  0.5395 -0.2883  0.5186
 1234SOL    HW215165   3.917   4.509   6.681 -0.5236 -0.0040 -1.2509
 1235SOL     OW15166   2.575   4.478   3.783  0.1308  0.2437 -0.2310
 1235SOL    HW115167   2.571   4.437   3.870 -0.2654  1.9147  0.5351
 1235SOL    HW215168   2.617   4.562   3.797 -1.8274  1.5897 -2.5091
 1236SOL     OW15169   3.989   2.115  15.021  0.0570 -0.2019 -0.3059
 1236SOL    HW115170   4.047   2.171  14.969 -2.9880  0.4308 -3.0218
 1236SOL    HW215171   3.925   2.183  15.042 -0.5861 -1.0660  0.5471
 1237SOL     OW15172   0.266   3.963   9.275 -0.3330  0.6098  0.1251
 1237SOL    HW115173   0.241   4.021   9.347 -1.1166 -1.0325  1.1919
 1237SOL    HW215174   0.351   4.001   9.254 -0.2665 -0.2983 -1.2342
 1238SOL     OW15175   1.917   1.880   9.800  0.4415 -0.0994  0.2897
 1238SOL    HW115176   1.869   1.797   9.798 -1.0509  0.8529 -1.8462
 1238SOL    HW215177   1.896   1.928   9.880  1.0853  1.1603 -0.2966
 1239SOL     OW15178   0.236   2.532   8.547  0.2259  0.3205 -0.4232
 1239SOL    HW115179   0.268   2.616   8.514  0.4809  0.0378 -0.8922
 1239SOL    HW215180   0.262   2.517   8.638 -2.3069 -0.5092  0.1722
 1240SOL     OW15181   4.676   3.456   6.506  0.3160 -0.4213 -0.4986
 1240SOL    HW115182   0.020   3.407   6.451  0.4937 -1.0809  0.2891
 1240SOL    HW215183   0.017   3.476   6.579  0.1356 -0.2425 -0.4056
 1241SOL     OW15184   2.442   0.208   5.413  0.0732  0.3631 -0.2062
 1241SOL    HW115185   2.380   0.135   5.418  2.4975 -1.4045  3.5787
 1241SOL    HW215186   2.445   0.231   5.505 -0.4708  0.2499 -0.1602
 1242SOL     OW15187   0.414   2.135  10.737 -0.0638 -0.1598  0.3410
 1242SOL    HW115188   0.363   2.146  10.656  1.2635 -2.6017 -0.8349
 1242SOL    HW215189   0.345   2.102  10.793 -0.2993  3.0439  1.8985
 1243SOL     OW15190   3.764   0.015  11.538 -0.6952  0.5910 -0.3905
 1243SOL    HW115191   3.759   0.101  11.495  1.7419  1.4649  1.1088
 1243SOL    HW215192   3.859   0.010  11.545 -0.6779  0.6029 -0.6217
 1244SOL     OW15193   2.439   2.711   9.340 -0.0992 -0.0201  0.3329
 1244SOL    HW115194   2.368   2.760   9.300  2.1891  1.6722 -1.6482
 1244SOL    HW215195   2.383   2.659   9.398  1.5883 -3.1481 -0.8176
 1245SOL     OW15196   0.415   0.235   3.568 -0.4374 -0.0263  0.7416
 1245SOL    HW115197   0.480   0.298   3.538 -1.2496  1.1645  1.4702
 1245SOL    HW215198   0.347   0.237   3.501  3.0738  0.0244 -2.8074
 1246SOL     OW15199   4.000   3.525  11.835  0.2779  0.1764  0.4983
 1246SOL    HW115200   3.938   3.521  11.762  0.0808 -0.9333  0.7236
 1246SOL    HW215201   4.050   3.601  11.806  1.1577 -1.2842 -1.7956
 1247SOL     OW15202   1.916   1.516   3.721  0.1764  0.3790 -0.1431
 1247SOL    HW115203   1.913   1.445   3.786  1.0968  0.3392 -0.1458
 1247SOL    HW215204   1.959   1.590   3.763 -0.2858  0.9756 -0.7252
 1248SOL     OW15205   4.413   1.512  14.988 -0.1870  0.3180  0.4191
 1248SOL    HW115206   4.361   1.591  14.979 -1.4605 -0.5780 -0.1569
 1248SOL    HW215207   4.504   1.540  14.980  0.4254 -0.7680  3.4899
 1249SOL     OW15208   0.716   1.182   7.264  0.8467  0.2211 -0.0266
 1249SOL    HW115209   0.708   1.206   7.171  2.6575 -0.0036 -0.2306
 1249SOL    HW215210   0.802   1.141   7.273  0.3952 -1.0965 -1.5596
 1250SOL     OW15211   0.775   4.617   9.240 -0.5558  0.6137 -0.5489
 1250SOL    HW115212   0.687   4.579   9.240 -0.4029  0.2922  1.7950
 1250SOL    HW215213   0.747   4.677   9.171 -1.5743 -0.9641 -1.5183
 1251SOL     OW15214   0.662   2.313  11.450 -0.1356  0.0638 -0.1548
 1251SOL    HW115215   0.731   2.369  11.485 -0.3563 -0.2373  0.7574
 1251SOL    HW215216   0.636   2.364  11.373 -2.3360  0.0488  0.5831
 1252SOL     OW15217   1.981   4.357   2.320 -0.0771  0.1618  0.5992
 1252SOL    HW115218   1.910   4.332   2.260  1.0011 -0.2442 -0.5127
 1252SOL    HW215219   1.938   4.369   2.405 -0.5591 -0.7675  0.4814
 1253SOL     OW15220   2.679   0.227   6.971  0.3555  0.7990  0.1693
 1253SOL    HW115221   2.615   0.294   6.950 -0.4388 -0.3315 -1.0545
 1253SOL    HW215222   2.686   0.228   7.067  1.7338  1.8640  0.0648
 1254SOL     OW15223   2.079   3.486   5.361  0.3452 -0.2621 -0.0690
 1254SOL    HW115224   2.145   3.447   5.418  0.3667 -0.2240 -0.0672
 1254SOL    HW215225   2.001   3.498   5.415  1.7127 -0.9130  2.0096
 1255SOL     OW15226   3.824   3.390  14.719  0.5743  0.4158  0.3311
 1255SOL    HW115227   3.861   3.302  14.709  1.0533  0.5060  1.2942
 1255SOL    HW215228   3.818   3.416  14.627 -1.0505  1.5296  0.7457
 1256SOL     OW15229   0.206   1.795   1.739 -0.1372  0.8736 -0.0114
 1256SOL    HW115230   0.265   1.723   1.761 -2.2498 -0.8386  0.0710
 1256SOL    HW215231   0.267   1.869   1.739  0.7383  0.1509  2.2120
 1257SOL     OW15232   2.570   3.574   1.768 -0.2155  0.3442  0.4625
 1257SOL    HW115233   2.603   3.641   1.708 -0.0784  2.1221  2.5274
 1257SOL    HW215234   2.652   3.538   1.800  1.5114  1.1345 -3.0531
 1258SOL     OW15235   0.439   0.733   4.309 -0.5568 -0.0642  0.3197
 1258SOL    HW115236   0.492   0.810   4.330  0.8875 -1.1816  0.8409
 1258SOL    HW215237   0.511   0.670   4.295 -0.1353  0.2712  0.9694
 1259SOL     OW15238   4.540   0.565   2.416  0.4570  0.1678  0.3049
 1259SOL    HW115239   4.510   0.623   2.486 -0.0990 -0.9431  0.9920
 1259SOL    HW215240   4.457   0.519   2.406  0.7062 -0.1203 -0.4196
 1260SOL     OW15241   2.182   3.746   2.346 -0.2612 -0.1208 -0.1628
 1260SOL    HW115242   2.096   3.747   2.305 -0.2726 -0.6179 -0.1475
 1260SOL    HW215243   2.196   3.841   2.348  2.0787 -0.4283 -1.0088
 1261SOL     OW15244   0.093   1.432  12.426  0.1805  0.0265  0.0564
 1261SOL    HW115245   0.101   1.374  12.501 -1.0737 -2.2125 -1.5294
 1261SOL    HW215246   0.101   1.368  12.355  1.5227  0.6190 -0.3305
 1262SOL     OW15247   2.648   4.575   1.357 -0.3073 -0.4601  0.6460
 1262SOL    HW115248   2.688   4.490   1.337  0.2317 -0.2992  1.0345
 1262SOL    HW215249   2.715   4.609   1.416 -2.8621  4.0478  0.9293
 1263SOL     OW15250   2.654   0.334   6.503  0.3071 -0.1690 -0.3997
 1263SOL    HW115251   2.623   0.377   6.423 -3.2904 -1.0035  0.5488
 1263SOL    HW215252   2.578   0.280   6.522  1.0290 -1.4467 -1.1377
 1264SOL     OW15253   1.717   4.526   3.518  0.5122  0.7516  0.1233
 1264SOL    HW115254   1.660   4.500   3.590  0.2785 -2.0551 -1.0694
 1264SOL    HW215255   1.672   4.479   3.448 -0.7441 -0.4786  1.7594
 1265SOL     OW15256   2.139   0.577   9.345  0.1038  0.2533  0.1775
 1265SOL    HW115257   2.154   0.670   9.326  0.0090  0.3127  0.3965
 1265SOL    HW215258   2.160   0.541   9.259  1.0605  2.1215 -0.3887
 1266SOL     OW15259   2.624   0.149  12.475  0.2751 -0.3880 -0.0588
 1266SOL    HW115260   2.635   0.158  12.570 -1.2156  0.3214  0.0417
 1266SOL    HW215261   2.679   0.221  12.443  0.2718  0.0144  0.8197
 1267SOL     OW15262   1.887   3.624   9.105 -0.1924 -0.4912 -0.2151
 1267SOL    HW115263   1.862   3.561   9.172 -3.0207  0.1965 -0.6422
 1267SOL    HW215264   1.803   3.659   9.075 -0.2953  1.8411  2.7511
 1268SOL     OW15265   1.760   0.951   2.728  0.1305 -0.0553 -0.0875
 1268SOL    HW115266   1.792   0.894   2.799  1.7226  0.8948 -0.0526
 1268SOL    HW215267   1.686   0.900   2.694  0.7410 -0.3202 -1.0041
 1269SOL     OW15268   2.861   1.441  10.771  0.0690 -0.1761  0.2983
 1269SOL    HW115269   2.819   1.409  10.851 -0.5799 -0.9726 -0.3623
 1269SOL    HW215270   2.867   1.360  10.720  0.1523  1.1791 -1.8027
 1270SOL     OW15271   0.835   0.610   5.471  0.2402  0.1192  0.6692
 1270SOL    HW115272   0.787   0.646   5.397 -0.7615  0.4790  1.5061
 1270SOL    HW215273   0.789   0.659   5.539  0.9096 -0.3589  1.4758
 1271SOL     OW15274   0.288   2.452  14.890  0.5969 -0.4645  0.0130
 1271SOL    HW115275   0.294   2.537  14.934 -0.5534  0.1366 -0.9661
 1271SOL    HW215276   0.229   2.405  14.948 -1.6280  0.3380 -1.5711
 1272SOL     OW15277   1.899   2.017   1.302 -0.4385 -0.0073  0.3613
 1272SOL    HW115278   1.881   2.065   1.220 -2.1511  1.6062  1.6532
 1272SOL    HW215279   1.992   2.024   1.320 -0.0247 -0.2207 -1.7077
 1273SOL     OW15280   2.206   0.317  16.291  0.7282  0.3033 -0.5671
 1273SOL    HW115281   2.260   0.276  16.359  2.0855  1.8204 -0.7015
 1273SOL    HW215282   2.161   0.380  16.347  0.8345 -1.1004  1.0767
 1274SOL     OW15283   1.328   4.258   6.227 -1.0115 -0.1033 -0.7303
 1274SOL    HW115284   1.350   4.345   6.260  1.5853 -1.8886  2.2535
 1274SOL    HW215285   1.405   4.215   6.189 -0.8887 -1.0389  0.5762
 1275SOL     OW15286   2.808   2.884   2.993 -0.1614  0.2597  0.1361
 1275SOL    HW115287   2.869   2.853   3.060 -1.6288 -0.4121  1.1513
 1275SOL    HW215288   2.774   2.798   2.972  0.8860 -0.3932  1.0744
 1276SOL     OW15289   0.650   2.763   0.344  0.1075  0.1632 -0.1516
 1276SOL    HW115290   0.564   2.777   0.383 -0.2695  0.3879 -1.0810
 1276SOL    HW215291   0.670   2.846   0.301  2.2887 -0.0128  0.4938
 1277SOL     OW15292   3.115   2.895  11.753 -0.2473 -0.5313 -0.4016
 1277SOL    HW115293   3.065   2.928  11.678 -0.9878  1.0868  0.8129
 1277SOL    HW215294   3.044   2.865  11.809  1.3457  0.4163  2.1061
 1278SOL     OW15295   1.797   3.516   5.037 -0.2233  0.8570 -0.1120
 1278SOL    HW115296   1.789   3.485   4.947  0.9155  0.4450 -0.0770
 1278SOL    HW215297   1.875   3.568   5.017  1.4784 -0.5979  2.7238
 1279SOL     OW15298   0.689   1.174   1.728  0.4097  0.1162  0.1952
 1279SOL    HW115299   0.745   1.127   1.666  0.6251  0.6070  0.0231
 1279SOL    HW215300   0.683   1.111   1.800 -0.6039  1.7099  1.4901
 1280SOL     OW15301   2.981   1.247  12.695 -0.7020  0.0769  0.0360
 1280SOL    HW115302   2.956   1.334  12.665  1.6454  0.6965 -0.1401
 1280SOL    HW215303   2.892   1.213  12.706 -0.5342 -0.5514 -0.5537
 1281SOL     OW15304   1.756   1.826  17.590  0.2349  0.3690  0.0563
 1281SOL    HW115305   1.758   1.836   0.011 -0.4028  1.5866 -0.0608
 1281SOL    HW215306   1.709   1.744  17.578  2.4773 -0.8519 -0.2342
 1282SOL     OW15307   2.420   3.799   3.333  0.3569  0.6888  0.2479
 1282SOL    HW115308   2.502   3.765   3.367 -0.0329 -0.8650 -0.3854
 1282SOL    HW215309   2.358   3.733   3.363  1.3019  0.4231  1.6113
 1283SOL     OW15310   2.105   2.289   2.211  0.6068 -1.0385 -0.6615
 1283SOL    HW115311   2.079   2.198   2.224 -4.6578  0.4946 -0.2668
 1283SOL    HW215312   2.031   2.318   2.158 -0.3652 -1.0868  0.6732
 1284SOL     OW15313   1.314   4.438  12.349  0.0055 -0.4878 -0.3713
 1284SOL    HW115314   1.238   4.418  12.402 -0.3452 -3.0336 -1.8402
 1284SOL    HW215315   1.312   4.363  12.289  0.7763 -3.1794  3.0330
 1285SOL     OW15316   1.828   2.650   5.247  0.0649  0.4802  0.4430
 1285SOL    HW115317   1.759   2.623   5.186 -0.4344  2.4677  0.1388
 1285SOL    HW215318   1.809   2.742   5.267  1.4317  0.7740  0.3669
 1286SOL     OW15319   4.375   1.796  13.156  0.2507  0.5395  0.0885
 1286SOL    HW115320   4.373   1.845  13.238  1.0129 -0.4089  0.6731
 1286SOL    HW215321   4.284   1.769  13.149  0.9844 -1.6236 -1.1517
 1287SOL     OW15322   1.917   1.877   8.218 -0.6535 -0.1972 -0.1501
 1287SOL    HW115323   1.921   1.907   8.309 -1.2707  0.9767 -0.5116
 1287SOL    HW215324   1.873   1.792   8.213 -1.7094  0.3218  0.3499
 1288SOL     OW15325   4.390   2.557   2.553 -0.4426  0.0338 -0.6011
 1288SOL    HW115326   4.351   2.644   2.554 -1.5992 -0.5130  2.5702
 1288SOL    HW215327   4.442   2.565   2.474 -1.1362 -0.3003 -1.0954
 1289SOL     OW15328   3.150   3.257   4.788 -0.4739  0.6393  0.3204
 1289SOL    HW115329   3.071   3.205   4.776 -0.1354  0.1234  0.3323
 1289SOL    HW215330   3.140   3.343   4.747  0.3354  1.7992  2.5587
 1290SOL     OW15331   1.919   0.662   8.254  0.2701  0.2729 -0.0350
 1290SOL    HW115332   1.994   0.606   8.277  0.0391 -0.0296 -0.0132
 1290SOL    HW215333   1.848   0.600   8.272 -0.5009  0.8601 -1.1318
 1291SOL     OW15334   4.262   4.165   1.512 -0.2447  0.0067  0.5175
 1291SOL    HW115335   4.249   4.179   1.418  0.8262 -1.2847  0.1740
 1291SOL    HW215336   4.234   4.248   1.549 -0.2841  0.2406 -0.0328
 1292SOL     OW15337   1.382   0.312  12.726 -0.0836  0.6466  0.0816
 1292SOL    HW115338   1.315   0.372  12.693 -0.3608 -0.6232 -1.6627
 1292SOL    HW215339   1.430   0.361  12.793  0.5572 -0.7557  0.6405
 1293SOL     OW15340   4.581   3.586  11.794  0.2977 -0.1470  0.0021
 1293SOL    HW115341   4.670   3.560  11.817 -0.3745 -1.3085  1.2634
 1293SOL    HW215342   4.535   3.565  11.875  1.7575  1.9230  1.3886
 1294SOL     OW15343   0.912   0.315   9.784  0.2938 -0.3749  0.5212
 1294SOL    HW115344   0.890   0.352   9.698 -0.6772  0.6132  1.1831
 1294SOL    HW215345   0.821   0.285   9.794  0.0521  0.4904  1.0093
 1295SOL     OW15346   0.734   0.937   5.627  0.4909 -0.4740  0.0919
 1295SOL    HW115347   0.640   0.956   5.637  1.1292  0.8414  3.4512
 1295SOL    HW215348   0.742   0.886   5.708  3.1201  0.3005  0.3161
 1296SOL     OW15349   0.289   3.891   2.623 -0.3820 -0.1901 -0.4757
 1296SOL    HW115350   0.260   3.843   2.700  0.1866 -0.1154 -0.2211
 1296SOL    HW215351   0.381   3.871   2.609 -1.0476 -2.3856 -1.6779
 1297SOL     OW15352   2.629   2.901  11.698 -0.8770  0.3348  0.0815
 1297SOL    HW115353   2.539   2.930  11.684 -0.5721  1.0112 -0.4783
 1297SOL    HW215354   2.675   2.946  11.628 -2.2904 -0.5751 -1.4317
 1298SOL     OW15355   0.102   4.263   8.846 -0.2462 -0.2769  0.5712
 1298SOL    HW115356   0.078   4.185   8.895 -3.5207  0.6260  0.4374
 1298SOL    HW215357   0.150   4.300   8.920  0.3805  1.1084 -0.5160
 1299SOL     OW15358   1.100   2.113  16.709 -0.0172  0.0804  0.3501
 1299SOL    HW115359   1.154   2.034  16.718  0.3962  0.3736  0.3910
 1299SOL    HW215360   1.041   2.099  16.783 -0.9443  0.7218 -0.2717
 1300SOL     OW15361   3.070   4.617   4.290  0.1242 -0.0158 -0.3602
 1300SOL    HW115362   3.100   4.564   4.364 -1.4873 -0.0385  0.2684
 1300SOL    HW215363   3.131   4.690   4.300 -1.8109  1.4544  0.7673
 1301SOL     OW15364   4.259   1.002  14.087  0.1396 -0.2221 -0.5583
 1301SOL    HW115365   4.184   1.030  14.035  0.1963  1.5313  0.3062
 1301SOL    HW215366   4.214   0.974  14.167  1.7314  0.8556  0.7069
 1302SOL     OW15367   3.129   4.260   6.644 -0.4198  0.0552  0.1767
 1302SOL    HW115368   3.138   4.346   6.686 -0.6730 -0.3708  1.0817
 1302SOL    HW215369   3.163   4.198   6.707  1.2707 -0.0080 -0.8023
 1303SOL     OW15370   1.317   0.730   6.907 -0.4806  0.2029  0.7214
 1303SOL    HW115371   1.339   0.640   6.933  2.1646  0.0478 -2.0232
 1303SOL    HW215372   1.271   0.759   6.986 -1.3111  0.7302  0.0494
 1304SOL     OW15373   3.668   4.383   6.102  0.4868  0.3529 -0.0936
 1304SOL    HW115374   3.647   4.291   6.087 -0.9550  0.2776  2.3928
 1304SOL    HW215375   3.657   4.398   6.196  0.0863  0.6519 -0.1898
 1305SOL     OW15376   4.171   0.995  10.883 -0.1237 -0.2876 -0.1194
 1305SOL    HW115377   4.114   1.037  10.947  1.1832  2.5016 -0.7842
 1305SOL    HW215378   4.257   1.005  10.925  0.4598  0.8456 -1.5770
 1306SOL     OW15379   2.401   3.532   3.788 -0.5088  0.1242 -0.3987
 1306SOL    HW115380   2.364   3.446   3.770 -0.9974  0.6923 -2.0809
 1306SOL    HW215381   2.342   3.583   3.733 -0.3975 -0.8668 -1.4424
 1307SOL     OW15382   4.474   2.790  14.736  0.3526 -0.2556  0.6926
 1307SOL    HW115383   4.405   2.750  14.790  0.2159  1.2053  1.6057
 1307SOL    HW215384   4.510   2.857  14.794  1.8167 -1.0128  0.6584
 1308SOL     OW15385   0.894   2.520  14.347  0.5975  0.4437  0.3244
 1308SOL    HW115386   0.935   2.542  14.431 -1.1952  0.4237  1.2071
 1308SOL    HW215387   0.959   2.551  14.283  0.4402  0.3144  0.1055
 1309SOL     OW15388   2.009   2.906   8.352 -0.5711  0.0596  0.2658
 1309SOL    HW115389   2.080   2.957   8.315  0.4319 -0.6171  1.2601
 1309SOL    HW215390   2.032   2.929   8.442 -2.1760  0.6790  0.5246
 1310SOL     OW15391   1.601   3.489   3.612 -0.6496  0.4448 -0.0427
 1310SOL    HW115392   1.568   3.579   3.620  1.2856  1.1464  0.0088
 1310SOL    HW215393   1.668   3.487   3.544 -1.3663 -2.3830 -0.6407
 1311SOL     OW15394   1.297   2.443   3.502  0.7877 -0.3237  0.3975
 1311SOL    HW115395   1.374   2.405   3.459  0.3537 -2.6017  1.6225
 1311SOL    HW215396   1.321   2.534   3.520  1.0066  0.0667 -1.8550
 1312SOL     OW15397   1.367   0.075   8.062 -0.2748 -0.0431 -0.4601
 1312SOL    HW115398   1.295   0.018   8.034  1.3029 -1.6831 -1.1973
 1312SOL    HW215399   1.411   0.029   8.133 -1.1309  0.1687  0.2010
 1313SOL     OW15400   1.672   0.048  15.934  0.7165  0.0579  0.2414
 1313SOL    HW115401   1.766   0.052  15.915  0.5202  0.1537 -0.7258
 1313SOL    HW215402   1.654   4.675  15.956 -0.6719  0.0571 -0.8814
 1314SOL     OW15403   0.382   0.673  12.648  0.3445 -0.4779  0.5045
 1314SOL    HW115404   0.292   0.705  12.659  0.5875  0.6058 -0.7772
 1314SOL    HW215405   0.391   0.612  12.722 -0.0852  3.0623  3.4676
 1315SOL     OW15406   2.189   1.931   2.713  0.2601 -0.1267  0.1989
 1315SOL    HW115407   2.229   2.011   2.678 -2.6328  0.7446 -1.1914
 1315SOL    HW215408   2.216   1.940   2.805  1.7758 -0.0112 -0.2597
 1316SOL     OW15409   2.164   0.390   5.965  0.2712  0.2328 -0.2678
 1316SOL    HW115410   2.135   0.388   5.873 -0.0890 -1.0052 -0.1176
 1316SOL    HW215411   2.260   0.399   5.960  0.2701  0.7226  0.6435
 1317SOL     OW15412   1.371   3.844  13.203 -0.4582 -0.0553  0.2210
 1317SOL    HW115413   1.420   3.765  13.227 -1.9873 -0.8047  0.8836
 1317SOL    HW215414   1.371   3.832  13.108  3.4362  1.0924  0.0854
 1318SOL     OW15415   1.896   1.731  13.488 -0.2672  0.3336 -0.6513
 1318SOL    HW115416   1.849   1.721  13.571 -0.3721 -0.6220 -0.8272
 1318SOL    HW215417   1.963   1.663  13.495 -1.5046 -0.8932 -0.9709
 1319SOL     OW15418   3.059   3.626   6.330  0.1012 -0.0067  0.5545
 1319SOL    HW115419   3.121   3.569   6.284 -1.1605 -1.4705  0.6592
 1319SOL    HW215420   3.087   3.717   6.319  1.4334 -0.1225  2.8958
 1320SOL     OW15421   0.117   2.711   7.162  0.3645 -0.0295  0.4823
 1320SOL    HW115422   0.057   2.678   7.095  1.3696  1.4049 -1.1175
 1320SOL    HW215423   0.072   2.793   7.182  0.9252  0.4530 -0.2536
 1321SOL     OW15424   1.933   2.392   1.016 -0.3782 -0.0121 -0.2791
 1321SOL    HW115425   1.880   2.415   0.940  0.7479  2.9900 -0.1554
 1321SOL    HW215426   1.989   2.469   1.023 -1.5586  0.8384 -0.2913
 1322SOL     OW15427   2.607   4.030   3.303  0.7218 -0.4087  0.1975
 1322SOL    HW115428   2.676   3.965   3.292  1.8415  0.8041  0.0401
 1322SOL    HW215429   2.542   3.976   3.347  1.0563 -1.2849 -0.3823
 1323SOL     OW15430   0.558   3.776  11.197 -0.1161 -0.5257  0.1607
 1323SOL    HW115431   0.633   3.717  11.204 -0.1946 -0.4004  2.2261
 1323SOL    HW215432   0.590   3.855  11.240 -0.5650  0.4099 -1.2460
 1324SOL     OW15433   3.971   1.748   6.286  0.0834  0.0052  0.2552
 1324SOL    HW115434   4.022   1.776   6.210  0.7556  0.8708  1.0131
 1324SOL    HW215435   3.984   1.655   6.272  0.3840  0.2262 -0.9230
 1325SOL     OW15436   3.998   0.060   1.344 -0.3361  0.0664 -0.3198
 1325SOL    HW115437   3.904   0.078   1.349 -0.0535  1.7646 -1.0729
 1325SOL    HW215438   4.010   0.128   1.278  0.4776 -0.2729 -0.5184
 1326SOL     OW15439   0.323   3.061   2.491 -0.6829  0.1233  0.0805
 1326SOL    HW115440   0.360   2.981   2.453  0.4945  0.0574  1.3642
 1326SOL    HW215441   0.399   3.098   2.536 -0.6076  2.1458 -1.7006
 1327SOL     OW15442   4.488   3.602   2.462 -0.0045 -0.4812 -0.3238
 1327SOL    HW115443   4.582   3.600   2.445  0.2398 -0.3391  0.9735
 1327SOL    HW215444   4.460   3.674   2.405 -1.0535 -0.8847 -0.3231
 1328SOL     OW15445   3.379   0.299   3.080 -0.0113 -0.0774  0.0267
 1328SOL    HW115446   3.347   0.388   3.099 -1.7848 -0.3847 -1.5504
 1328SOL    HW215447   3.294   0.257   3.068 -0.2208  0.6274 -0.9607
 1329SOL     OW15448   1.496   1.942   2.651 -0.0783 -0.4823  0.2096
 1329SOL    HW115449   1.530   1.915   2.736 -2.8919 -0.6125  1.2962
 1329SOL    HW215450   1.540   2.027   2.647 -0.0745 -0.5019 -0.1121
 1330SOL     OW15451   4.299   3.266   5.564 -0.5446 -0.0203  0.1697
 1330SOL    HW115452   4.271   3.203   5.498 -0.0673 -0.0557 -0.0023
 1330SOL    HW215453   4.237   3.339   5.559 -0.5119 -0.1883 -2.2796
 1331SOL     OW15454   1.337   4.031   9.488 -0.1525  0.1123 -0.2022
 1331SOL    HW115455   1.329   4.094   9.560  1.8778 -0.3044  0.3914
 1331SOL    HW215456   1.276   4.071   9.426 -0.8405 -0.9447 -0.2072
 1332SOL     OW15457   2.950   2.969   2.754  0.2236 -0.1932  0.5092
 1332SOL    HW115458   2.952   2.904   2.683  0.5392 -0.3533  0.6630
 1332SOL    HW215459   2.885   2.926   2.809  1.9541 -0.9724  1.9603
 1333SOL     OW15460   0.386   1.753   3.208 -0.2515 -0.0033  0.1410
 1333SOL    HW115461   0.352   1.690   3.143  1.4263  0.9295 -1.6545
 1333SOL    HW215462   0.454   1.705   3.255 -0.6325 -0.7650 -0.0730
 1334SOL     OW15463   1.115   1.112  10.957 -0.1805 -0.1809 -0.6166
 1334SOL    HW115464   1.128   1.137  11.049 -1.9933  1.4817 -0.8089
 1334SOL    HW215465   1.203   1.075  10.954 -0.3474 -0.5459 -1.0047
 1335SOL     OW15466   3.093   0.638   7.129 -0.4223  0.2442  0.2969
 1335SOL    HW115467   3.139   0.718   7.155 -0.7986  0.8365 -0.8355
 1335SOL    HW215468   3.032   0.666   7.061 -0.6967 -0.3711  0.2883
 1336SOL     OW15469   3.184   0.917   6.097 -0.1578  0.0715 -0.3676
 1336SOL    HW115470   3.192   0.939   6.190  0.8786 -0.2365 -0.3825
 1336SOL    HW215471   3.251   0.850   6.086 -0.9113 -1.3052  3.5578
 1337SOL     OW15472   3.662   2.419   5.515 -0.2980  0.6018  0.0968
 1337SOL    HW115473   3.753   2.436   5.494 -0.4843  2.1711  0.6067
 1337SOL    HW215474   3.657   2.328   5.485  0.0580 -0.2240  2.5655
 1338SOL     OW15475   0.479   1.245   7.353  0.4188 -0.4575  0.6767
 1338SOL    HW115476   0.560   1.205   7.323  0.4401  1.0007 -1.2204
 1338SOL    HW215477   0.422   1.233   7.277 -1.1158 -2.1535  2.0678
 1339SOL     OW15478   1.303   4.251   3.270 -0.0814  0.3619 -0.0405
 1339SOL    HW115479   1.284   4.200   3.191  0.7940  1.2660 -0.8391
 1339SOL    HW215480   1.235   4.315   3.248 -0.3543  0.2479  0.4768
 1340SOL     OW15481   4.185   2.757  12.174 -0.0699 -0.6831  0.2004
 1340SOL    HW115482   4.106   2.706  12.158 -1.5370  1.4507  0.6387
 1340SOL    HW215483   4.155   2.809  12.248  0.6712  0.2215 -0.1326
 1341SOL     OW15484   0.210   3.896  10.469  0.1113 -0.4012  0.0908
 1341SOL    HW115485   0.203   3.861  10.380  0.9957 -0.7390  0.1624
 1341SOL    HW215486   0.238   3.811  10.503 -1.2487 -1.2779 -0.9650
 1342SOL     OW15487   3.703   0.856   4.735 -0.7001 -0.8317  0.2147
 1342SOL    HW115488   3.683   0.867   4.828 -1.1861  0.6282 -0.0599
 1342SOL    HW215489   3.631   0.797   4.714 -0.4074 -1.6841  1.5979
 1343SOL     OW15490   3.335   2.953  17.631 -0.6999 -0.2664 -0.0186
 1343SOL    HW115491   3.275   2.970   0.030 -1.3801  1.1591 -0.9062
 1343SOL    HW215492   3.393   3.028  17.643  1.8295 -2.3583  0.7471
 1344SOL     OW15493   1.283   3.428   9.762  0.0714 -0.1638 -0.7058
 1344SOL    HW115494   1.351   3.493   9.778  0.6606 -0.3260 -2.5581
 1344SOL    HW215495   1.206   3.478   9.737  1.2079  1.6608 -0.5340
 1345SOL     OW15496   0.131   0.250   8.345 -0.0796  0.2382 -0.2297
 1345SOL    HW115497   0.145   0.187   8.415  1.1862  0.3788 -0.3567
 1345SOL    HW215498   0.039   0.245   8.320 -0.9382 -0.5823  3.0614
 1346SOL     OW15499   2.774   2.192   5.153 -0.0209 -0.3946  0.0685
 1346SOL    HW115500   2.717   2.120   5.181  1.5149 -1.4738  0.3985
 1346SOL    HW215501   2.729   2.267   5.193  0.3626 -0.0242 -0.1836
 1347SOL     OW15502   3.552   3.549   7.051  0.1433  0.7366  1.2202
 1347SOL    HW115503   3.611   3.617   7.019 -0.0500 -0.3385 -1.4384
 1347SOL    HW215504   3.477   3.541   6.991  1.9534 -0.7779 -0.8331
 1348SOL     OW15505   3.115   0.425   4.802  0.5094  0.8213  0.1267
 1348SOL    HW115506   3.160   0.492   4.751 -0.8521  1.5854 -0.0806
 1348SOL    HW215507   3.023   0.440   4.781  0.8284  0.8343 -1.2555
 1349SOL     OW15508   1.890   3.066   6.267  0.0570  0.2940  0.0227
 1349SOL    HW115509   1.930   3.038   6.184  0.6883  0.5047  0.2587
 1349SOL    HW215510   1.971   3.073   6.318  0.1415 -1.5733  0.1524
 1350SOL     OW15511   0.804   1.705   4.543 -0.0340  0.3237 -0.2249
 1350SOL    HW115512   0.801   1.651   4.464  0.0363 -2.4857  1.6847
 1350SOL    HW215513   0.711   1.716   4.561 -0.5444 -0.2711 -2.5135
 1351SOL     OW15514   3.130   1.840   4.586 -0.1939  0.5716 -0.4384
 1351SOL    HW115515   3.118   1.921   4.537 -0.1524  0.8583  0.0324
 1351SOL    HW215516   3.223   1.828   4.568  0.0441  0.4698  0.9052
 1352SOL     OW15517   1.450   4.631   1.420 -0.7266 -0.8882  0.0257
 1352SOL    HW115518   1.470   4.539   1.400  1.6339 -0.1178 -1.1055
 1352SOL    HW215519   1.473   4.649   1.511  1.6971  2.0784 -1.1808
 1353SOL     OW15520   2.289   2.222   5.166  0.6328  0.3015 -0.2863
 1353SOL    HW115521   2.323   2.153   5.108  0.6686 -0.8642  1.1316
 1353SOL    HW215522   2.271   2.164   5.240 -0.0008  3.8995  2.3231
 1354SOL     OW15523   3.785   2.953   4.998 -0.1797  0.0891 -0.6049
 1354SOL    HW115524   3.820   2.997   5.076 -1.1327 -0.2657  0.0182
 1354SOL    HW215525   3.728   2.888   5.038 -1.5719 -0.0413 -2.7465
 1355SOL     OW15526   0.761   3.640  15.964  0.1598  0.0024  0.0839
 1355SOL    HW115527   0.801   3.564  16.008 -0.5217 -0.0722  0.5711
 1355SOL    HW215528   0.737   3.595  15.883 -1.2715 -2.0086  1.6100
 1356SOL     OW15529   4.315   0.084   5.634  0.2780  0.1316 -0.0559
 1356SOL    HW115530   4.248   0.035   5.681 -0.4841 -0.2253 -1.5141
 1356SOL    HW215531   4.256   0.149   5.594  0.2845  0.8872  1.1651
 1357SOL     OW15532   0.893   3.322   7.797  0.2206 -0.1798 -0.1039
 1357SOL    HW115533   0.847   3.268   7.862  0.5700 -0.1111  0.2018
 1357SOL    HW215534   0.922   3.260   7.730 -0.2597 -1.5454  0.9365
 1358SOL     OW15535   3.452   4.540   6.761  0.5302 -0.2095  0.5483
 1358SOL    HW115536   3.521   4.499   6.814  0.6384  0.4392  0.9095
 1358SOL    HW215537   3.460   4.635   6.776  0.6044 -0.2048  0.4804
 1359SOL     OW15538   0.941   4.455  15.767  0.1083  0.6515  0.4169
 1359SOL    HW115539   0.943   4.483  15.859  4.5937  0.1100  0.5225
 1359SOL    HW215540   0.947   4.361  15.784 -0.6104  0.5960  0.3460
 1360SOL     OW15541   1.497   2.694   0.092  0.1727  0.3633  0.4322
 1360SOL    HW115542   1.477   2.787   0.087  0.7912  0.4101 -1.0463
 1360SOL    HW215543   1.516   2.673   0.000  0.7484  1.8909  0.2000
 1361SOL     OW15544   2.202   2.269  10.436 -0.0185  0.1023 -0.4394
 1361SOL    HW115545   2.280   2.239  10.390 -0.0063 -0.7142  0.1233
 1361SOL    HW215546   2.255   2.315  10.501 -0.5778 -0.4683  0.4145
 1362SOL     OW15547   2.087   3.901   1.713  0.5640  0.0373 -0.1880
 1362SOL    HW115548   2.107   3.906   1.619 -1.2687 -0.3283 -0.5979
 1362SOL    HW215549   2.175   3.913   1.749  1.7181 -2.8386 -2.0503
 1363SOL     OW15550   2.115   1.251   8.734  0.2367  0.1481 -0.9952
 1363SOL    HW115551   2.130   1.298   8.652  0.4615  0.5169 -0.7374
 1363SOL    HW215552   2.171   1.174   8.725 -2.0134 -1.5864 -0.2148
 1364SOL     OW15553   2.722   0.672  16.657 -0.3349 -0.9010  0.1293
 1364SOL    HW115554   2.725   0.677  16.562 -0.8929  2.3835  0.2789
 1364SOL    HW215555   2.635   0.712  16.667 -0.3590 -0.8539 -0.2881
 1365SOL     OW15556   1.395   1.188   2.549 -0.3787  0.4704  0.1899
 1365SOL    HW115557   1.457   1.225   2.613  1.3289 -0.5382 -0.8867
 1365SOL    HW215558   1.313   1.223   2.583 -0.6516 -0.0352  0.0502
 1366SOL     OW15559   4.411   0.705   4.249 -0.6395  0.4694 -0.2314
 1366SOL    HW115560   4.404   0.610   4.237 -1.8355  0.1529  2.9749
 1366SOL    HW215561   4.353   0.734   4.179  0.0941 -0.0953 -1.0814
 1367SOL     OW15562   4.152   0.361  13.064  1.0408  0.4070  0.7754
 1367SOL    HW115563   4.202   0.429  13.018  0.3216  0.7078  0.4428
 1367SOL    HW215564   4.161   0.288  13.003 -0.2721  1.4617 -0.6570
 1368SOL     OW15565   1.165   0.553   6.319 -0.8018 -0.1794  0.3553
 1368SOL    HW115566   1.084   0.508   6.342 -0.8776 -0.0815  0.2815
 1368SOL    HW215567   1.183   0.585   6.407 -2.2832  0.1333  0.5321
 1369SOL     OW15568   3.586   3.072   2.106 -0.2771 -0.3572  0.3746
 1369SOL    HW115569   3.546   3.147   2.061 -0.2513  0.9135  2.4762
 1369SOL    HW215570   3.561   3.085   2.197  0.0109 -0.1182  0.4190
 1370SOL     OW15571   1.269   2.499  16.055 -0.0754  0.1719 -0.2045
 1370SOL    HW115572   1.309   2.420  16.092 -0.8174  1.4708  3.3202
 1370SOL    HW215573   1.259   2.477  15.962 -0.3407 -0.4646 -0.0266
 1371SOL     OW15574   2.851   2.671  17.157 -0.2722 -0.8961 -0.0506
 1371SOL    HW115575   2.841   2.679  17.062  2.1874 -0.3289 -0.2743
 1371SOL    HW215576   2.946   2.682  17.164 -0.4109  1.4526 -1.9140
 1372SOL     OW15577   1.929   4.044   6.582 -0.1811 -0.4208  0.3834
 1372SOL    HW115578   2.012   4.083   6.610  0.9754 -3.0502  0.5758
 1372SOL    HW215579   1.883   4.096   6.647 -2.1387 -0.6174 -0.8297
 1373SOL     OW15580   2.446   4.171   0.925 -0.5174  0.5563  0.3012
 1373SOL    HW115581   2.431   4.155   1.018 -2.4202  0.6577  0.0228
 1373SOL    HW215582   2.540   4.160   0.921 -1.0471 -3.2729 -1.1375
 1374SOL     OW15583   2.871   2.089  10.620 -0.6646  0.0827  0.2075
 1374SOL    HW115584   2.824   2.032  10.682 -0.9090 -1.9646 -1.8606
 1374SOL    HW215585   2.827   2.052  10.544  2.5941  0.3402 -1.7995
 1375SOL     OW15586   3.949   2.213  12.153  0.3191  0.8820 -0.7654
 1375SOL    HW115587   3.867   2.259  12.137 -0.1601 -0.0970 -1.1109
 1375SOL    HW215588   4.012   2.282  12.137 -0.5688  1.8572 -0.0319
 1376SOL     OW15589   3.234   4.049   7.215 -0.0894 -0.2238  0.3012
 1376SOL    HW115590   3.319   4.020   7.184 -1.0997  0.4074 -3.0827
 1376SOL    HW215591   3.179   4.040   7.137 -0.6079  0.6521  0.5707
 1377SOL     OW15592   4.308   2.252  17.383  0.3097 -0.5074  0.5487
 1377SOL    HW115593   4.394   2.210  17.388  0.1614 -0.6843  1.7137
 1377SOL    HW215594   4.248   2.195  17.430 -0.7706 -0.5456 -0.8970
 1378SOL     OW15595   3.607   2.108   3.291 -0.0205 -0.2611  0.0365
 1378SOL    HW115596   3.539   2.050   3.328  0.9518 -0.4614  1.5230
 1378SOL    HW215597   3.573   2.140   3.207  0.2482 -0.0096  0.0227
 1379SOL     OW15598   0.264   1.619   3.009  0.1642  0.4437  0.4098
 1379SOL    HW115599   0.201   1.650   2.943 -0.7867 -1.8042  0.2826
 1379SOL    HW215600   0.309   1.549   2.962  0.3700 -0.1504  1.4909
 1380SOL     OW15601   3.728   3.497   4.695  0.0876 -0.2805  0.8012
 1380SOL    HW115602   3.657   3.435   4.712 -0.0412 -0.1263  0.8297
 1380SOL    HW215603   3.712   3.510   4.602  2.7174  1.6807  0.6089
 1381SOL     OW15604   0.856   1.771   7.370 -0.6133  0.1398 -0.5105
 1381SOL    HW115605   0.901   1.687   7.386 -1.1099  0.0556  0.4416
 1381SOL    HW215606   0.833   1.769   7.278 -2.9191  1.8419  0.0367
 1382SOL     OW15607   0.301   4.535   1.539  0.0412  0.3761 -0.3834
 1382SOL    HW115608   0.228   4.561   1.595 -0.3976 -1.8912  0.0765
 1382SOL    HW215609   0.260   4.532   1.452  1.5159  0.1827 -1.0775
 1383SOL     OW15610   3.108   2.587  15.156  0.2698 -0.1593 -0.3834
 1383SOL    HW115611   3.113   2.666  15.211 -1.1808  0.0436 -0.5640
 1383SOL    HW215612   3.146   2.610  15.071  1.6806  1.6187  0.7263
 1384SOL     OW15613   2.825   0.730   4.052 -0.8171 -0.4073 -0.1082
 1384SOL    HW115614   2.817   0.732   4.147  0.4093 -1.8422  0.0136
 1384SOL    HW215615   2.735   0.740   4.022  0.3203 -0.8637 -3.7066
 1385SOL     OW15616   1.766   1.692  13.265 -0.0729  0.0728  0.5337
 1385SOL    HW115617   1.808   1.743  13.334  0.1304  0.4543  0.1244
 1385SOL    HW215618   1.848   1.664  13.226 -0.5940  1.1072 -1.2883
 1386SOL     OW15619   1.452   0.725   0.163 -0.0829  0.0340  0.5792
 1386SOL    HW115620   1.447   0.818   0.187  1.5515 -0.1366  1.6407
 1386SOL    HW215621   1.546   0.707   0.170  0.0241 -0.3056 -1.7901
 1387SOL     OW15622   0.464   3.751   5.556 -0.0937 -0.4311  0.0783
 1387SOL    HW115623   0.433   3.794   5.635  1.6757  1.4641 -0.2697
 1387SOL    HW215624   0.543   3.803   5.544 -0.0289 -0.9864 -2.0244
 1388SOL     OW15625   0.793   2.358   4.794  0.4999  0.4674  0.1910
 1388SOL    HW115626   0.856   2.430   4.794  1.0639 -0.0253  0.3019
 1388SOL    HW215627   0.814   2.314   4.712 -2.5608  0.3802 -0.5464
 1389SOL     OW15628   3.144   0.380  11.804 -0.0475 -0.3479 -0.2230
 1389SOL    HW115629   3.053   0.352  11.794 -0.6473  1.5796 -0.0232
 1389SOL    HW215630   3.147   0.391  11.899  2.7473 -1.2838 -0.1746
 1390SOL     OW15631   0.070   2.873   9.629  0.1008 -0.4499 -0.3198
 1390SOL    HW115632   0.126   2.837   9.698  0.9318 -0.1318 -0.8301
 1390SOL    HW215633   0.070   2.967   9.647  3.0291 -0.2242 -1.4794
 1391SOL     OW15634   1.414   3.868   8.899  0.3562  0.0421  0.1169
 1391SOL    HW115635   1.340   3.866   8.959 -2.5770 -1.2933 -3.5422
 1391SOL    HW215636   1.404   3.798   8.834 -0.5936  0.1175  0.1847
 1392SOL     OW15637   1.195   2.592  15.778 -0.6639  0.4310 -0.0919
 1392SOL    HW115638   1.120   2.563  15.725 -0.6472 -1.9217  1.1922
 1392SOL    HW215639   1.249   2.611  15.701 -0.6848 -0.6878 -0.3832
 1393SOL     OW15640   0.343   0.543   5.322 -0.5664  0.0954  0.6614
 1393SOL    HW115641   0.325   0.449   5.330 -0.7735  0.2170  1.6368
 1393SOL    HW215642   0.341   0.549   5.227 -0.7047 -0.0521  0.6548
 1394SOL     OW15643   3.658   1.430  16.051  0.2567 -0.4607  0.5990
 1394SOL    HW115644   3.586   1.432  15.988  1.2589  2.5816 -0.4601
 1394SOL    HW215645   3.655   1.519  16.087 -1.3160  0.6479 -2.2727
 1395SOL     OW15646   0.650   1.640   3.287 -0.3368  0.5720  0.0956
 1395SOL    HW115647   0.685   1.610   3.203  0.2793  1.5324  0.0186
 1395SOL    HW215648   0.719   1.700   3.312  1.5440 -1.6071  0.1301
 1396SOL     OW15649   1.497   3.949   7.407 -0.3341  0.3317  0.1143
 1396SOL    HW115650   1.582   3.969   7.367  0.1438 -0.0757  0.9444
 1396SOL    HW215651   1.516   3.890   7.480 -2.6054  1.6763  1.7760
 1397SOL     OW15652   3.284   0.074   1.328 -0.4158 -0.2107 -0.0372
 1397SOL    HW115653   3.289   0.117   1.413  0.1318  1.4214 -0.8947
 1397SOL    HW215654   3.207   0.119   1.294 -1.6448 -3.1746 -1.1888
 1398SOL     OW15655   0.575   1.611   5.451  0.0210 -0.3957  0.4845
 1398SOL    HW115656   0.603   1.597   5.541  0.5736 -0.8136  0.2479
 1398SOL    HW215657   0.523   1.532   5.433 -0.2790 -0.1841  0.4100
 1399SOL     OW15658   0.787   4.120   8.946  0.4500  0.7651  0.0507
 1399SOL    HW115659   0.771   4.085   8.858 -1.6137 -0.6113  0.9844
 1399SOL    HW215660   0.801   4.033   8.984  1.2032  1.1247  0.5965
 1400SOL     OW15661   4.361   4.672  13.362 -0.4342  0.9838  0.0722
 1400SOL    HW115662   4.379   0.006  13.441 -0.6323 -0.7336  1.2443
 1400SOL    HW215663   4.446   4.628  13.364 -0.1585  1.5781  1.5547
 1401SOL     OW15664   1.213   2.814  16.318  0.2285 -0.1883 -0.1538
 1401SOL    HW115665   1.253   2.756  16.383 -1.6076 -1.7087 -0.4040
 1401SOL    HW215666   1.121   2.794  16.332 -0.0343 -0.7108 -2.5661
 1402SOL     OW15667   2.657   1.267   0.965  0.1317  0.7732 -0.0570
 1402SOL    HW115668   2.670   1.181   1.003 -0.4058 -0.3385 -2.3648
 1402SOL    HW215669   2.571   1.247   0.928 -0.0681 -0.4880  1.1045
 1403SOL     OW15670   0.489   1.036  14.748 -0.2426  0.6550 -0.3654
 1403SOL    HW115671   0.425   1.069  14.811 -0.8377  0.1527 -0.7133
 1403SOL    HW215672   0.433   0.967  14.713 -1.2417  2.0327 -1.4918
 1404SOL     OW15673   3.597   2.179   7.159  0.0259  0.1344 -0.3462
 1404SOL    HW115674   3.597   2.182   7.064  1.0495  0.3690 -0.3438
 1404SOL    HW215675   3.538   2.105   7.175 -1.4370  0.7377 -3.0261
 1405SOL     OW15676   3.640   1.143   3.685 -0.1631  0.0363 -0.3813
 1405SOL    HW115677   3.556   1.106   3.712 -0.5347  1.4807  0.4392
 1405SOL    HW215678   3.682   1.138   3.771 -1.2258 -1.2381  0.0621
 1406SOL     OW15679   1.328   4.374   5.080 -0.0544 -0.0573 -0.6329
 1406SOL    HW115680   1.260   4.424   5.126  0.8284  2.9564 -2.5988
 1406SOL    HW215681   1.337   4.433   5.005 -2.0733  1.1912  0.0823
 1407SOL     OW15682   2.143   0.295   2.060  0.4393 -0.0304  0.6947
 1407SOL    HW115683   2.152   0.295   1.964  0.7371  1.0083  0.7248
 1407SOL    HW215684   2.116   0.208   2.090  0.6837 -0.6750 -0.9542
 1408SOL     OW15685   1.206   3.071  12.224  0.4957 -0.3076  0.0532
 1408SOL    HW115686   1.246   2.985  12.235 -0.8825 -0.4958  3.6167
 1408SOL    HW215687   1.185   3.064  12.131  2.3903 -0.5338 -0.3445
 1409SOL     OW15688   4.684   3.370   8.032  0.2800 -0.1451  0.2813
 1409SOL    HW115689   4.596   3.401   8.008  0.8342  1.6713  0.5923
 1409SOL    HW215690   4.682   3.363   8.128  0.2878  0.5286  0.3315
 1410SOL     OW15691   4.304   0.258  15.490 -0.1010  0.2587  0.0658
 1410SOL    HW115692   4.392   0.240  15.457 -0.7408 -1.2096 -0.8119
 1410SOL    HW215693   4.313   0.352  15.473 -0.6786 -0.0204 -1.7561
 1411SOL     OW15694   4.342   3.191   1.705  0.2118  0.0738  0.0346
 1411SOL    HW115695   4.278   3.262   1.712  1.5809  1.4404 -1.1047
 1411SOL    HW215696   4.312   3.130   1.637  1.9179  0.4482 -1.0593
 1412SOL     OW15697   0.730   3.226   6.394  0.4453 -0.3598  0.2586
 1412SOL    HW115698   0.825   3.222   6.404  0.5393 -1.7174 -1.0750
 1412SOL    HW215699   0.701   3.171   6.467 -0.7317 -1.9548 -1.3910
 1413SOL     OW15700   3.431   2.721   6.109  0.1259 -0.2842  0.4279
 1413SOL    HW115701   3.366   2.787   6.132 -0.4596 -0.9468  0.6490
 1413SOL    HW215702   3.381   2.639   6.107  0.5086 -0.4805 -1.5071
 1414SOL     OW15703   4.115   0.682  10.021  0.0840 -0.6404  0.5314
 1414SOL    HW115704   4.071   0.603  10.052 -2.8847 -0.1651 -2.4104
 1414SOL    HW215705   4.176   0.712  10.088  1.6988 -1.6779 -0.4802
 1415SOL     OW15706   2.713   3.815   7.813 -0.7989  0.5381 -0.3036
 1415SOL    HW115707   2.653   3.843   7.881  0.0926 -0.6177  0.9524
 1415SOL    HW215708   2.661   3.832   7.735 -0.6349 -2.4808 -1.0653
 1416SOL     OW15709   3.750   4.134  16.008  0.5648 -0.0282  0.3210
 1416SOL    HW115710   3.805   4.073  16.058  2.2926 -0.3131 -1.9154
 1416SOL    HW215711   3.711   4.074  15.944  2.7286 -1.8149  0.6399
 1417SOL     OW15712   1.467   2.369   7.612 -0.1890  0.2103  0.3768
 1417SOL    HW115713   1.375   2.370   7.635 -0.0555 -1.3383  0.9918
 1417SOL    HW215714   1.502   2.343   7.698 -0.8175 -0.2166  0.4985
 1418SOL     OW15715   4.695   2.154   6.090  0.2537  0.5397 -0.1714
 1418SOL    HW115716   0.011   2.161   6.001  0.8372 -3.2034 -0.2411
 1418SOL    HW215717   4.682   2.060   6.084  3.9598  0.1041 -1.3632
 1419SOL     OW15718   2.528   0.774   4.095  0.0522 -0.4533  0.5289
 1419SOL    HW115719   2.478   0.854   4.109  3.3749  1.5736  0.7962
 1419SOL    HW215720   2.483   0.739   4.018 -1.7684  0.8180  1.0060
 1420SOL     OW15721   2.657   1.533   5.483  0.0048  0.1318 -0.4724
 1420SOL    HW115722   2.735   1.587   5.494  0.4940 -0.6202 -0.2030
 1420SOL    HW215723   2.610   1.541   5.566  1.1515  2.6678 -0.0610
 1421SOL     OW15724   3.010   2.368   1.297  0.4995 -1.1017 -0.4186
 1421SOL    HW115725   2.984   2.277   1.316 -0.6331 -0.7467 -0.2200
 1421SOL    HW215726   3.061   2.397   1.373  0.9201  0.6425 -1.3875
 1422SOL     OW15727   2.410   0.154   2.958 -0.0594 -0.1971  1.0382
 1422SOL    HW115728   2.403   0.062   2.933 -0.5946 -0.4883  2.2462
 1422SOL    HW215729   2.360   0.171   3.038 -0.9760 -0.4984  0.5181
 1423SOL     OW15730   1.611   3.185   8.749 -0.6120 -0.1707 -0.0877
 1423SOL    HW115731   1.573   3.205   8.835 -0.8184  0.3324 -0.3019
 1423SOL    HW215732   1.698   3.155   8.775 -0.3205  0.3865 -0.4193
 1424SOL     OW15733   1.243   3.410   6.801  0.3827  0.0368  0.1028
 1424SOL    HW115734   1.249   3.490   6.852 -0.0489  0.5063 -0.5764
 1424SOL    HW215735   1.163   3.377   6.842  1.2183 -1.7321  0.3179
 1425SOL     OW15736   3.871   4.055   7.599  0.0855 -0.2422  0.2514
 1425SOL    HW115737   3.796   4.010   7.560  0.4000  0.4182 -1.1057
 1425SOL    HW215738   3.903   4.110   7.528 -0.4124  0.3195  0.4565
 1426SOL     OW15739   3.768   2.624   9.444  0.3281 -0.4251  0.6337
 1426SOL    HW115740   3.817   2.551   9.481  0.4235 -0.4155  0.5269
 1426SOL    HW215741   3.680   2.611   9.480  0.6851 -0.9109  1.3238
 1427SOL     OW15742   4.276   4.263   4.232 -0.1818  0.1877  0.2323
 1427SOL    HW115743   4.294   4.217   4.149  2.7375  0.3837  0.7399
 1427SOL    HW215744   4.183   4.282   4.224  0.1520  2.3592  1.4695
 1428SOL     OW15745   0.881   0.318   6.995  0.1513 -0.5078  0.3522
 1428SOL    HW115746   0.945   0.259   6.954  0.0726  0.7507 -1.5642
 1428SOL    HW215747   0.798   0.271   6.983  0.7955 -0.8920 -2.5125
 1429SOL     OW15748   1.306   3.785  11.524 -0.0126  0.1907  0.5948
 1429SOL    HW115749   1.218   3.819  11.511  0.6851  2.1497  0.9396
 1429SOL    HW215750   1.307   3.707  11.469  2.7145  0.9764 -0.4695
 1430SOL     OW15751   1.915   3.160   9.370  0.5115  0.2906 -0.1591
 1430SOL    HW115752   1.849   3.091   9.375  2.2767 -1.3717  0.1864
 1430SOL    HW215753   1.915   3.202   9.456  0.2557  0.0867 -0.0612
 1431SOL     OW15754   3.940   3.206   6.886 -0.2962 -0.2368  0.1486
 1431SOL    HW115755   3.960   3.158   6.967  0.0908 -0.3128  0.0091
 1431SOL    HW215756   3.978   3.290   6.912 -1.9927  0.7284 -0.5142
 1432SOL     OW15757   4.452   0.827   2.519 -0.5930 -0.2169 -0.9234
 1432SOL    HW115758   4.391   0.886   2.474 -0.7344 -1.4099 -2.3074
 1432SOL    HW215759   4.533   0.876   2.504 -0.8261  0.5318  0.2556
 1433SOL     OW15760   3.987   0.250   8.755  0.3582 -0.2110 -0.1035
 1433SOL    HW115761   3.962   0.225   8.666 -2.1050  2.6165 -0.1959
 1433SOL    HW215762   4.079   0.225   8.762  0.7978  0.9577 -1.8124
 1434SOL     OW15763   2.734   3.984   6.991  0.1300  0.2304  0.4277
 1434SOL    HW115764   2.736   4.023   7.078 -1.0790 -0.2294  0.6654
 1434SOL    HW215765   2.801   4.040   6.953 -0.1233 -0.7032 -1.3903
 1435SOL     OW15766   2.588   0.568   5.177  0.0152 -0.4269 -0.0193
 1435SOL    HW115767   2.560   0.651   5.139  1.2768 -0.9289 -2.0848
 1435SOL    HW215768   2.598   0.583   5.271  1.0942  1.0290 -0.3624
 1436SOL     OW15769   4.017   0.352   1.482 -0.0799  0.2611  0.1787
 1436SOL    HW115770   3.925   0.347   1.456  0.6011 -1.3575 -1.8942
 1436SOL    HW215771   4.048   0.427   1.431 -0.0060 -0.3918 -0.7350
 1437SOL     OW15772   3.161   0.836  10.906  0.4522 -0.1786 -0.2629
 1437SOL    HW115773   3.248   0.797  10.893 -0.2623 -1.5415 -0.9399
 1437SOL    HW215774   3.112   0.773  10.852 -3.1787  2.1428  0.3479
 1438SOL     OW15775   0.053   3.828  13.242 -0.2972 -0.0689  0.6498
 1438SOL    HW115776   0.115   3.804  13.173  1.7273  2.1318  1.6839
 1438SOL    HW215777   0.025   3.904  13.191 -0.9586 -1.5586 -1.1741
 1439SOL     OW15778   3.742   1.340   2.848 -0.1146 -0.7818  0.1551
 1439SOL    HW115779   3.737   1.416   2.790 -0.8909 -0.2554  0.9193
 1439SOL    HW215780   3.800   1.382   2.912 -0.4959 -0.3821  0.2446
 1440SOL     OW15781   2.820   4.058   0.393  0.2221  0.0143 -0.2222
 1440SOL    HW115782   2.759   4.076   0.321 -0.4767  1.5454  0.7555
 1440SOL    HW215783   2.810   3.963   0.389  0.9426 -0.0650 -0.1508
 1441SOL     OW15784   0.797   0.257   5.049  0.1160 -0.1816  0.1355
 1441SOL    HW115785   0.886   0.229   5.027 -0.0235 -1.9620  1.7659
 1441SOL    HW215786   0.812   0.270   5.142  0.6786  1.1708 -0.1519
 1442SOL     OW15787   0.187   1.929  11.155  0.1538 -0.3026 -0.2246
 1442SOL    HW115788   0.156   1.916  11.065  4.8173 -1.0750 -1.7283
 1442SOL    HW215789   0.279   1.913  11.132  1.1471  2.4009  1.9402
 1443SOL     OW15790   4.337   0.664   8.002  0.0815 -0.3346  0.5451
 1443SOL    HW115791   4.380   0.654   8.087 -1.0981  0.2081  1.2063
 1443SOL    HW215792   4.355   0.589   7.945 -1.0152 -0.5722  0.4948
 1444SOL     OW15793   1.679   2.283   7.473 -0.0288 -0.0111 -0.1562
 1444SOL    HW115794   1.598   2.315   7.512  0.9771  0.8669  1.1986
 1444SOL    HW215795   1.669   2.193   7.506  0.4346  0.3986  1.0938
 1445SOL     OW15796   4.400   0.445  16.861  0.1029 -0.0087  0.1679
 1445SOL    HW115797   4.487   0.471  16.892 -0.5480  2.9448 -0.5364
 1445SOL    HW215798   4.344   0.476  16.933 -1.0968 -0.2808 -0.6507
 1446SOL     OW15799   4.099   0.279   3.666  0.5718 -0.1301  0.0286
 1446SOL    HW115800   4.153   0.345   3.708  2.3366 -0.9856 -0.9233
 1446SOL    HW215801   4.099   0.214   3.737  1.1988  1.2420  1.2753
 1447SOL     OW15802   3.946   4.044  16.298 -0.0400  0.4039  0.2879
 1447SOL    HW115803   3.915   4.112  16.357  0.9099 -1.5006  2.9776
 1447SOL    HW215804   4.014   4.004  16.352 -0.7084 -0.4281  0.5142
 1448SOL     OW15805   4.565   2.316   2.401  0.4373  0.2679 -0.4205
 1448SOL    HW115806   4.540   2.402   2.367 -0.3708  0.5324  0.8340
 1448SOL    HW215807   4.648   2.301   2.354  0.7748 -0.6186  0.4461
 1449SOL     OW15808   1.654   3.694  13.077  0.0983  0.2415  0.5913
 1449SOL    HW115809   1.595   3.668  13.148 -0.3697 -1.8281 -0.5483
 1449SOL    HW215810   1.659   3.624  13.012  0.3363  1.1559 -0.3699
 1450SOL     OW15811   2.953   4.321  15.286  0.0181 -0.2420 -0.1071
 1450SOL    HW115812   2.898   4.247  15.259 -0.2737  0.6411 -1.9583
 1450SOL    HW215813   2.881   4.379  15.308  1.2831  0.8822  1.0588
 1451SOL     OW15814   4.651   3.629   8.194  0.7833 -0.3485 -0.2253
 1451SOL    HW115815   0.012   3.617   8.246 -0.7379 -3.5909  1.3193
 1451SOL    HW215816   4.677   3.705   8.142  1.7793  0.3154  1.2597
 1452SOL     OW15817   2.831   0.798   2.086 -0.0260 -0.5303  0.1055
 1452SOL    HW115818   2.869   0.850   2.157  1.1562 -3.2231  1.4648
 1452SOL    HW215819   2.748   0.770   2.124 -0.3637  0.6342  0.2170
 1453SOL     OW15820   4.232   0.675   4.039  0.0814 -0.0359 -0.0266
 1453SOL    HW115821   4.217   0.752   3.984  1.4979  0.8086  0.7683
 1453SOL    HW215822   4.145   0.651   4.072  0.1466  1.2368  1.0993
 1454SOL     OW15823   2.065   1.242   4.662 -0.1734 -0.5162 -0.0476
 1454SOL    HW115824   2.046   1.212   4.751  1.0773  0.4333  0.5431
 1454SOL    HW215825   2.127   1.311   4.687  0.8861 -1.8319  0.9095
 1455SOL     OW15826   3.704   1.071   2.527 -0.5668  0.1062  0.0017
 1455SOL    HW115827   3.713   1.166   2.528 -0.8837  0.1530 -1.9104
 1455SOL    HW215828   3.672   1.058   2.617 -1.0138  2.4335  0.1683
 1456SOL     OW15829   0.406   1.823   7.003  0.5637 -0.0834 -0.2587
 1456SOL    HW115830   0.422   1.917   6.996  1.3671 -0.0817  1.6568
 1456SOL    HW215831   0.471   1.798   6.937  0.5127 -0.8869 -0.0074
 1457SOL     OW15832   3.503   3.994   1.446 -0.5150 -0.1631 -0.0278
 1457SOL    HW115833   3.520   4.037   1.530  3.0689  1.7241 -1.7405
 1457SOL    HW215834   3.425   4.036   1.409 -0.3054 -0.1560 -0.4628
 1458SOL     OW15835   3.276   4.630   5.986 -0.6891  0.2412 -1.1438
 1458SOL    HW115836   3.264   4.535   5.982 -0.5622  0.2207 -1.0186
 1458SOL    HW215837   3.217   4.655   6.057 -0.2205  0.3510 -0.7895
 1459SOL     OW15838   0.758   0.011   8.676  0.0330 -0.0622 -0.7136
 1459SOL    HW115839   0.754   4.690   8.589  0.9757 -0.6515 -0.4964
 1459SOL    HW215840   0.807   0.091   8.657  1.7390 -0.5523  1.6051
 1460SOL     OW15841   3.171   2.499   4.114 -0.0955  0.1624  0.2310
 1460SOL    HW115842   3.232   2.552   4.063 -1.5828 -0.0752 -1.8188
 1460SOL    HW215843   3.236   2.461   4.174  1.1047  1.1857 -0.4348
 1461SOL     OW15844   0.721   2.112   7.233 -0.4804 -0.1574  0.1605
 1461SOL    HW115845   0.656   2.150   7.293  0.5866  0.3604  0.9922
 1461SOL    HW215846   0.699   2.020   7.220  0.4221  0.2375 -4.2140
 1462SOL     OW15847   3.453   4.012   6.465 -0.5764 -0.1268  0.1188
 1462SOL    HW115848   3.462   3.984   6.374 -2.3382  2.3482 -0.8235
 1462SOL    HW215849   3.360   3.997   6.481 -0.5316  1.3242  1.7117
 1463SOL     OW15850   2.307   2.796  15.032 -0.2205  0.0518  0.8636
 1463SOL    HW115851   2.248   2.723  15.053 -0.4756 -0.1096 -0.4296
 1463SOL    HW215852   2.319   2.828  15.122  1.8172 -2.3087  1.4219
 1464SOL     OW15853   3.581   0.876  16.841  0.2679  0.1257  0.1793
 1464SOL    HW115854   3.633   0.957  16.844  1.4499 -0.4975 -2.5774
 1464SOL    HW215855   3.530   0.885  16.921  0.2551  2.9837 -0.1545
 1465SOL     OW15856   1.518   1.527  13.079 -0.4143 -0.1791  0.1968
 1465SOL    HW115857   1.582   1.593  13.103 -0.6223  0.1229 -0.0890
 1465SOL    HW215858   1.566   1.450  13.112 -0.2829 -0.6339 -1.0637
 1466SOL     OW15859   3.978   4.136   7.331 -0.1966 -0.5134 -0.1348
 1466SOL    HW115860   3.899   4.131   7.278 -1.0181  1.5878  0.9139
 1466SOL    HW215861   3.994   4.041   7.332  0.1318 -0.4653 -3.0579
 1467SOL     OW15862   2.461   0.317  13.043 -0.2484  0.0138  0.8709
 1467SOL    HW115863   2.378   0.270  13.046  0.2154 -0.7283  1.9991
 1467SOL    HW215864   2.425   0.403  13.063  1.5153  0.8150  0.6038
 1468SOL     OW15865   1.848   3.708  17.441  0.1615  0.2546  0.4719
 1468SOL    HW115866   1.907   3.777  17.473  1.8120  0.3742 -2.7636
 1468SOL    HW215867   1.884   3.695  17.353 -0.6941 -0.2060  0.1936
 1469SOL     OW15868   4.111   3.068   3.240 -0.2508 -0.0014 -0.7370
 1469SOL    HW115869   4.039   3.007   3.255 -0.8257  1.1048  0.9870
 1469SOL    HW215870   4.183   3.019   3.279  0.7315  1.4338 -0.7246
 1470SOL     OW15871   1.879   2.481   8.373  0.1589 -0.1020  0.2419
 1470SOL    HW115872   1.872   2.514   8.463  0.9288  0.9359 -0.0863
 1470SOL    HW215873   1.804   2.524   8.332  1.1069 -0.6346 -2.0403
 1471SOL     OW15874   2.517   1.631   5.735  0.1348  0.6132  0.0704
 1471SOL    HW115875   2.497   1.667   5.648 -2.6662 -0.0061  0.4675
 1471SOL    HW215876   2.456   1.682   5.788 -1.7859 -0.9929 -0.5943
 1472SOL     OW15877   1.423   0.863   3.548  0.8663 -0.4894 -0.1607
 1472SOL    HW115878   1.509   0.838   3.582  0.5359  1.5216  2.1291
 1472SOL    HW215879   1.368   0.889   3.622 -0.0758 -1.0747 -0.6527
 1473SOL     OW15880   1.663   3.102   3.676  0.2195 -0.3636  0.2534
 1473SOL    HW115881   1.656   3.018   3.723  0.0925 -0.4140  0.1425
 1473SOL    HW215882   1.597   3.102   3.607  1.3472  1.3365 -0.8180
 1474SOL     OW15883   1.685   0.508   2.933  0.1347  0.1509 -0.5704
 1474SOL    HW115884   1.696   0.414   2.947 -0.9628  0.2188  0.8003
 1474SOL    HW215885   1.614   0.522   2.996  0.6126 -0.6051  0.1558
 1475SOL     OW15886   4.404   0.484  10.139  0.5468  0.3195  0.2157
 1475SOL    HW115887   4.345   0.417  10.105 -1.3405  2.5122 -0.8529
 1475SOL    HW215888   4.483   0.432  10.155  0.2326 -0.7479 -1.6194
 1476SOL     OW15889   3.195   0.130   8.278 -0.0264  0.8239  0.5121
 1476SOL    HW115890   3.262   0.115   8.211 -1.0999  0.4321 -0.4648
 1476SOL    HW215891   3.171   0.220   8.259  1.0844  0.7758 -1.1226
 1477SOL     OW15892   0.867   0.658   8.167 -0.2389 -0.6396 -0.4781
 1477SOL    HW115893   0.834   0.742   8.136  1.8024  0.2631 -0.2077
 1477SOL    HW215894   0.793   0.598   8.160 -1.6706  1.1257 -0.5685
 1478SOL     OW15895   4.252   3.609   1.112 -0.3940 -0.2793 -0.4393
 1478SOL    HW115896   4.284   3.605   1.022  0.8127  4.0473 -0.1953
 1478SOL    HW215897   4.305   3.684   1.139  1.3777 -1.8706  0.4383
 1479SOL     OW15898   2.004   2.234  13.780 -0.4123 -0.0094 -0.1922
 1479SOL    HW115899   2.050   2.189  13.709 -0.2422 -0.5945  0.2911
 1479SOL    HW215900   2.069   2.227  13.850 -0.6810  1.0561  0.1625
 1480SOL     OW15901   2.176   3.442   8.063 -0.3614  0.7070 -0.4461
 1480SOL    HW115902   2.208   3.399   7.983  0.0722 -0.3955  0.3160
 1480SOL    HW215903   2.257   3.477   8.100  1.0213 -2.8252 -0.1264
 1481SOL     OW15904   1.888   0.112   0.209  0.1258  0.2115 -0.0983
 1481SOL    HW115905   1.817   0.100   0.272 -0.6580 -0.2338 -1.0604
 1481SOL    HW215906   1.905   0.019   0.194  2.5003  0.7849 -0.8777
 1482SOL     OW15907   0.912   2.982   4.709  0.3156 -0.2851  0.4007
 1482SOL    HW115908   0.945   3.031   4.634  0.6179  0.5899  1.1159
 1482SOL    HW215909   0.867   3.053   4.753  2.0828  0.6824  0.6395
 1483SOL     OW15910   3.387   1.304   8.645  0.1970  0.3118 -0.1265
 1483SOL    HW115911   3.374   1.277   8.554 -2.9253 -0.9120  0.6823
 1483SOL    HW215912   3.296   1.327   8.662  0.2207  0.8981 -0.8072
 1484SOL     OW15913   4.048   4.391   2.196 -0.4598 -0.1549  0.2461
 1484SOL    HW115914   4.019   4.306   2.164  1.1427  0.0475 -1.7461
 1484SOL    HW215915   3.969   4.424   2.241 -0.0649  1.7129 -0.4096
 1485SOL     OW15916   4.338   4.213   5.739 -0.2045 -0.0273 -0.6190
 1485SOL    HW115917   4.399   4.285   5.721 -1.6737  1.4515  0.3824
 1485SOL    HW215918   4.276   4.270   5.784 -0.0452 -0.4694  0.1541
 1486SOL     OW15919   4.574   1.931   5.937  0.3497 -1.1400  0.0066
 1486SOL    HW115920   4.502   1.914   5.876 -0.5460 -1.1047  1.0479
 1486SOL    HW215921   4.643   1.899   5.880  0.6053 -0.5120 -0.0360
 1487SOL     OW15922   3.471   2.924  13.007 -0.4959  0.0994 -0.0107
 1487SOL    HW115923   3.556   2.880  12.999  0.7920  2.7858 -1.0522
 1487SOL    HW215924   3.420   2.860  13.057 -1.4729  0.3171 -0.7186
 1488SOL     OW15925   3.443   3.090  17.234 -0.3732 -0.4199 -0.0206
 1488SOL    HW115926   3.436   3.161  17.297  1.2462 -0.3790  0.1131
 1488SOL    HW215927   3.451   3.009  17.284  0.5477  0.2816  0.9551
 1489SOL     OW15928   4.586   2.656   3.698  0.6487  0.1645 -0.1993
 1489SOL    HW115929   4.586   2.684   3.790  0.8173  0.7047 -0.3609
 1489SOL    HW215930   4.532   2.577   3.703 -0.9147  1.2822  0.5926
 1490SOL     OW15931   1.771   3.264   5.187 -0.3567 -0.1274  0.4433
 1490SOL    HW115932   1.707   3.266   5.116  1.9967 -0.4778 -1.6724
 1490SOL    HW215933   1.814   3.349   5.174 -0.2501  0.0840  2.1409
 1491SOL     OW15934   4.009   4.269  10.520  0.6961 -0.4382 -0.1652
 1491SOL    HW115935   3.944   4.232  10.580  1.9088 -0.3359  1.1999
 1491SOL    HW215936   3.962   4.323  10.457 -0.5483 -0.0883  1.0613
 1492SOL     OW15937   0.604   4.436   3.529  0.2189  0.2741  0.5100
 1492SOL    HW115938   0.516   4.398   3.534  0.6278 -0.7566 -0.1406
 1492SOL    HW215939   0.634   4.375   3.462  0.2402  1.6527 -0.7472
 1493SOL     OW15940   0.056   2.284   2.246  0.3153 -0.5310 -0.1581
 1493SOL    HW115941   0.087   2.217   2.185 -0.5525 -1.0529 -0.0245
 1493SOL    HW215942   0.132   2.289   2.305  0.1849  0.6987 -0.0992
 1494SOL     OW15943   4.338   1.760   7.569 -0.5217  0.3607 -0.0353
 1494SOL    HW115944   4.298   1.675   7.550 -1.2730  0.6649  0.1615
 1494SOL    HW215945   4.370   1.756   7.659 -3.7415  3.3546  1.2306
 1495SOL     OW15946   0.489   2.223   0.069  0.0607 -0.4156  0.1621
 1495SOL    HW115947   0.412   2.216   0.125  0.2321 -1.7985  0.2323
 1495SOL    HW215948   0.520   2.311   0.091  0.2399 -0.7267  1.1793
 1496SOL     OW15949   1.487   3.839   6.068  0.1467 -0.1536  0.0089
 1496SOL    HW115950   1.405   3.792   6.055 -0.6264  0.4938  2.5184
 1496SOL    HW215951   1.504   3.815   6.159  0.9729  0.8417  0.1144
 1497SOL     OW15952   3.179   0.444  14.405  0.1120  0.2872  0.5601
 1497SOL    HW115953   3.113   0.504  14.369 -0.0447 -1.2766 -1.7675
 1497SOL    HW215954   3.208   0.390  14.332 -1.9868 -0.8775  0.6122
 1498SOL     OW15955   1.616   2.589  12.607  0.5023  0.1093  0.2084
 1498SOL    HW115956   1.612   2.556  12.696 -1.0066 -0.1106  0.0585
 1498SOL    HW215957   1.711   2.584  12.604  0.4694 -0.4857  0.1099
 1499SOL     OW15958   0.104   3.530  11.892 -0.2808  0.0262  0.2072
 1499SOL    HW115959   0.100   3.443  11.932  0.1684 -1.4318 -2.8440
 1499SOL    HW215960   0.171   3.517  11.825 -1.3941 -1.6415 -0.6003
 1500SOL     OW15961   3.281   1.956  10.738  0.2863  0.0753  0.7480
 1500SOL    HW115962   3.211   2.020  10.749 -0.3986 -0.8850  2.0346
 1500SOL    HW215963   3.331   1.985  10.662 -2.0008 -0.5641 -0.9840
 1501SOL     OW15964   0.328   3.837   5.754 -0.3301 -0.2536  0.6765
 1501SOL    HW115965   0.234   3.817   5.750 -0.8942  2.3959  0.5438
 1501SOL    HW215966   0.334   3.869   5.844 -1.5294  0.0039  0.6739
 1502SOL     OW15967   4.606   0.410   4.572  0.5082 -0.2071 -0.5676
 1502SOL    HW115968   4.603   0.505   4.588  0.6754 -0.3446  0.2965
 1502SOL    HW215969   4.628   0.417   4.480 -2.4085  1.2565 -1.1581
 1503SOL     OW15970   0.639   2.529   5.021 -0.5715  0.1734 -0.0103
 1503SOL    HW115971   0.721   2.516   4.974 -1.2726  2.7500 -1.9915
 1503SOL    HW215972   0.632   2.625   5.015  1.9529  0.2651 -1.4191
 1504SOL     OW15973   2.760   0.467   6.733  0.3341  0.0076  0.1224
 1504SOL    HW115974   2.739   0.422   6.652 -0.5068  0.0774  0.3063
 1504SOL    HW215975   2.675   0.461   6.777 -0.2980  1.2520 -0.9340
 1505SOL     OW15976   4.480   1.374   7.312  0.2216 -0.1043  0.8238
 1505SOL    HW115977   4.445   1.459   7.284  1.3414 -0.3272 -1.2445
 1505SOL    HW215978   4.572   1.396   7.318  0.1817 -0.0146  1.1102
 1506SOL     OW15979   2.026   0.866  10.141  0.2541  0.0806  0.1667
 1506SOL    HW115980   1.940   0.857  10.181  0.4916  2.7821  1.2926
 1506SOL    HW215981   2.082   0.800  10.182  1.7908  0.1916 -1.7627
 1507SOL     OW15982   2.230   0.127   3.792 -0.1216 -0.1433  0.0647
 1507SOL    HW115983   2.297   0.097   3.731 -2.7020 -1.1182 -2.2346
 1507SOL    HW215984   2.177   0.049   3.802 -1.4764  0.7172 -0.4902
 1508SOL     OW15985   0.737   2.578   3.197 -0.4342  0.3669  0.2086
 1508SOL    HW115986   0.733   2.482   3.198  0.7165  0.3226  0.6095
 1508SOL    HW215987   0.780   2.588   3.112 -0.8115  0.4872  0.0312
 1509SOL     OW15988   2.703   3.199   4.957 -0.2484 -0.2361 -0.8077
 1509SOL    HW115989   2.611   3.196   4.981 -0.0614  1.3848  0.0667
 1509SOL    HW215990   2.729   3.290   4.964  1.8384 -0.6476 -3.0561
 1510SOL     OW15991   0.522   0.673   0.492 -0.1917 -0.1370  0.5102
 1510SOL    HW115992   0.499   0.765   0.474 -2.4948 -0.6068  1.1205
 1510SOL    HW215993   0.599   0.679   0.549  0.7124 -1.2241 -0.6010
 1511SOL     OW15994   3.656   0.758  12.458 -0.4153  0.4600 -0.3968
 1511SOL    HW115995   3.574   0.717  12.430 -1.2285  2.6527 -1.1487
 1511SOL    HW215996   3.660   0.730  12.550  1.6725  1.1691 -0.2607
 1512SOL     OW15997   0.672   1.608   5.148  0.2324  0.2822 -0.2979
 1512SOL    HW115998   0.614   1.540   5.113 -0.4011  0.8023 -0.2563
 1512SOL    HW215999   0.689   1.656   5.067  1.0320  0.4501 -0.0282
 1513SOL     OW16000   4.186   0.116   6.768 -0.0552  0.3551 -0.3530
 1513SOL    HW116001   4.119   0.143   6.830  0.2835  1.1925 -0.3526
 1513SOL    HW216002   4.261   0.125   6.827 -1.8042  0.6568  1.8011
 1514SOL     OW16003   3.810   1.605   3.791  0.3942 -0.4720 -0.0104
 1514SOL    HW116004   3.830   1.664   3.719  0.3183 -0.8995 -0.3822
 1514SOL    HW216005   3.800   1.520   3.747  0.5050 -0.9795  0.9323
 1515SOL     OW16006   3.455   4.302   1.780  0.9396  0.3309 -0.1066
 1515SOL    HW116007   3.449   4.397   1.768  2.9480  0.2183 -1.8252
 1515SOL    HW216008   3.370   4.271   1.813  0.7397  0.9825 -0.0053
 1516SOL     OW16009   3.880   4.550   8.214  0.4200  0.3014 -0.5304
 1516SOL    HW116010   3.790   4.528   8.188  0.4357 -0.4758  0.0868
 1516SOL    HW216011   3.870   4.546   8.309 -0.3123 -0.6460 -0.6513
 1517SOL     OW16012   0.300   2.508  14.156 -0.2012 -0.0136 -0.0093
 1517SOL    HW116013   0.358   2.466  14.219  0.8568  0.5596 -0.6140
 1517SOL    HW216014   0.372   2.542  14.103  0.0321 -0.9232 -0.2761
 1518SOL     OW16015   1.600   4.638   7.478 -0.8188  0.0977 -0.7643
 1518SOL    HW116016   1.588   4.568   7.413  0.3518 -0.8405  0.0339
 1518SOL    HW216017   1.669   4.606   7.536 -0.0987  1.5564 -0.7940
 1519SOL     OW16018   4.418   2.907   9.592  0.0287 -0.0189 -0.0918
 1519SOL    HW116019   4.416   2.922   9.687  0.2028 -0.4685 -0.0153
 1519SOL    HW216020   4.377   2.821   9.587 -1.5557  0.4861  3.7351
 1520SOL     OW16021   3.912   1.789   2.066  0.5368  0.0835 -0.5128
 1520SOL    HW116022   3.878   1.740   1.992 -1.0115 -2.7145  2.0427
 1520SOL    HW216023   3.935   1.870   2.022  0.8915  0.9303  1.2262
 1521SOL     OW16024   0.972   4.119   3.202  0.1447 -0.3995  0.2866
 1521SOL    HW116025   0.943   4.112   3.293  1.8250 -2.6328  0.6635
 1521SOL    HW216026   0.887   4.082   3.177 -0.7694 -0.4041  3.4634
 1522SOL     OW16027   0.493   2.133  11.365 -0.3545  0.6510  0.0708
 1522SOL    HW116028   0.570   2.179  11.397 -1.2239  1.3419  1.1460
 1522SOL    HW216029   0.423   2.197  11.376  1.5800  3.0009 -1.2564
 1523SOL     OW16030   3.402   4.526   0.585 -0.1916  0.3776 -0.0751
 1523SOL    HW116031   3.344   4.480   0.524 -1.6996  1.3440  0.6410
 1523SOL    HW216032   3.393   4.478   0.667  1.5034 -1.9977 -1.2606
 1524SOL     OW16033   3.783   3.694   6.018 -0.1704  0.1825 -0.5993
 1524SOL    HW116034   3.803   3.788   6.014 -0.7650  0.4406  2.1981
 1524SOL    HW216035   3.728   3.691   6.096  2.1046  0.8346  1.0437
 1525SOL     OW16036   0.428   2.369   5.075  0.6050  0.4417  0.1756
 1525SOL    HW116037   0.500   2.421   5.040  0.4401  1.5366  1.4307
 1525SOL    HW216038   0.371   2.442   5.103  0.3716 -0.1286  1.1954
 1526SOL     OW16039   1.151   0.035   5.291 -0.4569 -0.3002  0.6022
 1526SOL    HW116040   1.170   0.073   5.206 -0.7670  0.6646  0.9704
 1526SOL    HW216041   1.061   0.065   5.306 -0.3125  0.4100 -0.0015
 1527SOL     OW16042   1.297   1.489   4.739  0.0010 -0.3210  0.5355
 1527SOL    HW116043   1.286   1.562   4.677  0.8292  0.3412  1.1672
 1527SOL    HW216044   1.233   1.426   4.705 -1.5808  1.0729  0.9150
 1528SOL     OW16045   0.719   1.539   0.476 -0.2971 -0.0574 -0.4323
 1528SOL    HW116046   0.675   1.467   0.429 -2.4340  1.7970 -1.2591
 1528SOL    HW216047   0.767   1.576   0.401  0.2899 -1.5954 -0.8158
 1529SOL     OW16048   0.137   2.255  11.164 -0.2986 -0.3097 -0.5736
 1529SOL    HW116049   0.166   2.191  11.228  0.5679  1.4056  0.7466
 1529SOL    HW216050   0.068   2.295  11.217  0.6747 -0.7332  1.0027
 1530SOL     OW16051   4.536   0.008   3.996  1.0960 -0.2028  0.1709
 1530SOL    HW116052   4.477   0.004   4.071  0.8768  0.6858  0.0483
 1530SOL    HW216053   4.543   4.632   3.980 -0.2532 -0.4066  0.7916
 1531SOL     OW16054   2.562   3.809   2.786 -0.3520 -0.1324 -0.4990
 1531SOL    HW116055   2.481   3.802   2.734 -1.9718  0.2175  1.9724
 1531SOL    HW216056   2.621   3.861   2.733 -1.6070  1.3305 -0.4628
 1532SOL     OW16057   0.685   3.832   4.367 -0.0669  0.5026  0.0896
 1532SOL    HW116058   0.632   3.903   4.403 -3.3073 -1.0449 -1.5778
 1532SOL    HW216059   0.717   3.882   4.292  0.4909  0.0769  0.0422
 1533SOL     OW16060   4.096   3.597   8.949  0.2403 -0.2591  0.1721
 1533SOL    HW116061   4.043   3.663   8.903  1.3987 -0.6067 -1.6807
 1533SOL    HW216062   4.095   3.632   9.038 -2.4532 -0.7253  0.3175
 1534SOL     OW16063   2.740   1.221   6.826  0.0336  0.6020  0.0109
 1534SOL    HW116064   2.653   1.187   6.847 -0.5396  2.2285  0.3474
 1534SOL    HW216065   2.763   1.173   6.747 -0.4240  0.5006 -0.0633
 1535SOL     OW16066   4.155   1.720   2.557  0.2011  0.5195 -0.2006
 1535SOL    HW116067   4.211   1.657   2.513 -0.5079  0.5006 -1.0888
 1535SOL    HW216068   4.108   1.751   2.479 -0.7682  0.8185  0.4949
 1536SOL     OW16069   4.497   0.046   1.684 -0.1317  0.0205 -0.3057
 1536SOL    HW116070   4.566   0.099   1.723  0.4214 -0.9405  0.0325
 1536SOL    HW216071   4.471   4.702   1.753  2.2849 -0.8959 -0.1805
 1537SOL     OW16072   2.910   2.922   3.959 -0.9307  0.2640 -0.1702
 1537SOL    HW116073   2.929   3.016   3.963  0.9501 -0.1111 -0.0348
 1537SOL    HW216074   2.998   2.888   3.976 -1.6390 -0.9590  1.0003
 1538SOL     OW16075   1.715   3.343  15.649  0.0047 -0.0406 -0.0062
 1538SOL    HW116076   1.636   3.398  15.653 -1.1040 -1.8000  2.1962
 1538SOL    HW216077   1.770   3.384  15.582 -2.0437  3.2748  0.3174
 1539SOL     OW16078   4.051   1.882  14.054  0.2148 -0.5930  0.3336
 1539SOL    HW116079   4.144   1.858  14.050  0.1350 -0.9054  0.3992
 1539SOL    HW216080   4.032   1.876  13.960 -2.2941 -2.5341  0.9762
 1540SOL     OW16081   3.679   2.744  12.683  0.3071 -0.0504  0.9741
 1540SOL    HW116082   3.671   2.803  12.607  1.9009 -0.5074  0.4513
 1540SOL    HW216083   3.589   2.729  12.712  0.9511 -0.0910  2.9076
 1541SOL     OW16084   0.948   3.734   9.064  0.2783 -0.4921 -0.1144
 1541SOL    HW116085   0.856   3.760   9.056  0.0681 -0.5355  2.0995
 1541SOL    HW216086   0.934   3.679   9.141 -2.1690 -0.2815 -0.4130
 1542SOL     OW16087   3.078   2.479   7.920 -0.1167 -0.2414 -0.5370
 1542SOL    HW116088   2.998   2.470   7.972  0.7461 -0.1010  0.8199
 1542SOL    HW216089   3.109   2.389   7.916  0.1906 -0.2053  1.1222
 1543SOL     OW16090   4.108   0.943   5.954  0.0378 -0.2152  0.5833
 1543SOL    HW116091   4.067   0.972   5.873  0.2912  2.1928  1.3431
 1543SOL    HW216092   4.151   0.863   5.923  0.2483 -0.2945  1.0711
 1544SOL     OW16093   1.583   3.062  16.440 -0.3627  0.2368  0.1885
 1544SOL    HW116094   1.561   3.130  16.503  2.4834  0.4785  0.9036
 1544SOL    HW216095   1.502   3.050  16.390 -0.1274  1.4331 -0.4667
 1545SOL     OW16096   0.216   0.908   2.847  0.2722  0.1339 -0.9133
 1545SOL    HW116097   0.189   0.957   2.925  0.0665 -2.2454  0.4834
 1545SOL    HW216098   0.287   0.961   2.810  0.0480 -0.1032 -1.6758
 1546SOL     OW16099   2.117   1.818   8.041  0.1458  0.8017 -0.2824
 1546SOL    HW116100   2.102   1.734   7.997 -0.0097  0.9978 -0.5983
 1546SOL    HW216101   2.062   1.809   8.119 -0.9177 -0.7947 -1.2109
 1547SOL     OW16102   0.819   4.089   5.454 -0.5891 -0.0280 -0.3722
 1547SOL    HW116103   0.852   4.131   5.533  0.3500 -1.5570  0.0380
 1547SOL    HW216104   0.907   4.066   5.424 -0.2538  1.5654 -0.5947
 1548SOL     OW16105   3.060   0.422   5.372  0.1821  0.1520 -0.0222
 1548SOL    HW116106   2.984   0.385   5.417  0.7493  0.1788  0.9680
 1548SOL    HW216107   3.046   0.517   5.371  0.6148  0.2091 -0.6055
 1549SOL     OW16108   4.111   3.003   2.377 -0.5550 -0.5804  0.0242
 1549SOL    HW116109   4.139   2.991   2.286  0.7551 -1.2550  0.5191
 1549SOL    HW216110   4.100   3.097   2.392  1.9865  0.2923 -3.5575
 1550SOL     OW16111   1.416   0.024   2.334  0.0526  0.2174 -0.5424
 1550SOL    HW116112   1.477   0.071   2.391  1.5697 -2.5248  0.0831
 1550SOL    HW216113   1.393   0.094   2.272 -0.5160  0.7865  0.2973
 1551SOL     OW16114   3.478   0.342   7.956  0.1382 -0.0003  0.2762
 1551SOL    HW116115   3.411   0.392   7.909 -0.7122 -2.2288 -0.8983
 1551SOL    HW216116   3.515   0.411   8.011 -1.0899  1.2088 -0.4171
 1552SOL     OW16117   1.853   1.309   1.771 -0.2581  0.2588 -0.3144
 1552SOL    HW116118   1.901   1.392   1.766 -0.1230  0.2234  0.3377
 1552SOL    HW216119   1.810   1.321   1.855 -0.7476 -0.7160 -0.4229
 1553SOL     OW16120   0.799   4.489  12.351  0.1860 -0.5664  0.2869
 1553SOL    HW116121   0.714   4.447  12.364 -0.0601 -0.3804 -0.7262
 1553SOL    HW216122   0.826   4.509  12.440  2.5491  0.5808 -0.6870
 1554SOL     OW16123   3.350   3.442   6.882 -0.2775  0.3905  0.1685
 1554SOL    HW116124   3.287   3.459   6.953 -2.8105 -1.8554 -1.5637
 1554SOL    HW216125   3.342   3.347   6.875 -0.7168  0.5231 -1.0297
 1555SOL     OW16126   1.427   4.006   7.044 -0.7375  0.0389 -0.2494
 1555SOL    HW116127   1.393   4.084   7.089 -0.9072 -0.4049  0.3963
 1555SOL    HW216128   1.402   4.031   6.955  0.8742 -1.9446 -1.2477
 1556SOL     OW16129   0.406   3.675  11.914 -0.5878 -0.5279 -0.4121
 1556SOL    HW116130   0.357   3.755  11.933 -1.8943 -1.8604  1.7424
 1556SOL    HW216131   0.373   3.630  11.836 -0.9744 -0.4026 -0.3165
 1557SOL     OW16132   3.012   1.247   2.328 -0.1832  0.4305  0.3184
 1557SOL    HW116133   3.029   1.240   2.234 -1.7558 -1.0088  0.1269
 1557SOL    HW216134   3.014   1.155   2.356 -2.4623  0.6615  1.2486
 1558SOL     OW16135   3.327   0.781   6.304 -0.1412  0.0709  0.0506
 1558SOL    HW116136   3.331   0.854   6.366 -0.4582  0.6904 -0.6615
 1558SOL    HW216137   3.261   0.720   6.337  1.3593 -1.3765  0.3963
 1559SOL     OW16138   4.575   1.266   8.968  0.2584 -0.1936 -0.2126
 1559SOL    HW116139   4.553   1.356   8.943  0.1974 -0.1915 -0.1511
 1559SOL    HW216140   4.543   1.262   9.058 -0.2034  1.2074 -0.3041
 1560SOL     OW16141   1.295   0.393   8.694 -0.3338  0.2862  0.0114
 1560SOL    HW116142   1.388   0.372   8.691  0.1226  2.2775  0.3368
 1560SOL    HW216143   1.281   0.454   8.766  0.6897  3.0527 -2.1306
 1561SOL     OW16144   4.476   1.058   6.401  0.3829 -0.0732 -0.0122
 1561SOL    HW116145   4.419   1.100   6.466 -1.4674 -1.9138 -0.4368
 1561SOL    HW216146   4.548   1.121   6.404  0.9165 -0.6538 -0.6083
 1562SOL     OW16147   0.696   0.057   7.700  0.0431  0.2141 -0.4403
 1562SOL    HW116148   0.777   0.043   7.749  0.4592 -0.4223 -1.3108
 1562SOL    HW216149   0.727   0.084   7.613 -0.4182 -3.8682 -1.8641
 1563SOL     OW16150   3.977   0.180   0.632 -0.1109  0.1020 -0.3514
 1563SOL    HW116151   3.888   0.147   0.644  0.0003  0.0503  0.3158
 1563SOL    HW216152   4.019   0.126   0.566 -1.1645 -2.0364  0.7277
 1564SOL     OW16153   4.525   2.338   5.853 -0.1241 -0.7158  0.1393
 1564SOL    HW116154   4.514   2.426   5.890  0.9525 -1.1156  1.4300
 1564SOL    HW216155   4.621   2.338   5.849 -0.1696 -2.3502 -1.1813
 1565SOL     OW16156   2.871   2.539  10.283  0.6342  0.1955  0.2545
 1565SOL    HW116157   2.960   2.528  10.250  0.3990 -0.8403 -0.0282
 1565SOL    HW216158   2.833   2.607  10.227  2.0514 -0.6252 -1.6716
 1566SOL     OW16159   3.582   3.578  11.630 -0.3228 -0.5355 -0.0222
 1566SOL    HW116160   3.500   3.529  11.640 -0.2249 -0.7784 -0.4310
 1566SOL    HW216161   3.643   3.506  11.616 -0.1833 -0.4353  0.0703
 1567SOL     OW16162   0.471   0.551  16.542 -0.4110  0.0634 -0.4099
 1567SOL    HW116163   0.418   0.629  16.558  0.8446  1.4843 -3.1169
 1567SOL    HW216164   0.475   0.519  16.632  1.4640 -1.6423 -1.1038
 1568SOL     OW16165   1.563   4.318   2.006  0.1662 -0.4881  0.1916
 1568SOL    HW116166   1.477   4.358   2.020  0.9244  1.8614 -1.8185
 1568SOL    HW216167   1.612   4.369   2.070  0.7895 -1.5140  0.5409
 1569SOL     OW16168   4.237   4.392  14.443  0.2904  0.1182  0.0330
 1569SOL    HW116169   4.234   4.412  14.350  1.2767 -0.4525 -0.1248
 1569SOL    HW216170   4.332   4.397  14.451  0.1760  3.6079 -0.7784
 1570SOL     OW16171   0.917   3.061  17.186  0.2670 -0.1559 -0.4232
 1570SOL    HW116172   0.905   2.980  17.236  1.7909 -1.2712 -1.8749
 1570SOL    HW216173   0.867   3.044  17.106 -1.6584  1.5878  0.4211
 1571SOL     OW16174   0.380   2.570  11.535  1.0854 -0.8288 -0.1861
 1571SOL    HW116175   0.314   2.504  11.515  0.1360  0.1549 -0.3007
 1571SOL    HW216176   0.402   2.538  11.622 -0.9193  2.5524  1.5697
 1572SOL     OW16177   1.203   0.236  16.399 -0.1516  0.3603 -0.7209
 1572SOL    HW116178   1.167   0.315  16.359 -1.9286  0.4577  1.1132
 1572SOL    HW216179   1.138   0.217  16.467  0.5519  0.6317  0.0266
 1573SOL     OW16180   4.506   4.343   2.716  0.5956 -0.3348  0.1767
 1573SOL    HW116181   4.422   4.350   2.760 -0.1458 -2.6612 -0.9279
 1573SOL    HW216182   4.532   4.253   2.733  0.7029 -0.3722 -0.1787
 1574SOL     OW16183   2.931   3.252  12.142 -0.4490 -0.1408  0.3221
 1574SOL    HW116184   3.010   3.306  12.144 -0.2298 -0.3765 -1.7437
 1574SOL    HW216185   2.933   3.217  12.231 -1.3945 -0.3452  0.2696
 1575SOL     OW16186   2.852   3.022   5.123  0.1129  0.0810  0.5774
 1575SOL    HW116187   2.939   3.061   5.112 -0.4862  0.8084 -1.5832
 1575SOL    HW216188   2.805   3.032   5.040  0.1835 -0.1354  0.5135
 1576SOL     OW16189   1.561   3.937   3.894  0.0903  0.4417  0.3048
 1576SOL    HW116190   1.656   3.938   3.906 -0.0476 -3.5454  1.7786
 1576SOL    HW216191   1.544   4.028   3.868  0.7704  0.8773  1.3974
 1577SOL     OW16192   0.917   2.129   5.864 -0.0917 -0.4792  0.2536
 1577SOL    HW116193   0.842   2.076   5.835 -1.1252  0.6481  0.8502
 1577SOL    HW216194   0.977   2.067   5.905 -0.0977 -1.4560 -1.1904
 1578SOL     OW16195   1.464   2.130   5.765  0.6633 -0.3757 -0.3213
 1578SOL    HW116196   1.420   2.114   5.849  2.4767 -2.5023  0.2314
 1578SOL    HW216197   1.424   2.214   5.742  2.8047  0.9977  1.0644
 1579SOL     OW16198   4.437   1.745   8.194  0.4451 -0.1750 -0.7901
 1579SOL    HW116199   4.371   1.696   8.244  0.1874  1.9664  0.9680
 1579SOL    HW216200   4.376   1.801   8.147 -0.9497  0.0326  1.2646
 1580SOL     OW16201   3.054   4.042   3.912 -1.0178  0.1205 -0.4095
 1580SOL    HW116202   3.128   4.043   3.852  0.8399  0.5756  1.9034
 1580SOL    HW216203   3.025   3.951   3.912 -0.4724 -0.0458 -2.3537
 1581SOL     OW16204   1.964   0.085   5.070 -0.0533 -0.0294 -0.5133
 1581SOL    HW116205   2.013   0.064   4.991 -1.0582 -3.2321 -0.3165
 1581SOL    HW216206   1.938   0.172   5.041 -0.1795  0.5172  1.2660
 1582SOL     OW16207   2.108   3.642   3.102 -0.4194 -0.3615  0.5528
 1582SOL    HW116208   2.138   3.565   3.053  0.7900  0.0541  0.6480
 1582SOL    HW216209   2.182   3.698   3.079 -1.2772  1.1272  1.4486
 1583SOL     OW16210   0.241   3.403   8.792 -0.3134 -0.1950 -0.5968
 1583SOL    HW116211   0.319   3.399   8.736 -0.6351  0.4937 -1.0934
 1583SOL    HW216212   0.217   3.311   8.780 -1.0832 -0.0843  0.1239
 1584SOL     OW16213   2.657   2.495   1.838 -0.1258 -0.1478 -0.7611
 1584SOL    HW116214   2.597   2.435   1.882 -1.4056  0.0331 -2.2612
 1584SOL    HW216215   2.627   2.574   1.882  0.3312 -0.6817  0.5316
 1585SOL     OW16216   0.559   2.483   0.155  0.2190  0.0423 -0.0662
 1585SOL    HW116217   0.480   2.535   0.174 -1.4038 -1.6281 -2.2298
 1585SOL    HW216218   0.606   2.496   0.237 -0.9158 -0.6545  0.6966
 1586SOL     OW16219   3.245   2.006   7.276 -0.4977  0.4138  0.1571
 1586SOL    HW116220   3.297   1.979   7.200 -0.2177 -1.9264  1.1858
 1586SOL    HW216221   3.255   2.101   7.279 -0.5914  0.4085  0.6396
 1587SOL     OW16222   4.412   2.133   7.284 -0.5474  0.2811 -0.3340
 1587SOL    HW116223   4.319   2.156   7.293 -0.4431  0.8638 -0.7057
 1587SOL    HW216224   4.415   2.111   7.191  0.3725 -0.1441 -0.2014
 1588SOL     OW16225   3.585   3.930   8.994  0.7710 -0.4498 -0.1039
 1588SOL    HW116226   3.494   3.920   8.966  0.3441 -1.1710  1.5886
 1588SOL    HW216227   3.589   4.024   8.975 -1.1477 -0.3435 -0.0197
 1589SOL     OW16228   4.149   2.544   5.569 -0.4215 -0.2156  0.1625
 1589SOL    HW116229   4.218   2.609   5.555 -0.7452  0.0198 -0.3513
 1589SOL    HW216230   4.172   2.524   5.660  1.5429  2.5269  0.2787
 1590SOL     OW16231   3.054   4.294  10.966 -0.7648 -0.1795 -0.2880
 1590SOL    HW116232   3.133   4.297  11.019 -0.7552 -1.5503 -0.2224
 1590SOL    HW216233   3.060   4.202  10.942  0.3506  0.0275 -0.7996
 1591SOL     OW16234   3.776   0.294  17.031 -0.2526 -0.2161 -0.3384
 1591SOL    HW116235   3.868   0.270  17.037  0.2165  1.9221  1.2718
 1591SOL    HW216236   3.756   0.308  16.938 -1.6265  0.9081  0.1267
 1592SOL     OW16237   3.984   3.290  13.842  0.6881 -0.0577 -0.1562
 1592SOL    HW116238   4.028   3.244  13.771  0.9096 -1.8332  1.1505
 1592SOL    HW216239   4.030   3.374  13.832  2.5447 -0.9622  0.8101
 1593SOL     OW16240   4.685   3.109   7.168  0.3585  0.2913 -0.4807
 1593SOL    HW116241   0.034   3.129   7.233  0.3065  1.2455 -0.7229
 1593SOL    HW216242   0.021   3.095   7.090  1.2245 -0.4147  0.2515
 1594SOL     OW16243   0.090   0.393   6.177  0.2172  0.2649 -0.6235
 1594SOL    HW116244   0.134   0.428   6.254  0.8937  1.9361 -1.7616
 1594SOL    HW216245   4.717   0.422   6.188 -0.5020 -2.8631  1.7325
 1595SOL     OW16246   1.837   4.626   9.959  0.0181  0.1511 -0.0899
 1595SOL    HW116247   1.928   4.654   9.962  0.7508 -2.5289  2.4602
 1595SOL    HW216248   1.831   4.584   9.873  0.3530  0.0112 -0.0436
 1596SOL     OW16249   2.495   4.371   6.636  0.3643  0.6733 -0.4341
 1596SOL    HW116250   2.524   4.459   6.614  0.6332  0.5844 -0.4370
 1596SOL    HW216251   2.503   4.368   6.731 -0.6413  0.7083 -0.3484
 1597SOL     OW16252   3.408   1.373   2.668  0.2466  0.0782 -0.1106
 1597SOL    HW116253   3.325   1.326   2.677  0.1560  0.1591 -0.5179
 1597SOL    HW216254   3.443   1.356   2.755 -0.0203  1.4059  0.2557
 1598SOL     OW16255   0.078   4.099   6.107  0.4630  0.4455  0.0416
 1598SOL    HW116256   0.119   4.056   6.032  1.7818  0.2978  0.8530
 1598SOL    HW216257   4.708   4.112   6.070  0.6939  1.5486 -0.1202
 1599SOL     OW16258   3.532   0.615   8.085  0.0130  0.0947  0.6471
 1599SOL    HW116259   3.535   0.639   7.992  1.6260  1.7372  1.1234
 1599SOL    HW216260   3.611   0.663   8.112  1.1701 -1.3392 -0.1715
 1600SOL     OW16261   3.239   1.562   3.237  0.0873 -0.4090  0.4898
 1600SOL    HW116262   3.210   1.654   3.237  0.5052 -0.2776 -1.5443
 1600SOL    HW216263   3.196   1.535   3.318  0.2718 -2.5596 -0.1256
 1601SOL     OW16264   3.636   1.978   7.660 -0.1134 -0.1886 -0.1606
 1601SOL    HW116265   3.574   1.910   7.686  0.3590  0.1383  1.8394
 1601SOL    HW216266   3.595   2.026   7.587  0.2349 -0.9506 -0.8524
 1602SOL     OW16267   1.474   3.326   6.669 -0.4395  0.2851  0.0496
 1602SOL    HW116268   1.484   3.414   6.633 -1.8527  1.8006  3.2708
 1602SOL    HW216269   1.386   3.334   6.704 -0.6727 -0.2623 -0.4265
 1603SOL     OW16270   2.517   1.890   5.077  0.3029  0.6021 -0.1741
 1603SOL    HW116271   2.521   1.815   5.138  0.0627  1.0888  0.4386
 1603SOL    HW216272   2.608   1.884   5.049  1.1098  1.9369  2.1234
 1604SOL     OW16273   2.602   2.908  11.991 -0.8801  0.3195 -0.3787
 1604SOL    HW116274   2.691   2.929  12.021 -0.0045  1.4797 -3.8364
 1604SOL    HW216275   2.611   2.926  11.898 -0.9677  1.5673 -0.1469
 1605SOL     OW16276   3.953   4.545  15.613  0.1418 -0.0963 -0.1827
 1605SOL    HW116277   3.959   4.501  15.528  3.1301  2.2835 -1.2097
 1605SOL    HW216278   4.002   4.624  15.590 -1.0083  0.5375 -0.4759
 1606SOL     OW16279   4.511   1.673   6.376  0.0247  0.3413 -0.2216
 1606SOL    HW116280   4.511   1.577   6.385 -2.3427  0.5422  1.7504
 1606SOL    HW216281   4.597   1.679   6.417  0.1414 -0.0434 -0.3997
 1607SOL     OW16282   0.716   4.357   1.106  0.2311  0.1643 -0.2872
 1607SOL    HW116283   0.705   4.274   1.060  0.8115  1.7524 -3.2865
 1607SOL    HW216284   0.630   4.395   1.088  0.1075 -1.5053 -3.1900
 1608SOL     OW16285   2.429   4.117   7.265 -0.4481  0.0147 -0.2207
 1608SOL    HW116286   2.489   4.116   7.340  0.8404  0.1661 -1.2404
 1608SOL    HW216287   2.432   4.026   7.236  0.5019  0.3970 -1.3659
 1609SOL     OW16288   2.202   0.042   5.480  0.4459  0.0686 -0.4358
 1609SOL    HW116289   2.176   0.002   5.397 -1.5641  2.0931 -0.8030
 1609SOL    HW216290   2.180   4.690   5.542 -0.2033  0.0988 -0.6316
 1610SOL     OW16291   2.261   4.121   4.470 -0.2732 -0.6016 -0.4090
 1610SOL    HW116292   2.237   4.097   4.559  1.3352  0.1567  0.2319
 1610SOL    HW216293   2.344   4.167   4.482 -0.7212  0.8903 -2.9134
 1611SOL     OW16294   4.140   3.497   5.513 -0.6563 -0.1410  0.0133
 1611SOL    HW116295   4.053   3.481   5.549 -0.5167  0.4405  0.6193
 1611SOL    HW216296   4.166   3.566   5.574 -0.2490  0.3418 -0.7044
 1612SOL     OW16297   3.923   4.589  12.154  0.0108 -0.3268 -0.4736
 1612SOL    HW116298   3.918   4.498  12.124 -3.2234 -0.7814  1.3972
 1612SOL    HW216299   3.912   4.637  12.072  0.6898  0.3690 -0.1555
 1613SOL     OW16300   3.386   0.214   3.509  0.0897  0.1266  0.1797
 1613SOL    HW116301   3.336   0.296   3.500  1.2233  0.8928  0.8772
 1613SOL    HW216302   3.446   0.220   3.435 -0.4917  0.1752 -0.2963
 1614SOL     OW16303   1.570   1.158  16.421 -0.1437 -0.4052 -0.3349
 1614SOL    HW116304   1.565   1.064  16.437 -1.3151 -0.1957  0.5253
 1614SOL    HW216305   1.529   1.191  16.501 -0.0143  0.4733 -0.6358
 1615SOL     OW16306   0.356   0.016  12.861 -0.5428  0.2433  0.0138
 1615SOL    HW116307   0.446   4.705  12.879 -0.4251 -1.1019 -2.6994
 1615SOL    HW216308   0.380   0.100  12.821 -2.1515  1.3406  1.3800
 1616SOL     OW16309   1.298   4.102   1.080  1.1233  0.0631  0.1838
 1616SOL    HW116310   1.388   4.136   1.082  1.7307 -1.6157  1.1296
 1616SOL    HW216311   1.261   4.169   1.022  1.2602  2.1388  2.5156
 1617SOL     OW16312   0.482   2.946   0.890  0.6811  0.8809  0.0901
 1617SOL    HW116313   0.547   2.889   0.932 -1.1027 -0.1333  1.4962
 1617SOL    HW216314   0.540   3.002   0.839 -0.8869  0.5403 -2.0396
 1618SOL     OW16315   4.379   2.117   6.002  0.3883 -0.3487  0.4690
 1618SOL    HW116316   4.417   2.179   5.940 -0.5085  0.2829  0.5659
 1618SOL    HW216317   4.424   2.036   5.978  0.7727 -0.3649  1.2480
 1619SOL     OW16318   3.413   4.188  10.493  0.0083  0.0010 -0.5418
 1619SOL    HW116319   3.464   4.264  10.464  1.2692 -1.0629 -1.1128
 1619SOL    HW216320   3.468   4.164  10.568 -3.0100 -2.4315  0.8713
 1620SOL     OW16321   2.889   3.367   6.540 -0.0853 -0.0718  0.0107
 1620SOL    HW116322   2.980   3.396   6.541 -0.4039  0.8499  1.6903
 1620SOL    HW216323   2.895   3.296   6.603 -0.1304 -0.5745 -0.5515
 1621SOL     OW16324   1.174   1.277   6.972  0.5962 -0.1061 -0.1179
 1621SOL    HW116325   1.246   1.334   7.001 -0.4732  1.2526 -0.1575
 1621SOL    HW216326   1.198   1.191   7.006 -0.5708  0.2478  1.6141
 1622SOL     OW16327   4.374   4.704   7.805  0.2635  0.6842 -0.3638
 1622SOL    HW116328   4.300   4.682   7.861 -0.3266  0.5391 -1.1994
 1622SOL    HW216329   4.348   4.665   7.721  0.8862  1.6783 -1.0191
 1623SOL     OW16330   3.182   3.580   3.707 -0.0221  0.3598 -0.3141
 1623SOL    HW116331   3.089   3.557   3.710  0.7393 -3.0339 -1.7441
 1623SOL    HW216332   3.218   3.530   3.633 -2.8681  0.9289 -2.1148
 1624SOL     OW16333   3.461   1.571   3.858  0.2315  0.8510  0.6315
 1624SOL    HW116334   3.554   1.584   3.874  0.3430 -0.4137  0.9670
 1624SOL    HW216335   3.455   1.558   3.763 -1.9675  0.3207  0.8464
 1625SOL     OW16336   4.336   0.300   5.171  0.0792 -0.3069  0.5785
 1625SOL    HW116337   4.360   0.229   5.113 -0.9820 -0.4603  0.3219
 1625SOL    HW216338   4.248   0.285   5.136  1.2375 -1.2987 -1.8265
 1626SOL     OW16339   0.846   1.904   7.089  0.4318 -0.1259  0.5762
 1626SOL    HW116340   0.850   1.989   7.133  0.4147  1.1006 -1.8283
 1626SOL    HW216341   0.845   1.941   7.001  0.2363  1.4210  1.2244
 1627SOL     OW16342   2.334   3.942   9.775 -0.2268  0.0441  0.3780
 1627SOL    HW116343   2.378   3.998   9.712  0.7450 -0.8592  0.2485
 1627SOL    HW216344   2.315   4.006   9.843 -0.2872 -0.2777  0.6612
 1628SOL     OW16345   3.800   1.009   5.840  0.0262 -0.2487 -0.4309
 1628SOL    HW116346   3.745   0.963   5.777  0.2501 -0.6700 -0.3201
 1628SOL    HW216347   3.877   1.023   5.785  1.1831 -2.9286  0.5261
 1629SOL     OW16348   2.915   3.244   8.837  0.4920  0.5386 -0.1126
 1629SOL    HW116349   2.846   3.293   8.883  0.9151  1.1655 -0.1431
 1629SOL    HW216350   2.958   3.318   8.794 -0.5923  1.0295 -0.3759
 1630SOL     OW16351   0.980   1.010  15.501  0.5751 -0.7035  0.1148
 1630SOL    HW116352   0.987   1.015  15.596  0.9641  1.3363 -0.0213
 1630SOL    HW216353   1.072   1.025  15.480  0.3313  0.0610 -0.4074
 1631SOL     OW16354   2.410   3.358  13.855  0.0207 -0.2940  0.1613
 1631SOL    HW116355   2.335   3.330  13.907 -0.2071 -0.5648 -0.3136
 1631SOL    HW216356   2.448   3.270  13.856  0.9891  0.1110 -0.9719
 1632SOL     OW16357   2.686   4.519   9.197 -0.5336  0.2278  0.2393
 1632SOL    HW116358   2.591   4.519   9.181 -0.5635  0.9993  0.4011
 1632SOL    HW216359   2.715   4.502   9.107  1.6783 -1.8666  1.3526
 1633SOL     OW16360   2.304   4.391   3.719 -0.6340 -0.0232  0.0082
 1633SOL    HW116361   2.391   4.428   3.720 -0.7274  0.2809 -1.8844
 1633SOL    HW216362   2.320   4.300   3.693  0.8000  0.4431 -0.7158
 1634SOL     OW16363   0.075   1.585   4.825  0.2315 -0.3443 -0.2637
 1634SOL    HW116364   0.055   1.508   4.771  1.0241 -0.4281 -0.4444
 1634SOL    HW216365   0.050   1.655   4.765 -1.1406 -0.9533 -0.4127
 1635SOL     OW16366   0.759   4.594   4.396  0.2868  0.5470  0.1947
 1635SOL    HW116367   0.816   4.669   4.414  3.5010 -2.0928  0.8958
 1635SOL    HW216368   0.690   4.646   4.354  0.7674  0.2157 -0.9919
 1636SOL     OW16369   2.952   0.354  14.555 -0.4963 -0.4373 -1.0129
 1636SOL    HW116370   2.875   0.389  14.510 -0.6457  2.8195  1.8364
 1636SOL    HW216371   3.021   0.388  14.497  1.1587 -1.7200  0.2075
 1637SOL     OW16372   0.008   0.880  13.631 -0.3354 -0.1133 -0.0939
 1637SOL    HW116373   4.678   0.840  13.704 -2.7378 -0.1362 -1.6562
 1637SOL    HW216374   4.666   0.951  13.609 -0.2881  0.7662  2.6634
 1638SOL     OW16375   0.139   4.666   5.883 -1.2230 -0.1613 -0.1686
 1638SOL    HW116376   0.063   4.700   5.929  0.0843 -0.0382  1.9029
 1638SOL    HW216377   0.155   0.022   5.823  0.6273 -2.5652 -2.6658
 1639SOL     OW16378   3.621   3.363  16.070 -0.3679 -0.1934 -0.4733
 1639SOL    HW116379   3.700   3.379  16.018 -0.2582 -2.1414 -0.8829
 1639SOL    HW216380   3.617   3.440  16.127  0.8158 -1.3308  1.1566
 1640SOL     OW16381   3.111   1.221   0.768 -0.0033 -0.3496 -0.3697
 1640SOL    HW116382   3.070   1.139   0.741  2.0700 -1.4469 -0.1525
 1640SOL    HW216383   3.130   1.207   0.861  0.9662 -2.4074 -0.8861
 1641SOL     OW16384   0.475   3.700   7.106 -0.3341 -0.4758 -0.9009
 1641SOL    HW116385   0.389   3.735   7.082 -0.0015  0.1275 -1.1983
 1641SOL    HW216386   0.473   3.610   7.072  1.1043 -0.6099 -0.6060
 1642SOL     OW16387   1.661   1.090   5.947  0.0139  0.1627  0.2849
 1642SOL    HW116388   1.722   1.016   5.946 -1.4959 -1.0849 -0.6909
 1642SOL    HW216389   1.583   1.040   5.969 -0.1866 -0.0954 -0.9813
 1643SOL     OW16390   4.688   0.619   3.130 -0.0463  0.1968  0.4582
 1643SOL    HW116391   0.050   0.569   3.147  0.2684  0.1351 -1.2214
 1643SOL    HW216392   4.679   0.609   3.035 -0.0710 -2.0405  0.7113
 1644SOL     OW16393   1.511   2.312   3.373  0.1909 -0.0691 -0.1572
 1644SOL    HW116394   1.520   2.392   3.321 -1.2554  0.0805 -0.1609
 1644SOL    HW216395   1.520   2.243   3.307  1.9908  0.1161 -0.1243
 1645SOL     OW16396   1.566   1.918   8.402  0.8511 -0.0682  0.2951
 1645SOL    HW116397   1.619   1.992   8.373  1.6904 -1.2598 -1.2221
 1645SOL    HW216398   1.490   1.962   8.440  1.0022  0.4150  0.0337
 1646SOL     OW16399   0.496   0.781   2.657 -0.5791 -0.2696  0.3008
 1646SOL    HW116400   0.466   0.690   2.654 -2.8722  0.5616 -1.4627
 1646SOL    HW216401   0.515   0.786   2.563 -0.2531 -0.5087  0.3529
 1647SOL     OW16402   0.078   1.622   2.107 -0.1736  0.2185 -0.7635
 1647SOL    HW116403   0.079   1.531   2.134 -1.5071 -0.1710 -2.0072
 1647SOL    HW216404   0.172   1.634   2.094 -0.3581  0.9581 -1.4838
 1648SOL     OW16405   3.868   1.654   1.840 -0.5660  0.2248  0.1970
 1648SOL    HW116406   3.926   1.593   1.885 -1.5511 -1.2209 -0.4802
 1648SOL    HW216407   3.921   1.685   1.767 -1.0613  0.1258 -0.2061
 1649SOL     OW16408   0.216   0.229   1.555  0.4623 -0.2640 -0.0957
 1649SOL    HW116409   0.293   0.180   1.585  0.7067 -1.2902 -2.3927
 1649SOL    HW216410   0.167   0.159   1.512 -1.3516  0.8361  0.1577
 1650SOL     OW16411   3.562   1.283   3.241  0.2924  0.3520 -0.2498
 1650SOL    HW116412   3.619   1.214   3.206  0.5097  1.4253 -1.9858
 1650SOL    HW216413   3.536   1.334   3.165 -0.4481  1.0398  0.4640
 1651SOL     OW16414   2.145   3.121   4.520  0.0565  0.2983  0.5316
 1651SOL    HW116415   2.153   3.027   4.537 -0.7535 -0.0564 -1.0737
 1651SOL    HW216416   2.110   3.116   4.431 -0.8322 -0.4064  0.9303
 1652SOL     OW16417   3.711   3.518   4.418 -0.1401  0.2284  0.0477
 1652SOL    HW116418   3.754   3.564   4.346  2.3725 -1.1343  0.6831
 1652SOL    HW216419   3.629   3.491   4.377  0.6415 -0.0397 -1.3504
 1653SOL     OW16420   2.076   2.797  16.711 -0.1420  0.1247 -0.2962
 1653SOL    HW116421   2.076   2.718  16.765  0.3584 -1.3797 -2.5117
 1653SOL    HW216422   2.096   2.868  16.772  0.3600 -1.8729  1.8707
 1654SOL     OW16423   4.283   0.444   2.447 -0.0448  0.0763  0.5367
 1654SOL    HW116424   4.194   0.421   2.420  0.9203 -2.8343 -0.1541
 1654SOL    HW216425   4.267   0.465   2.539 -2.7976 -1.8812  0.4859
 1655SOL     OW16426   1.381   4.079   0.409 -0.7002 -0.0714  0.4437
 1655SOL    HW116427   1.317   4.150   0.399 -1.9841 -1.0842  1.4978
 1655SOL    HW216428   1.444   4.135   0.455  0.2425  0.5299 -1.5847
 1656SOL     OW16429   2.169   2.467   0.094  0.2766  0.0648 -0.4952
 1656SOL    HW116430   2.186   2.489   0.002 -0.7020  2.1647 -0.1799
 1656SOL    HW216431   2.228   2.394   0.113 -0.9972 -0.4264  1.5745
 1657SOL     OW16432   4.286   4.555   4.978 -0.2372  0.1074  0.0826
 1657SOL    HW116433   4.227   4.557   5.053 -1.0618 -4.5076 -0.4777
 1657SOL    HW216434   4.225   4.571   4.906 -0.2999  1.6477  0.4631
 1658SOL     OW16435   2.575   2.809   4.157  0.4085 -0.5285  0.3175
 1658SOL    HW116436   2.623   2.774   4.082  1.9433  0.4003  0.8721
 1658SOL    HW216437   2.569   2.902   4.135 -0.4671 -1.2387 -2.4643
 1659SOL     OW16438   2.352   4.266  14.349 -0.5039  0.1871 -0.0232
 1659SOL    HW116439   2.300   4.218  14.413 -0.5780 -1.3889 -1.2698
 1659SOL    HW216440   2.343   4.198  14.282  0.9556 -1.3793  1.3741
 1660SOL     OW16441   1.681   2.813   5.476  0.7217  0.0999 -0.0094
 1660SOL    HW116442   1.612   2.878   5.492  0.1510 -1.0760  2.2972
 1660SOL    HW216443   1.631   2.740   5.439  0.3277  0.3507  0.0271
 1661SOL     OW16444   2.419   0.861  15.211  0.4507 -0.0212 -0.1446
 1661SOL    HW116445   2.491   0.802  15.232  2.4642  2.2908 -0.4838
 1661SOL    HW216446   2.407   0.895  15.300 -1.6674  2.1297 -1.2456
 1662SOL     OW16447   1.669   1.784   2.259 -0.2512  0.6439 -0.5767
 1662SOL    HW116448   1.761   1.793   2.284 -0.0038 -1.9667 -0.4854
 1662SOL    HW216449   1.627   1.768   2.344 -0.3419 -0.5336 -0.8498
 1663SOL     OW16450   2.725   2.448   3.845  0.0063  0.2255 -0.5900
 1663SOL    HW116451   2.726   2.356   3.816  1.9513 -0.6297  2.2130
 1663SOL    HW216452   2.790   2.458   3.914 -0.2746  0.5548 -0.3728
 1664SOL     OW16453   2.869   3.480  11.570  0.1201  0.1757  0.0736
 1664SOL    HW116454   2.873   3.558  11.626 -0.0789  0.3760 -0.1881
 1664SOL    HW216455   2.921   3.510  11.495  0.1633  5.0056  2.0169
 1665SOL     OW16456   2.461   2.166   9.719  0.3963 -0.2816 -0.5514
 1665SOL    HW116457   2.441   2.239   9.660 -0.7948 -0.3836 -0.2691
 1665SOL    HW216458   2.545   2.134   9.685  1.1466  1.0668  0.0672
 1666SOL     OW16459   1.094   3.700   3.010  0.0609 -0.1447 -0.1336
 1666SOL    HW116460   1.172   3.675   3.060 -0.1762  1.7079  1.1694
 1666SOL    HW216461   1.137   3.758   2.947 -0.1649 -0.5920 -0.7032
 1667SOL     OW16462   3.705   0.088   3.017 -0.5865 -0.1859  0.5229
 1667SOL    HW116463   3.775   0.150   3.036  1.4851 -1.9233 -1.5408
 1667SOL    HW216464   3.743   0.002   2.997 -1.1740 -0.3769  0.2053
 1668SOL     OW16465   2.784   4.634   6.222  0.0266 -0.7266 -1.5103
 1668SOL    HW116466   2.689   4.637   6.213 -0.0093 -0.8851 -1.1731
 1668SOL    HW216467   2.792   4.609   6.314 -1.6730 -0.1949 -1.2225
 1669SOL     OW16468   2.647   1.133   9.380  1.1410 -0.0950  0.2400
 1669SOL    HW116469   2.590   1.153   9.305 -0.9758 -1.4809  1.4871
 1669SOL    HW216470   2.586   1.087   9.436  1.5204 -0.0961  0.6532
 1670SOL     OW16471   3.261   3.487   1.028  0.5873  0.1309 -0.3765
 1670SOL    HW116472   3.183   3.538   1.050  0.6942 -1.5022  3.7797
 1670SOL    HW216473   3.322   3.530   1.087  1.4007  0.1847 -1.2597
 1671SOL     OW16474   1.307   0.411  14.859  0.0229 -0.8477 -0.2173
 1671SOL    HW116475   1.275   0.341  14.916 -1.8364  0.1122 -0.0671
 1671SOL    HW216476   1.267   0.381  14.778  1.7509  0.2044 -1.4503
 1672SOL     OW16477   1.789   0.798   5.272 -0.4401  0.1873  0.8788
 1672SOL    HW116478   1.723   0.825   5.336 -2.1004  0.5626 -1.0041
 1672SOL    HW216479   1.863   0.858   5.286 -0.7100  0.7436 -0.0290
 1673SOL     OW16480   4.000   3.266  14.987 -0.0900  0.2800  0.3847
 1673SOL    HW116481   3.986   3.195  15.050 -0.4309 -0.1043 -0.1198
 1673SOL    HW216482   3.990   3.222  14.902 -0.2023 -0.2983  0.6970
 1674SOL     OW16483   0.458   2.392   6.738  0.1766 -0.6710 -0.3444
 1674SOL    HW116484   0.432   2.312   6.692 -2.1784 -0.7605  1.1661
 1674SOL    HW216485   0.549   2.369   6.758 -0.4469 -2.1786  0.8026
 1675SOL     OW16486   0.568   2.582  14.408  0.4862  0.5308  0.1457
 1675SOL    HW116487   0.515   2.526  14.352  1.0408 -0.4974  0.6355
 1675SOL    HW216488   0.627   2.510  14.434 -0.7551 -1.0291 -1.3487
 1676SOL     OW16489   1.839   1.570  11.483 -0.5757  0.2830 -0.3291
 1676SOL    HW116490   1.764   1.528  11.523 -0.6171  0.9324  0.2926
 1676SOL    HW216491   1.882   1.496  11.441  0.0355 -0.7064  2.0242
 1677SOL     OW16492   0.475   4.522   7.060 -0.6334  0.4074  0.1756
 1677SOL    HW116493   0.566   4.545   7.043 -0.6987  0.7985  0.3558
 1677SOL    HW216494   0.442   4.611   7.072 -2.5090 -0.3996  1.1074
 1678SOL     OW16495   0.220   4.175   6.706 -0.5912 -0.2266  0.2353
 1678SOL    HW116496   0.306   4.144   6.676 -0.9349 -0.3379 -0.6087
 1678SOL    HW216497   0.253   4.247   6.760  1.6092 -0.2852 -1.0369
 1679SOL     OW16498   1.718   1.489   3.999  0.4131 -0.1409  0.2589
 1679SOL    HW116499   1.788   1.439   3.957 -0.6778 -1.4106 -0.0467
 1679SOL    HW216500   1.767   1.556   4.047  1.9517  0.3356 -1.9678
 1680SOL     OW16501   0.810   3.396   6.760  0.1688  0.0222  0.5020
 1680SOL    HW116502   0.821   3.305   6.788 -1.6438 -0.5375 -0.6319
 1680SOL    HW216503   0.878   3.437   6.815 -0.7034  2.5100 -0.2780
 1681SOL     OW16504   4.457   2.223  13.623 -0.2812 -0.0031 -0.3475
 1681SOL    HW116505   4.423   2.193  13.538 -0.6912  2.9614 -1.2259
 1681SOL    HW216506   4.526   2.160  13.645 -1.0010  0.1425  2.2969
 1682SOL     OW16507   2.317   3.942  14.514 -0.8103 -0.3277 -0.3545
 1682SOL    HW116508   2.388   3.880  14.498 -0.4106 -1.3092  5.4394
 1682SOL    HW216509   2.254   3.913  14.448 -0.7719  1.4584 -1.1811
 1683SOL     OW16510   4.468   3.707   4.993 -0.2633 -0.1388  0.5237
 1683SOL    HW116511   4.502   3.791   4.963 -1.4652  0.4818  0.8854
 1683SOL    HW216512   4.381   3.722   5.029 -0.9041  0.0492 -1.0857
 1684SOL     OW16513   4.259   3.812   1.495  0.7952  0.2849  0.0806
 1684SOL    HW116514   4.302   3.809   1.409 -0.6206  0.0263 -0.6288
 1684SOL    HW216515   4.319   3.869   1.543  0.6872  0.7383 -0.3242
 1685SOL     OW16516   3.821   2.264   4.586  0.1618  0.1322  0.5910
 1685SOL    HW116517   3.734   2.280   4.550  0.5148  1.6441  0.4352
 1685SOL    HW216518   3.832   2.169   4.590 -1.4303 -0.0491  0.4113
 1686SOL     OW16519   2.251   1.538   3.113  0.3306  0.7025  0.5958
 1686SOL    HW116520   2.164   1.540   3.153 -0.3506 -0.6474 -0.8153
 1686SOL    HW216521   2.297   1.479   3.173 -1.6951 -0.7598  0.7094
 1687SOL     OW16522   4.422   3.254   6.081 -0.1711  0.3750 -0.5213
 1687SOL    HW116523   4.352   3.300   6.128  2.1719  1.0428  2.3469
 1687SOL    HW216524   4.394   3.271   5.991 -0.2680 -2.0394 -0.9357
 1688SOL     OW16525   2.508   2.448   5.734 -0.6848  0.5175  0.2054
 1688SOL    HW116526   2.590   2.451   5.784 -0.0518  1.1186 -0.8430
 1688SOL    HW216527   2.486   2.541   5.732 -0.5839  0.5440  0.3174
 1689SOL     OW16528   0.300   2.997   4.589 -0.4629  0.7666  0.1743
 1689SOL    HW116529   0.288   2.902   4.583  1.2970  0.5010  0.6564
 1689SOL    HW216530   0.395   2.989   4.583 -0.3434  0.8385  1.8111
 1690SOL     OW16531   0.841   3.625  12.105  0.0930 -0.3376 -0.1927
 1690SOL    HW116532   0.825   3.644  12.013 -2.0958  2.4418  0.7540
 1690SOL    HW216533   0.919   3.569  12.098  0.9744  0.4366  3.1880
 1691SOL     OW16534   0.170   1.338   2.692 -0.1055 -0.3080  0.3309
 1691SOL    HW116535   0.224   1.415   2.711  0.6290 -0.3009 -1.6958
 1691SOL    HW216536   0.239   1.279   2.661 -0.1338  0.6754 -1.6370
 1692SOL     OW16537   3.766   4.401   8.811 -0.1525  0.4685 -0.4889
 1692SOL    HW116538   3.755   4.351   8.730 -2.0976  0.5632 -0.2676
 1692SOL    HW216539   3.780   4.492   8.783 -0.9829  0.7260 -0.0701
 1693SOL     OW16540   1.399   1.161   0.468  0.5653  0.2720 -0.0022
 1693SOL    HW116541   1.402   1.065   0.467 -1.7070  0.2373 -2.3107
 1693SOL    HW216542   1.369   1.187   0.381  0.7072  0.4236 -0.0039
 1694SOL     OW16543   3.320   0.155   3.887  0.0958  0.0107 -0.2110
 1694SOL    HW116544   3.245   0.161   3.828 -0.1082  0.3118  0.0772
 1694SOL    HW216545   3.283   0.082   3.938 -0.2834  1.3003  1.3671
 1695SOL     OW16546   2.676   2.563   8.586 -0.0209  0.3909  0.0763
 1695SOL    HW116547   2.729   2.637   8.616  2.5773 -0.9390 -1.2326
 1695SOL    HW216548   2.715   2.489   8.632 -0.9328  0.8885  1.6551
 1696SOL     OW16549   4.186   1.842   6.085 -0.3458  0.2657  0.4962
 1696SOL    HW116550   4.242   1.857   6.162  0.9509 -2.8507  0.1345
 1696SOL    HW216551   4.229   1.761   6.058  0.2559  1.3678 -1.7781
 1697SOL     OW16552   1.231   0.192  14.979 -0.2938 -0.2021 -0.0958
 1697SOL    HW116553   1.184   0.145  15.047 -1.4600  0.2177 -0.5956
 1697SOL    HW216554   1.312   0.141  14.974  0.6497  1.2459  0.4314
 1698SOL     OW16555   3.942   2.395   7.899 -0.1808 -0.3318 -0.7770
 1698SOL    HW116556   3.895   2.413   7.818  0.7711  1.6123 -0.8869
 1698SOL    HW216557   4.030   2.381   7.865  0.6644 -0.3692  1.3999
 1699SOL     OW16558   0.544   1.531   9.757 -0.2776 -0.1591  0.3041
 1699SOL    HW116559   0.568   1.613   9.716 -1.4636  0.7705  1.4540
 1699SOL    HW216560   0.488   1.572   9.823  1.6786  1.5753  0.8828
 1700SOL     OW16561   2.012   4.485   7.821  0.4762 -0.0795  0.5532
 1700SOL    HW116562   2.047   4.401   7.849 -0.5863  0.1014  2.3943
 1700SOL    HW216563   2.046   4.555   7.876 -0.7561 -0.3229  1.6273
 1701SOL     OW16564   4.411   4.553   2.447 -0.1798  0.4897 -0.4848
 1701SOL    HW116565   4.382   4.614   2.514 -2.0678  0.3622 -1.2023
 1701SOL    HW216566   4.355   4.477   2.464  1.7702 -1.0108 -0.5944
 1702SOL     OW16567   1.736   4.552   5.768 -0.4238  0.3815  0.1779
 1702SOL    HW116568   1.816   4.595   5.799  1.1437 -1.5918 -1.0807
 1702SOL    HW216569   1.784   4.476   5.734 -0.2618 -0.3783  2.0790
 1703SOL     OW16570   4.682   0.730   7.331 -0.0442 -0.1004  0.5187
 1703SOL    HW116571   0.022   0.717   7.406 -1.3234  1.2151  1.7147
 1703SOL    HW216572   4.621   0.791   7.371  0.2263  1.0486 -0.8149
 1704SOL     OW16573   4.006   0.388  10.175  0.3373 -0.3274  0.3618
 1704SOL    HW116574   4.072   0.356  10.113 -1.0200 -1.4100 -0.5267
 1704SOL    HW216575   3.921   0.363  10.138 -0.1666  1.8271  0.0661
 1705SOL     OW16576   1.964   0.200   3.955 -0.6427 -0.1735 -0.1143
 1705SOL    HW116577   1.966   0.274   3.895  0.9755 -0.9158 -0.9886
 1705SOL    HW216578   2.036   0.157   3.908 -0.3666  1.7395 -1.4384
 1706SOL     OW16579   0.482   1.013   4.819 -0.3770 -0.3158 -0.7280
 1706SOL    HW116580   0.408   0.961   4.850 -0.1552 -0.3767 -0.2952
 1706SOL    HW216581   0.446   1.100   4.834 -0.1370 -0.2167 -0.7300
 1707SOL     OW16582   2.976   2.492   6.756  0.4993  0.7724  0.1135
 1707SOL    HW116583   3.018   2.432   6.817 -1.1177  1.5010  1.9698
 1707SOL    HW216584   3.018   2.576   6.777 -0.8767  1.6231 -0.4986
 1708SOL     OW16585   4.377   0.162   6.930  0.0429  0.0827  0.0249
 1708SOL    HW116586   4.414   0.247   6.904 -1.6944  1.1612  1.1072
 1708SOL    HW216587   4.459   0.112   6.938 -0.4250 -0.1147  3.4058
 1709SOL     OW16588   1.722   0.239   5.327  0.7308  0.4305 -0.1080
 1709SOL    HW116589   1.767   0.253   5.410  0.6453  0.8595 -0.1321
 1709SOL    HW216590   1.634   0.276   5.329 -0.9984 -3.8287  2.3441
 1710SOL     OW16591   3.924   2.435   5.470  0.5501  0.3591 -0.0270
 1710SOL    HW116592   3.954   2.403   5.385  1.0725 -0.0673  0.3244
 1710SOL    HW216593   4.007   2.464   5.507  0.8404  0.5088 -0.8059
 1711SOL     OW16594   3.444   4.490  15.606  0.7174  0.3811  0.4463
 1711SOL    HW116595   3.416   4.398  15.601 -0.4405  0.7945 -0.6433
 1711SOL    HW216596   3.531   4.476  15.642 -0.2827 -1.8828  1.9915
 1712SOL     OW16597   3.693   2.662   6.214  0.7262 -0.4833 -0.0134
 1712SOL    HW116598   3.604   2.689   6.188  0.7201  0.4150  0.9787
 1712SOL    HW216599   3.720   2.604   6.143  0.2052  0.1476 -0.7271
 1713SOL     OW16600   1.463   3.301   5.194  0.4290  0.1510 -0.4901
 1713SOL    HW116601   1.498   3.214   5.214  2.3106  1.2949  1.2520
 1713SOL    HW216602   1.446   3.272   5.104  0.2110 -0.4915 -0.2457
 1714SOL     OW16603   3.530   4.502   5.376 -0.0598 -0.4339 -0.7953
 1714SOL    HW116604   3.548   4.440   5.305 -3.1195 -0.5969 -1.4439
 1714SOL    HW216605   3.453   4.551   5.345 -0.0910 -0.1894 -0.3281
 1715SOL     OW16606   2.384   4.398   7.943  0.3087 -0.4621  0.0703
 1715SOL    HW116607   2.434   4.356   8.014  0.7456  0.4094  0.2793
 1715SOL    HW216608   2.455   4.397   7.879  0.3056 -3.3510  0.1185
 1716SOL     OW16609   2.476   3.718   8.721  0.0226 -0.7606  0.5875
 1716SOL    HW116610   2.555   3.665   8.709  0.0677 -0.1714 -1.6649
 1716SOL    HW216611   2.486   3.757   8.808 -0.6267 -0.8094  0.6869
 1717SOL     OW16612   2.975   0.709   3.625 -0.0822 -0.1690  0.3191
 1717SOL    HW116613   2.992   0.656   3.703  0.9928  2.6222  1.9751
 1717SOL    HW216614   2.881   0.705   3.608 -0.4462 -1.7496  2.6536
 1718SOL     OW16615   3.819   2.118   1.727 -0.3249  0.0883 -0.3313
 1718SOL    HW116616   3.910   2.137   1.749 -0.6019  0.8458  0.1774
 1718SOL    HW216617   3.780   2.108   1.814 -1.3504  0.0041 -0.7989
 1719SOL     OW16618   3.953   3.503   6.629 -0.0019 -0.1062  0.2810
 1719SOL    HW116619   4.019   3.468   6.689  1.3841  2.0890  0.0739
 1719SOL    HW216620   3.891   3.526   6.698  0.8664  2.9202  0.0893
 1720SOL     OW16621   0.284   1.185   3.729  0.0739 -0.3228 -0.5439
 1720SOL    HW116622   0.350   1.234   3.779 -0.5231 -2.3152  2.1688
 1720SOL    HW216623   0.304   1.092   3.740 -1.4281 -0.2872  2.2825
 1721SOL     OW16624   2.706   0.660   1.634  0.2931  0.0736  0.0885
 1721SOL    HW116625   2.670   0.638   1.720  0.9185 -0.1386  0.2969
 1721SOL    HW216626   2.671   0.748   1.618  0.4449  0.0827 -0.2069
 1722SOL     OW16627   3.144   2.527   1.499 -0.1308  0.1128 -0.5895
 1722SOL    HW116628   3.096   2.597   1.455  0.0331  0.1169 -0.7614
 1722SOL    HW216629   3.204   2.572   1.558 -0.6924  0.4831 -0.2945
 1723SOL     OW16630   0.171   0.775   4.407 -0.2165  0.2334  0.0223
 1723SOL    HW116631   0.259   0.771   4.369  0.6050  3.0335  1.6275
 1723SOL    HW216632   0.114   0.781   4.331 -2.0751  1.5580  1.5231
 1724SOL     OW16633   2.059   2.533   2.465 -0.5932  0.1156 -0.1373
 1724SOL    HW116634   2.024   2.528   2.376  0.1152 -0.8068 -0.3675
 1724SOL    HW216635   2.080   2.625   2.483  0.0154  0.3663 -2.1213
 1725SOL     OW16636   3.318   4.685   3.600  0.1301  0.8902 -0.5157
 1725SOL    HW116637   3.353   0.050   3.567 -0.1933  1.7244  1.2407
 1725SOL    HW216638   3.367   4.674   3.682 -0.5206  1.6839 -0.0308
 1726SOL     OW16639   0.556   2.672   7.392  0.1292  0.2622 -0.9368
 1726SOL    HW116640   0.607   2.612   7.337 -1.0796 -1.1345 -0.5540
 1726SOL    HW216641   0.493   2.692   7.323  0.1668  2.8865 -0.1859
 1727SOL     OW16642   0.177   0.876   1.120  0.6120 -0.0244  0.3782
 1727SOL    HW116643   0.126   0.905   1.044  0.9591 -1.3137 -0.3529
 1727SOL    HW216644   0.241   0.946   1.132  2.3254 -1.4738 -0.2390
 1728SOL     OW16645   4.448   1.735  15.343  0.3734 -0.0223 -0.0233
 1728SOL    HW116646   4.393   1.761  15.416  1.9780  0.9120  0.8650
 1728SOL    HW216647   4.519   1.689  15.387  1.1771 -0.6501 -1.9348
 1729SOL     OW16648   0.382   1.706  14.783  0.2491 -0.1215 -0.9938
 1729SOL    HW116649   0.409   1.686  14.873 -1.3664  1.9024 -0.0833
 1729SOL    HW216650   0.465   1.710  14.734  0.3559 -2.0118 -0.9847
 1730SOL     OW16651   0.169   1.381   5.266  0.2214 -0.0067  0.4598
 1730SOL    HW116652   0.188   1.417   5.179 -0.5832 -1.5341 -0.3487
 1730SOL    HW216653   0.158   1.287   5.249  1.3016 -0.1415  0.4599
 1731SOL     OW16654   4.571   3.955   2.398 -0.1179 -0.4777  0.0189
 1731SOL    HW116655   4.567   3.921   2.488 -2.6820  1.9909  0.8332
 1731SOL    HW216656   4.665   3.954   2.383  0.4829 -0.2057  3.9051
 1732SOL     OW16657   0.388   0.539   5.698  0.4998 -0.3804  0.1900
 1732SOL    HW116658   0.456   0.581   5.644  0.3605 -0.8596 -0.3581
 1732SOL    HW216659   0.346   0.499   5.622  1.0766  1.7773 -1.2839
 1733SOL     OW16660   0.217   3.487   7.151 -0.4422  0.7762 -0.2851
 1733SOL    HW116661   0.123   3.473   7.150 -0.0303 -2.1887  1.8783
 1733SOL    HW216662   0.222   3.558   7.214  0.4244  1.6434 -1.3306
 1734SOL     OW16663   1.301   3.842   1.121  0.4547 -0.8909  0.1524
 1734SOL    HW116664   1.218   3.809   1.158  0.7525 -2.7794 -0.8333
 1734SOL    HW216665   1.303   3.936   1.136  0.5466 -0.6017 -1.7224
 1735SOL     OW16666   3.223   2.550   5.614 -0.1131 -0.5171 -0.0545
 1735SOL    HW116667   3.264   2.611   5.554 -1.6566  1.4237  0.8738
 1735SOL    HW216668   3.304   2.510   5.645 -0.2898  0.1044  1.2166
 1736SOL     OW16669   3.521   2.800   4.251 -0.1048  0.1761 -0.3162
 1736SOL    HW116670   3.563   2.733   4.305 -0.7053  0.5145  0.5673
 1736SOL    HW216671   3.447   2.825   4.307  0.4185  0.5415  0.2135
 1737SOL     OW16672   3.060   2.393  11.079 -0.2232 -0.1864  0.2742
 1737SOL    HW116673   3.104   2.336  11.141 -0.7757  0.0961  0.9227
 1737SOL    HW216674   3.008   2.439  11.145 -1.9681 -2.2022  0.2879
 1738SOL     OW16675   2.494   2.198  15.299 -0.1069  0.2336  0.4334
 1738SOL    HW116676   2.466   2.118  15.343 -0.7488  0.2575  0.0554
 1738SOL    HW216677   2.466   2.183  15.209  2.8188  1.1851 -0.6550
 1739SOL     OW16678   0.676   3.901  17.459  0.4449 -0.2063 -0.2330
 1739SOL    HW116679   0.702   3.877  17.548 -0.2017 -0.8854 -0.2308
 1739SOL    HW216680   0.589   3.865  17.450  0.1418  0.6702 -0.8296
 1740SOL     OW16681   2.231   4.702   7.189  0.4260 -0.0632  0.7354
 1740SOL    HW116682   2.264   0.028   7.111 -0.2273  0.2445  0.6297
 1740SOL    HW216683   2.167   0.053   7.210 -2.0181 -1.9578 -0.5320
 1741SOL     OW16684   2.606   0.559   4.270 -0.0917  0.2230  0.0631
 1741SOL    HW116685   2.564   0.629   4.220 -0.4674 -0.0384  0.0115
 1741SOL    HW216686   2.573   0.479   4.229  0.3755  0.5320 -0.9247
 1742SOL     OW16687   0.920   4.315   1.263  0.2143  0.3672 -0.4333
 1742SOL    HW116688   0.846   4.341   1.207  0.3162  0.3298 -0.5861
 1742SOL    HW216689   0.994   4.356   1.218  1.6342 -0.4716  1.1454
 1743SOL     OW16690   0.391   2.686   7.182  0.9503  0.2818  0.1384
 1743SOL    HW116691   0.396   2.755   7.116 -1.1950  0.6984  0.4075
 1743SOL    HW216692   0.296   2.680   7.193  0.7750  1.7526 -0.6877
 1744SOL     OW16693   3.591   1.427   7.870  0.1014 -0.2789 -0.0507
 1744SOL    HW116694   3.654   1.488   7.832 -1.9094  0.9374 -1.4409
 1744SOL    HW216695   3.543   1.483   7.930  1.5298 -0.4157  1.1966
 1745SOL     OW16696   4.120   2.859  11.374  0.2316  0.5491 -0.1751
 1745SOL    HW116697   4.175   2.903  11.310  0.2520  0.8150  0.0239
 1745SOL    HW216698   4.042   2.839  11.323  0.1254 -0.4688  0.3823
 1746SOL     OW16699   2.190   1.273   3.940 -0.1658 -0.0607 -0.3117
 1746SOL    HW116700   2.252   1.203   3.959 -0.0391 -0.2079 -1.3085
 1746SOL    HW216701   2.165   1.294   4.030  0.7390 -2.8317  0.6013
 1747SOL     OW16702   0.184   3.305   2.886  0.5296 -0.3770 -0.0078
 1747SOL    HW116703   0.190   3.400   2.877  1.0693 -0.4433 -0.3300
 1747SOL    HW216704   0.147   3.285   2.800  0.1796 -2.5333  0.6392
 1748SOL     OW16705   3.823   2.891   6.831  0.6647  0.4449  0.0012
 1748SOL    HW116706   3.816   2.938   6.748  0.3595 -0.4232 -0.4740
 1748SOL    HW216707   3.778   2.947   6.895 -0.6442 -0.2387 -0.3060
 1749SOL     OW16708   0.765   2.097   5.363  0.4924 -0.1048  0.4772
 1749SOL    HW116709   0.701   2.139   5.305  0.8067 -1.3914 -0.7652
 1749SOL    HW216710   0.727   2.009   5.368 -1.2335  0.5666 -0.6630
 1750SOL     OW16711   4.359   0.385   8.282 -0.1695 -0.3762  0.2929
 1750SOL    HW116712   4.306   0.358   8.207  3.7481 -2.5321 -1.6637
 1750SOL    HW216713   4.302   0.356   8.354 -1.1461  0.7181 -0.0288
 1751SOL     OW16714   3.430   3.139  10.748  0.0223  0.5136 -0.8762
 1751SOL    HW116715   3.399   3.083  10.819  0.1073 -0.5514 -1.6792
 1751SOL    HW216716   3.461   3.212  10.803  0.4663 -0.9949  0.8850
 1752SOL     OW16717   0.430   3.170  14.733  0.5319 -0.0996  0.5453
 1752SOL    HW116718   0.491   3.184  14.805  2.0953  1.5074 -1.0802
 1752SOL    HW216719   0.492   3.133  14.670  0.9845 -0.9620  1.5139
 1753SOL     OW16720   2.023   2.013   4.132  0.0335  0.2561 -0.6286
 1753SOL    HW116721   2.113   1.987   4.149  0.5222  2.0817 -0.4326
 1753SOL    HW216722   2.015   2.106   4.156 -1.5330  0.2507 -1.1365
 1754SOL     OW16723   2.075   1.077   7.965  0.3387 -0.0254 -0.1824
 1754SOL    HW116724   2.053   1.098   8.056 -1.0903 -0.6009 -0.3973
 1754SOL    HW216725   2.089   0.983   7.979 -1.8790 -0.5591 -1.4427
 1755SOL     OW16726   1.883   2.421   7.328 -0.0911  0.8118 -0.3367
 1755SOL    HW116727   1.804   2.435   7.381  0.7420 -0.9966  1.3817
 1755SOL    HW216728   1.853   2.344   7.279  0.0534  0.6420 -0.1609
 1756SOL     OW16729   0.910   0.589   2.136  0.1595  0.0837  0.1524
 1756SOL    HW116730   0.957   0.525   2.083  1.3641  0.2235  1.0567
 1756SOL    HW216731   0.930   0.673   2.095  2.8040 -1.3496 -1.4604
 1757SOL     OW16732   1.635   3.813   4.332  0.3318 -0.0423  0.6341
 1757SOL    HW116733   1.570   3.827   4.263 -0.9008 -3.3607  1.1284
 1757SOL    HW216734   1.648   3.905   4.358 -2.5923 -0.0210  1.9954
 1758SOL     OW16735   1.797   3.392   5.951 -0.3255  0.3423 -0.5704
 1758SOL    HW116736   1.818   3.390   5.858 -1.8235  0.7212 -0.9181
 1758SOL    HW216737   1.738   3.467   5.963 -0.8405 -0.0506 -0.6527
 1759SOL     OW16738   4.470   2.030   8.853 -0.5330 -0.6033 -0.2946
 1759SOL    HW116739   4.389   2.067   8.819 -2.0753 -0.7348  3.2825
 1759SOL    HW216740   4.524   2.017   8.775  1.1869  0.1340  0.7659
 1760SOL     OW16741   1.284   3.278   3.067 -0.3199 -0.6607  0.8103
 1760SOL    HW116742   1.204   3.278   3.119  0.0109 -1.8937  1.3222
 1760SOL    HW216743   1.247   3.312   2.986  2.8879 -1.1276 -0.8473
 1761SOL     OW16744   1.339   1.636   5.222  0.2308  0.3396  0.1833
 1761SOL    HW116745   1.317   1.655   5.313  0.5825  2.3340 -0.1493
 1761SOL    HW216746   1.344   1.725   5.187  1.1862  0.3340  0.3150
 1762SOL     OW16747   3.370   3.812  13.433  0.3724  0.6065  0.1722
 1762SOL    HW116748   3.375   3.718  13.455 -2.3412  0.4658  0.1121
 1762SOL    HW216749   3.460   3.845  13.441  0.0543  1.5732 -0.3242
 1763SOL     OW16750   1.395   4.499   8.814  0.0649  0.0284 -0.2361
 1763SOL    HW116751   1.419   4.559   8.885  0.5383 -0.8636  0.3639
 1763SOL    HW216752   1.300   4.505   8.816 -0.0619 -2.0137  0.3304
 1764SOL     OW16753   4.261   4.420   2.901 -0.1851  0.0434  0.0398
 1764SOL    HW116754   4.219   4.400   2.985 -0.1283 -3.9114 -0.8646
 1764SOL    HW216755   4.189   4.456   2.848 -0.5929  3.0703  2.6334
 1765SOL     OW16756   4.455   3.012   2.409 -0.1343 -0.0408  0.0536
 1765SOL    HW116757   4.413   2.940   2.362  0.8381 -1.6418  1.6562
 1765SOL    HW216758   4.493   3.067   2.339  1.5673 -1.6048 -0.2383
 1766SOL     OW16759   0.720   1.124   2.960 -0.3358 -0.2078 -0.2903
 1766SOL    HW116760   0.805   1.133   3.003  0.1226  1.1051 -1.4507
 1766SOL    HW216761   0.661   1.148   3.031  2.9488 -0.1510  2.3883
 1767SOL     OW16762   2.363   0.332   8.072 -0.2293 -0.6024 -0.4859
 1767SOL    HW116763   2.341   0.308   7.983  1.4838  0.1162 -1.1166
 1767SOL    HW216764   2.302   0.279   8.122 -1.4538  1.0317 -0.2445
 1768SOL     OW16765   1.625   4.314   5.081 -0.0803  0.3006 -0.4107
 1768SOL    HW116766   1.550   4.358   5.039 -0.2928 -1.3274 -1.7221
 1768SOL    HW216767   1.617   4.340   5.173 -2.0971  1.4998 -0.9125
 1769SOL     OW16768   1.242   4.288   6.590  0.3231  0.1903 -0.5732
 1769SOL    HW116769   1.224   4.374   6.629 -3.3088 -1.0413  0.4619
 1769SOL    HW216770   1.332   4.271   6.615 -0.1712 -0.2340  0.9315
 1770SOL     OW16771   2.983   3.377   5.931  0.1714  0.8580  0.1542
 1770SOL    HW116772   3.027   3.461   5.916  1.1645  0.3809  0.3747
 1770SOL    HW216773   2.897   3.387   5.971 -1.7018 -0.9319 -3.4606
 1771SOL     OW16774   4.617   2.621  11.504 -0.3087  0.0308 -0.2024
 1771SOL    HW116775   4.586   2.646  11.591 -0.4211  0.6421 -0.4238
 1771SOL    HW216776   4.559   2.552  11.473 -0.5606  0.4547 -0.6754
 1772SOL     OW16777   0.590   0.653   9.877  0.0012 -0.1206  0.1107
 1772SOL    HW116778   0.587   0.557   9.879  0.0081 -0.0985  0.8801
 1772SOL    HW216779   0.667   0.676   9.929  1.2809 -1.9434 -0.9554
 1773SOL     OW16780   1.695   0.558   8.559 -0.1911  0.1614 -0.7083
 1773SOL    HW116781   1.647   0.614   8.498  0.5579 -0.6914 -2.0730
 1773SOL    HW216782   1.774   0.610   8.573  0.7885 -1.5252  0.0098
 1774SOL     OW16783   4.284   3.301   8.700 -0.4565 -0.1597  0.5492
 1774SOL    HW116784   4.311   3.235   8.635  0.2347  1.5722 -0.9202
 1774SOL    HW216785   4.268   3.375   8.642  2.5371  0.3406  0.3280
 1775SOL     OW16786   3.744   0.388   1.465  0.1698  0.0257 -0.4493
 1775SOL    HW116787   3.695   0.309   1.488 -1.6674  1.7942  1.5692
 1775SOL    HW216788   3.693   0.463   1.496  1.2014  0.0646  1.1708
 1776SOL     OW16789   3.885   2.193   5.808  0.4520  0.1206  0.4011
 1776SOL    HW116790   3.913   2.161   5.723  1.6270  0.8287  0.5134
 1776SOL    HW216791   3.965   2.193   5.861 -0.6129 -0.1999  2.0107
 1777SOL     OW16792   3.257   2.010   6.090  0.0226 -0.1673  0.4284
 1777SOL    HW116793   3.335   1.981   6.137  0.6042 -0.2466 -0.6152
 1777SOL    HW216794   3.279   2.103   6.086 -2.1505  0.3122 -0.2932
 1778SOL     OW16795   3.546   3.588  11.241 -0.4425 -0.1953 -0.0017
 1778SOL    HW116796   3.559   3.647  11.167  1.6627 -0.3087  0.2948
 1778SOL    HW216797   3.606   3.608  11.312 -1.5860 -4.0203  2.0567
 1779SOL     OW16798   0.479   4.035  11.001 -0.3111 -0.3401 -0.2764
 1779SOL    HW116799   0.531   4.070  11.072  2.1659  0.5055 -2.5062
 1779SOL    HW216800   0.406   3.996  11.049  1.0764  0.5830  2.5360
 1780SOL     OW16801   0.539   4.337  13.596 -0.3801  0.4243 -0.4193
 1780SOL    HW116802   0.486   4.416  13.598  1.0106  1.3759 -1.0831
 1780SOL    HW216803   0.465   4.280  13.573  1.0445 -1.0419 -1.3598
 1781SOL     OW16804   1.236   0.774   7.164  0.8569  0.2887 -0.2839
 1781SOL    HW116805   1.194   0.747   7.246 -0.9235 -0.6549 -1.5136
 1781SOL    HW216806   1.316   0.722   7.176  0.8775 -0.2902 -2.8429
 1782SOL     OW16807   0.709   2.236   1.771  0.2852  0.4606  0.2948
 1782SOL    HW116808   0.803   2.217   1.775  0.1808  0.1655  1.2644
 1782SOL    HW216809   0.683   2.164   1.714 -0.1107  1.3577 -0.6560
 1783SOL     OW16810   2.102   2.202   9.707 -0.0338  0.0698 -0.1216
 1783SOL    HW116811   2.180   2.244   9.744 -0.5509  0.6777  0.2792
 1783SOL    HW216812   2.124   2.109   9.707 -0.6004 -0.0598 -0.0584
 1784SOL     OW16813   1.118   4.514   8.794  0.3384 -0.4250  0.3977
 1784SOL    HW116814   1.067   4.585   8.831 -0.4750 -0.9942  0.3550
 1784SOL    HW216815   1.069   4.435   8.818  0.1954 -0.4950 -0.1242
 1785SOL     OW16816   2.878   2.674  15.328 -0.6452  0.1989  0.4635
 1785SOL    HW116817   2.828   2.692  15.408 -1.7188  1.4148 -0.4933
 1785SOL    HW216818   2.949   2.737  15.338  1.0352 -1.3818 -1.6384
 1786SOL     OW16819   3.065   3.660  16.090 -0.4097 -0.8573 -0.0397
 1786SOL    HW116820   3.011   3.583  16.074 -2.2308  1.0899 -3.0638
 1786SOL    HW216821   3.093   3.697  16.007 -1.8988  0.5948  0.1076
 1787SOL     OW16822   2.392   0.852   6.608 -0.0882 -0.4042 -0.1678
 1787SOL    HW116823   2.459   0.831   6.673  1.5070  1.0161 -1.3483
 1787SOL    HW216824   2.387   0.778   6.546 -0.4767  1.7590 -2.7362
 1788SOL     OW16825   3.156   2.918   0.156  0.2558 -0.2966 -0.5835
 1788SOL    HW116826   3.091   2.971   0.202  0.4732 -0.0547 -0.5518
 1788SOL    HW216827   3.220   2.899   0.225  0.9045 -1.1487 -1.4091
 1789SOL     OW16828   1.623   1.476   7.511 -0.6579  0.1216 -0.5259
 1789SOL    HW116829   1.543   1.525   7.494  0.0244  0.9749 -1.2490
 1789SOL    HW216830   1.597   1.435   7.594  1.2930  3.0535  1.5406
 1790SOL     OW16831   1.113   0.245   4.023 -0.6279  0.5064 -0.5184
 1790SOL    HW116832   1.170   0.173   3.996 -1.1652 -0.7522  1.7207
 1790SOL    HW216833   1.039   0.215   3.969 -0.4590 -2.0394  0.6721
 1791SOL     OW16834   4.714   0.921   4.207  0.7214  0.4780 -0.5226
 1791SOL    HW116835   0.081   0.931   4.163  0.5801  1.7500 -0.5096
 1791SOL    HW216836   4.659   0.878   4.142  0.1631  0.6818 -0.1873
 1792SOL     OW16837   2.719   3.792   3.981  0.2491 -0.2884  0.4238
 1792SOL    HW116838   2.626   3.770   3.970  0.4712 -1.0726  0.1332
 1792SOL    HW216839   2.712   3.887   3.992  1.1831 -0.1586 -0.1475
 1793SOL     OW16840   0.272   0.877   8.022  0.4801 -0.1902 -0.3382
 1793SOL    HW116841   0.205   0.810   8.016 -1.7151  1.9479  0.4721
 1793SOL    HW216842   0.299   0.870   8.114  1.9644 -1.2284 -0.8499
 1794SOL     OW16843   2.190   2.655  12.033 -0.0461  0.3917  0.1982
 1794SOL    HW116844   2.221   2.726  11.976  1.3483  0.1071  0.6081
 1794SOL    HW216845   2.272   2.628  12.074  0.1601  2.9582  1.5223
 1795SOL     OW16846   1.593   4.500   7.864 -0.4052 -0.4265  0.3333
 1795SOL    HW116847   1.587   4.462   7.951  2.2264  1.0328  1.1521
 1795SOL    HW216848   1.551   4.433   7.811 -0.3536 -2.0124  2.3025
 1796SOL     OW16849   4.106   0.672   7.218 -0.0568  0.7364 -0.4470
 1796SOL    HW116850   4.062   0.637   7.295  1.3939  0.0766  0.0848
 1796SOL    HW216851   4.112   0.765   7.240 -0.7670  0.7090 -0.1583
 1797SOL     OW16852   1.293   3.541   4.042  0.4894  0.0933  0.2063
 1797SOL    HW116853   1.284   3.530   3.947 -0.2154  2.9826 -0.0347
 1797SOL    HW216854   1.384   3.514   4.060  0.9878  1.2683 -0.5513
 1798SOL     OW16855   1.708   4.175   3.068 -0.2769  0.1459  0.2658
 1798SOL    HW116856   1.778   4.209   3.013  0.6894 -2.7748 -0.3435
 1798SOL    HW216857   1.644   4.242   3.044  0.9702  0.2917 -2.6382
 1799SOL     OW16858   4.549   1.760  12.445 -0.1383 -0.4180 -0.1246
 1799SOL    HW116859   4.531   1.697  12.514  2.1657 -0.3846  0.5039
 1799SOL    HW216860   4.583   1.698  12.381  1.1028 -0.2814  0.4044
 1800SOL     OW16861   0.083   1.826   4.636  0.0881 -0.4039 -0.2952
 1800SOL    HW116862   0.145   1.770   4.588 -0.0881 -2.1703  1.5466
 1800SOL    HW216863   0.149   1.873   4.687  0.7161 -1.6339  0.0206
 1801SOL     OW16864   2.967   4.405   8.724 -0.7023 -0.3234  0.0718
 1801SOL    HW116865   2.921   4.466   8.667 -1.8499 -0.6175  0.6884
 1801SOL    HW216866   2.942   4.320   8.689  1.8660 -0.4445 -1.4565
 1802SOL     OW16867   4.355   2.740  17.086  0.0325  0.4188 -0.2558
 1802SOL    HW116868   4.314   2.826  17.079  0.1222  0.5977  1.3931
 1802SOL    HW216869   4.397   2.723  17.002 -0.6638 -1.1007 -0.3047
 1803SOL     OW16870   4.667   4.063   3.232 -0.0623  0.3262 -0.3014
 1803SOL    HW116871   4.695   3.995   3.171  1.9191  0.2502  0.7181
 1803SOL    HW216872   4.587   4.097   3.192 -1.2071  0.9179  2.5000
 1804SOL     OW16873   0.090   1.613   3.336 -0.2570  0.0986  0.1694
 1804SOL    HW116874   0.173   1.658   3.318 -1.2844  0.6103 -3.2655
 1804SOL    HW216875   0.112   1.527   3.300  0.0025  1.1891 -2.2874
 1805SOL     OW16876   3.964   2.950  12.582  0.6580  0.2178  0.4551
 1805SOL    HW116877   3.970   2.876  12.522  2.3131  0.9260 -0.2568
 1805SOL    HW216878   3.943   2.934  12.674 -1.0136  0.7033  0.1559
 1806SOL     OW16879   2.182   4.257   3.980  0.9601 -0.1891 -0.1982
 1806SOL    HW116880   2.227   4.285   3.900  1.4035  2.2390  0.8998
 1806SOL    HW216881   2.149   4.344   4.002 -1.3258 -0.8994 -0.9104
 1807SOL     OW16882   0.359   3.343   1.006 -0.0648 -0.0828 -0.0415
 1807SOL    HW116883   0.342   3.312   0.918 -0.9261  0.9041 -0.2223
 1807SOL    HW216884   0.404   3.265   1.040 -0.5586 -0.0361  0.7360
 1808SOL     OW16885   2.087   1.972   5.967  0.2056 -0.1314  0.3836
 1808SOL    HW116886   2.024   2.014   5.908  0.9251 -0.6351 -0.7438
 1808SOL    HW216887   2.167   2.022   5.953 -0.8923  0.9089 -2.2704
 1809SOL     OW16888   2.959   2.865  14.183 -0.5401  0.6927  0.8600
 1809SOL    HW116889   2.911   2.919  14.246 -0.5635 -0.2139  1.6152
 1809SOL    HW216890   3.047   2.902  14.196  0.2899 -0.1492 -2.5624
 1810SOL     OW16891   1.751   3.553   2.106  0.4381  0.5329  0.3015
 1810SOL    HW116892   1.669   3.552   2.057  1.9752  0.3192 -2.2755
 1810SOL    HW216893   1.814   3.502   2.054  0.2418  1.5376 -0.9189
 1811SOL     OW16894   1.418   2.437   2.603 -0.2227  0.3028 -0.2685
 1811SOL    HW116895   1.483   2.506   2.611 -0.9254  0.7789  1.2770
 1811SOL    HW216896   1.404   2.426   2.697  0.8900  3.9824  0.3076
 1812SOL     OW16897   1.948   4.010   2.576 -0.2442  0.2152  0.1323
 1812SOL    HW116898   2.024   4.032   2.631 -0.9457  2.0266  0.3984
 1812SOL    HW216899   1.972   4.062   2.500 -2.7163  1.2222  0.0293
 1813SOL     OW16900   1.415   0.877   4.680  0.0165  0.4218  0.7619
 1813SOL    HW116901   1.321   0.885   4.693 -0.4384  0.5874 -2.6294
 1813SOL    HW216902   1.444   0.910   4.765  2.3933  0.4975 -0.0740
 1814SOL     OW16903   1.516   0.852   6.316  0.2938  0.5400 -0.8135
 1814SOL    HW116904   1.454   0.779   6.319 -0.3022  1.1318  1.7828
 1814SOL    HW216905   1.465   0.917   6.365  1.5281 -1.2049  2.7330
 1815SOL     OW16906   3.942   2.884   5.278  0.2761 -0.5228  0.0754
 1815SOL    HW116907   3.877   2.814   5.278  0.1076 -0.3640 -1.7566
 1815SOL    HW216908   3.983   2.863   5.362  0.2133  2.1250  0.7936
 1816SOL     OW16909   4.256   0.447   3.810  0.4784 -0.2922 -0.0089
 1816SOL    HW116910   4.190   0.513   3.787  0.3853  0.0458  1.2300
 1816SOL    HW216911   4.256   0.453   3.905  4.1685 -0.4542  0.0151
 1817SOL     OW16912   0.650   1.664   7.117 -0.1506 -0.1633  0.1110
 1817SOL    HW116913   0.631   1.596   7.181 -0.2204  0.2993  0.5898
 1817SOL    HW216914   0.638   1.745   7.168  0.2189  0.0675 -0.1671
 1818SOL     OW16915   2.897   0.977   3.084 -0.2052 -0.1569  0.5711
 1818SOL    HW116916   2.884   0.961   3.178  0.8989 -2.2231  0.3767
 1818SOL    HW216917   2.946   0.896   3.065 -3.2642 -1.7080 -0.6350
 1819SOL     OW16918   3.291   3.926  13.171  0.4908  0.1213  0.7292
 1819SOL    HW116919   3.221   3.990  13.164 -1.8040 -2.7268 -2.8610
 1819SOL    HW216920   3.312   3.931  13.264 -0.8822 -1.5804  1.1108
 1820SOL     OW16921   2.299   0.644   6.392  0.0480  0.3532 -0.2424
 1820SOL    HW116922   2.344   0.698   6.327  2.2291 -1.4026 -0.2129
 1820SOL    HW216923   2.279   0.557   6.358 -1.1019  0.0636  1.1691
 1821SOL     OW16924   2.280   2.508   9.015 -0.6874  0.5095 -0.3848
 1821SOL    HW116925   2.314   2.479   8.931  1.4944 -0.2498  0.7397
 1821SOL    HW216926   2.344   2.471   9.076  0.5521 -0.5741 -2.3321
 1822SOL     OW16927   2.825   2.869   4.817  0.1125  0.0432 -0.5423
 1822SOL    HW116928   2.773   2.844   4.741 -2.0477 -1.2291  1.3590
 1822SOL    HW216929   2.756   2.861   4.883 -0.6283 -0.9016 -1.4235
 1823SOL     OW16930   3.542   2.450   7.866  0.2299 -0.6635 -0.1755
 1823SOL    HW116931   3.545   2.355   7.855 -1.1408 -0.4139 -2.5285
 1823SOL    HW216932   3.622   2.472   7.818 -1.2377  1.3212 -1.6812
 1824SOL     OW16933   3.898   0.584   4.397  0.0959 -0.2213  0.6677
 1824SOL    HW116934   3.884   0.656   4.458 -2.1988  0.1195 -0.2425
 1824SOL    HW216935   3.817   0.539   4.420  0.7763 -0.5720  2.3964
 1825SOL     OW16936   1.694   3.642   5.267 -0.0529  0.1384 -0.0677
 1825SOL    HW116937   1.742   3.593   5.200 -1.2353  1.1780 -1.6600
 1825SOL    HW216938   1.657   3.708   5.208  0.6245  0.9912  0.4599
 1826SOL     OW16939   1.692   3.198   0.574  0.2612 -0.0349  0.5838
 1826SOL    HW116940   1.616   3.156   0.614  1.1834  0.2005  2.5870
 1826SOL    HW216941   1.643   3.255   0.515  1.3274  0.1122 -0.1654
 1827SOL     OW16942   1.253   0.335   2.805 -0.6336 -0.9898  0.0383
 1827SOL    HW116943   1.304   0.292   2.873  0.8426  1.4379  0.4642
 1827SOL    HW216944   1.203   0.395   2.861  0.6790 -0.0468  0.1835
 1828SOL     OW16945   4.366   4.411  10.528  0.2014 -0.2238  0.5730
 1828SOL    HW116946   4.300   4.382  10.592 -0.5100 -1.7825 -0.8809
 1828SOL    HW216947   4.332   4.392  10.441 -0.6598  0.9091  0.6705
 1829SOL     OW16948   4.629   3.256   8.282 -0.1001  0.3787  0.4237
 1829SOL    HW116949   4.644   3.162   8.272 -2.2124 -0.3097  3.6889
 1829SOL    HW216950   4.675   3.282   8.362 -1.0338 -0.1260  1.1196
 1830SOL     OW16951   0.672   3.126   4.992  0.2201  0.3870 -0.3165
 1830SOL    HW116952   0.599   3.065   4.982  1.7660 -1.4195 -0.4507
 1830SOL    HW216953   0.639   3.201   4.942  2.1171  0.5520 -1.3175
 1831SOL     OW16954   0.288   3.462   6.807  0.0200  0.0973  0.2519
 1831SOL    HW116955   0.318   3.472   6.897 -0.9350  0.4438  0.5310
 1831SOL    HW216956   0.247   3.377   6.819  0.3611  0.1767  1.8953
 1832SOL     OW16957   1.767   1.400   4.795  0.0874 -0.2005 -0.0843
 1832SOL    HW116958   1.807   1.402   4.882  1.1487 -0.6709 -0.5540
 1832SOL    HW216959   1.697   1.335   4.800 -0.1212 -0.0380 -0.9504
 1833SOL     OW16960   2.112   1.789   1.321  0.4775 -0.3395 -0.3859
 1833SOL    HW116961   2.094   1.775   1.228 -1.4987 -3.7651  0.5269
 1833SOL    HW216962   2.156   1.707   1.345  1.9591  1.0148  1.5725
 1834SOL     OW16963   3.686   2.442   3.190  0.5094 -0.3419  0.3291
 1834SOL    HW116964   3.698   2.411   3.280 -0.3492  3.0696  1.6405
 1834SOL    HW216965   3.774   2.470   3.166 -0.8811  0.7437 -3.4532
 1835SOL     OW16966   3.639   0.724   0.729 -0.1791 -0.6379  0.3419
 1835SOL    HW116967   3.547   0.743   0.711 -0.2109 -0.2595  0.8992
 1835SOL    HW216968   3.637   0.740   0.823  3.8622  0.9312  0.1835
 1836SOL     OW16969   0.085   1.496   8.011 -0.2677 -0.2828 -0.1495
 1836SOL    HW116970   0.013   1.555   7.991  2.1427  1.7521 -2.7964
 1836SOL    HW216971   0.038   1.435   8.068 -0.9201  0.1002 -0.2740
 1837SOL     OW16972   2.163   2.687   4.409 -0.7292 -0.2572  0.4100
 1837SOL    HW116973   2.165   2.703   4.315  1.4599 -1.3886  0.2482
 1837SOL    HW216974   2.258   2.675   4.421 -0.7360  0.0990  0.8346
 1838SOL     OW16975   4.149   3.705   0.264 -0.5899  0.1008  0.1526
 1838SOL    HW116976   4.107   3.681   0.182  0.2267 -1.8651  0.3138
 1838SOL    HW216977   4.148   3.797   0.236 -0.3578  0.0026 -0.1772
 1839SOL     OW16978   4.429   3.972   1.621 -0.4697 -0.6245 -0.0557
 1839SOL    HW116979   4.414   4.062   1.591  1.4956 -0.7356 -1.3324
 1839SOL    HW216980   4.386   3.985   1.706  1.2200 -1.0008  0.8462
 1840SOL     OW16981   3.282   0.834  12.253 -0.2362 -1.1570 -0.2581
 1840SOL    HW116982   3.221   0.894  12.297  0.3713  0.3350 -1.4427
 1840SOL    HW216983   3.224   0.759  12.241 -2.5800  0.3141  1.6759
 1841SOL     OW16984   3.764   3.224   4.831 -0.0766 -0.4232  0.4650
 1841SOL    HW116985   3.672   3.199   4.820 -0.6283  1.4011  0.8532
 1841SOL    HW216986   3.800   3.149   4.878  0.6666  0.5518  1.4443
 1842SOL     OW16987   4.113   4.601  13.411  0.4147 -0.0472 -0.1642
 1842SOL    HW116988   4.206   4.619  13.406  0.4805  0.0998  1.5681
 1842SOL    HW216989   4.085   4.652  13.336 -0.6130 -1.9511 -1.0906
 1843SOL     OW16990   1.022   3.547  11.386 -0.5682  0.0981  0.1117
 1843SOL    HW116991   1.017   3.584  11.474  0.6999 -0.0071  0.2306
 1843SOL    HW216992   1.095   3.486  11.397 -0.7191 -0.4399 -1.8133
 1844SOL     OW16993   2.763   1.379   8.021 -0.0207  0.2142 -0.2540
 1844SOL    HW116994   2.847   1.333   8.012  2.0805  3.5045  2.9102
 1844SOL    HW216995   2.744   1.373   8.114 -2.6077 -0.6429 -0.8465
 1845SOL     OW16996   3.018   2.270   8.803 -0.9521  0.2233 -0.1734
 1845SOL    HW116997   3.002   2.326   8.879 -0.9268  0.9133 -0.6717
 1845SOL    HW216998   3.071   2.208   8.853  1.4282  2.6092  0.2983
 1846SOL     OW16999   2.118   2.382   4.972  0.4135 -0.2752 -0.3038
 1846SOL    HW117000   2.047   2.340   4.923 -0.5548  0.9174  0.0874
 1846SOL    HW217001   2.161   2.311   5.019 -0.6183 -0.3289  0.5563
 1847SOL     OW17002   3.431   0.641  12.368 -0.1140  0.6001 -0.6352
 1847SOL    HW117003   3.442   0.602  12.282  1.9309  0.0469 -0.1284
 1847SOL    HW217004   3.389   0.725  12.352  2.8964  2.1146 -0.4346
 1848SOL     OW17005   3.648   4.341  16.853 -0.7560  0.1908  0.5241
 1848SOL    HW117006   3.659   4.266  16.911  0.8831 -0.7011 -0.9542
 1848SOL    HW217007   3.637   4.300  16.767 -0.4271 -2.0334  1.5402
 1849SOL     OW17008   0.001   3.097  14.064 -0.4214  0.4002  0.0798
 1849SOL    HW117009   4.668   3.157  14.119 -0.9068 -0.0645  0.1339
 1849SOL    HW217010   0.018   3.149  13.986 -2.2209 -0.0383 -0.5972
 1850SOL     OW17011   1.109   2.857  12.878  0.6829  0.1350 -0.5728
 1850SOL    HW117012   1.028   2.892  12.914  1.4886  0.2961  1.0956
 1850SOL    HW217013   1.081   2.839  12.788 -1.5769  0.0888  0.1427
 1851SOL     OW17014   1.269   2.933   3.533 -0.1590  0.1265 -0.2053
 1851SOL    HW117015   1.319   2.982   3.468  2.1737  0.3835  1.7805
 1851SOL    HW217016   1.184   2.921   3.492 -1.0010 -0.4795  1.7197
 1852SOL     OW17017   1.431   3.349   3.286 -0.4542 -0.1415  0.2643
 1852SOL    HW117018   1.384   3.309   3.213 -1.8260  0.9343  0.5529
 1852SOL    HW217019   1.430   3.266   3.334  3.1127  0.7913  1.9318
 1853SOL     OW17020   4.037   1.122   7.890  0.0831 -0.5205  0.7486
 1853SOL    HW117021   4.086   1.070   7.954  0.4991 -0.6822  0.2886
 1853SOL    HW217022   3.958   1.151   7.937  0.9979  0.3911  1.7315
 1854SOL     OW17023   3.170   2.865  11.407 -0.5418  0.3291  0.0889
 1854SOL    HW117024   3.140   2.903  11.324  1.4943 -2.9115 -2.1591
 1854SOL    HW217025   3.100   2.890  11.467 -0.8184  0.6067 -0.3529
 1855SOL     OW17026   0.954   0.724  17.511  0.1167  0.0854  0.6538
 1855SOL    HW117027   0.920   0.692  17.427  1.9699 -1.3677  0.4613
 1855SOL    HW217028   1.012   0.798  17.496  1.1641 -1.3822 -2.5463
 1856SOL     OW17029   1.011   0.545  15.187  0.0087  0.1723 -0.0548
 1856SOL    HW117030   1.029   0.543  15.281 -1.5376  0.7375  0.2570
 1856SOL    HW217031   0.923   0.583  15.188  0.7137  1.8371 -0.8607
 1857SOL     OW17032   0.997   4.339   1.588  0.4731  0.7834  0.0726
 1857SOL    HW117033   0.933   4.286   1.539 -0.5810  1.9920  0.1567
 1857SOL    HW217034   1.058   4.368   1.520 -0.7011  0.8471 -0.9588
 1858SOL     OW17035   3.291   2.871   9.618 -0.0257 -0.2995 -0.6487
 1858SOL    HW117036   3.236   2.913   9.552 -0.8777 -0.2464  0.0942
 1858SOL    HW217037   3.318   2.790   9.576  0.1153  0.4443 -1.9931
 1859SOL     OW17038   1.797   0.912   8.308 -0.2731  0.1667  0.4434
 1859SOL    HW117039   1.836   0.825   8.300  0.2382  0.2243  2.2569
 1859SOL    HW217040   1.708   0.899   8.275 -0.0340 -0.4208  0.0316
 1860SOL     OW17041   0.221   1.538   5.668 -0.2426  0.6144  0.3723
 1860SOL    HW117042   0.132   1.525   5.700 -0.1368  1.7073  1.1153
 1860SOL    HW217043   0.225   1.630   5.641  0.5129  0.5835  0.3675
 1861SOL     OW17044   2.669   2.802   7.538 -0.3632  0.8115 -0.5791
 1861SOL    HW117045   2.604   2.733   7.552  0.7795 -0.3889 -1.0949
 1861SOL    HW217046   2.752   2.758   7.558  0.2546  2.2540  0.0140
 1862SOL     OW17047   2.437   4.518  14.089 -0.9527  0.2410  0.1383
 1862SOL    HW117048   2.476   4.431  14.092  0.7832  0.9985 -0.3707
 1862SOL    HW217049   2.453   4.547  14.179  0.1858 -0.0331  0.0231
 1863SOL     OW17050   1.146   3.685   4.224 -0.9418  0.0754  0.0577
 1863SOL    HW117051   1.067   3.653   4.181 -1.8844  1.5915  0.6822
 1863SOL    HW217052   1.210   3.657   4.158  0.5935  0.4756  1.3851
 1864SOL     OW17053   1.909   1.851   0.846  0.2438  0.8697 -0.4160
 1864SOL    HW117054   1.907   1.856   0.750  1.8921  0.8774 -0.4475
 1864SOL    HW217055   1.879   1.941   0.857 -1.1951  0.3532 -0.1165
 1865SOL     OW17056   1.311   0.195   1.284 -0.1204  0.1055 -0.2182
 1865SOL    HW117057   1.240   0.258   1.268  0.5558  1.2519  1.2773
 1865SOL    HW217058   1.302   0.163   1.374 -1.7350  1.7066  0.1845
 1866SOL     OW17059   2.697   3.428  15.307 -0.1396  0.0034 -0.3318
 1866SOL    HW117060   2.626   3.490  15.290  0.6549  1.3134  1.0446
 1866SOL    HW217061   2.648   3.346  15.316  1.1159 -0.5685  1.1958
 1867SOL     OW17062   1.373   2.951   1.213 -0.2600 -0.0160  0.8095
 1867SOL    HW117063   1.281   2.968   1.234 -0.7226 -0.3600 -0.9624
 1867SOL    HW217064   1.387   3.022   1.151 -1.2685  1.2427  2.0393
 1868SOL     OW17065   2.208   3.834   1.450 -0.3462 -0.0666 -0.7343
 1868SOL    HW117066   2.252   3.919   1.442  0.2927 -0.0815  2.6311
 1868SOL    HW217067   2.275   3.782   1.404 -0.5985  1.0253 -2.3249
 1869SOL     OW17068   2.006   3.083   6.890 -0.1080 -0.3201 -0.2934
 1869SOL    HW117069   1.917   3.050   6.901  0.6597 -2.7369 -1.3489
 1869SOL    HW217070   2.041   3.029   6.819  0.7988 -2.9639  2.1587
 1870SOL     OW17071   2.223   1.690   0.300 -0.0648 -0.3104  0.7039
 1870SOL    HW117072   2.281   1.658   0.369 -0.3391 -1.2787  0.4896
 1870SOL    HW217073   2.143   1.642   0.324 -0.9130  1.3090  1.1067
 1871SOL     OW17074   2.899   3.893   4.469  0.0489  0.1496  0.0225
 1871SOL    HW117075   2.908   3.956   4.540 -0.2718  1.2082 -0.8917
 1871SOL    HW217076   2.870   3.953   4.400 -1.2226 -1.2273 -0.6550
 1872SOL     OW17077   2.798   4.341   0.490  0.2345 -0.4415  0.6622
 1872SOL    HW117078   2.864   4.276   0.513 -1.8687 -2.9776 -0.4593
 1872SOL    HW217079   2.729   4.278   0.467 -0.4419  0.7623 -0.5779
 1873SOL     OW17080   4.027   0.786   3.096 -0.5784 -0.2803  0.3270
 1873SOL    HW117081   4.006   0.705   3.143 -0.6172 -1.0520 -1.0389
 1873SOL    HW217082   4.096   0.763   3.035  0.5946  1.7581  0.9056
 1874SOL     OW17083   0.837   4.097   3.873  0.0751 -0.4870  0.3241
 1874SOL    HW117084   0.902   4.152   3.917 -0.5252  0.7105 -0.2900
 1874SOL    HW217085   0.857   4.013   3.914  0.7097 -0.4660  0.0568
 1875SOL     OW17086   4.387   2.190   6.253  0.0697  0.0375 -0.2177
 1875SOL    HW117087   4.474   2.152   6.260 -0.9098 -2.3012 -0.9268
 1875SOL    HW217088   4.378   2.175   6.159  0.1420 -0.1345 -0.1966
 1876SOL     OW17089   1.335   0.042   8.492 -0.5248  0.3902 -0.3290
 1876SOL    HW117090   1.280   4.683   8.481 -0.4203  0.1969  0.5054
 1876SOL    HW217091   1.417   4.717   8.515 -2.2921 -0.7672  3.8102
 1877SOL     OW17092   4.029   2.153   0.943  0.8330 -0.5263  0.1947
 1877SOL    HW117093   4.018   2.100   0.864  0.1431  0.7886 -0.5977
 1877SOL    HW217094   4.050   2.086   1.008  3.1489 -0.9524 -0.9811
 1878SOL     OW17095   2.581   0.631   1.874  0.5554 -0.6251  0.4037
 1878SOL    HW117096   2.533   0.634   1.956 -0.5325  1.7625 -0.3265
 1878SOL    HW217097   2.551   0.717   1.844  0.9535 -0.4052  0.6501
 1879SOL     OW17098   1.526   0.432  12.926 -0.8173 -0.0633 -0.0894
 1879SOL    HW117099   1.518   0.419  13.021 -0.7723  1.4132  0.1237
 1879SOL    HW217100   1.503   0.524  12.909 -2.4330 -0.2570  1.0572
 1880SOL     OW17101   1.105   1.114   2.398 -0.6518  0.4476  0.6260
 1880SOL    HW117102   1.024   1.067   2.419 -0.8601  1.2836  1.6866
 1880SOL    HW217103   1.106   1.165   2.479  2.6150  1.8596 -0.3144
 1881SOL     OW17104   1.616   2.463   5.840  0.1064 -0.2165 -0.4955
 1881SOL    HW117105   1.657   2.432   5.759 -1.7034 -1.1403 -1.0661
 1881SOL    HW217106   1.524   2.445   5.818 -0.3780  3.8168 -1.7529
 1882SOL     OW17107   4.705   1.527   6.502  0.5485 -0.2695 -0.5574
 1882SOL    HW117108   4.658   1.449   6.532 -1.7936  1.4773  0.3040
 1882SOL    HW217109   0.073   1.492   6.476 -0.6752 -1.9522 -2.3172
 1883SOL     OW17110   2.768   2.851   7.900  0.7141 -0.5410 -0.6085
 1883SOL    HW117111   2.746   2.939   7.871  2.4744 -0.8729 -2.9324
 1883SOL    HW217112   2.841   2.861   7.962  1.6449  1.4032 -2.0122
 1884SOL     OW17113   0.917   0.986   5.079  0.3035  0.1078 -0.1595
 1884SOL    HW117114   0.902   0.892   5.070  0.6128 -0.1655  2.0631
 1884SOL    HW217115   0.836   1.017   5.038  1.1117  1.4979 -0.6965
 1885SOL     OW17116   4.197   0.747   8.495  0.4172  0.4379  0.2077
 1885SOL    HW117117   4.146   0.765   8.417  1.6910 -0.9305 -0.9505
 1885SOL    HW217118   4.255   0.823   8.491 -0.7164  1.2518 -0.3960
 1886SOL     OW17119   4.385   2.469   2.898 -0.1466  0.2063  0.1179
 1886SOL    HW117120   4.455   2.451   2.835 -1.5171  0.3695 -1.4265
 1886SOL    HW217121   4.410   2.559   2.919 -0.2699  0.5430 -1.1788
 1887SOL     OW17122   0.809   4.114   3.471  0.3452 -0.3014 -0.1255
 1887SOL    HW117123   0.886   4.114   3.527  1.1827  2.4075 -1.3064
 1887SOL    HW217124   0.771   4.029   3.495  1.2175 -0.2643  1.3496
 1888SOL     OW17125   1.997   0.437   3.828  0.2222 -1.1926 -0.1684
 1888SOL    HW117126   2.006   0.530   3.852 -2.1412 -0.9675 -0.2255
 1888SOL    HW217127   2.084   0.430   3.789 -0.0314  1.5591 -1.2363
 1889SOL     OW17128   4.258   2.526   4.484 -0.1974 -0.3462  0.2303
 1889SOL    HW117129   4.182   2.583   4.475  0.8248  0.8621 -0.7305
 1889SOL    HW217130   4.236   2.493   4.571  0.7127 -2.5498 -0.3864
 1890SOL     OW17131   1.485   2.625   7.470  0.5526 -0.8387  0.0015
 1890SOL    HW117132   1.486   2.530   7.480 -1.9815 -0.5394  3.1394
 1890SOL    HW217133   1.506   2.656   7.558 -2.8024  2.3907 -0.3452
 1891SOL     OW17134   1.286   2.798   3.041  0.2004  0.0132  0.3004
 1891SOL    HW117135   1.241   2.732   3.094 -1.6229 -0.2182 -1.5097
 1891SOL    HW217136   1.267   2.774   2.950  0.1055 -2.6460  1.0221
 1892SOL     OW17137   4.216   2.416   1.030  0.6643  0.0223  0.4961
 1892SOL    HW117138   4.208   2.488   0.967  1.3409 -0.5940 -0.2982
 1892SOL    HW217139   4.194   2.338   0.979 -0.2238  1.0360 -0.6549
 1893SOL     OW17140   0.859   0.360   8.404 -0.0378 -0.1180  0.6093
 1893SOL    HW117141   0.836   0.442   8.448  1.0460 -0.1526  1.2306
 1893SOL    HW217142   0.833   0.372   8.313 -0.7409 -1.4409  0.6375
 1894SOL     OW17143   0.717   1.646  10.979  0.0739 -0.3520 -0.2247
 1894SOL    HW117144   0.702   1.734  10.947  2.6315 -0.5993 -2.0107
 1894SOL    HW217145   0.741   1.656  11.071 -0.5081 -0.4548 -0.0557
 1895SOL     OW17146   3.171   0.266  11.239 -0.5793 -0.2934  0.5391
 1895SOL    HW117147   3.263   0.290  11.230 -0.5719  0.0568  1.5267
 1895SOL    HW217148   3.156   0.206  11.166 -1.0957 -0.5844  0.8839
 1896SOL     OW17149   2.157   0.757   5.854  0.5282 -0.2199  0.0716
 1896SOL    HW117150   2.169   0.843   5.815  0.5941 -1.0671 -1.7665
 1896SOL    HW217151   2.235   0.760   5.910  0.0807  1.2932  0.6035
 1897SOL     OW17152   1.712   2.309   5.335 -0.0967 -0.4379 -0.0005
 1897SOL    HW117153   1.760   2.251   5.277 -1.5491 -1.3870 -0.2580
 1897SOL    HW217154   1.763   2.388   5.316 -0.1261 -0.2292  0.7752
 1898SOL     OW17155   1.808   1.818   6.738  0.2606  0.0644 -0.1197
 1898SOL    HW117156   1.723   1.796   6.776 -0.0493  0.7960 -0.3817
 1898SOL    HW217157   1.812   1.914   6.732 -1.0364 -0.0241 -2.8439
 1899SOL     OW17158   2.997   3.472   3.393 -0.4051 -0.0149 -0.1272
 1899SOL    HW117159   3.088   3.452   3.416 -0.8723  0.6564  2.2666
 1899SOL    HW217160   2.959   3.494   3.478 -0.8582 -1.0248 -0.0625
 1900SOL     OW17161   1.762   4.270   7.517  0.0091 -0.0321  0.0588
 1900SOL    HW117162   1.824   4.203   7.547  0.9440  0.3377 -1.0805
 1900SOL    HW217163   1.781   4.282   7.424 -0.2922  1.2129  0.1618
 1901SOL     OW17164   3.591   0.994  17.275 -0.1773  0.5711  0.2363
 1901SOL    HW117165   3.656   1.063  17.261  0.4053 -0.0410 -0.0940
 1901SOL    HW217166   3.627   0.961  17.357 -2.3926 -3.0060 -0.2355
 1902SOL     OW17167   2.232   3.818   4.003  0.1700 -0.2998  0.0018
 1902SOL    HW117168   2.141   3.787   3.996 -0.1885  0.0056  3.0456
 1902SOL    HW217169   2.234   3.848   4.094  3.4405 -1.8251  0.4094
 1903SOL     OW17170   2.583   4.306  12.835 -0.1965 -0.2892 -0.0908
 1903SOL    HW117171   2.639   4.312  12.758  0.4174 -0.3883  0.3478
 1903SOL    HW217172   2.518   4.240  12.809 -1.2857 -0.3972  2.9026
 1904SOL     OW17173   2.802   1.292   5.341  0.0495 -0.1122 -1.0444
 1904SOL    HW117174   2.819   1.197   5.343  0.8561  0.0516 -0.1253
 1904SOL    HW217175   2.824   1.308   5.433 -0.1847  1.2587 -1.2264
 1905SOL     OW17176   4.714   2.457   5.654  0.0234 -0.3581 -0.8497
 1905SOL    HW117177   0.048   2.378   5.666 -0.3815 -0.2591  1.6954
 1905SOL    HW217178   0.062   2.507   5.605  0.5757  1.4498  1.7302
 1906SOL     OW17179   3.654   1.640   9.280  0.2970  1.3174  0.2772
 1906SOL    HW117180   3.677   1.709   9.343  1.2077 -0.1450  1.5610
 1906SOL    HW217181   3.599   1.691   9.220 -1.6012 -0.2635  0.6811
 1907SOL     OW17182   4.715   2.350   2.945 -0.0099 -0.4621 -0.1547
 1907SOL    HW117183   4.692   2.439   2.916 -0.7818 -0.9480 -1.0357
 1907SOL    HW217184   4.708   2.305   2.860  1.1972 -1.5840  0.3456
 1908SOL     OW17185   0.458   4.450  12.163  0.1979 -0.3072 -0.7559
 1908SOL    HW117186   0.461   4.444  12.068  1.0801 -0.4927 -0.7159
 1908SOL    HW217187   0.468   4.543  12.185  1.5632 -1.0022  1.5894
 1909SOL     OW17188   2.012   1.223   2.800  0.1680 -0.2701 -0.0912
 1909SOL    HW117189   2.055   1.302   2.832  0.3314 -0.5241  0.3281
 1909SOL    HW217190   2.058   1.220   2.716 -0.9937 -1.7747 -0.6788
 1910SOL     OW17191   0.177   2.570   0.281  0.1956 -0.1115  0.4205
 1910SOL    HW117192   0.145   2.659   0.300  3.6118  0.8224  1.8036
 1910SOL    HW217193   0.252   2.593   0.226  1.9651 -0.0035  2.8747
 1911SOL     OW17194   2.999   3.706  14.724 -0.3395  0.0058 -0.6054
 1911SOL    HW117195   2.921   3.666  14.761  0.6195 -0.0289  1.3367
 1911SOL    HW217196   2.947   3.776  14.683 -0.4683 -0.4171 -1.1648
 1912SOL     OW17197   4.375   2.219   9.317 -0.0527  0.1731  0.4483
 1912SOL    HW117198   4.360   2.299   9.266 -1.1382  0.3847  1.1091
 1912SOL    HW217199   4.380   2.157   9.243 -2.3304 -1.8591  1.9979
 1913SOL     OW17200   1.954   2.044  17.469 -0.5579 -0.1355 -0.2051
 1913SOL    HW117201   1.868   2.011  17.443  0.0228 -0.7110 -1.3875
 1913SOL    HW217202   2.005   1.976  17.425  0.5281  0.7576 -0.3292
 1914SOL     OW17203   0.578   3.076   7.800  0.0761  0.6658 -0.1595
 1914SOL    HW117204   0.532   3.027   7.868 -2.2568 -0.1540 -2.3230
 1914SOL    HW217205   0.667   3.080   7.835 -0.1743 -0.3184  0.5806
 1915SOL     OW17206   2.675   4.383   6.870 -0.2038  0.1302  0.7210
 1915SOL    HW117207   2.634   4.303   6.904  0.2411 -0.1620  0.5696
 1915SOL    HW217208   2.659   4.433   6.950 -1.1276 -1.0428  1.2677
 1916SOL     OW17209   2.101   3.172  15.587  0.0249 -0.2424  0.0255
 1916SOL    HW117210   2.054   3.111  15.644  0.4748 -0.8771 -0.2737
 1916SOL    HW217211   2.132   3.106  15.524 -1.6391 -0.5516 -0.4662
 1917SOL     OW17212   0.259   4.154   8.569 -0.7858  0.2589  0.0552
 1917SOL    HW117213   0.171   4.126   8.544 -1.1590  0.1888  1.4300
 1917SOL    HW217214   0.240   4.220   8.635 -2.3870  1.4384 -1.5868
 1918SOL     OW17215   0.268   1.678   3.918  0.1369  0.2561  0.7341
 1918SOL    HW117216   0.235   1.767   3.926  0.6169  0.7749 -2.7101
 1918SOL    HW217217   0.280   1.656   4.010 -0.2440 -2.6233  0.0909
 1919SOL     OW17218   0.277   3.454   3.274  0.1838  0.6145 -0.1217
 1919SOL    HW117219   0.264   3.409   3.357 -0.3270 -0.2154 -0.6527
 1919SOL    HW217220   0.271   3.379   3.215  1.0508  0.4310  0.0278
 1920SOL     OW17221   4.528   3.048   4.020  0.4079  0.4434 -0.6302
 1920SOL    HW117222   4.493   3.119   4.073  1.2763  0.7982 -0.5373
 1920SOL    HW217223   4.457   3.035   3.956 -0.3270  0.6495  0.1461
 1921SOL     OW17224   0.566   0.301   7.843  0.5624  0.1678 -0.9698
 1921SOL    HW117225   0.486   0.252   7.863  0.7633  0.5926  0.8431
 1921SOL    HW217226   0.610   0.251   7.774  0.1861 -0.0517 -1.0522
 1922SOL     OW17227   1.542   3.811  17.201 -0.5165 -0.0605 -0.1681
 1922SOL    HW117228   1.543   3.904  17.225 -1.7380  0.4678 -2.1263
 1922SOL    HW217229   1.535   3.759  17.281 -1.5317  1.1795  0.5644
 1923SOL     OW17230   1.266   0.447   7.174 -0.0665  0.1714  0.4079
 1923SOL    HW117231   1.271   0.353   7.190  0.2631  0.5532  2.5598
 1923SOL    HW217232   1.325   0.445   7.099 -1.5755  2.5904 -0.8530
 1924SOL     OW17233   2.593   4.126   7.478 -0.2755 -0.1118  0.1104
 1924SOL    HW117234   2.551   4.145   7.562  0.9429  0.3601  0.6158
 1924SOL    HW217235   2.684   4.149   7.501 -0.2144 -0.8519  0.6245
 1925SOL     OW17236   3.798   1.201   3.117 -0.0866  0.1993 -0.0085
 1925SOL    HW117237   3.797   1.115   3.076  1.3551 -0.0604  0.4953
 1925SOL    HW217238   3.893   1.215   3.118 -0.2386  1.0521  1.7505
 1926SOL     OW17239   1.464   1.055   9.047  0.7642  0.0224  0.8160
 1926SOL    HW117240   1.498   0.994   9.112  0.0811  0.0246  1.1796
 1926SOL    HW217241   1.538   1.116   9.051  1.8330 -1.1402 -1.4506
 1927SOL     OW17242   3.449   4.586   7.511 -0.0882 -0.9130  0.1717
 1927SOL    HW117243   3.388   4.586   7.438 -1.1122 -2.4711  1.0089
 1927SOL    HW217244   3.391   4.619   7.580  1.0043  0.4241  0.4470
 1928SOL     OW17245   3.948   3.910   4.858  0.1374 -0.6640  0.4305
 1928SOL    HW117246   3.880   3.880   4.919 -1.5635  2.1197 -0.1324
 1928SOL    HW217247   4.010   3.837   4.868  1.0674  0.0707 -0.0492
 1929SOL     OW17248   3.353   4.497   7.052 -0.2324 -0.0592 -0.5414
 1929SOL    HW117249   3.361   4.592   7.039 -2.1398 -0.1867 -2.6224
 1929SOL    HW217250   3.312   4.483   6.967 -1.3921 -1.3575  0.2453
 1930SOL     OW17251   3.505   3.923   8.648  0.2349  0.3082 -0.0206
 1930SOL    HW117252   3.435   3.930   8.712  1.2836  2.9759  0.8593
 1930SOL    HW217253   3.537   4.013   8.647 -0.0166  0.3969 -0.1017
 1931SOL     OW17254   2.140   1.394  16.413 -0.0782 -0.3036  0.6115
 1931SOL    HW117255   2.064   1.350  16.376  1.6089 -1.5328 -1.3312
 1931SOL    HW217256   2.189   1.404  16.332 -1.3723 -0.5025 -0.2066
 1932SOL     OW17257   2.397   2.106  15.667  0.7048 -0.2469  0.4390
 1932SOL    HW117258   2.338   2.078  15.597  0.7979  0.6464 -0.0010
 1932SOL    HW217259   2.483   2.104  15.626  0.0134 -0.1754 -1.0220
 1933SOL     OW17260   2.501   2.113  17.004  0.1307  0.1843 -0.1795
 1933SOL    HW117261   2.452   2.042  16.963 -2.3545  0.6351  1.9964
 1933SOL    HW217262   2.530   2.068  17.083  2.4469 -1.5815 -2.0387
 1934SOL     OW17263   0.374   2.016   0.930 -0.3009  0.7996  0.1990
 1934SOL    HW117264   0.325   1.934   0.919 -0.2752  0.7193  0.6536
 1934SOL    HW217265   0.353   2.032   1.022  1.1344 -0.0610  0.6948
 1935SOL     OW17266   1.595   4.056   8.924 -0.3774  0.0551 -0.2088
 1935SOL    HW117267   1.652   3.993   8.969  1.3002 -0.6585 -3.3173
 1935SOL    HW217268   1.521   4.002   8.897 -0.2485  0.3304 -1.0942
 1936SOL     OW17269   4.382   3.729   3.571  0.1377 -0.1195 -0.5258
 1936SOL    HW117270   4.449   3.761   3.511 -0.2686  0.0137 -0.9117
 1936SOL    HW217271   4.362   3.649   3.522  0.5690 -0.2850 -0.4264
 1937SOL     OW17272   3.976   0.322   7.961  0.3154 -0.3646 -0.2149
 1937SOL    HW117273   3.949   0.309   7.870 -0.3923  2.2181 -0.3971
 1937SOL    HW217274   3.924   0.401   7.978 -0.6143 -1.0055 -0.0883
 1938SOL     OW17275   2.851   0.699   6.805  0.5129  0.1669 -0.0723
 1938SOL    HW117276   2.927   0.665   6.757  0.7804 -1.1796  1.2964
 1938SOL    HW217277   2.800   0.618   6.797 -0.1602  0.6727 -0.8830
 1939SOL     OW17278   1.079   4.338   9.428 -0.0291 -0.0027 -1.0472
 1939SOL    HW117279   1.032   4.384   9.358  2.7256  1.4329 -1.9551
 1939SOL    HW217280   1.157   4.312   9.379 -0.1376 -1.1802 -0.5908
 1940SOL     OW17281   4.519   3.258   7.733  0.3374 -0.6427  0.0917
 1940SOL    HW117282   4.602   3.277   7.688 -0.0476  0.7502 -0.0196
 1940SOL    HW217283   4.507   3.165   7.715  2.3856 -0.8649 -0.1158
 1941SOL     OW17284   0.681   4.577   7.969 -0.1623  0.0202 -0.2447
 1941SOL    HW117285   0.671   4.573   8.064  1.4557 -0.2346 -0.0705
 1941SOL    HW217286   0.713   4.487   7.956 -0.0263 -0.2764  1.9926
 1942SOL     OW17287   0.879   3.937   5.990  0.0034 -0.0732  0.5275
 1942SOL    HW117288   0.934   3.986   5.928 -1.5121  0.2166 -0.5897
 1942SOL    HW217289   0.947   3.939   6.058 -0.4250  2.9187  0.8493
 1943SOL     OW17290   2.814   4.505   8.970  0.5202 -0.1806  0.2317
 1943SOL    HW117291   2.828   4.478   8.879 -0.6839 -1.5158  0.4452
 1943SOL    HW217292   2.866   4.585   8.963  1.3848 -0.7279  0.4075
 1944SOL     OW17293   0.160   1.355   3.282  0.3560 -0.2347  0.1121
 1944SOL    HW117294   0.248   1.319   3.294  1.2815  1.9528 -0.0340
 1944SOL    HW217295   0.124   1.327   3.366  1.4396 -1.4235  0.1763
 1945SOL     OW17296   4.385   4.260   6.194  0.4090  0.2030 -0.0495
 1945SOL    HW117297   4.344   4.204   6.259  0.5677  1.3541  1.0512
 1945SOL    HW217298   4.392   4.345   6.239 -1.1844  1.1302 -1.5310
 1946SOL     OW17299   0.580   1.696  13.792 -0.1441 -0.1469 -0.7582
 1946SOL    HW117300   0.555   1.612  13.831  1.9833 -1.0050 -1.2343
 1946SOL    HW217301   0.618   1.672  13.707 -0.9958 -0.8656 -0.9471
 1947SOL     OW17302   4.009   0.304   5.819  0.2195  0.5011  0.1209
 1947SOL    HW117303   3.981   0.319   5.909 -1.6639 -0.3969 -0.3226
 1947SOL    HW217304   3.958   0.226   5.799  0.7061 -0.2824  1.9223
 1948SOL     OW17305   3.637   3.068   2.561  0.1197 -0.2981  0.2331
 1948SOL    HW117306   3.602   2.998   2.506  0.1841 -1.0783  1.1776
 1948SOL    HW217307   3.700   3.018   2.613 -0.4430  2.2283  3.3217
 1949SOL     OW17308   1.989   1.948  15.364 -0.3007 -0.0268  0.0309
 1949SOL    HW117309   1.902   1.934  15.326 -0.4334  1.6402 -0.2816
 1949SOL    HW217310   2.009   1.859  15.394 -1.0643 -0.6120 -1.1484
 1950SOL     OW17311   4.311   4.463  16.415  0.1008 -0.0463  0.2794
 1950SOL    HW117312   4.365   4.475  16.493  2.1581 -0.6968 -1.0327
 1950SOL    HW217313   4.221   4.460  16.446 -0.4738  1.6061 -1.2105
 1951SOL     OW17314   1.455   2.105  16.607 -0.5227  0.1523  0.4464
 1951SOL    HW117315   1.547   2.097  16.633 -0.5321 -0.6152  0.2531
 1951SOL    HW217316   1.415   2.034  16.658 -1.2588 -0.4134 -0.9183
 1952SOL     OW17317   4.185   2.237   7.086 -0.2655  0.0556 -0.0350
 1952SOL    HW117318   4.099   2.268   7.115  0.2593  0.9910  0.5044
 1952SOL    HW217319   4.236   2.317   7.080  2.0411 -1.3205  1.3026
 1953SOL     OW17320   1.535   3.175   2.985 -0.0413  0.7273 -0.2739
 1953SOL    HW117321   1.455   3.208   3.026 -0.0464 -2.0911  1.9292
 1953SOL    HW217322   1.565   3.250   2.933  3.3336  0.9358  1.9356
 1954SOL     OW17323   0.774   0.576   6.164  0.1613  0.0237 -0.1508
 1954SOL    HW117324   0.745   0.494   6.124  1.3740 -0.9691  1.0136
 1954SOL    HW217325   0.817   0.616   6.088 -0.5697  0.7946 -0.1637
 1955SOL     OW17326   0.765   0.893   8.060  0.6453  0.1144 -0.0639
 1955SOL    HW117327   0.740   0.935   8.143  0.3453  0.2179 -0.2037
 1955SOL    HW217328   0.686   0.857   8.019 -0.1665 -0.2688  1.8249
 1956SOL     OW17329   0.500   1.160   9.778  0.6380  0.0882  0.2021
 1956SOL    HW117330   0.590   1.154   9.744  0.4291  1.0271 -0.4852
 1956SOL    HW217331   0.506   1.245   9.821 -2.0957  0.6287 -0.5379
 1957SOL     OW17332   2.887   1.742  14.123  0.4071  0.2782  0.0233
 1957SOL    HW117333   2.934   1.826  14.117  0.9170  0.0005  0.1039
 1957SOL    HW217334   2.801   1.778  14.146 -0.9699 -2.9255 -0.0787
 1958SOL     OW17335   1.471   2.244   3.825 -0.2925  0.3248  0.3085
 1958SOL    HW117336   1.402   2.212   3.767 -1.5970  0.1508  1.9405
 1958SOL    HW217337   1.532   2.275   3.759  1.0737  1.0708  1.9298
 1959SOL     OW17338   1.140   3.556  11.054  0.1604 -0.1356  0.0243
 1959SOL    HW117339   1.116   3.591  11.139  2.2124 -2.2409  1.4840
 1959SOL    HW217340   1.193   3.479  11.076 -1.3761 -1.9609 -2.6166
 1960SOL     OW17341   4.703   0.470   2.145  0.5247 -0.5920  0.0728
 1960SOL    HW117342   4.687   0.551   2.097  1.0870  0.1596  1.1511
 1960SOL    HW217343   4.688   0.498   2.236  0.4984 -0.9384  0.1765
 1961SOL     OW17344   2.766   4.559   6.507  0.3203  0.0767 -0.4136
 1961SOL    HW117345   2.840   4.561   6.567  0.1010  3.1811 -0.2155
 1961SOL    HW217346   2.703   4.618   6.549  1.6296  0.9986  0.2288
 1962SOL     OW17347   0.132   3.449   5.246 -0.0186 -0.8480 -0.5542
 1962SOL    HW117348   0.041   3.475   5.228 -0.2838 -1.1871  0.3067
 1962SOL    HW217349   0.126   3.443   5.341  1.8080  1.3763 -0.3001
 1963SOL     OW17350   1.987   3.404  12.219 -0.4451 -0.3880 -0.9287
 1963SOL    HW117351   2.051   3.474  12.229 -0.3091 -0.8755  1.5269
 1963SOL    HW217352   2.015   3.362  12.138 -1.1565 -1.9737 -0.3466
 1964SOL     OW17353   0.396   2.332   3.968 -0.2984  0.3106 -0.1639
 1964SOL    HW117354   0.466   2.334   3.903  0.0590 -0.6815  0.1935
 1964SOL    HW217355   0.452   2.384   4.026 -0.9769  3.0828 -1.9505
 1965SOL     OW17356   2.056   1.507   6.464  0.1553  0.4648 -0.2113
 1965SOL    HW117357   2.081   1.423   6.425 -0.8218  0.3100 -0.5025
 1965SOL    HW217358   2.073   1.566   6.390  1.1195 -1.5012 -1.6000
 1966SOL     OW17359   2.378   0.185   2.705  0.3428  0.1938  0.0439
 1966SOL    HW117360   2.397   0.182   2.799 -1.4328  0.7795  0.4295
 1966SOL    HW217361   2.283   0.178   2.709  0.3900  0.6851  2.0287
 1967SOL     OW17362   0.874   3.435  13.758  0.1196  0.2161  0.5236
 1967SOL    HW117363   0.802   3.498  13.758 -0.4401 -0.4421 -3.8546
 1967SOL    HW217364   0.912   3.478  13.835 -0.7532 -0.9065  1.5934
 1968SOL     OW17365   4.050   3.101   1.794  0.8284 -0.1118  0.2605
 1968SOL    HW117366   4.060   3.156   1.716 -3.5322  0.7930  0.3416
 1968SOL    HW217367   4.127   3.045   1.785 -1.2860 -2.8860 -0.4369
 1969SOL     OW17368   1.315   4.152   8.636 -0.0562  0.3835 -0.3623
 1969SOL    HW117369   1.233   4.108   8.612 -0.4003  0.7614  0.1198
 1969SOL    HW217370   1.287   4.228   8.687 -0.7720  1.0756 -1.8074
 1970SOL     OW17371   0.026   0.390   5.274 -0.4452 -0.4993  0.1073
 1970SOL    HW117372   0.074   0.310   5.295 -1.1935 -1.2048 -0.8715
 1970SOL    HW217373   0.023   0.367   5.181  1.7984  0.6312 -0.2528
 1971SOL     OW17374   0.915   2.491   6.994  0.4147 -0.4777 -0.3574
 1971SOL    HW117375   0.905   2.398   7.017  1.7084 -0.0507  1.9713
 1971SOL    HW217376   0.999   2.482   6.950  0.5922 -2.0561  0.3062
 1972SOL     OW17377   3.858   1.776   3.150 -0.2096  0.5429  0.2520
 1972SOL    HW117378   3.867   1.705   3.086 -0.2410 -1.1676  2.1336
 1972SOL    HW217379   3.775   1.809   3.116 -0.4245  0.6864  0.9131
 1973SOL     OW17380   1.241   0.026   1.062 -0.1460  0.1732 -0.3583
 1973SOL    HW117381   1.149   0.041   1.081 -0.6802 -0.7205 -2.1431
 1973SOL    HW217382   1.277   0.101   1.109 -1.7091  0.1467  0.8624
 1974SOL     OW17383   4.208   1.673  14.973 -0.3230 -0.3624 -0.2301
 1974SOL    HW117384   4.146   1.641  14.907  1.0104  0.7567 -2.0231
 1974SOL    HW217385   4.257   1.746  14.935 -0.7238 -0.9661 -1.9482
 1975SOL     OW17386   2.710   0.155   4.375 -0.4269  0.4255 -0.1615
 1975SOL    HW117387   2.747   0.095   4.310  0.6339 -0.4710  1.2662
 1975SOL    HW217388   2.671   0.213   4.310 -0.5861  0.6136  0.1011
 1976SOL     OW17389   2.947   3.171   3.513 -0.5071 -0.0392  0.2077
 1976SOL    HW117390   2.974   3.138   3.599  0.8187 -1.8647 -0.8857
 1976SOL    HW217391   3.026   3.173   3.458 -1.4890  1.4139 -1.1159
 1977SOL     OW17392   1.792   0.867   6.912 -0.0091 -0.2832  0.5610
 1977SOL    HW117393   1.699   0.888   6.921 -0.0443 -0.5101  0.7028
 1977SOL    HW217394   1.805   0.905   6.825  0.0222 -0.0866  0.6509
 1978SOL     OW17395   3.878   4.064   6.889  0.0828  0.4197 -0.1165
 1978SOL    HW117396   3.821   4.132   6.853  1.2551  0.9606 -0.9223
 1978SOL    HW217397   3.920   4.036   6.808  1.1681  0.3852  0.4583
 1979SOL     OW17398   3.107   0.607  11.472 -0.0613 -0.4371 -0.4899
 1979SOL    HW117399   3.053   0.540  11.431  1.1281 -2.1718  0.8102
 1979SOL    HW217400   3.058   0.685  11.445  1.0553  0.4166 -0.0519
 1980SOL     OW17401   2.683   2.950  10.888 -0.1000 -0.2299 -0.5086
 1980SOL    HW117402   2.690   3.026  10.946  0.8066 -0.7920  0.1196
 1980SOL    HW217403   2.754   2.896  10.923  2.2543  1.6075 -2.3766
 1981SOL     OW17404   1.257   3.522   3.786 -0.0550  0.2431 -0.5309
 1981SOL    HW117405   1.177   3.519   3.733 -0.8747 -0.5574  0.7632
 1981SOL    HW217406   1.320   3.512   3.714  0.8815  1.1095  0.1815
 1982SOL     OW17407   1.906   0.195  13.952 -0.5049  0.0252 -0.0182
 1982SOL    HW117408   1.921   0.276  13.903  0.2643 -0.0454  0.1105
 1982SOL    HW217409   1.953   0.139  13.891 -0.6457 -0.1336  0.0194
 1983SOL     OW17410   4.643   1.958   8.073 -0.0683 -0.6167  0.4301
 1983SOL    HW117411   4.699   1.923   8.005  0.6552 -0.2287  0.8271
 1983SOL    HW217412   4.616   2.039   8.029 -0.0933 -1.3210 -0.8277
 1984SOL     OW17413   1.530   0.469   9.165 -0.6308 -0.3059 -0.2666
 1984SOL    HW117414   1.617   0.508   9.171  0.4522 -2.3219 -2.7368
 1984SOL    HW217415   1.482   0.531   9.221  1.4826  1.9508 -0.9968
 1985SOL     OW17416   3.126   4.447   6.871  0.1180  0.0848  0.7520
 1985SOL    HW117417   3.058   4.393   6.911 -0.5874  1.1205  0.9352
 1985SOL    HW217418   3.073   4.527   6.877 -1.2963 -0.5988 -2.3715
 1986SOL     OW17419   3.299   1.275  13.642 -0.4628  0.0608 -0.1628
 1986SOL    HW117420   3.268   1.284  13.732  2.6852  0.3625  0.8844
 1986SOL    HW217421   3.269   1.361  13.611  1.0948  0.4148 -0.6915
 1987SOL     OW17422   2.941   1.848   1.549 -0.0351 -0.2481  0.6520
 1987SOL    HW117423   2.873   1.793   1.511 -1.5678  1.9689  0.2066
 1987SOL    HW217424   3.015   1.834   1.490 -0.6227  0.9966 -0.3691
 1988SOL     OW17425   0.183   2.941   6.420 -0.2943 -0.9859  0.7460
 1988SOL    HW117426   0.110   2.996   6.450 -0.5265 -1.1699  0.5141
 1988SOL    HW217427   0.173   2.929   6.326 -1.2035  1.5160  0.5105
 1989SOL     OW17428   2.604   3.246   4.650  0.5640  0.0858 -0.0550
 1989SOL    HW117429   2.613   3.153   4.627 -1.6789 -0.5872  1.7170
 1989SOL    HW217430   2.524   3.238   4.702 -0.7501  0.1164 -2.0477
 1990SOL     OW17431   0.115   2.613   2.074 -0.4053 -0.2091 -0.2680
 1990SOL    HW117432   0.166   2.693   2.061  0.1659 -0.4407  0.5308
 1990SOL    HW217433   0.133   2.598   2.167  2.4367  0.6763 -0.6799
 1991SOL     OW17434   2.270   4.710   7.872  0.2812  0.1350 -0.0562
 1991SOL    HW117435   2.189   0.020   7.915  0.1955  1.8372 -1.2934
 1991SOL    HW217436   2.271   4.615   7.882  0.8710 -0.0458 -1.8228
 1992SOL     OW17437   0.840   2.644   6.726 -0.1144 -0.1303  0.0598
 1992SOL    HW117438   0.759   2.694   6.723  0.4000  0.6541 -1.1968
 1992SOL    HW217439   0.894   2.714   6.689 -0.7041  0.7517  0.8835
 1993SOL     OW17440   4.521   0.603   8.247 -0.3573  0.1356 -0.7413
 1993SOL    HW117441   4.551   0.635   8.332  2.0800 -0.8762 -1.2313
 1993SOL    HW217442   4.475   0.521   8.268  0.5477  0.2349  1.6094
 1994SOL     OW17443   2.403   2.148  14.115 -0.2342 -0.2274  0.2739
 1994SOL    HW117444   2.463   2.131  14.043 -0.2328 -0.3920  0.3121
 1994SOL    HW217445   2.385   2.059  14.147  1.1714 -0.9187 -0.8370
 1995SOL     OW17446   0.485   0.352   7.221  1.1557  0.1787  0.1861
 1995SOL    HW117447   0.562   0.370   7.275  2.5386 -0.5608 -1.5289
 1995SOL    HW217448   0.464   0.263   7.249  0.8924  0.0358 -0.4623
 1996SOL     OW17449   0.288   3.338   4.577 -0.3698  0.2451  0.3990
 1996SOL    HW117450   0.347   3.286   4.632  0.2802 -1.1499 -1.6153
 1996SOL    HW217451   0.295   3.290   4.495  3.1196 -0.6096  1.2013
 1997SOL     OW17452   0.669   1.960  16.565 -0.8925  0.2471 -0.2604
 1997SOL    HW117453   0.661   2.055  16.578 -0.6199 -0.0971  2.3768
 1997SOL    HW217454   0.729   1.934  16.635 -0.9230  2.5754  0.6434
 1998SOL     OW17455   2.305   0.972   2.591  0.5695 -0.0714 -0.1007
 1998SOL    HW117456   2.396   0.970   2.562  0.7519 -1.0328  0.5818
 1998SOL    HW217457   2.291   0.886   2.630  1.2911  0.4041  1.1953
 1999SOL     OW17458   2.558   4.642   2.493  0.1860  0.2175 -0.1268
 1999SOL    HW117459   2.533   0.006   2.451  0.8926  0.9130  0.8129
 1999SOL    HW217460   2.514   4.580   2.435 -0.4535  1.2129 -0.7103
 2000SOL     OW17461   0.699   0.466   8.132  0.7073 -1.2900 -0.0742
 2000SOL    HW117462   0.624   0.432   8.084  0.2546  0.0513 -0.3077
 2000SOL    HW217463   0.644   0.466   8.210  1.0430  0.7992  0.1596
 2001SOL     OW17464   3.050   4.420   9.161  0.0434  0.1546 -0.4579
 2001SOL    HW117465   2.998   4.455   9.088 -1.1856 -0.4966  0.1190
 2001SOL    HW217466   3.050   4.498   9.216 -0.2510 -0.4236  0.3473
 2002SOL     OW17467   3.255   4.504   4.888 -0.4858 -0.2591  0.1997
 2002SOL    HW117468   3.300   4.440   4.943 -2.6502 -1.6921  0.3195
 2002SOL    HW217469   3.287   4.473   4.803 -1.8268 -0.5250 -0.2093
 2003SOL     OW17470   3.261   4.057   6.790 -0.7238 -0.1422  0.5716
 2003SOL    HW117471   3.197   4.059   6.861 -1.9196  0.0970 -0.4987
 2003SOL    HW217472   3.218   3.999   6.727  2.2160 -1.7554  0.0727
 2004SOL     OW17473   2.497   3.887   6.418  0.0557 -0.1758  0.0051
 2004SOL    HW117474   2.447   3.806   6.434 -0.7130  0.2883 -0.0402
 2004SOL    HW217475   2.581   3.843   6.428 -0.9426 -1.5269  2.4619
 2005SOL     OW17476   2.837   2.898  13.505  0.1865  0.3084  0.6009
 2005SOL    HW117477   2.847   2.836  13.578 -2.1764 -0.1290  0.5505
 2005SOL    HW217478   2.743   2.910  13.504 -0.0211 -1.3828 -2.2103
 2006SOL     OW17479   1.500   3.069   7.369  0.7107 -0.4302  0.0874
 2006SOL    HW117480   1.467   3.158   7.369 -0.5786 -0.9066 -0.3600
 2006SOL    HW217481   1.417   3.032   7.399  0.3250 -0.2361 -0.7361
 2007SOL     OW17482   0.061   0.242  16.788 -0.5368  0.8457  0.2204
 2007SOL    HW117483   0.051   0.179  16.859 -1.7077  0.7877 -0.0002
 2007SOL    HW217484   0.109   0.185  16.728 -0.1624 -0.5337  1.8404
 2008SOL     OW17485   1.932   0.435  15.994 -0.6049  0.0615  0.1460
 2008SOL    HW117486   1.917   0.436  15.900  1.1873  0.3535 -0.1376
 2008SOL    HW217487   2.014   0.484  15.995 -1.1655  0.9972  1.4173
 2009SOL     OW17488   4.354   3.204  17.171  0.1034  0.2670  0.0618
 2009SOL    HW117489   4.378   3.141  17.238  2.6345  0.7386 -0.4113
 2009SOL    HW217490   4.377   3.158  17.090  0.8326  0.7533 -0.0096
 2010SOL     OW17491   2.139   4.349   5.189  0.5263 -0.2085 -0.4161
 2010SOL    HW117492   2.077   4.364   5.260 -1.4111 -0.9296 -1.9455
 2010SOL    HW217493   2.106   4.273   5.142  1.1996 -1.0723  0.5292
 2011SOL     OW17494   2.777   3.244  16.722  0.6065 -0.0572 -0.0394
 2011SOL    HW117495   2.825   3.313  16.677  1.3681 -1.1345 -0.8874
 2011SOL    HW217496   2.726   3.196  16.656 -2.0226 -1.5626  3.1156
 2012SOL     OW17497   3.117   2.989   9.404 -0.3080  0.6118  0.1576
 2012SOL    HW117498   3.048   2.991   9.471  1.1062  0.1591  1.6381
 2012SOL    HW217499   3.182   3.057   9.421  0.2392 -0.3678  2.0335
 2013SOL     OW17500   0.505   1.705   7.515 -0.5859 -0.2410 -0.2499
 2013SOL    HW117501   0.448   1.727   7.588 -0.0648 -0.5080  0.2428
 2013SOL    HW217502   0.589   1.705   7.562  0.8230 -0.3112 -2.7623
 2014SOL     OW17503   3.016   4.035  10.219 -0.4922  0.5584 -0.0144
 2014SOL    HW117504   3.088   4.016  10.279  0.7506  0.2645 -1.5807
 2014SOL    HW217505   3.014   3.946  10.184  1.2957  0.3275  0.4747
 2015SOL     OW17506   0.632   0.457   3.307  0.2802  0.2225 -0.0910
 2015SOL    HW117507   0.721   0.482   3.282  1.3811 -1.0099  2.5627
 2015SOL    HW217508   0.603   0.414   3.227 -1.7754 -1.5647  1.6257
 2016SOL     OW17509   0.140   3.842  13.979 -0.5901  0.0728  0.5356
 2016SOL    HW117510   0.205   3.846  14.048  1.9434 -0.6716 -1.8029
 2016SOL    HW217511   0.202   3.839  13.906 -0.7696  2.2685  0.3122
 2017SOL     OW17512   2.424   2.627   8.635 -0.0192 -0.4035  0.0687
 2017SOL    HW117513   2.515   2.639   8.610 -0.1711 -0.2440 -0.4094
 2017SOL    HW217514   2.376   2.618   8.552 -0.5177  1.1125  0.1881
 2018SOL     OW17515   4.695   3.138  13.012  0.9800 -0.4248  0.2985
 2018SOL    HW117516   0.035   3.159  13.086  2.6377  1.3263 -1.4770
 2018SOL    HW217517   4.619   3.188  13.041  1.3683  1.5859 -2.1899
 2019SOL     OW17518   4.339   3.650   8.109  0.2239  0.0745 -0.1673
 2019SOL    HW117519   4.416   3.707   8.114  0.7554 -0.5401 -1.4582
 2019SOL    HW217520   4.363   3.574   8.056  0.3242  0.2454 -0.3669
 2020SOL     OW17521   0.478   4.621   7.759 -0.7689  0.8054  0.2467
 2020SOL    HW117522   0.542   4.667   7.704 -1.2715  0.0005 -0.9986
 2020SOL    HW217523   0.534   4.597   7.833 -0.9176  1.5405  0.6041
 2021SOL     OW17524   1.449   4.671  12.285  0.1960 -0.4940 -0.8403
 2021SOL    HW117525   1.384   4.603  12.300  1.0629 -0.9598  0.8351
 2021SOL    HW217526   1.476   4.651  12.195 -2.8361 -0.1310 -1.8198
 2022SOL     OW17527   1.766   3.014   4.394 -0.4193 -0.2881  0.1895
 2022SOL    HW117528   1.706   2.966   4.337 -0.5601 -0.4421  0.4650
 2022SOL    HW217529   1.792   2.945   4.455 -1.1266 -1.6269 -1.0259
 2023SOL     OW17530   1.251   1.926  17.480  0.5253 -0.0714  0.1876
 2023SOL    HW117531   1.343   1.941  17.503  0.5998 -0.2915  0.0418
 2023SOL    HW217532   1.219   2.016  17.475  0.6130 -0.2130 -2.7279
 2024SOL     OW17533   4.122   1.643   9.074 -0.9264 -0.1112  0.0222
 2024SOL    HW117534   4.097   1.715   9.131  0.3168 -0.6263  1.2092
 2024SOL    HW217535   4.066   1.580   9.120 -2.5461 -0.4744 -2.3955
 2025SOL     OW17536   1.135   4.482   4.472 -0.7830 -0.6700  0.7297
 2025SOL    HW117537   1.060   4.457   4.525 -1.9529 -1.5731 -1.3313
 2025SOL    HW217538   1.210   4.437   4.511  0.0915 -1.5395 -1.9214
 2026SOL     OW17539   1.676   4.168  13.365  0.0674  0.8863 -0.1783
 2026SOL    HW117540   1.586   4.139  13.349 -0.0190  1.2656 -0.3850
 2026SOL    HW217541   1.724   4.119  13.298  1.3726  0.2956  1.2117
 2027SOL     OW17542   3.618   2.939   4.052  0.3312 -0.1774 -0.4686
 2027SOL    HW117543   3.669   2.999   4.106 -0.6220  0.7793 -0.6230
 2027SOL    HW217544   3.587   2.890   4.128  0.2902  0.6006  0.0207
 2028SOL     OW17545   1.140   2.283   2.786 -0.3690  0.6387 -0.3123
 2028SOL    HW117546   1.212   2.344   2.803  2.4206 -2.0981 -2.5919
 2028SOL    HW217547   1.165   2.261   2.697 -1.1515 -0.2016 -0.3170
 2029SOL     OW17548   3.413   2.907   5.615 -0.1387  0.4475 -0.2288
 2029SOL    HW117549   3.497   2.873   5.587  0.4139  1.3234  0.3597
 2029SOL    HW217550   3.352   2.884   5.544  0.9547  3.0521 -2.0363
 2030SOL     OW17551   1.969   2.423   5.295  0.5018 -0.0365  0.3399
 2030SOL    HW117552   1.927   2.509   5.305 -0.1692 -0.2172 -0.9396
 2030SOL    HW217553   1.987   2.424   5.201  0.4172  0.0513  0.3240
 2031SOL     OW17554   1.548   0.130  11.480  0.6865 -0.0445 -0.7030
 2031SOL    HW117555   1.587   0.143  11.567 -1.8464  0.0643  0.4129
 2031SOL    HW217556   1.618   0.157  11.421  1.4146  1.4811  0.8836
 2032SOL     OW17557   2.789   0.420  10.138  0.2723 -0.2594 -0.2709
 2032SOL    HW117558   2.752   0.409  10.050  0.0457 -2.6205  0.1135
 2032SOL    HW217559   2.738   0.368  10.201  0.5411 -0.8760 -0.5570
 2033SOL     OW17560   4.305   4.667  13.831 -0.4817  0.2088  0.7901
 2033SOL    HW117561   4.214   4.660  13.860 -0.3195 -2.3428  0.6916
 2033SOL    HW217562   4.357   4.658  13.911  2.4657 -0.0577 -1.1559
 2034SOL     OW17563   4.699   0.529   5.513 -0.0732 -0.4994  0.5821
 2034SOL    HW117564   4.648   0.610   5.512 -1.3662 -1.3660 -1.3944
 2034SOL    HW217565   4.687   0.496   5.424  0.1827 -2.2284  1.1845
 2035SOL     OW17566   3.876   4.093   2.839 -0.3330  0.1754  0.2937
 2035SOL    HW117567   3.786   4.059   2.835 -1.0870  1.9367  2.4758
 2035SOL    HW217568   3.915   4.026   2.895  0.9323 -1.3239 -2.4141
 2036SOL     OW17569   0.199   4.570   8.754 -0.0426  0.1382  0.0581
 2036SOL    HW117570   0.278   4.526   8.724 -0.5435 -0.1223 -0.8823
 2036SOL    HW217571   0.236   4.641   8.806  1.3408 -1.3952  1.1618
 2037SOL     OW17572   2.603   3.086   4.240 -0.2550  0.5920  0.2983
 2037SOL    HW117573   2.564   3.168   4.271 -2.3855 -0.2398 -0.1728
 2037SOL    HW217574   2.691   3.087   4.277 -0.0776  0.4407 -0.1190
 2038SOL     OW17575   3.192   1.532  13.597 -0.1684  0.2684 -0.3515
 2038SOL    HW117576   3.167   1.610  13.547 -1.8599  0.6474  1.0989
 2038SOL    HW217577   3.226   1.580  13.673 -1.7820 -0.6318  0.9581
 2039SOL     OW17578   3.987   1.400   8.219  0.2040  0.5866 -0.0131
 2039SOL    HW117579   3.942   1.442   8.293  0.4316  2.0664 -0.7194
 2039SOL    HW217580   3.973   1.308   8.242  1.0771  0.8546  1.6286
 2040SOL     OW17581   3.976   4.292   4.188  0.7795 -0.1644 -0.0746
 2040SOL    HW117582   3.983   4.349   4.264  0.6583  0.8444 -0.8106
 2040SOL    HW217583   3.995   4.348   4.112 -1.5591  1.0063  0.2020
 2041SOL     OW17584   3.171   2.300   1.701  0.2249  0.3892  0.4725
 2041SOL    HW117585   3.096   2.240   1.694 -0.3497  0.9205  2.0506
 2041SOL    HW217586   3.167   2.354   1.622 -1.7580  0.1966  0.4261
 2042SOL     OW17587   2.603   2.155   4.746 -0.1269  1.2462  0.2809
 2042SOL    HW117588   2.658   2.145   4.668 -1.5447 -2.3967 -0.2627
 2042SOL    HW217589   2.622   2.246   4.771  0.8175  1.2827 -0.5721
 2043SOL     OW17590   3.271   1.737   9.469  0.5688 -0.3115  0.4025
 2043SOL    HW117591   3.266   1.729   9.564 -2.6431 -0.9428  0.1656
 2043SOL    HW217592   3.251   1.649   9.437  0.1530  0.4005 -1.3096
 2044SOL     OW17593   1.619   4.044   3.302 -0.0032  0.1255 -0.0209
 2044SOL    HW117594   1.535   4.002   3.281 -0.1592 -0.1669  1.2045
 2044SOL    HW217595   1.626   4.102   3.226 -1.5796  0.6107  0.1953
 2045SOL     OW17596   2.340   0.382   5.215  0.6194  0.2673 -0.4320
 2045SOL    HW117597   2.360   0.334   5.295  1.8713 -2.9671 -2.6624
 2045SOL    HW217598   2.392   0.458   5.242  0.1200  0.3874  0.1788
 2046SOL     OW17599   2.155   3.630   5.689 -0.1419 -0.0179 -0.1436
 2046SOL    HW117600   2.224   3.566   5.675  1.3897  1.2341  1.6923
 2046SOL    HW217601   2.192   3.670   5.767  0.2237 -0.8656  0.1176
 2047SOL     OW17602   1.885   2.237   6.537  0.1903 -0.5166 -0.0038
 2047SOL    HW117603   1.800   2.238   6.495 -0.7780  0.3305  1.9707
 2047SOL    HW217604   1.875   2.172   6.607  0.8011  1.9514  2.3465
 2048SOL     OW17605   1.909   1.327   3.905 -0.4367 -0.6997 -0.4273
 2048SOL    HW117606   1.998   1.292   3.906 -0.4431 -0.6925  0.0189
 2048SOL    HW217607   1.863   1.251   3.870  1.6258 -1.1322 -2.2934
 2049SOL     OW17608   4.590   0.237   7.404  0.5531  0.7677 -0.3855
 2049SOL    HW117609   4.680   0.217   7.378  0.1615  0.9517 -1.8914
 2049SOL    HW217610   4.560   0.303   7.342  1.6006 -0.9269 -2.6572
 2050SOL     OW17611   1.512   2.705  12.379 -0.4719 -0.0944  0.2051
 2050SOL    HW117612   1.589   2.712  12.323 -1.3338  2.1080 -0.7270
 2050SOL    HW217613   1.556   2.671  12.457  0.9098 -0.8695 -0.9099
 2051SOL     OW17614   2.045   4.258  11.691  0.1305 -0.1195  0.8112
 2051SOL    HW117615   1.995   4.289  11.616 -1.5339 -1.7392  1.2416
 2051SOL    HW217616   1.988   4.187  11.721 -0.0812  0.2480  1.2907
 2052SOL     OW17617   2.472   0.348  13.789 -0.6089  1.1203  0.0349
 2052SOL    HW117618   2.543   0.285  13.803 -0.6713  0.9217 -0.5328
 2052SOL    HW217619   2.518   0.420  13.746  0.7826 -0.0324 -0.4095
 2053SOL     OW17620   4.250   3.099  13.396 -1.0762  0.2548 -0.4646
 2053SOL    HW117621   4.206   3.025  13.439  0.9508  0.1333  1.4523
 2053SOL    HW217622   4.179   3.137  13.346  0.3280 -1.6031 -3.8493
 2054SOL     OW17623   2.390   2.220   2.202  0.0413  0.2134  0.3679
 2054SOL    HW117624   2.419   2.235   2.292 -0.7928 -2.4956  1.0826
 2054SOL    HW217625   2.300   2.249   2.191  0.5523  1.1751 -1.2602
 2055SOL     OW17626   2.373   4.045   2.956  0.1797  0.7280 -0.4238
 2055SOL    HW117627   2.457   4.050   2.910 -0.1775 -1.4932 -1.3625
 2055SOL    HW217628   2.381   3.966   3.010 -1.8098 -0.7368 -2.2539
 2056SOL     OW17629   3.083   2.821   7.081  0.0648  0.0863 -0.7202
 2056SOL    HW117630   3.030   2.773   7.144 -0.3612  0.6318 -0.6579
 2056SOL    HW217631   3.094   2.762   7.007  2.4728 -0.5783  0.1519
 2057SOL     OW17632   2.445   0.019   1.329  0.2526  0.2041 -0.2594
 2057SOL    HW117633   2.527   4.689   1.320  0.2937  0.4694 -1.3345
 2057SOL    HW217634   2.485   0.105   1.328  2.4417 -0.8222 -0.1681
 2058SOL     OW17635   3.174   0.204   0.721  0.4780 -0.4246  0.5440
 2058SOL    HW117636   3.198   0.217   0.812 -1.5383  2.1261  0.7327
 2058SOL    HW217637   3.082   0.177   0.729  0.1185  1.2998  2.1683
 2059SOL     OW17638   3.815   3.265   8.087 -0.3119 -0.3293  0.2961
 2059SOL    HW117639   3.795   3.232   8.174  0.1204 -0.0094  0.5154
 2059SOL    HW217640   3.901   3.225   8.074 -1.1770 -2.2242  0.2914
 2060SOL     OW17641   0.505   3.118  16.021  0.2301 -0.8395  0.0628
 2060SOL    HW117642   0.485   3.166  15.941  0.5465 -2.2305 -0.8579
 2060SOL    HW217643   0.421   3.073  16.028 -1.0237  1.1042 -2.3604
 2061SOL     OW17644   0.983   4.680   7.835  0.5207  0.0593  0.1764
 2061SOL    HW117645   1.072   4.645   7.826  0.1739 -0.8345  0.2106
 2061SOL    HW217646   0.991   4.698   7.929 -2.0244 -0.0877  0.4068
 2062SOL     OW17647   2.327   4.260   8.824 -0.4848  0.2845  0.3942
 2062SOL    HW117648   2.315   4.222   8.736 -0.9830  2.5671 -0.5211
 2062SOL    HW217649   2.263   4.331   8.830 -1.4142 -0.5167  0.0176
 2063SOL     OW17650   1.631   1.591  10.747  0.1515  0.0470  0.6519
 2063SOL    HW117651   1.605   1.569  10.837  0.6460  0.2962  0.8569
 2063SOL    HW217652   1.575   1.664  10.723 -0.6146 -0.5876  0.5118
 2064SOL     OW17653   1.358   1.613   7.607  0.6073  0.1188 -0.0405
 2064SOL    HW117654   1.307   1.681   7.563 -1.1938 -1.2131 -0.0020
 2064SOL    HW217655   1.400   1.671   7.671  0.3914  1.2832 -0.9455
 2065SOL     OW17656   1.569   0.107   4.885 -0.1008 -0.1310 -0.1418
 2065SOL    HW117657   1.517   0.036   4.848  0.6611 -1.0672  0.5578
 2065SOL    HW217658   1.540   0.097   4.976  0.4417 -2.3201 -0.2102
 2066SOL     OW17659   2.350   3.023  10.840  0.4162 -1.1615  0.2770
 2066SOL    HW117660   2.395   3.097  10.882 -0.8830 -1.9250  3.0428
 2066SOL    HW217661   2.401   3.021  10.759  0.3602  2.8905  0.1497
 2067SOL     OW17662   1.545   3.061   7.750  0.3458 -0.4739 -1.0319
 2067SOL    HW117663   1.529   3.025   7.838  2.0615 -0.0906 -0.5578
 2067SOL    HW217664   1.469   3.025   7.705  0.6079 -0.3410 -1.5801
 2068SOL     OW17665   1.601   1.637  11.798  0.1782 -0.2536  0.4244
 2068SOL    HW117666   1.695   1.652  11.805  0.2544 -1.0032  1.0358
 2068SOL    HW217667   1.606   1.566  11.735 -1.6591  0.2034 -0.2381
 2069SOL     OW17668   3.281   4.327   0.457 -0.0591 -0.4875 -1.0255
 2069SOL    HW117669   3.222   4.272   0.405 -1.1976  1.4632 -1.7882
 2069SOL    HW217670   3.366   4.284   0.449 -0.0809 -1.1857  2.5764
 2070SOL     OW17671   0.846   0.727  10.132 -0.2740 -0.0700  0.1688
 2070SOL    HW117672   0.818   0.642  10.167  0.5289 -0.4003 -0.0045
 2070SOL    HW217673   0.903   0.707  10.058  0.3277  0.9528  0.3647
 2071SOL     OW17674   1.914   0.418   4.655 -0.6133  0.5999 -0.2178
 2071SOL    HW117675   1.834   0.428   4.603  0.6358  0.4977 -2.1744
 2071SOL    HW217676   1.912   0.503   4.699  0.6623  0.5724 -0.1295
 2072SOL     OW17677   2.784   1.609  14.453 -0.3262 -0.5464  1.0258
 2072SOL    HW117678   2.847   1.680  14.442 -1.4219  0.1897 -0.5688
 2072SOL    HW217679   2.838   1.530  14.460  1.1457  0.2481 -1.3090
 2073SOL     OW17680   3.099   3.167   3.791 -0.7145  0.3323 -0.3475
 2073SOL    HW117681   3.178   3.218   3.773 -0.7507  0.7889  0.8109
 2073SOL    HW217682   3.038   3.229   3.831  2.3433  1.8338  1.9177
 2074SOL     OW17683   0.627   2.188   5.145 -0.2535  0.0642 -0.1997
 2074SOL    HW117684   0.630   2.119   5.078 -0.1079 -1.5498  1.4461
 2074SOL    HW217685   0.548   2.232   5.114 -1.2170 -3.4441 -2.8330
 2075SOL     OW17686   2.987   1.967  11.426  0.3135 -0.5378  0.0837
 2075SOL    HW117687   2.973   1.921  11.343 -2.6999 -0.6786  0.6810
 2075SOL    HW217688   3.067   2.017  11.410  0.8194 -1.8507 -1.5937
 2076SOL     OW17689   4.512   0.527   5.176  0.1348 -0.0334 -0.0735
 2076SOL    HW117690   4.459   0.448   5.167 -2.8259  1.7847  1.4271
 2076SOL    HW217691   4.598   0.502   5.210  0.6456  1.7880  0.0160
 2077SOL     OW17692   1.081   1.045   5.368  0.3791 -0.2831  0.3661
 2077SOL    HW117693   1.114   0.996   5.293 -1.3504  1.3141 -1.4334
 2077SOL    HW217694   1.105   1.132   5.336  0.4493 -0.5792 -0.3872
 2078SOL     OW17695   1.080   3.020   4.168 -0.2728  0.0694 -0.5203
 2078SOL    HW117696   1.168   3.050   4.189  0.3037  0.3743 -3.2679
 2078SOL    HW217697   1.097   2.954   4.100 -1.3986 -2.0064  1.2172
 2079SOL     OW17698   4.327   2.411  14.336  0.0652  0.0888  0.0442
 2079SOL    HW117699   4.347   2.422  14.429  2.1716  1.7975 -0.6254
 2079SOL    HW217700   4.329   2.502  14.305 -2.0771  0.7414  1.7898
 2080SOL     OW17701   2.854   3.284   4.366  0.4680  0.2979  0.4095
 2080SOL    HW117702   2.874   3.257   4.456 -0.9485  0.9368  0.9143
 2080SOL    HW217703   2.931   3.255   4.316 -1.5607 -3.9138 -0.2636
 2081SOL     OW17704   3.614   3.210   9.178  0.3155 -0.1288 -0.4142
 2081SOL    HW117705   3.589   3.262   9.101  0.2529 -1.4801 -1.2932
 2081SOL    HW217706   3.703   3.183   9.159  0.9099  1.5914 -0.1255
 2082SOL     OW17707   0.480   0.855   7.012 -0.4137 -0.0745 -0.0518
 2082SOL    HW117708   0.411   0.810   6.963 -1.0452 -0.8859  1.5975
 2082SOL    HW217709   0.545   0.787   7.031 -0.1409 -0.6012 -2.7433
 2083SOL     OW17710   4.561   2.422   4.133  0.2426  0.2883  0.1150
 2083SOL    HW117711   4.647   2.402   4.171  1.5465  4.7783 -0.4481
 2083SOL    HW217712   4.555   2.367   4.055 -0.6417 -0.9027  1.0255
 2084SOL     OW17713   3.642   2.188   6.721 -0.4420  0.1900 -0.2204
 2084SOL    HW117714   3.651   2.280   6.746 -2.6202 -0.4859  3.0888
 2084SOL    HW217715   3.628   2.194   6.627  1.1891 -0.4581 -0.4870
 2085SOL     OW17716   2.163   4.461   6.599 -0.2258  0.3543 -0.1754
 2085SOL    HW117717   2.121   4.377   6.619 -0.1711  0.3443 -0.1011
 2085SOL    HW217718   2.245   4.441   6.645 -0.9150 -0.2801  0.7679
 2086SOL     OW17719   2.935   2.961  11.553  0.0738  0.0244  0.1432
 2086SOL    HW117720   2.905   3.044  11.592  1.5664  1.5313 -1.9259
 2086SOL    HW217721   2.859   2.940  11.500  0.5371  3.7019 -2.0352
 2087SOL     OW17722   4.094   1.226   0.159  0.6600  0.4971 -0.3767
 2087SOL    HW117723   4.054   1.266   0.082 -3.7418 -0.3166  1.4915
 2087SOL    HW217724   4.101   1.289   0.230 -0.3770 -0.2416  0.3784
 2088SOL     OW17725   3.106   1.133   7.837  0.2425 -0.2934  0.6020
 2088SOL    HW117726   3.074   1.222   7.826 -2.0069 -1.2848 -0.7585
 2088SOL    HW217727   3.156   1.143   7.918 -0.4996 -2.0857  1.2877
 2089SOL     OW17728   3.107   4.313  12.761  0.0363 -0.1278 -0.5709
 2089SOL    HW117729   3.174   4.357  12.814 -0.9271  2.2142 -1.3440
 2089SOL    HW217730   3.071   4.268  12.838  0.5858  0.6541  0.1430
 2090SOL     OW17731   1.777   3.184  14.502  0.2653  0.5769 -0.4354
 2090SOL    HW117732   1.743   3.225  14.423 -1.0932 -2.5115 -1.4503
 2090SOL    HW217733   1.699   3.134  14.527  1.3059  0.0266  1.7978
 2091SOL     OW17734   3.934   1.857  16.895  0.5190  0.2176 -0.4479
 2091SOL    HW117735   3.843   1.859  16.924  0.8371  1.7219  0.4400
 2091SOL    HW217736   3.943   1.773  16.849  2.3338 -0.0166  0.3133
 2092SOL     OW17737   3.819   4.320  16.204 -0.2789  0.3084 -0.0668
 2092SOL    HW117738   3.869   4.269  16.141  1.1191 -1.4865  2.4962
 2092SOL    HW217739   3.779   4.379  16.140 -0.1390  0.1689 -0.2824
 2093SOL     OW17740   2.067   1.383   7.350 -0.2348 -0.1655 -0.0485
 2093SOL    HW117741   1.977   1.352   7.347  0.0798 -0.9090 -1.2739
 2093SOL    HW217742   2.101   1.323   7.416  5.1428  0.2093 -2.4657
 2094SOL     OW17743   0.472   2.738   8.574  0.1328  0.2347 -0.3496
 2094SOL    HW117744   0.560   2.700   8.570  0.6635  1.1848  2.6974
 2094SOL    HW217745   0.474   2.798   8.500  1.2433  0.7439  0.1111
 2095SOL     OW17746   2.580   2.532  17.066  0.4618  0.5068 -0.3312
 2095SOL    HW117747   2.674   2.523  17.051  0.7247  0.8375  1.1800
 2095SOL    HW217748   2.549   2.441  17.058  0.7068  0.4060 -0.1150
 2096SOL     OW17749   2.856   1.608   4.910  0.9148  0.3662 -0.5582
 2096SOL    HW117750   2.932   1.632   4.856 -0.6586  2.0575 -2.0099
 2096SOL    HW217751   2.899   1.536   4.956  0.9912  0.8579  0.1369
 2097SOL     OW17752   2.058   4.634  17.219 -0.1437  0.2059 -0.4288
 2097SOL    HW117753   2.046   4.601  17.307  1.5075  1.6667  0.3576
 2097SOL    HW217754   2.083   0.005  17.246 -1.9713  0.7445 -0.5189
 2098SOL     OW17755   4.495   0.543  13.642  0.2723 -0.6130  0.1106
 2098SOL    HW117756   4.512   0.543  13.736 -2.2552  0.7859  0.5822
 2098SOL    HW217757   4.466   0.633  13.627  1.0365 -0.0878  1.7475
 2099SOL     OW17758   4.532   0.353   2.813  0.3618 -0.2002  0.1657
 2099SOL    HW117759   4.610   0.300   2.800  0.9226  1.1436 -2.0059
 2099SOL    HW217760   4.504   0.307   2.892  1.8974 -0.7049  0.4309
 2100SOL     OW17761   0.845   3.549   7.932  0.4623  0.3652  0.4105
 2100SOL    HW117762   0.852   3.471   7.878 -0.2983 -0.1151  1.0037
 2100SOL    HW217763   0.932   3.589   7.927 -0.2850  2.1371  1.3738
 2101SOL     OW17764   2.921   2.702  13.670 -0.0669  0.6969 -0.3805
 2101SOL    HW117765   2.986   2.727  13.735  0.6664  0.5422 -1.0541
 2101SOL    HW217766   2.927   2.608  13.681 -0.9253  0.5339 -1.2958
 2102SOL     OW17767   1.261   2.317   7.812 -0.1769  0.1403 -0.9152
 2102SOL    HW117768   1.284   2.346   7.900 -0.7383  0.7602 -0.9745
 2102SOL    HW217769   1.268   2.222   7.819 -0.9515  0.4301  3.7121
 2103SOL     OW17770   0.573   4.330   8.608  0.5224  0.2834 -0.1808
 2103SOL    HW117771   0.568   4.423   8.631 -0.6668  0.7354 -2.3037
 2103SOL    HW217772   0.539   4.297   8.691  0.6380  2.1214  0.6129
 2104SOL     OW17773   1.409   2.483   8.019 -0.1108 -0.1926  0.0570
 2104SOL    HW117774   1.498   2.517   8.022 -0.7080  1.4215 -0.8389
 2104SOL    HW217775   1.411   2.423   8.094 -1.1419 -0.7373 -0.3561
 2105SOL     OW17776   3.399   4.496   3.111  0.2368 -0.5071  0.1022
 2105SOL    HW117777   3.487   4.468   3.085  0.5908 -0.5555  1.3661
 2105SOL    HW217778   3.357   4.442   3.044 -1.2842  3.3169 -2.0403
 2106SOL     OW17779   1.535   3.282  10.802  0.6381  0.4204 -0.0987
 2106SOL    HW117780   1.603   3.246  10.859  2.2624  1.7879 -1.1817
 2106SOL    HW217781   1.566   3.372  10.803 -0.7277  0.9011 -2.1424
 2107SOL     OW17782   3.816   4.587   4.136 -0.0180  0.0597 -0.2602
 2107SOL    HW117783   3.800   4.545   4.052 -0.1873 -0.8346  0.2169
 2107SOL    HW217784   3.910   4.606   4.132  0.0228 -0.3054 -0.9835
 2108SOL     OW17785   2.779   0.714  10.063  0.1734  0.0493  0.1949
 2108SOL    HW117786   2.803   0.634  10.110 -0.3917 -0.3174 -0.1379
 2108SOL    HW217787   2.842   0.712   9.991 -0.0453  0.5684 -0.0087
 2109SOL     OW17788   0.885   0.808   4.784 -0.3194 -0.2023 -0.1946
 2109SOL    HW117789   0.809   0.809   4.843  0.1689  0.4451  0.4322
 2109SOL    HW217790   0.922   0.724   4.808 -0.0765 -0.2924 -0.8848
 2110SOL     OW17791   0.501   2.884   3.146 -0.0695 -0.3624  0.3393
 2110SOL    HW117792   0.491   2.974   3.178  1.3440 -0.4940  1.1425
 2110SOL    HW217793   0.488   2.896   3.052  0.4725 -0.4560  0.2551
 2111SOL     OW17794   2.871   3.139   9.961 -0.2193  0.1862 -0.4959
 2111SOL    HW117795   2.870   3.230   9.990 -1.6110  0.4798 -1.4528
 2111SOL    HW217796   2.793   3.101  10.001  0.7210  1.2204  2.2557
 2112SOL     OW17797   0.591   1.758   6.150 -0.4655  0.8537 -0.0162
 2112SOL    HW117798   0.641   1.706   6.087 -0.5701  0.2095  0.4281
 2112SOL    HW217799   0.657   1.765   6.219 -0.5696  2.0621 -0.0478
 2113SOL     OW17800   2.790   2.028  12.998 -0.1218  0.3953 -0.8670
 2113SOL    HW117801   2.788   1.932  13.000 -1.4236  0.4540  0.5380
 2113SOL    HW217802   2.882   2.037  12.974 -0.6359  2.5196 -2.0303
 2114SOL     OW17803   4.066   3.336  16.287 -0.5439 -0.0002  0.2269
 2114SOL    HW117804   4.124   3.265  16.262 -1.5237 -1.8271  3.1045
 2114SOL    HW217805   4.006   3.294  16.349 -0.5753 -3.1601 -1.9873
 2115SOL     OW17806   4.302   1.648   1.337 -0.1074  0.3802  0.4078
 2115SOL    HW117807   4.295   1.743   1.327  0.7331  0.5627  1.5113
 2115SOL    HW217808   4.240   1.635   1.408  0.5723  1.6739  1.2396
 2116SOL     OW17809   3.449   1.017  16.044 -0.0151  0.4072 -0.0814
 2116SOL    HW117810   3.408   1.093  16.085  0.2537  0.8256 -0.6037
 2116SOL    HW217811   3.486   1.064  15.970  2.7178  0.0308  1.0763
 2117SOL     OW17812   2.760   4.260  11.453  0.1477 -0.2779  0.4465
 2117SOL    HW117813   2.773   4.197  11.383  0.3214 -0.9633  1.0927
 2117SOL    HW217814   2.698   4.213  11.508  1.6667 -1.3527  1.2396
 2118SOL     OW17815   3.526   2.276  15.018 -0.0640  0.2807 -0.5541
 2118SOL    HW117816   3.447   2.329  15.030 -0.7601 -0.8397 -0.1202
 2118SOL    HW217817   3.495   2.215  14.951  1.0257 -1.1520  0.2448
 2119SOL     OW17818   2.719   0.889   0.768  0.3175 -0.0935 -0.2703
 2119SOL    HW117819   2.650   0.937   0.814  0.1931  0.1783 -0.7371
 2119SOL    HW217820   2.674   0.839   0.699  2.9393 -2.4889 -0.2496
 2120SOL     OW17821   1.591   2.299   7.186 -0.2856 -0.1521  0.2018
 2120SOL    HW117822   1.669   2.248   7.162 -2.3041 -2.1530 -2.1032
 2120SOL    HW217823   1.570   2.286   7.278 -3.1080 -1.0776 -0.5730
 2121SOL     OW17824   0.622   3.068   8.758  0.3015 -0.1466 -0.0925
 2121SOL    HW117825   0.601   3.025   8.841 -0.2600  0.6658  0.1780
 2121SOL    HW217826   0.652   3.156   8.780  0.7788 -0.7569  1.6711
 2122SOL     OW17827   2.121   1.086   7.042  0.4771 -0.6265  0.9843
 2122SOL    HW117828   2.203   1.080   6.993  1.1378  2.1758  1.7648
 2122SOL    HW217829   2.121   1.170   7.088  2.9289  0.1968 -0.5489
 2123SOL     OW17830   4.281   3.796   4.411  0.7044  0.1938 -0.2153
 2123SOL    HW117831   4.376   3.800   4.406  0.9126 -3.8296 -0.0649
 2123SOL    HW217832   4.268   3.819   4.503  2.9830 -0.2100  0.1971
 2124SOL     OW17833   3.630   2.519   3.530 -0.3508 -0.1182 -0.0707
 2124SOL    HW117834   3.622   2.434   3.487 -1.6014  0.4428 -0.9596
 2124SOL    HW217835   3.722   2.508   3.553 -0.7021 -2.5683  0.1024
 2125SOL     OW17836   0.659   1.717   4.904  0.0176 -0.2534 -0.1497
 2125SOL    HW117837   0.622   1.682   4.823  2.0960  0.1501 -1.2877
 2125SOL    HW217838   0.733   1.770   4.876  0.4940 -1.8097 -1.8326
 2126SOL     OW17839   2.125   3.511   1.549  0.1192 -0.7038 -0.3321
 2126SOL    HW117840   2.207   3.559   1.542  0.5998 -1.4946 -0.1990
 2126SOL    HW217841   2.138   3.466   1.465  2.0023 -0.9041  0.0651
 2127SOL     OW17842   4.073   0.775   8.241 -0.6700 -0.1759  0.4777
 2127SOL    HW117843   3.981   0.794   8.259 -0.9950 -0.8880 -0.4420
 2127SOL    HW217844   4.095   0.828   8.164  2.1854 -1.1338  0.6319
 2128SOL     OW17845   2.623   0.685   2.202  0.0756 -0.4884  0.2125
 2128SOL    HW117846   2.590   0.738   2.275  0.4647  1.2282 -0.8388
 2128SOL    HW217847   2.545   0.645   2.164  0.0837 -1.2462  0.9770
 2129SOL     OW17848   4.257   2.970   4.261 -0.2206 -0.3518  0.2150
 2129SOL    HW117849   4.274   2.985   4.354 -0.1689  1.3276 -0.0586
 2129SOL    HW217850   4.242   3.052   4.214  0.3243 -0.5461 -0.3041
 2130SOL     OW17851   2.719   2.929   8.912  0.2061  0.9195 -0.1645
 2130SOL    HW117852   2.730   2.858   8.976  0.6313  1.4199  0.3165
 2130SOL    HW217853   2.786   2.899   8.851 -1.0913  0.6386 -1.4392
 2131SOL     OW17854   0.925   3.042   1.539  0.4763 -0.1523 -0.5040
 2131SOL    HW117855   0.892   2.965   1.586  0.6293 -0.4221 -0.8391
 2131SOL    HW217856   0.935   3.009   1.450 -2.4863  0.2528 -0.9806
 2132SOL     OW17857   1.310   1.160  15.159 -0.0509 -0.3602 -0.1933
 2132SOL    HW117858   1.369   1.125  15.091  1.9996  2.5331  0.0888
 2132SOL    HW217859   1.240   1.188  15.100 -0.0464 -0.5134 -0.2711
 2133SOL     OW17860   0.699   0.118   2.976 -0.1424  0.4828  0.3836
 2133SOL    HW117861   0.711   0.035   3.022 -0.7909  0.3631  0.3319
 2133SOL    HW217862   0.686   0.087   2.886 -0.3172 -1.7545  1.1863
 2134SOL     OW17863   4.148   4.385   3.975 -0.1801 -0.1367  0.3812
 2134SOL    HW117864   4.090   4.345   3.911  1.5966 -0.0493 -1.2762
 2134SOL    HW217865   4.210   4.314   3.967 -1.4444 -1.2194  0.2199
 2135SOL     OW17866   3.939   2.476  12.264 -0.0639  0.3753 -0.3733
 2135SOL    HW117867   3.991   2.462  12.184 -1.9573  0.8520 -1.6845
 2135SOL    HW217868   3.995   2.437  12.331 -1.0155 -0.6986 -0.2016
 2136SOL     OW17869   4.469   1.522   4.701 -0.0869 -0.1266 -0.2689
 2136SOL    HW117870   4.435   1.605   4.668  0.5307 -0.7169 -2.3676
 2136SOL    HW217871   4.406   1.497   4.769  0.4382 -0.6944  0.0008
 2137SOL     OW17872   0.956   2.857   6.597  0.1486  0.1291 -0.0189
 2137SOL    HW117873   1.020   2.893   6.659  1.2978 -0.5194 -0.8420
 2137SOL    HW217874   1.005   2.813   6.528  0.0491  0.8163 -0.5299
 2138SOL     OW17875   1.072   2.406   2.256 -0.1078  0.7517  0.1757
 2138SOL    HW117876   1.021   2.358   2.322 -2.9147 -0.1969 -2.7146
 2138SOL    HW217877   1.161   2.379   2.279 -0.7355 -0.3876  1.2847
 2139SOL     OW17878   4.005   2.931   8.294 -0.2095 -0.7970 -0.0335
 2139SOL    HW117879   4.044   2.852   8.255 -2.7131 -1.2292 -1.6800
 2139SOL    HW217880   3.922   2.890   8.321 -1.8286  1.0337 -2.2563
 2140SOL     OW17881   4.578   2.556   0.362  0.1206  0.3499  0.0776
 2140SOL    HW117882   4.589   2.645   0.328  0.8205 -0.0248 -0.6901
 2140SOL    HW217883   4.492   2.560   0.404 -0.3743 -0.1140 -0.8790
 2141SOL     OW17884   2.733   2.102   7.821 -0.0319 -0.1129  0.1682
 2141SOL    HW117885   2.747   2.011   7.795  3.6428  0.7848 -1.0701
 2141SOL    HW217886   2.639   2.099   7.837 -0.2212 -0.3744 -1.0364
 2142SOL     OW17887   4.204   3.478   4.212  0.6357  0.0568 -0.0874
 2142SOL    HW117888   4.294   3.502   4.235  1.2282 -1.6569 -0.6451
 2142SOL    HW217889   4.185   3.406   4.272 -0.3499  0.2446 -0.1731
 2143SOL     OW17890   3.325   2.738   4.948  0.1935  0.0877 -0.6788
 2143SOL    HW117891   3.244   2.782   4.920 -0.6704 -0.3328  1.1364
 2143SOL    HW217892   3.340   2.791   5.026  0.0146  2.9897 -2.6209
 2144SOL     OW17893   3.635   1.610   1.732 -0.0545 -0.0278  0.2919
 2144SOL    HW117894   3.721   1.620   1.772 -0.2690  0.4221  0.6504
 2144SOL    HW217895   3.575   1.629   1.805 -0.3204 -1.4465  0.4401
 2145SOL     OW17896   4.241   1.195   2.583  0.3475  0.0487  1.2216
 2145SOL    HW117897   4.285   1.211   2.500 -1.6131 -2.0492 -0.2359
 2145SOL    HW217898   4.244   1.099   2.584  1.1722  0.0681  0.3767
 2146SOL     OW17899   0.748   0.092   8.115  0.2026 -0.6483  0.1648
 2146SOL    HW117900   0.843   0.100   8.112  0.3631 -2.3061  0.7124
 2146SOL    HW217901   0.730   0.024   8.050 -1.5727  0.1931 -0.2246
 2147SOL     OW17902   2.062   3.533   6.455 -1.0241  0.1568 -0.3275
 2147SOL    HW117903   1.973   3.495   6.451 -0.8961 -0.1487 -0.2790
 2147SOL    HW217904   2.110   3.461   6.495 -0.8399  1.1549  1.2166
 2148SOL     OW17905   3.994   2.157  15.837 -0.8713  0.5618 -0.0644
 2148SOL    HW117906   4.021   2.176  15.926 -1.6828 -1.5010  0.6219
 2148SOL    HW217907   3.914   2.104  15.847 -0.3753 -0.0142  0.7884
 2149SOL     OW17908   4.603   1.516  16.485  0.3544 -0.4231  0.1387
 2149SOL    HW117909   4.556   1.443  16.526 -0.0593 -0.0330  0.3557
 2149SOL    HW217910   4.689   1.514  16.527 -0.2349  0.8965  1.4180
 2150SOL     OW17911   4.342   4.582  14.079 -0.0641 -0.1605  0.3979
 2150SOL    HW117912   4.259   4.628  14.092  0.1032  0.6327 -1.4439
 2150SOL    HW217913   4.344   4.535  14.162  0.3810 -0.2447  0.3415
 2151SOL     OW17914   0.146   2.292   6.777  0.2321  0.1115  0.7028
 2151SOL    HW117915   0.180   2.313   6.690 -0.0678  0.5471  0.6941
 2151SOL    HW217916   0.177   2.368   6.826  1.2160  0.6821 -0.8103
 2152SOL     OW17917   0.584   0.967   4.358 -0.5478  0.4865  0.0181
 2152SOL    HW117918   0.599   0.922   4.441 -1.5906  1.0152  0.4944
 2152SOL    HW217919   0.533   1.042   4.389 -0.4115 -0.2725  2.1151
 2153SOL     OW17920   1.021   0.815  13.028 -0.4648 -0.0312 -0.0652
 2153SOL    HW117921   1.047   0.820  12.936  0.4698  1.1979  0.2612
 2153SOL    HW217922   1.058   0.732  13.058 -0.3266 -0.0544 -0.2968
 2154SOL     OW17923   0.661   2.449   8.289  0.3785 -0.1731  0.5295
 2154SOL    HW117924   0.577   2.456   8.335  0.6623 -3.3728  1.5288
 2154SOL    HW217925   0.721   2.434   8.362  3.4579 -1.1045 -2.2446
 2155SOL     OW17926   1.205   0.435   7.711  0.1603  0.2811 -0.0346
 2155SOL    HW117927   1.153   0.501   7.757 -0.6159 -0.3532  0.0120
 2155SOL    HW217928   1.155   0.360   7.745 -2.0471  1.9102  0.3146
 2156SOL     OW17929   3.406   2.620   0.101  0.1533 -0.6503  0.1368
 2156SOL    HW117930   3.410   2.564   0.023 -1.6874  0.6818 -0.9164
 2156SOL    HW217931   3.409   2.561   0.176 -0.7394  0.0676  0.7443
 2157SOL     OW17932   1.664   0.363   2.190  0.1132  0.1063 -0.0720
 2157SOL    HW117933   1.591   0.361   2.128 -0.2222 -0.4481  0.3322
 2157SOL    HW217934   1.631   0.297   2.251  2.6355 -1.3644 -0.3129
 2158SOL     OW17935   0.200   3.941   8.796 -0.3469 -0.1153 -0.3326
 2158SOL    HW117936   0.253   3.945   8.717 -0.6922 -0.2164 -0.5693
 2158SOL    HW217937   0.187   3.846   8.791 -0.5381 -0.0071 -1.9153
 2159SOL     OW17938   0.009   0.951   2.527  0.3762 -0.1924 -0.6277
 2159SOL    HW117939   0.042   0.862   2.515 -2.8042 -1.4762  0.2838
 2159SOL    HW217940   0.002   0.965   2.621  1.7973 -2.7014 -0.1572
 2160SOL     OW17941   2.652   0.884   6.698  0.2439  0.2190  0.3606
 2160SOL    HW117942   2.711   0.820   6.740 -0.9406 -0.9707  0.2202
 2160SOL    HW217943   2.715   0.955   6.694  2.1409 -1.3159  3.1255
 2161SOL     OW17944   2.938   1.040   0.668  0.0239  0.3356  0.0408
 2161SOL    HW117945   2.907   1.130   0.668  0.0825  0.3560  0.0758
 2161SOL    HW217946   2.854   0.994   0.675 -0.0516  0.5121  0.3167
 2162SOL     OW17947   3.716   3.726   8.625  0.0627 -0.5963 -0.1133
 2162SOL    HW117948   3.732   3.729   8.531  0.9665  0.1041  0.0554
 2162SOL    HW217949   3.630   3.768   8.625  0.3135 -0.0816 -0.6729
 2163SOL     OW17950   0.366   1.322  16.094 -0.0134  0.7290  0.0791
 2163SOL    HW117951   0.380   1.283  16.007  0.1493 -2.0217  1.3414
 2163SOL    HW217952   0.273   1.304  16.109  0.0499  0.1847 -0.1730
 2164SOL     OW17953   0.384   1.439   6.174  0.3449 -0.3475  0.0015
 2164SOL    HW117954   0.378   1.343   6.172 -2.1968 -0.1843 -0.4022
 2164SOL    HW217955   0.376   1.464   6.081  0.3512  1.2830  0.4387
 2165SOL     OW17956   3.292   0.858  11.251 -0.0016 -0.1651 -0.2919
 2165SOL    HW117957   3.314   0.948  11.228  1.9937  0.0558  2.5041
 2165SOL    HW217958   3.252   0.873  11.337 -1.7493 -1.0477 -0.9323
 2166SOL     OW17959   4.163   3.657   9.379 -0.1389 -0.3010  1.0254
 2166SOL    HW117960   4.078   3.683   9.342 -0.5002 -1.1620  1.2501
 2166SOL    HW217961   4.202   3.602   9.310 -1.6878  0.8352 -0.7563
 2167SOL     OW17962   3.110   3.883  12.922 -0.0215 -0.7165  0.2554
 2167SOL    HW117963   3.098   3.864  13.015 -3.3009  0.5214  0.0863
 2167SOL    HW217964   3.118   3.978  12.919  0.7618 -0.7237  2.0614
 2168SOL     OW17965   0.059   1.165  16.414  0.0775  0.0294  0.5825
 2168SOL    HW117966   0.055   1.070  16.408  3.8534 -0.2453  2.3410
 2168SOL    HW217967   0.050   1.176  16.509 -1.2367 -3.1440  0.8243
 2169SOL     OW17968   2.524   0.109  16.920  0.0462  0.3778  0.5643
 2169SOL    HW117969   2.599   0.062  16.883  1.1922  4.1816 -1.8593
 2169SOL    HW217970   2.540   0.195  16.881 -1.0659  0.7556  0.9504
 2170SOL     OW17971   1.883   4.523   7.231  0.3373 -0.1351 -0.4090
 2170SOL    HW117972   1.810   4.483   7.183 -1.5831  2.3766  0.4007
 2170SOL    HW217973   1.949   4.507   7.163  0.8860  0.5839 -0.0458
 2171SOL     OW17974   3.660   3.536  15.453 -0.4950  0.3425  0.3321
 2171SOL    HW117975   3.721   3.609  15.446  0.8257 -0.8850 -0.9469
 2171SOL    HW217976   3.644   3.535  15.359  0.5889 -0.8184  0.1530
 2172SOL     OW17977   2.694   1.011   4.745 -0.4815  0.3700 -0.1855
 2172SOL    HW117978   2.736   1.019   4.830 -1.3226  1.2477  0.1476
 2172SOL    HW217979   2.706   0.927   4.702  0.0863  0.1226  0.4567
 2173SOL     OW17980   3.763   2.061  17.233  0.3276  0.1317  0.1699
 2173SOL    HW117981   3.788   2.129  17.296 -0.4752  0.6616 -0.0709
 2173SOL    HW217982   3.835   2.062  17.171 -1.4830 -1.3999 -1.9632
 2174SOL     OW17983   1.987   1.761   7.065 -0.0980  0.1477 -0.0963
 2174SOL    HW117984   1.989   1.800   6.977 -0.0205 -0.4691 -0.3725
 2174SOL    HW217985   2.067   1.708   7.062 -0.7501 -0.8017 -0.6403
 2175SOL     OW17986   3.218   4.608  14.813 -0.0607 -0.1170  0.0278
 2175SOL    HW117987   3.236   4.529  14.863 -0.6468 -0.6089 -0.5426
 2175SOL    HW217988   3.303   4.628  14.774 -0.5809 -2.2366 -2.1630
 2176SOL     OW17989   1.197   2.837  13.610 -0.1030 -0.3730  0.0990
 2176SOL    HW117990   1.131   2.866  13.672 -0.7260  1.0243 -1.2084
 2176SOL    HW217991   1.142   2.823  13.533  2.0228 -2.7295 -0.9966
 2177SOL     OW17992   1.910   2.239   4.401 -0.5319  0.0419 -0.0884
 2177SOL    HW117993   1.852   2.206   4.331  1.1364 -1.7415 -0.6103
 2177SOL    HW217994   1.951   2.310   4.352  1.0072 -0.1927  0.8786
 2178SOL     OW17995   1.452   3.588   2.867 -0.3611 -0.2973  0.1657
 2178SOL    HW117996   1.381   3.638   2.827 -0.8880 -1.7447 -0.6930
 2178SOL    HW217997   1.413   3.598   2.954 -2.2861 -1.1983 -0.5983
 2179SOL     OW17998   4.322   1.720   0.996 -0.1178  0.1950  0.0521
 2179SOL    HW117999   4.244   1.736   0.943 -1.5851 -1.4110  1.7307
 2179SOL    HW218000   4.284   1.758   1.075 -1.6902 -1.5200  0.1249
 2180SOL     OW18001   0.891   2.435   8.471  0.2815 -0.0712  0.0747
 2180SOL    HW118002   0.982   2.451   8.446  0.5139 -2.0668 -0.3197
 2180SOL    HW218003   0.903   2.359   8.527 -0.4411 -1.0035 -1.0530
 2181SOL     OW18004   4.548   3.463   6.917  0.9504 -0.1479 -0.0283
 2181SOL    HW118005   4.619   3.520   6.886  1.0195 -0.1130  0.1941
 2181SOL    HW218006   4.549   3.392   6.853 -3.4297  0.9081 -1.2709
 2182SOL     OW18007   1.099   3.862  10.363 -0.2900  0.2075  0.0535
 2182SOL    HW118008   1.102   3.810  10.283 -0.1092  0.3035 -0.0011
 2182SOL    HW218009   1.019   3.835  10.407 -0.4572  0.4346 -0.1125
 2183SOL     OW18010   1.341   0.945   2.093  0.2222 -0.0985  0.2661
 2183SOL    HW118011   1.328   1.038   2.075  1.5560  0.3054  1.4424
 2183SOL    HW218012   1.400   0.917   2.023 -1.9628 -3.4032 -0.2697
 2184SOL     OW18013   4.540   3.868   6.984 -0.1957  0.4569  0.0150
 2184SOL    HW118014   4.568   3.923   6.910 -1.6581  0.5071 -0.4977
 2184SOL    HW218015   4.624   3.831   7.010 -0.7178  0.0103  1.0450
 2185SOL     OW18016   0.581   3.179  11.893 -0.0550  0.1353  0.2010
 2185SOL    HW118017   0.531   3.224  11.961 -0.1406  0.8518 -0.3428
 2185SOL    HW218018   0.554   3.088  11.907  1.4283 -0.6531 -2.0591
 2186SOL     OW18019   1.458   2.774   8.939 -0.4994 -0.1800 -0.2233
 2186SOL    HW118020   1.372   2.753   8.904  0.0561  0.8198 -2.1876
 2186SOL    HW218021   1.487   2.688   8.967 -0.6713  0.2797  1.3313
 2187SOL     OW18022   0.453   3.641   9.610  0.2597 -0.2191  0.3134
 2187SOL    HW118023   0.540   3.676   9.624 -0.2119  1.0208  0.1302
 2187SOL    HW218024   0.406   3.720   9.585  2.0156  0.3611 -1.2100
 2188SOL     OW18025   1.425   2.679   8.353 -0.0711 -0.4560  0.7915
 2188SOL    HW118026   1.473   2.761   8.341 -0.9125 -0.3516 -1.9340
 2188SOL    HW218027   1.417   2.701   8.446 -0.1983 -3.6343  1.5417
 2189SOL     OW18028   3.517   4.360  12.353 -0.8089  0.0462 -0.1173
 2189SOL    HW118029   3.457   4.405  12.413 -0.7379  2.4519 -1.8396
 2189SOL    HW218030   3.585   4.427  12.340 -0.3075 -0.6148 -0.8984
 2190SOL     OW18031   3.115   1.899   5.369  0.0781  0.5670  0.1071
 2190SOL    HW118032   3.076   1.972   5.320  2.1592  2.5069  1.3476
 2190SOL    HW218033   3.056   1.891   5.444 -0.3003  1.2546 -0.1166
 2191SOL     OW18034   1.346   2.452   8.660  0.1911  0.3392  0.6745
 2191SOL    HW118035   1.261   2.491   8.680  0.1873  2.4052 -3.2225
 2191SOL    HW218036   1.401   2.530   8.645 -0.1208  0.3347 -0.5027
 2192SOL     OW18037   1.016   3.370   6.032  0.0001  0.3277  0.2066
 2192SOL    HW118038   0.985   3.382   5.942  2.6060 -0.7479 -0.8247
 2192SOL    HW218039   1.061   3.287   6.020 -0.2021  0.3835 -0.9126
 2193SOL     OW18040   1.690   0.160   1.756 -0.9824 -0.1287 -1.2550
 2193SOL    HW118041   1.706   0.065   1.751  3.2026  0.5767 -0.8983
 2193SOL    HW218042   1.626   0.166   1.827  0.7162  0.2042  0.2428
 2194SOL     OW18043   1.285   2.676   3.860  0.2606 -0.3511 -0.0733
 2194SOL    HW118044   1.253   2.588   3.838  0.7856 -0.4949 -0.2744
 2194SOL    HW218045   1.372   2.657   3.896  0.4592 -0.1338 -0.4390
 2195SOL     OW18046   4.255   4.225   8.568  0.2365  0.3398  0.0388
 2195SOL    HW118047   4.249   4.259   8.658  0.3828 -0.7066  0.4405
 2195SOL    HW218048   4.273   4.133   8.584 -1.4347 -0.1874 -1.1206
 2196SOL     OW18049   3.117   1.132   2.037  0.0837  0.4757  0.1198
 2196SOL    HW118050   3.044   1.081   2.000 -1.8387  1.4061  2.6611
 2196SOL    HW218051   3.100   1.225   2.024 -0.0800  0.3943 -0.2701
 2197SOL     OW18052   3.161   0.843   8.416 -0.3921 -0.2288  0.1227
 2197SOL    HW118053   3.190   0.881   8.498  0.6330 -2.1813  0.6641
 2197SOL    HW218054   3.067   0.862   8.415 -0.0816  1.3763  1.6120
 2198SOL     OW18055   4.578   0.096   5.712  0.2431 -0.3055  0.3282
 2198SOL    HW118056   4.485   0.109   5.696  0.0536 -1.1825  0.7414
 2198SOL    HW218057   4.577   0.017   5.766  0.7376  0.5844  1.6502
 2199SOL     OW18058   2.545   2.421   5.252  0.5173  0.2594  0.1049
 2199SOL    HW118059   2.505   2.404   5.337 -3.2071  1.9402 -1.3402
 2199SOL    HW218060   2.596   2.501   5.266 -0.7145  0.7457  1.7800
 2200SOL     OW18061   0.630   3.504  13.538 -0.0361  0.1620  0.0553
 2200SOL    HW118062   0.636   3.421  13.586  0.0347  0.8130  1.1608
 2200SOL    HW218063   0.693   3.495  13.466  0.5966  1.7442  0.4163
 2201SOL     OW18064   1.403   2.898   4.053 -0.3606 -0.3005 -0.4732
 2201SOL    HW118065   1.366   2.866   3.971  1.1075 -0.8265 -0.9437
 2201SOL    HW218066   1.386   2.991   4.038  0.1485 -0.0709  0.3497
 2202SOL     OW18067   2.516   3.049   3.026 -0.1290  0.1212 -0.2860
 2202SOL    HW118068   2.604   3.023   2.998  0.1702  1.1956 -0.3167
 2202SOL    HW218069   2.471   3.070   2.944 -1.1579 -1.3994 -0.1037
 2203SOL     OW18070   2.004   2.402   6.745  0.0954 -0.4207 -0.1359
 2203SOL    HW118071   1.973   2.342   6.678 -0.3701  0.4588 -0.7089
 2203SOL    HW218072   2.078   2.446   6.704 -0.2533 -1.2902 -1.6752
 2204SOL     OW18073   0.785   1.812   0.181 -0.0521 -0.3674  0.1129
 2204SOL    HW118074   0.749   1.900   0.192  1.1250  0.0874  0.3481
 2204SOL    HW218075   0.876   1.814   0.211 -0.4507  1.9052  1.1647
 2205SOL     OW18076   3.637   1.266  16.273  0.1369 -0.8059 -0.4814
 2205SOL    HW118077   3.626   1.315  16.191  1.4509 -0.1045 -0.2497
 2205SOL    HW218078   3.664   1.177  16.249  0.7521 -0.2080 -2.0485
 2206SOL     OW18079   1.547   2.255   7.844 -0.1933  0.5016  0.0123
 2206SOL    HW118080   1.624   2.198   7.852  0.5718  1.7205  1.3443
 2206SOL    HW218081   1.497   2.220   7.917 -0.9769 -0.0938 -0.8061
 2207SOL     OW18082   3.671   4.470   5.816  0.3494  0.1383  0.4571
 2207SOL    HW118083   3.631   4.554   5.837  0.8814  0.7094 -0.7867
 2207SOL    HW218084   3.605   4.414   5.858 -0.9082 -0.4045 -2.2449
 2208SOL     OW18085   1.042   1.850  13.645  0.0637 -0.2710 -0.1777
 2208SOL    HW118086   1.107   1.831  13.713 -0.0449  3.0602  0.8763
 2208SOL    HW218087   0.980   1.900  13.698  2.9419  1.5933  1.4841
 2209SOL     OW18088   2.427   2.875  15.260  0.2749 -0.0878  0.3840
 2209SOL    HW118089   2.443   2.787  15.294 -1.3940 -1.4761 -2.5285
 2209SOL    HW218090   2.514   2.914  15.276 -0.1471  0.2095  2.0325
 2210SOL     OW18091   0.486   1.990   6.325  0.1109  0.3837  0.6190
 2210SOL    HW118092   0.557   1.932   6.353  0.4747  0.7810  0.5170
 2210SOL    HW218093   0.420   1.934   6.282  0.7021  0.1853 -0.0374
 2211SOL     OW18094   0.741   1.559   6.010  0.1701  0.4904  0.0037
 2211SOL    HW118095   0.731   1.507   6.089 -1.5767  2.2290  0.9115
 2211SOL    HW218096   0.823   1.603   6.032  1.3269 -0.6065 -2.0802
 2212SOL     OW18097   2.284   3.618   8.555  0.0746  0.3945 -0.6886
 2212SOL    HW118098   2.206   3.664   8.584 -0.6625 -0.1344 -1.8263
 2212SOL    HW218099   2.350   3.656   8.613  1.2837  1.7162 -2.9229
 2213SOL     OW18100   2.597   0.161  15.729 -0.3565  0.1560  0.6085
 2213SOL    HW118101   2.642   0.235  15.769 -1.2608  0.3430  1.2639
 2213SOL    HW218102   2.575   0.194  15.642  0.9241 -1.3413 -0.3047
 2214SOL     OW18103   3.750   4.014   7.111  0.1474  0.1747  0.2569
 2214SOL    HW118104   3.804   4.031   7.034  1.6775  1.0220  1.5257
 2214SOL    HW218105   3.746   4.102   7.149  2.9934  1.5991 -2.7440
 2215SOL     OW18106   1.913   1.359   6.669  0.1721 -0.4242 -0.4095
 2215SOL    HW118107   1.991   1.317   6.707  0.1652  1.0179  1.1876
 2215SOL    HW218108   1.942   1.417   6.598  3.3189 -0.7042  0.6133
 2216SOL     OW18109   2.688   2.772   6.970 -0.1909  0.1644  0.5456
 2216SOL    HW118110   2.747   2.786   6.895  0.1938 -2.3253  0.3640
 2216SOL    HW218111   2.707   2.849   7.023 -1.0075  0.7252  0.0235
 2217SOL     OW18112   3.378   2.834   7.806  0.3766 -0.7500 -0.2287
 2217SOL    HW118113   3.421   2.800   7.885  0.9729  0.1326 -0.1760
 2217SOL    HW218114   3.294   2.788   7.808 -0.8899  1.5048 -1.1509
 2218SOL     OW18115   2.168   2.087   1.296  0.2157  0.2222 -0.0603
 2218SOL    HW118116   2.228   2.095   1.222  0.9318  1.0392  0.6083
 2218SOL    HW218117   2.186   1.995   1.313  0.1391  0.4568  1.2816
 2219SOL     OW18118   0.308   4.451   1.907 -0.6796  0.0369  0.6437
 2219SOL    HW118119   0.287   4.386   1.974  1.9284 -0.6017  0.8526
 2219SOL    HW218120   0.272   4.528   1.951 -4.4010  0.6252 -3.4092
 2220SOL     OW18121   3.045   4.083   0.560 -0.0320 -0.2660  0.6380
 2220SOL    HW118122   2.976   4.020   0.540  0.1004 -0.5830  1.1656
 2220SOL    HW218123   3.080   4.096   0.471  0.9658  0.6094  1.1603
 2221SOL     OW18124   0.814   4.063   7.053  0.1342 -0.2132 -0.2021
 2221SOL    HW118125   0.838   4.040   6.963  0.1357  1.0907 -0.5352
 2221SOL    HW218126   0.749   3.995   7.068 -1.6201  1.8256  1.5724
 2222SOL     OW18127   3.569   2.664  17.499 -0.2674  0.0818 -0.2462
 2222SOL    HW118128   3.525   2.580  17.510 -0.7379  0.6887  2.4570
 2222SOL    HW218129   3.659   2.635  17.487  0.6225  2.7401 -0.0503
 2223SOL     OW18130   1.185   2.182   6.680 -0.4407  0.5319  0.1287
 2223SOL    HW118131   1.098   2.211   6.709 -0.7179  0.0444 -0.2147
 2223SOL    HW218132   1.239   2.217   6.750  2.3956 -1.0972 -1.2647
 2224SOL     OW18133   0.501   1.257  10.858 -0.1862 -0.6209  0.0116
 2224SOL    HW118134   0.449   1.315  10.913 -0.1692 -0.2208 -0.3952
 2224SOL    HW218135   0.576   1.311  10.832  0.0608 -0.5511  0.8615
 2225SOL     OW18136   2.437   2.868   1.642  0.7931 -0.6065 -0.8003
 2225SOL    HW118137   2.378   2.918   1.698  2.4885  0.2334  0.2431
 2225SOL    HW218138   2.513   2.923   1.660 -0.5834  0.4302  1.7540
 2226SOL     OW18139   0.126   2.828  15.732 -0.1638 -0.1838  0.2573
 2226SOL    HW118140   0.217   2.810  15.753  0.9144  1.1505 -3.2259
 2226SOL    HW218141   0.120   2.889  15.658 -0.3466  0.0759  0.4853
 2227SOL     OW18142   4.005   0.767  10.439  0.4696 -0.5167  0.5862
 2227SOL    HW118143   4.001   0.784  10.533  3.4678  0.7320  0.5105
 2227SOL    HW218144   4.076   0.705  10.421  0.4276 -0.1558 -0.7933
 2228SOL     OW18145   2.119   0.656   4.937 -0.2508 -0.3024 -0.0792
 2228SOL    HW118146   2.119   0.615   5.024  2.1367 -1.3098 -0.5338
 2228SOL    HW218147   2.026   0.654   4.917 -0.2089  0.2055 -0.3100
 2229SOL     OW18148   3.939   1.503   4.252  0.6037 -0.5853 -0.0643
 2229SOL    HW118149   3.849   1.530   4.234  0.3889 -1.1068  0.2172
 2229SOL    HW218150   3.929   1.510   4.347  2.2700 -4.0444  0.3519
 2230SOL     OW18151   0.754   1.215   6.179 -0.1551 -0.2578  0.3286
 2230SOL    HW118152   0.838   1.172   6.165 -0.4350 -0.2668 -1.2647
 2230SOL    HW218153   0.701   1.147   6.222  1.3197 -2.2402 -1.0148
 2231SOL     OW18154   3.610   0.880   4.985  0.6792 -0.2417  0.4811
 2231SOL    HW118155   3.551   0.893   5.059 -0.9242  2.1778 -1.1987
 2231SOL    HW218156   3.688   0.858   5.034 -0.6439 -1.0078  2.2300
 2232SOL     OW18157   1.761   0.228   1.488  0.2368  0.5010  0.0112
 2232SOL    HW118158   1.702   0.188   1.551  1.7559 -2.4771 -0.4800
 2232SOL    HW218159   1.802   0.147   1.459  0.1097  0.8598 -1.1829
 2233SOL     OW18160   4.536   4.587   5.883  0.0123  0.3453  0.8255
 2233SOL    HW118161   4.447   4.603   5.914 -0.1907 -0.6809  0.7781
 2233SOL    HW218162   4.588   4.585   5.963 -0.5478 -1.2002  1.1497
 2234SOL     OW18163   2.663   0.112   2.037  0.0015  0.0831 -0.0025
 2234SOL    HW118164   2.749   0.125   1.999 -0.2488 -0.4046 -0.7230
 2234SOL    HW218165   2.601   0.108   1.964 -0.7582 -0.8336  0.6826
 2235SOL     OW18166   1.743   3.828   5.762  0.1877  0.0687  0.5180
 2235SOL    HW118167   1.746   3.742   5.803 -0.7167  0.2262  0.9037
 2235SOL    HW218168   1.834   3.851   5.742 -0.2350  1.1640 -0.1824
 2236SOL     OW18169   3.212   1.122  12.811  0.2859 -0.3536 -0.1620
 2236SOL    HW118170   3.237   1.093  12.723 -0.0802 -0.8752 -0.0964
 2236SOL    HW218171   3.128   1.168  12.802  0.2468 -0.4921 -0.5000
 2237SOL     OW18172   3.124   3.978   2.923 -0.2474 -0.0767 -0.1613
 2237SOL    HW118173   3.077   3.927   2.857 -1.6642  1.6149 -0.4481
 2237SOL    HW218174   3.054   4.027   2.966 -1.1161 -0.8763 -0.6719
 2238SOL     OW18175   2.999   3.105   2.210 -0.0535 -0.2840  0.1215
 2238SOL    HW118176   3.068   3.164   2.178 -0.5726 -0.7725 -1.8411
 2238SOL    HW218177   2.925   3.138   2.159 -0.2798  0.2462  0.7883
 2239SOL     OW18178   2.289   3.043   7.002  0.1483 -0.0412 -0.0758
 2239SOL    HW118179   2.229   3.113   6.976 -0.1654  0.0353  0.8625
 2239SOL    HW218180   2.230   2.971   7.027  1.9710 -1.1572  1.0048
 2240SOL     OW18181   0.493   2.014  15.054  0.4950  0.2426 -0.0578
 2240SOL    HW118182   0.478   2.102  15.021 -0.5528  0.1424  0.1618
 2240SOL    HW218183   0.588   2.016  15.068  0.3641 -0.4653  0.9482
 2241SOL     OW18184   1.021   3.100  16.134 -0.6686 -0.0495  0.2471
 2241SOL    HW118185   1.031   3.005  16.124 -0.4550  0.2844 -2.8543
 2241SOL    HW218186   0.937   3.116  16.091  0.9134 -0.1115 -2.9111
 2242SOL     OW18187   3.021   2.090   6.453  1.0246  0.3960  0.3488
 2242SOL    HW118188   3.113   2.103   6.430  0.2191  1.3836 -2.2705
 2242SOL    HW218189   3.004   2.179   6.485  3.3602  1.7367 -2.1042
 2243SOL     OW18190   3.124   0.410   2.646 -0.1524  0.6507  0.3965
 2243SOL    HW118191   3.200   0.466   2.632  0.2315 -0.1091 -0.5521
 2243SOL    HW218192   3.141   0.336   2.587 -0.0273  0.8658  0.1631
 2244SOL     OW18193   3.428   1.244   0.819 -0.0499  0.0008  0.3228
 2244SOL    HW118194   3.449   1.157   0.786  0.7009 -0.4704  2.0282
 2244SOL    HW218195   3.333   1.231   0.825  0.1973 -1.1706  1.6266
 2245SOL     OW18196   0.537   1.364   3.316  0.3576  0.5029  0.6688
 2245SOL    HW118197   0.561   1.450   3.282 -0.7376  0.7322  0.4707
 2245SOL    HW218198   0.582   1.363   3.401 -1.9596 -0.4581  1.8723
 2246SOL     OW18199   2.207   3.190   7.746  0.0420 -0.1415  0.1201
 2246SOL    HW118200   2.141   3.121   7.736 -0.8699  0.7845 -0.3065
 2246SOL    HW218201   2.216   3.214   7.654  3.3626  1.4586  0.8887
 2247SOL     OW18202   0.017   0.424  13.237  0.4243 -0.2398 -0.3489
 2247SOL    HW118203   0.063   0.455  13.316  1.1572 -1.1984 -0.4008
 2247SOL    HW218204   4.652   0.387  13.266 -0.6224  1.5968 -0.9611
 2248SOL     OW18205   4.134   2.794   7.030  0.0233  0.5880  0.3845
 2248SOL    HW118206   4.198   2.844   7.081  0.6854 -0.3990  0.5174
 2248SOL    HW218207   4.114   2.849   6.954  0.6441  0.2297 -0.0365
 2249SOL     OW18208   1.820   4.628   8.151  0.4758 -0.7196 -0.4784
 2249SOL    HW118209   1.765   4.706   8.151  1.1881 -0.2157 -1.1762
 2249SOL    HW218210   1.822   4.609   8.245 -1.7029 -0.3761 -0.3651
 2250SOL     OW18211   1.859   1.823   4.409 -0.4774 -0.2416  0.1449
 2250SOL    HW118212   1.769   1.802   4.437 -0.0757  0.5249  2.0021
 2250SOL    HW218213   1.857   1.813   4.314 -0.9767 -3.9501  0.5439
 2251SOL     OW18214   1.833   4.501   5.007 -0.0409  0.2910 -0.2868
 2251SOL    HW118215   1.859   4.565   5.074 -1.3256  0.6511 -0.1398
 2251SOL    HW218216   1.772   4.442   5.052  1.0238 -0.6362 -0.0452
 2252SOL     OW18217   0.999   3.943   6.361 -0.6582 -0.0205 -0.0332
 2252SOL    HW118218   0.995   3.987   6.446  0.0476 -0.0057 -0.0133
 2252SOL    HW218219   0.905   3.927   6.348 -0.5258  0.1302 -1.2073
 2253SOL     OW18220   0.641   2.496  10.956  0.3986  0.5094  0.1027
 2253SOL    HW118221   0.734   2.472  10.958  0.1158 -0.3595  4.3065
 2253SOL    HW218222   0.597   2.426  11.005 -0.5564  1.0880  0.0553
 2254SOL     OW18223   3.256   3.009   2.543 -0.6022  1.0101 -0.0898
 2254SOL    HW118224   3.234   2.966   2.626 -1.0618 -0.0683 -0.7623
 2254SOL    HW218225   3.243   2.934   2.485  0.3844  2.4793 -2.1888
 2255SOL     OW18226   1.786   4.441   4.735 -0.2217  0.2549 -0.0751
 2255SOL    HW118227   1.706   4.391   4.753  0.7425 -0.2948  2.6451
 2255SOL    HW218228   1.785   4.499   4.811 -0.0057  2.1877 -1.5385
 2256SOL     OW18229   1.172   0.832   2.882 -0.0326 -0.8200 -0.3029
 2256SOL    HW118230   1.129   0.812   2.966 -1.8722 -0.1604 -1.0824
 2256SOL    HW218231   1.253   0.783   2.895  0.2520 -0.3279 -0.2111
 2257SOL     OW18232   2.489   0.851   2.383 -0.2550 -0.1446 -0.5525
 2257SOL    HW118233   2.521   0.825   2.470 -1.2054 -1.0528 -0.4658
 2257SOL    HW218234   2.550   0.920   2.358  1.1369 -0.3338  2.2873
 2258SOL     OW18235   4.506   0.740   5.525  0.3021  0.1354  0.1715
 2258SOL    HW118236   4.485   0.828   5.556  1.4945  1.4105 -2.6473
 2258SOL    HW218237   4.462   0.746   5.440  0.4716 -2.4008 -0.1018
 2259SOL     OW18238   2.465   4.651   5.122 -0.8581 -0.2911 -0.0263
 2259SOL    HW118239   2.414   4.708   5.064  0.9959  1.4337  0.0205
 2259SOL    HW218240   2.394   4.625   5.180 -0.1716 -0.4754  0.7392
 2260SOL     OW18241   3.694   3.024   0.457  0.1367 -0.0910 -0.6693
 2260SOL    HW118242   3.737   3.101   0.419 -0.7872  1.2261  0.9484
 2260SOL    HW218243   3.684   3.048   0.549  0.2272  0.0935 -0.7077
 2261SOL     OW18244   0.963   3.092   3.585 -0.5050 -0.0243  0.2859
 2261SOL    HW118245   0.871   3.105   3.608  0.0715 -0.0705  2.6074
 2261SOL    HW218246   0.953   3.051   3.499  0.6489  0.9308 -0.2967
 2262SOL     OW18247   2.681   0.505  17.028 -0.2056  0.2239 -0.6111
 2262SOL    HW118248   2.768   0.493  17.065 -0.8553 -0.0808  0.8469
 2262SOL    HW218249   2.678   0.598  17.009 -0.7392  0.5158  0.8865
 2263SOL     OW18250   2.856   3.242   3.982 -0.2028 -0.5336 -0.2103
 2263SOL    HW118251   2.826   3.328   4.012  0.0608 -0.7217  0.5962
 2263SOL    HW218252   2.919   3.222   4.051 -0.2909  2.5712  0.7782
 2264SOL     OW18253   4.474   0.985   8.267 -0.2974 -0.3752 -0.2776
 2264SOL    HW118254   4.561   0.951   8.284  0.1718  1.1361  0.4054
 2264SOL    HW218255   4.495   1.054   8.203  2.2683  0.1199  1.1092
 2265SOL     OW18256   1.772   4.383   1.202 -0.2525  0.0543  0.3229
 2265SOL    HW118257   1.791   4.315   1.138 -1.8729  1.8790 -2.1434
 2265SOL    HW218258   1.792   4.460   1.148 -0.3163 -1.6639 -2.1184
 2266SOL     OW18259   3.020   3.342   6.831  0.5329 -0.3092  0.0991
 2266SOL    HW118260   3.054   3.383   6.910  1.6107  2.8339 -2.0059
 2266SOL    HW218261   3.084   3.369   6.765  3.1716 -1.6633  2.1307
 2267SOL     OW18262   2.580   3.177   8.426  1.1880  0.5878 -0.4470
 2267SOL    HW118263   2.586   3.130   8.343 -0.4097  0.4778 -0.5026
 2267SOL    HW218264   2.496   3.222   8.416  0.2903 -0.7591  1.0795
 2268SOL     OW18265   4.530   2.398   0.005 -0.2354  0.5033 -0.8217
 2268SOL    HW118266   4.471   2.455  17.630 -2.5692  1.6609  3.3341
 2268SOL    HW218267   4.604   2.457   0.024  0.5811 -1.1927  1.2101
 2269SOL     OW18268   0.931   0.083   4.412 -0.8425 -0.2175 -0.2491
 2269SOL    HW118269   0.951   0.171   4.380 -0.8558  0.8085  2.5118
 2269SOL    HW218270   0.979   0.027   4.351  1.3573 -0.5061  1.7459
 2270SOL     OW18271   4.335   3.150   2.612 -0.2793 -0.5958  0.8954
 2270SOL    HW118272   4.369   3.110   2.533  0.9395  0.3340  0.9397
 2270SOL    HW218273   4.396   3.224   2.622 -1.2763  0.2916  0.4413
 2271SOL     OW18274   0.232   0.622  10.694  0.4974 -0.0625  0.0852
 2271SOL    HW118275   0.287   0.688  10.737  0.4188 -1.0893  1.7586
 2271SOL    HW218276   0.171   0.677  10.644 -0.1014  0.5781  1.5320
 2272SOL     OW18277   0.221   3.390   9.078 -0.0440  0.2290  0.5744
 2272SOL    HW118278   0.267   3.403   8.995  0.3106 -0.9132  0.5946
 2272SOL    HW218279   0.201   3.297   9.078 -0.2620  0.2762 -3.2817
 2273SOL     OW18280   3.259   0.384  10.893  0.5554  0.4133 -0.2674
 2273SOL    HW118281   3.343   0.428  10.899 -0.0973  1.1428  3.2253
 2273SOL    HW218282   3.261   0.327  10.970  1.1907  0.1917 -0.4451
 2274SOL     OW18283   0.223   0.446  12.041 -0.8785  0.3520 -0.4629
 2274SOL    HW118284   0.278   0.511  11.997 -1.6595  0.8924 -0.6232
 2274SOL    HW218285   0.159   0.434  11.972  0.7057 -2.1111 -1.5306
 2275SOL     OW18286   3.613   3.469   1.131 -0.1931 -0.0826  0.5836
 2275SOL    HW118287   3.694   3.490   1.085  2.3402 -0.2339  4.9808
 2275SOL    HW218288   3.611   3.377   1.103  0.5221  0.3893 -0.9803
 2276SOL     OW18289   3.500   0.101   6.760  0.0923 -0.4434 -0.0541
 2276SOL    HW118290   3.595   0.112   6.754  0.2510 -0.3808  2.6108
 2276SOL    HW218291   3.467   0.179   6.715  1.9025  0.3334 -0.0210
 2277SOL     OW18292   0.886   4.061   4.830  0.1768 -0.1277  0.6521
 2277SOL    HW118293   0.794   4.038   4.819  0.2295 -0.4274  0.8207
 2277SOL    HW218294   0.916   3.986   4.881 -1.2120 -0.2933  1.2055
 2278SOL     OW18295   3.734   2.067   1.992  0.1693 -0.0270  0.1781
 2278SOL    HW118296   3.684   2.006   2.047 -3.2881  1.0636 -1.7411
 2278SOL    HW218297   3.691   2.147   2.020  1.4459  0.7803 -0.1687
 2279SOL     OW18298   3.187   0.526   6.851  0.3310  0.4255 -0.5941
 2279SOL    HW118299   3.117   0.547   6.789 -1.6145  0.5703  1.6444
 2279SOL    HW218300   3.214   0.615   6.873 -0.7443  0.3524  0.9477
 2280SOL     OW18301   3.917   4.386   9.237  0.4863 -0.4530 -0.2190
 2280SOL    HW118302   3.831   4.353   9.260 -0.5682  1.1050 -1.8471
 2280SOL    HW218303   3.903   4.475   9.203 -1.3052 -0.9497 -0.7770
 2281SOL     OW18304   1.340   2.202   7.435 -0.1896 -0.0780  0.6425
 2281SOL    HW118305   1.411   2.157   7.480 -0.7362 -1.8204 -0.2535
 2281SOL    HW218306   1.367   2.292   7.454 -2.1762  0.7631 -0.5325
 2282SOL     OW18307   4.291   3.066   3.694  0.9862 -0.2816 -0.1099
 2282SOL    HW118308   4.260   3.155   3.707  0.3873 -0.6240  0.7946
 2282SOL    HW218309   4.296   3.024   3.780  0.5729  1.0109  0.5390
 2283SOL     OW18310   4.037   2.122   6.702  0.0427 -0.2782  0.2830
 2283SOL    HW118311   4.037   2.090   6.792  1.6294 -0.1108  0.3276
 2283SOL    HW218312   4.022   2.215   6.720  1.9100 -0.0113  0.4040
 2284SOL     OW18313   1.292   0.181   6.807  0.2578 -0.2938 -0.1850
 2284SOL    HW118314   1.367   0.123   6.796 -1.1400 -2.0683 -0.2647
 2284SOL    HW218315   1.336   0.259   6.774  0.5377 -0.8378 -1.1118
 2285SOL     OW18316   4.371   1.838  16.064  0.7699  0.4669  0.6920
 2285SOL    HW118317   4.302   1.793  16.015  0.7836 -0.8981  1.8990
 2285SOL    HW218318   4.453   1.793  16.043  0.2038 -0.9622  1.5427
 2286SOL     OW18319   1.262   0.596   4.763 -0.6216  0.0226  0.2963
 2286SOL    HW118320   1.312   0.665   4.721  1.3358 -1.3019  0.4538
 2286SOL    HW218321   1.216   0.559   4.687  0.2952  1.0423 -0.7624
 2287SOL     OW18322   0.464   3.596  14.791 -0.1503 -0.2653  0.8749
 2287SOL    HW118323   0.395   3.644  14.836  0.5031  1.6103 -0.1128
 2287SOL    HW218324   0.424   3.515  14.760 -0.3062  0.4048 -0.6575
 2288SOL     OW18325   3.352   0.435   1.957 -0.4727 -0.0450 -0.6280
 2288SOL    HW118326   3.345   0.343   1.932  1.3534  0.0246 -1.4052
 2288SOL    HW218327   3.266   0.467   1.931  0.2529  0.3969 -2.4872
 2289SOL     OW18328   0.768   3.757   1.027 -1.1985  0.3238  0.0687
 2289SOL    HW118329   0.732   3.843   1.006  0.2386  0.1588 -3.0419
 2289SOL    HW218330   0.811   3.737   0.944  1.9658  0.9485  1.5499
 2290SOL     OW18331   0.919   3.119   3.050  0.0208  0.4078 -0.1075
 2290SOL    HW118332   0.892   3.028   3.061  4.0984 -0.7451  0.0277
 2290SOL    HW218333   0.836   3.167   3.047  0.3177  1.0278  2.1538
 2291SOL     OW18334   3.005   3.511   7.449  0.3354 -0.2780 -0.3303
 2291SOL    HW118335   2.969   3.426   7.474  3.3389 -1.4531 -0.0393
 2291SOL    HW218336   2.972   3.566   7.520  0.7632 -2.0756  1.2679
 2292SOL     OW18337   1.152   1.361   8.286  0.1672 -0.3910 -0.3335
 2292SOL    HW118338   1.121   1.271   8.275  0.0389 -0.2323 -1.3078
 2292SOL    HW218339   1.083   1.402   8.234 -1.2685  0.0117  1.9120
 2293SOL     OW18340   3.069   3.426  15.962 -0.0731 -0.2583  0.4650
 2293SOL    HW118341   3.067   3.412  15.867 -0.6716 -1.2719  0.6165
 2293SOL    HW218342   3.156   3.458  15.983  0.2994  0.3283 -2.0046
 2294SOL     OW18343   1.026   3.506   8.598  0.2352  0.2728  0.2797
 2294SOL    HW118344   0.941   3.538   8.566  1.1284  0.9209 -1.4375
 2294SOL    HW218345   1.002   3.418   8.626  0.7375  0.3511  0.9352
 2295SOL     OW18346   3.155   2.561   9.047 -0.1633  0.4067  0.0658
 2295SOL    HW118347   3.136   2.631   9.110 -0.6492  0.2875  0.0559
 2295SOL    HW218348   3.220   2.505   9.089  1.2272  0.5214 -1.9196
 2296SOL     OW18349   0.161   3.554   7.645 -0.4380 -0.0996 -0.0308
 2296SOL    HW118350   0.168   3.585   7.735  0.1840  0.0579 -0.1315
 2296SOL    HW218351   0.084   3.603   7.618 -0.2620 -0.9346 -2.0571
 2297SOL     OW18352   3.672   3.435   1.836  0.3705 -0.4464  0.6317
 2297SOL    HW118353   3.652   3.353   1.791 -0.2096 -0.7956  1.5412
 2297SOL    HW218354   3.765   3.436   1.814 -0.1476 -1.0159 -1.6253
 2298SOL     OW18355   2.269   2.051   1.028  0.3510 -0.4481  0.6675
 2298SOL    HW118356   2.176   2.057   1.006  1.0424  1.1468 -1.8232
 2298SOL    HW218357   2.311   2.126   0.987 -0.6820  0.5706  1.5048
 2299SOL     OW18358   2.326   3.033   8.899  0.3228  0.8667 -0.1317
 2299SOL    HW118359   2.232   3.032   8.918  0.1076 -0.6030 -1.2904
 2299SOL    HW218360   2.345   2.939   8.891 -0.3825  0.8228 -1.3753
 2300SOL     OW18361   2.983   3.185  12.389  0.8151 -0.3415 -0.4056
 2300SOL    HW118362   3.020   3.263  12.432 -0.4984  0.0401  0.0304
 2300SOL    HW218363   2.978   3.126  12.464  0.6933  1.3914  0.9568
 2301SOL     OW18364   2.512   0.076  14.859  0.0598  0.2480  0.6178
 2301SOL    HW118365   2.606   0.088  14.843  0.2454 -0.2145  1.3488
 2301SOL    HW218366   2.506   4.706  14.819 -2.7576  1.5408 -1.7400
 2302SOL     OW18367   1.103   2.260  14.244  0.0329  0.5642 -0.0946
 2302SOL    HW118368   1.154   2.341  14.244 -0.4163  0.8484  1.1340
 2302SOL    HW218369   1.153   2.206  14.183 -0.5921 -0.9754  0.7367
 2303SOL     OW18370   4.066   0.003   8.125 -0.0659  0.8620 -0.6252
 2303SOL    HW118371   4.014   4.653   8.168 -0.7948  1.6308 -0.2842
 2303SOL    HW218372   4.040   0.081   8.175 -2.2108 -0.7813  0.8555
 2304SOL     OW18373   1.454   0.547   8.889  0.5083 -0.0297 -0.0785
 2304SOL    HW118374   1.492   0.509   8.968  0.7459  1.6641  0.6334
 2304SOL    HW218375   1.416   0.631   8.916 -1.4285 -1.0032  0.2187
 2305SOL     OW18376   1.082   4.383   1.979  0.1447  0.1569  0.0625
 2305SOL    HW118377   1.045   4.453   1.925  1.4577  0.6035 -0.2706
 2305SOL    HW218378   1.013   4.360   2.041 -1.1445  1.4633 -0.8895
 2306SOL     OW18379   1.485   3.913   2.895 -0.1667  0.1999 -0.3493
 2306SOL    HW118380   1.508   3.898   2.804 -1.1990 -0.1745 -0.5477
 2306SOL    HW218381   1.563   3.880   2.939 -2.0769  0.3962  3.2405
 2307SOL     OW18382   3.352   3.808   2.430 -0.0118  0.2847 -0.1224
 2307SOL    HW118383   3.319   3.720   2.413  1.3744 -0.4018  0.6842
 2307SOL    HW218384   3.287   3.862   2.385  0.3903  0.0417 -0.9987
 2308SOL     OW18385   3.477   3.305   4.542 -0.7487 -0.1328 -0.6582
 2308SOL    HW118386   3.449   3.362   4.471  0.2558  0.9992 -0.1421
 2308SOL    HW218387   3.410   3.309   4.611  0.2380 -0.8457  0.3636
 2309SOL     OW18388   4.461   4.604  15.232 -0.1794 -0.2624 -0.0710
 2309SOL    HW118389   4.434   4.601  15.324 -1.7442 -1.7793 -0.5826
 2309SOL    HW218390   4.485   4.697  15.224  1.4960 -0.7959 -1.3891
 2310SOL     OW18391   3.546   2.816   2.430  0.5098 -0.3809  0.2291
 2310SOL    HW118392   3.526   2.740   2.484  0.1534 -1.2528 -1.1368
 2310SOL    HW218393   3.455   2.834   2.404  0.9973 -1.6709 -2.3486
 2311SOL     OW18394   1.344   2.395   4.208 -0.0240 -0.8680 -0.2432
 2311SOL    HW118395   1.348   2.463   4.141 -1.0040 -1.5411 -0.9873
 2311SOL    HW218396   1.253   2.368   4.193 -0.2381 -0.5256  0.4673
 2312SOL     OW18397   3.779   1.954   3.909 -0.3772  0.0382  0.2953
 2312SOL    HW118398   3.867   1.916   3.915 -0.1979  0.6092  1.1879
 2312SOL    HW218399   3.792   2.002   3.827 -0.1272  1.5054  1.2077
 2313SOL     OW18400   1.036   1.985  16.952 -0.0761  0.0419 -0.5918
 2313SOL    HW118401   1.030   2.058  17.013  0.8529 -0.4039  0.0363
 2313SOL    HW218402   1.053   1.920  17.020 -0.9211  2.4338  1.8775
 2314SOL     OW18403   2.515   2.796   6.617 -0.1942  0.0669  0.1616
 2314SOL    HW118404   2.491   2.850   6.692  3.8372  1.3300  0.5626
 2314SOL    HW218405   2.471   2.712   6.631 -1.6498  1.2771  2.9825
 2315SOL     OW18406   2.664   3.315   8.113  0.1212 -0.0436  0.3534
 2315SOL    HW118407   2.622   3.230   8.123  2.3441 -1.2402 -0.6367
 2315SOL    HW218408   2.705   3.308   8.027  0.8604  0.7737  0.6378
 2316SOL     OW18409   4.339   2.451   6.222 -0.5264 -0.1393  0.4379
 2316SOL    HW118410   4.364   2.362   6.248 -1.9399 -0.5711  0.3137
 2316SOL    HW218411   4.268   2.477   6.282 -1.0616  0.3444 -0.4134
 2317SOL     OW18412   1.872   2.530   4.631 -0.2420  0.5339  0.3446
 2317SOL    HW118413   1.873   2.488   4.717 -1.1900  0.5491  0.3638
 2317SOL    HW218414   1.965   2.526   4.610 -0.2994  1.2175 -0.0433
 2318SOL     OW18415   3.193   1.320  13.883 -0.1657  0.7873 -0.0435
 2318SOL    HW118416   3.098   1.317  13.873 -0.2649  2.3361  0.4433
 2318SOL    HW218417   3.207   1.413  13.902  0.1922  0.5962  0.6372
 2319SOL     OW18418   2.463   1.821   4.788 -0.5162 -0.4222  0.1837
 2319SOL    HW118419   2.390   1.794   4.843 -1.1385 -0.3277 -0.5894
 2319SOL    HW218420   2.489   1.898   4.839 -0.4089 -0.7238  0.5761
 2320SOL     OW18421   0.093   1.875   3.104 -0.3426 -0.0279 -0.0597
 2320SOL    HW118422   0.064   1.787   3.079 -0.7754  0.6971 -2.1177
 2320SOL    HW218423   0.188   1.863   3.099 -0.3232 -1.4646  3.4387
 2321SOL     OW18424   1.443   3.443   6.075  0.2612  0.7861 -0.0630
 2321SOL    HW118425   1.368   3.462   6.131 -1.4480 -5.1688 -0.3747
 2321SOL    HW218426   1.409   3.403   5.996  0.2252 -0.2451  0.4822
 2322SOL     OW18427   4.058   4.182   4.905  0.1348 -0.5823 -0.0556
 2322SOL    HW118428   4.035   4.090   4.895 -1.2557 -0.2542  0.2179
 2322SOL    HW218429   4.130   4.186   4.841 -2.1233 -1.1038 -2.6187
 2323SOL     OW18430   2.618   0.330   2.883 -0.1597  0.0413 -0.3084
 2323SOL    HW118431   2.701   0.292   2.855  0.3187  1.2009 -0.4638
 2323SOL    HW218432   2.566   0.249   2.889  1.0025 -0.8107 -1.8576
 2324SOL     OW18433   2.202   3.457   2.408 -0.2284  0.5196  0.7399
 2324SOL    HW118434   2.200   3.545   2.370 -1.0882  0.3082  0.2871
 2324SOL    HW218435   2.246   3.409   2.339  0.9702  1.2403  1.0044
 2325SOL     OW18436   0.232   2.576   8.211  0.1260 -0.3232 -0.1282
 2325SOL    HW118437   0.146   2.574   8.169 -0.4173 -2.8882  1.1196
 2325SOL    HW218438   0.230   2.666   8.244  0.0355  0.1336 -1.4030
 2326SOL     OW18439   2.534   4.650   7.963  0.6170 -0.5913 -0.0612
 2326SOL    HW118440   2.508   4.628   8.053  1.6524  1.4901  0.7507
 2326SOL    HW218441   2.454   4.694   7.935  0.9563 -0.3189 -0.5968
 2327SOL     OW18442   3.548   1.280   2.063  0.0809 -0.3398 -0.2336
 2327SOL    HW118443   3.500   1.235   2.132 -1.3947 -0.1844 -1.1766
 2327SOL    HW218444   3.631   1.231   2.065  1.0527  1.3587  0.8930
 2328SOL     OW18445   0.131   3.999   0.985  0.4257  0.4096 -0.0541
 2328SOL    HW118446   0.184   4.079   0.986 -0.3340  0.9235 -1.2063
 2328SOL    HW218447   0.111   3.984   1.078  1.3036  0.6034  0.1729
 2329SOL     OW18448   0.831   3.375   1.509 -0.0831 -0.5535  0.2557
 2329SOL    HW118449   0.922   3.360   1.485  0.5028  0.5524  1.7911
 2329SOL    HW218450   0.782   3.354   1.430  0.0519  0.7396 -0.1539
 2330SOL     OW18451   2.473   0.988   2.848 -0.1149 -0.6531  0.2166
 2330SOL    HW118452   2.444   0.898   2.860 -3.6377  0.6858  1.8463
 2330SOL    HW218453   2.404   1.031   2.797 -0.9922 -1.6586  0.5694
 2331SOL     OW18454   0.839   3.778   2.881  0.3044  0.1596 -0.8191
 2331SOL    HW118455   0.922   3.785   2.928  0.8730 -0.5661 -1.7219
 2331SOL    HW218456   0.856   3.705   2.821 -1.3266 -1.8634  1.1618
 2332SOL     OW18457   1.453   0.912   7.836  0.3162  0.9951 -0.3373
 2332SOL    HW118458   1.473   0.837   7.779 -1.7311  0.5863 -0.5075
 2332SOL    HW218459   1.396   0.870   7.900  2.0071 -0.1508  0.4403
 2333SOL     OW18460   3.851   0.724  15.664  0.0320  0.7929  0.0427
 2333SOL    HW118461   3.910   0.796  15.643  0.0904  1.1299  1.3930
 2333SOL    HW218462   3.785   0.732  15.595  0.6171  0.0636 -0.6000
 2334SOL     OW18463   0.636   2.763   9.365 -0.1209 -0.4007 -0.5441
 2334SOL    HW118464   0.676   2.816   9.434 -3.1671 -0.7548  1.4940
 2334SOL    HW218465   0.706   2.724   9.313  1.6897  2.3056 -0.1100
 2335SOL     OW18466   3.123   4.056   3.521  0.3491 -0.4351  0.0403
 2335SOL    HW118467   3.185   3.982   3.524  0.9964  0.1071  0.1400
 2335SOL    HW218468   3.176   4.116   3.574 -0.6752 -0.4483  1.0718
 2336SOL     OW18469   0.784   0.598   8.535 -0.2919 -0.3478  0.3588
 2336SOL    HW118470   0.709   0.658   8.527 -0.8859 -1.0947  0.2737
 2336SOL    HW218471   0.848   0.656   8.493 -0.1257 -0.4453  0.4774
 2337SOL     OW18472   1.805   1.441  13.333 -0.2976 -0.3990  0.5920
 2337SOL    HW118473   1.721   1.401  13.353 -0.3141  0.2051  1.7443
 2337SOL    HW218474   1.768   1.524  13.304 -1.9478 -1.4175 -0.2008
 2338SOL     OW18475   1.846   4.234  14.507  0.7556  0.1651 -0.6212
 2338SOL    HW118476   1.778   4.290  14.471  1.0385  0.9861  0.1195
 2338SOL    HW218477   1.801   4.195  14.583  1.2686  0.1163 -0.3436
 2339SOL     OW18478   2.247   0.501   8.310  0.2402  0.5382 -0.0248
 2339SOL    HW118479   2.160   0.489   8.347  0.3387  0.5364  0.2014
 2339SOL    HW218480   2.268   0.412   8.282 -2.5948 -0.4258  0.9360
 2340SOL     OW18481   0.663   3.998   1.927  0.3950  0.2651  0.6015
 2340SOL    HW118482   0.652   4.091   1.909 -2.4698 -0.1490  0.1254
 2340SOL    HW218483   0.750   3.991   1.888 -0.9421  4.0733 -3.1265
 2341SOL     OW18484   0.275   0.288   8.099 -0.2077  0.0869  0.5667
 2341SOL    HW118485   0.329   0.211   8.118  0.4777  0.1233 -1.2748
 2341SOL    HW218486   0.201   0.291   8.160  1.2898  2.3866  2.2850
 2342SOL     OW18487   1.758   4.713   2.135 -0.0351  0.2236 -0.5226
 2342SOL    HW118488   1.852   4.706   2.115 -0.1398 -1.8042 -0.3061
 2342SOL    HW218489   1.773   0.026   2.224  0.3181 -0.2138 -0.4277
 2343SOL     OW18490   4.142   0.854   6.457 -0.2617  0.0866  0.4202
 2343SOL    HW118491   4.143   0.770   6.411 -0.7221 -0.9065  2.1906
 2343SOL    HW218492   4.099   0.913   6.396 -1.1765  0.5865  1.5359
 2344SOL     OW18493   4.585   3.946   4.915  0.2678  0.5138  0.4012
 2344SOL    HW118494   4.637   3.998   4.977 -1.6701  0.4015  2.1049
 2344SOL    HW218495   4.528   4.007   4.868 -0.4803 -0.7977 -0.3867
 2345SOL     OW18496   4.253   2.152   8.056  0.6210 -0.2647  0.6192
 2345SOL    HW118497   4.258   2.057   8.066  0.4807 -0.1485  1.8444
 2345SOL    HW218498   4.287   2.150   7.967 -0.7422  0.0504  0.0974
 2346SOL     OW18499   1.955   0.012  10.573  0.2543 -0.4036  0.0858
 2346SOL    HW118500   1.903   4.662  10.617  0.7343  0.3387  1.7602
 2346SOL    HW218501   1.882   0.069  10.548  2.1967  2.0814  0.0782
 2347SOL     OW18502   0.928   4.710   2.270 -0.0385  0.1752  0.3555
 2347SOL    HW118503   0.964   0.034   2.192  2.4149 -1.0857  0.8238
 2347SOL    HW218504   0.998   4.715   2.335  2.1021  1.1902 -2.0490
 2348SOL     OW18505   4.578   0.317  13.542  0.0829  0.3136 -0.2308
 2348SOL    HW118506   4.672   0.315  13.559  0.1108  1.7677 -0.1789
 2348SOL    HW218507   4.552   0.399  13.586 -1.8043 -0.0056 -0.7464
 2349SOL     OW18508   2.457   2.492   6.633 -0.5552 -0.1758  0.4268
 2349SOL    HW118509   2.550   2.487   6.658 -0.6122  4.7311  1.5970
 2349SOL    HW218510   2.458   2.442   6.551  0.4392  1.0613 -0.3081
 2350SOL     OW18511   2.438   2.688   1.070  0.1094 -0.0754 -0.2750
 2350SOL    HW118512   2.483   2.682   1.154  0.4138  0.1759 -0.4201
 2350SOL    HW218513   2.424   2.783   1.064  1.1217 -0.1337 -3.4598
 2351SOL     OW18514   0.612   3.110  16.274  0.0100  0.5967  0.2202
 2351SOL    HW118515   0.569   3.083  16.193 -2.5628 -0.6163  1.9709
 2351SOL    HW218516   0.590   3.203  16.262 -0.9202  0.6170  1.9602
 2352SOL     OW18517   2.165   2.236   7.207 -0.3486  0.5133  0.8801
 2352SOL    HW118518   2.124   2.239   7.293 -1.5019  0.1783  0.3431
 2352SOL    HW218519   2.108   2.173   7.163 -0.4280  0.6933  0.7193
 2353SOL     OW18520   3.282   1.882   6.987  0.4503 -0.4547  0.6078
 2353SOL    HW118521   3.309   1.847   6.902  1.0169 -1.5656  1.2504
 2353SOL    HW218522   3.308   1.970   6.961  1.4292 -0.9906 -0.2181
 2354SOL     OW18523   2.508   2.735   2.584 -0.1517  0.2824 -0.1320
 2354SOL    HW118524   2.566   2.806   2.555 -0.3475  0.3261 -0.4114
 2354SOL    HW218525   2.433   2.789   2.606  0.1174  1.0762 -1.1969
 2355SOL     OW18526   4.479   0.206   6.140  0.3413  0.2335 -0.5653
 2355SOL    HW118527   4.430   0.212   6.058 -2.0378 -1.9548  0.7269
 2355SOL    HW218528   4.569   0.197   6.108 -0.1913 -1.1894 -1.6601
 2356SOL     OW18529   0.170   2.185  10.902  0.2052 -0.3737 -0.4900
 2356SOL    HW118530   0.137   2.200  10.991  0.5643  1.3446 -0.6405
 2356SOL    HW218531   0.181   2.090  10.901  0.2106 -0.3790  0.3113
 2357SOL     OW18532   4.379   1.985   1.532 -0.0460 -0.0005 -0.7223
 2357SOL    HW118533   4.371   2.079   1.516  0.6613  0.2901  0.6298
 2357SOL    HW218534   4.362   1.944   1.447 -1.8282  0.6956 -0.6951
 2358SOL     OW18535   3.574   3.509  15.186 -0.0037 -0.8623 -0.3469
 2358SOL    HW118536   3.521   3.588  15.172 -0.6949 -1.0943  0.9666
 2358SOL    HW218537   3.613   3.511  15.099 -0.5365  2.3376 -0.5030
 2359SOL     OW18538   4.554   0.916  16.163  0.2184 -0.2014 -0.0324
 2359SOL    HW118539   4.555   0.934  16.069 -1.7325 -2.3461 -0.4478
 2359SOL    HW218540   4.575   0.823  16.165 -1.4517 -0.6578 -3.6562
 2360SOL     OW18541   2.408   1.210   6.169  0.0296  0.7304 -0.9370
 2360SOL    HW118542   2.432   1.194   6.260 -0.5679  1.9007 -0.5825
 2360SOL    HW218543   2.373   1.124   6.144  0.3568 -0.0763  1.4100
 2361SOL     OW18544   3.725   1.895  16.553  0.4777 -0.1847  0.5600
 2361SOL    HW118545   3.720   1.857  16.641 -0.8255 -0.7633  0.2464
 2361SOL    HW218546   3.817   1.922  16.549  0.2641  0.4431 -0.0187
 2362SOL     OW18547   0.837   2.278   2.134 -0.4742 -0.0705  0.1773
 2362SOL    HW118548   0.888   2.299   2.213 -1.3651  0.6110  0.5669
 2362SOL    HW218549   0.887   2.203   2.102  1.5331  0.1454  2.7496
 2363SOL     OW18550   2.502   1.067  17.182  0.4466  0.2065 -0.6224
 2363SOL    HW118551   2.497   0.973  17.196  0.8621  0.0026 -1.8031
 2363SOL    HW218552   2.414   1.099  17.202  0.7228  0.3893  0.2836
 2364SOL     OW18553   4.689   3.675   4.008  0.0156  0.2048 -0.0885
 2364SOL    HW118554   4.621   3.630   3.958 -1.5332  3.2000 -0.6982
 2364SOL    HW218555   0.038   3.688   3.942 -0.9340  2.2713 -0.6425
 2365SOL     OW18556   2.949   4.565   5.086  0.4323  0.0582  0.4109
 2365SOL    HW118557   3.009   4.549   5.013 -0.2404  1.2318 -0.4120
 2365SOL    HW218558   2.893   4.634   5.051  0.8226 -0.4460 -1.2072
 2366SOL     OW18559   1.062   1.604   2.855 -0.0186 -0.2911  0.1968
 2366SOL    HW118560   0.979   1.646   2.830 -0.0819 -0.2777  0.4347
 2366SOL    HW218561   1.093   1.638   2.939 -0.0486 -1.2796  0.6038
 2367SOL     OW18562   2.864   3.809   5.723 -0.0625 -0.2835 -0.2622
 2367SOL    HW118563   2.859   3.821   5.818 -1.7406 -1.7218 -0.1703
 2367SOL    HW218564   2.851   3.893   5.680 -1.6869 -2.5262 -4.1805
 2368SOL     OW18565   2.017   2.745  15.922 -0.2349 -0.0548  0.0765
 2368SOL    HW118566   2.023   2.650  15.927 -1.5882  0.0102  2.7568
 2368SOL    HW218567   2.066   2.772  16.000  3.1998  0.1414 -2.1423
 2369SOL     OW18568   0.281   1.578   7.104 -0.1611  0.2308  0.6383
 2369SOL    HW118569   0.202   1.596   7.154 -1.1865 -0.0786 -0.8688
 2369SOL    HW218570   0.332   1.650   7.140 -0.5116  0.6991  0.1998
 2370SOL     OW18571   0.570   4.262   6.248 -0.6180 -0.6728  0.7430
 2370SOL    HW118572   0.616   4.296   6.325  2.0353 -1.0907 -0.6656
 2370SOL    HW218573   0.484   4.251   6.289 -0.1238 -2.0355  1.4261
 2371SOL     OW18574   4.200   4.533   7.946 -0.0659 -0.5858  0.2118
 2371SOL    HW118575   4.135   4.520   7.876  1.0314  0.3981 -1.0043
 2371SOL    HW218576   4.162   4.605   7.996  1.4744  0.5108 -0.2104
 2372SOL     OW18577   0.658   1.890  10.870 -0.3442  0.8195 -0.1120
 2372SOL    HW118578   0.648   1.969  10.923 -2.1476  0.0394  0.7144
 2372SOL    HW218579   0.688   1.921  10.785 -0.4246 -0.9195 -0.7832
 2373SOL     OW18580   3.433   3.847  14.623 -0.3454 -0.0642  1.0321
 2373SOL    HW118581   3.503   3.901  14.658  0.4826  1.6779 -3.3155
 2373SOL    HW218582   3.487   3.777  14.584 -1.8864 -0.2456 -0.8215
 2374SOL     OW18583   3.731   0.451  12.770 -0.8570 -0.1828  0.3496
 2374SOL    HW118584   3.668   0.448  12.698 -0.2619 -0.8121 -0.1464
 2374SOL    HW218585   3.807   0.488  12.724  0.3168 -1.2537  1.4543
 2375SOL     OW18586   4.398   2.436   3.695 -0.8618 -0.2004  0.6507
 2375SOL    HW118587   4.375   2.364   3.752  0.0468 -1.3357 -0.4126
 2375SOL    HW218588   4.311   2.474   3.681 -1.4814 -1.9228 -0.2097
 2376SOL     OW18589   4.046   4.499   2.762  0.1163 -0.5338  0.4259
 2376SOL    HW118590   3.969   4.459   2.803  0.7968  0.4537  2.6538
 2376SOL    HW218591   4.040   4.449   2.680 -1.6212  1.0804 -0.4265
 2377SOL     OW18592   1.670   1.087   2.130  0.3850  0.0818  0.1784
 2377SOL    HW118593   1.739   1.056   2.188 -0.1461 -0.2461  0.6315
 2377SOL    HW218594   1.594   1.115   2.181 -0.2851 -1.2750 -0.0929
 2378SOL     OW18595   2.329   0.356  13.427 -0.0787 -0.2071  0.0335
 2378SOL    HW118596   2.264   0.419  13.395 -0.2946 -0.2890  0.3149
 2378SOL    HW218597   2.281   0.274  13.434  0.9523 -0.7283  0.9467
 2379SOL     OW18598   3.485   4.015   5.949  0.2454  0.5296 -0.2124
 2379SOL    HW118599   3.468   4.077   5.879 -1.0942  0.9338  0.4739
 2379SOL    HW218600   3.580   4.027   5.956  0.4162  0.8949 -3.1610
 2380SOL     OW18601   0.035   3.640   6.876  0.5230 -0.7898  0.2574
 2380SOL    HW118602   0.111   3.581   6.872 -0.7258 -2.2005 -2.9105
 2380SOL    HW218603   0.078   3.720   6.846 -1.2399 -0.2949 -0.8995
 2381SOL     OW18604   2.272   0.869  14.518  0.4972 -0.6184  0.0552
 2381SOL    HW118605   2.362   0.851  14.546  0.3038 -1.7420 -0.0226
 2381SOL    HW218606   2.234   0.914  14.594 -0.0722  2.0030 -1.7715
 2382SOL     OW18607   4.213   0.545   8.839  0.0479  0.4413 -0.2090
 2382SOL    HW118608   4.154   0.558   8.913  0.1178 -0.1218 -0.0599
 2382SOL    HW218609   4.154   0.536   8.764  0.9325 -1.2455 -0.7148
 2383SOL     OW18610   0.151   0.086   3.781  0.2308  0.0449  0.5178
 2383SOL    HW118611   0.058   0.066   3.769  0.9798 -1.7749 -2.3292
 2383SOL    HW218612   0.176   0.021   3.714  2.6851  0.8237  0.6984
 2384SOL     OW18613   3.375   3.308   8.362  0.2190  0.0577 -0.1999
 2384SOL    HW118614   3.404   3.293   8.452  0.7432  0.8259 -0.2332
 2384SOL    HW218615   3.434   3.245   8.320 -1.8350 -1.3047 -1.0346
 2385SOL     OW18616   4.051   2.096   9.359 -0.0853  0.0587 -0.1967
 2385SOL    HW118617   4.137   2.138   9.348  1.4541 -2.8777  0.7929
 2385SOL    HW218618   3.999   2.158   9.308  0.3743  1.3189  0.8702
 2386SOL     OW18619   3.828   2.562  17.467  0.3419  0.3671  0.3604
 2386SOL    HW118620   3.857   2.478  17.502  0.0262  0.2728  0.3885
 2386SOL    HW218621   3.867   2.557  17.380  0.8894 -0.1511  0.6355
 2387SOL     OW18622   4.015   3.488   4.687  0.1192 -0.3253  0.3391
 2387SOL    HW118623   4.007   3.577   4.720  0.1830 -0.2550  0.1643
 2387SOL    HW218624   3.921   3.469   4.686 -0.3633  2.1457  0.0433
 2388SOL     OW18625   2.137   4.187   6.663 -0.0442  0.7721 -0.5230
 2388SOL    HW118626   2.205   4.149   6.607  0.6776  0.6081  0.4693
 2388SOL    HW218627   2.194   4.212   6.736 -1.3550  3.1306 -0.2873
 2389SOL     OW18628   0.190   2.985   8.129  0.2904  0.6513  0.0737
 2389SOL    HW118629   0.098   3.010   8.123 -0.3631 -1.7563  0.1297
 2389SOL    HW218630   0.232   3.070   8.114  0.5306  0.2795 -1.3221
 2390SOL     OW18631   4.153   2.555   8.972  0.3127 -0.2866 -0.4282
 2390SOL    HW118632   4.100   2.530   8.896  1.3501 -0.5395 -1.0674
 2390SOL    HW218633   4.086   2.595   9.028 -0.9197 -3.7508  0.5801
 2391SOL     OW18634   1.583   0.702   4.998  0.1618 -0.3176  0.1693
 2391SOL    HW118635   1.605   0.634   5.061 -0.2107  0.4779  1.1642
 2391SOL    HW218636   1.487   0.694   4.999  0.1270 -0.0297 -0.6974
 2392SOL     OW18637   2.392   1.410   8.689 -0.8333  0.4251  0.4500
 2392SOL    HW118638   2.376   1.495   8.730  1.3158  0.4489  1.2305
 2392SOL    HW218639   2.323   1.358   8.732 -1.3453  0.8360  0.1240
 2393SOL     OW18640   1.297   0.476   6.046  0.1202 -0.0905  0.3955
 2393SOL    HW118641   1.271   0.539   6.113 -0.2556 -1.4384  1.5105
 2393SOL    HW218642   1.259   0.397   6.083 -1.7465 -0.5612 -2.5217
 2394SOL     OW18643   1.064   2.328   1.551 -0.7455  0.1654 -0.4337
 2394SOL    HW118644   1.025   2.392   1.610 -1.2851 -1.2796  0.7908
 2394SOL    HW218645   0.989   2.288   1.506 -0.7362  0.1180 -0.4076
 2395SOL     OW18646   3.530   4.246  11.286  0.0730  0.6165  0.1055
 2395SOL    HW118647   3.612   4.293  11.272  0.9876 -1.0812 -0.2580
 2395SOL    HW218648   3.527   4.245  11.382 -0.4083  0.8561  0.0886
 2396SOL     OW18649   1.127   3.022   5.057 -0.4425 -0.7191 -0.2448
 2396SOL    HW118650   1.198   2.990   5.112 -0.6313 -0.4847  0.1370
 2396SOL    HW218651   1.082   2.941   5.035  0.0858 -1.2289  0.5545
 2397SOL     OW18652   1.640   1.640  12.446  0.0188  0.0416 -0.1248
 2397SOL    HW118653   1.631   1.679  12.533  2.6384 -0.2150  0.2793
 2397SOL    HW218654   1.564   1.583  12.439 -0.2977  0.4270  0.1898
 2398SOL     OW18655   2.899   4.510  12.773 -0.0276 -0.0599 -0.0916
 2398SOL    HW118656   2.948   4.428  12.774 -0.1328 -0.1130  0.5945
 2398SOL    HW218657   2.841   4.485  12.700  0.4676 -0.9335 -0.1789
 2399SOL     OW18658   3.420   3.916   4.370 -0.4156 -0.0094  0.0688
 2399SOL    HW118659   3.513   3.892   4.368 -0.5132 -0.3561 -0.2540
 2399SOL    HW218660   3.389   3.901   4.281  0.2316  0.0291 -0.1664
 2400SOL     OW18661   3.518   2.635   7.623 -0.3496 -0.8322  0.6933
 2400SOL    HW118662   3.597   2.676   7.657  0.3973 -2.0482  0.4338
 2400SOL    HW218663   3.486   2.585   7.698 -0.8050 -2.2944 -0.4707
 2401SOL     OW18664   3.063   3.428   8.717  0.7700 -0.6297  0.3360
 2401SOL    HW118665   3.057   3.520   8.745  0.2802  0.3821 -3.0048
 2401SOL    HW218666   3.087   3.443   8.625 -0.1882 -2.5300 -0.2412
 2402SOL     OW18667   1.931   2.330   2.601 -1.1610 -0.7958  0.1781
 2402SOL    HW118668   1.889   2.276   2.534  0.9099 -2.2779  0.0918
 2402SOL    HW218669   2.001   2.370   2.549 -1.8389  1.0626  0.6852
 2403SOL     OW18670   3.241   0.494   8.102 -0.5323 -0.1654 -0.1096
 2403SOL    HW118671   3.239   0.523   8.011 -1.1657  0.0407 -0.0310
 2403SOL    HW218672   3.176   0.424   8.116 -1.8109  0.7788 -1.3507
 2404SOL     OW18673   4.153   0.652  13.258 -0.0996  0.1598 -0.2214
 2404SOL    HW118674   4.130   0.563  13.231  2.1407  0.0308 -1.7194
 2404SOL    HW218675   4.246   0.638  13.275 -0.2220 -0.8909 -0.3940
 2405SOL     OW18676   3.299   3.520   2.805  0.2315 -0.1874  1.0430
 2405SOL    HW118677   3.245   3.497   2.729 -0.8589  0.6107  1.5728
 2405SOL    HW218678   3.266   3.606   2.830  0.8387  0.4471 -0.3670
 2406SOL     OW18679   0.148   0.640   4.138  0.1649 -0.6282 -0.1924
 2406SOL    HW118680   0.117   0.606   4.054  0.0881  0.8678 -0.7746
 2406SOL    HW218681   0.158   0.562   4.192  1.3396 -0.0982  0.3450
 2407SOL     OW18682   1.599   1.762   4.417  0.6742  0.0037  0.4374
 2407SOL    HW118683   1.609   1.698   4.488  0.0599  0.0108  0.5323
 2407SOL    HW218684   1.555   1.703   4.356  0.7119  1.0329 -0.5762
 2408SOL     OW18685   4.222   1.674   3.863  0.2478  0.2379 -0.2352
 2408SOL    HW118686   4.226   1.586   3.902 -2.1759  0.0083 -0.5068
 2408SOL    HW218687   4.219   1.639   3.774 -2.0030  0.5664 -0.2764
 2409SOL     OW18688   3.798   2.857   6.368 -0.5067 -0.2049 -0.9348
 2409SOL    HW118689   3.768   2.924   6.307  0.8523  1.6878  0.5002
 2409SOL    HW218690   3.764   2.781   6.320 -2.1149 -0.8553  1.2492
 2410SOL     OW18691   4.274   1.352  15.537  0.5574 -0.8102 -0.1589
 2410SOL    HW118692   4.339   1.371  15.470  1.8203 -0.3377  1.2211
 2410SOL    HW218693   4.276   1.434  15.586 -0.6968  0.9880 -3.0802
 2411SOL     OW18694   0.583   0.769   8.444  0.2426  0.2810 -0.8420
 2411SOL    HW118695   0.506   0.798   8.493  0.2487  1.3273 -1.4420
 2411SOL    HW218696   0.551   0.704   8.381  1.1194 -1.5643  0.6267
 2412SOL     OW18697   2.161   2.800   6.747 -0.3026 -0.1712  0.2195
 2412SOL    HW118698   2.126   2.766   6.830 -0.8969  0.4394  0.2246
 2412SOL    HW218699   2.085   2.812   6.690  0.3039 -0.2561 -0.5981
 2413SOL     OW18700   3.534   4.344   8.286  0.4956  0.2872 -0.2426
 2413SOL    HW118701   3.439   4.345   8.295  0.3478  2.5428 -1.8215
 2413SOL    HW218702   3.547   4.433   8.252 -1.3471  0.4164 -0.5659
 2414SOL     OW18703   0.338   0.902   0.478 -0.1727 -0.2608  0.2433
 2414SOL    HW118704   0.337   0.979   0.421  3.1315 -1.7507 -1.8383
 2414SOL    HW218705   0.248   0.872   0.483 -0.7798  1.9734  2.4332
 2415SOL     OW18706   4.706   2.836   6.664 -0.0483  0.2432 -0.4834
 2415SOL    HW118707   4.694   2.922   6.624 -0.0665 -0.2463 -1.5256
 2415SOL    HW218708   4.681   2.779   6.591  1.3617  1.1863 -1.7109
 2416SOL     OW18709   2.826   0.890   7.013 -0.1296 -0.1563  0.5196
 2416SOL    HW118710   2.914   0.926   7.027  0.0730 -0.2951 -0.3826
 2416SOL    HW218711   2.852   0.833   6.941  1.1044  0.8749  0.1387
 2417SOL     OW18712   2.788   4.484  11.657  0.2460  0.0757 -0.1653
 2417SOL    HW118713   2.785   4.390  11.635  0.1325 -0.2660  1.3335
 2417SOL    HW218714   2.759   4.487  11.748 -1.4020  5.0988 -0.8490
 2418SOL     OW18715   1.417   1.711   7.877  1.3883 -0.2274  0.4805
 2418SOL    HW118716   1.322   1.715   7.893  1.5328 -1.4953  1.7351
 2418SOL    HW218717   1.454   1.645   7.936 -1.3868 -1.7801  0.4953
 2419SOL     OW18718   2.910   2.123   2.305 -0.4448 -0.3373  0.5187
 2419SOL    HW118719   2.866   2.179   2.241  1.7472  0.0431 -0.6575
 2419SOL    HW218720   2.976   2.077   2.253 -0.5902 -1.2004  1.1063
 2420SOL     OW18721   4.419   0.316   9.412 -0.1178 -0.3244  0.0411
 2420SOL    HW118722   4.510   0.286   9.416 -0.4975 -1.4310  0.3531
 2420SOL    HW218723   4.398   0.318   9.505  0.1333 -1.3040  0.1163
 2421SOL     OW18724   4.445   0.560  14.599 -0.4144  0.1207  0.6300
 2421SOL    HW118725   4.461   0.573  14.692  2.7848  0.9386 -0.0118
 2421SOL    HW218726   4.524   0.507  14.586  0.2533  1.5241 -1.1385
 2422SOL     OW18727   1.152   1.136  16.359 -0.6730 -0.0100 -0.0952
 2422SOL    HW118728   1.227   1.080  16.340 -0.4090  0.4420 -0.3958
 2422SOL    HW218729   1.115   1.165  16.275  0.3963  2.1409  0.1684
 2423SOL     OW18730   1.309   3.148   4.033 -0.1968  0.0573 -0.1013
 2423SOL    HW118731   1.256   3.177   4.108 -0.6436  0.8958 -0.7513
 2423SOL    HW218732   1.277   3.198   3.958  0.9953  0.7080 -0.1761
 2424SOL     OW18733   1.505   3.572   5.018 -0.6897  0.6107  0.0428
 2424SOL    HW118734   1.502   3.522   5.099 -0.5767 -0.2823 -0.4965
 2424SOL    HW218735   1.593   3.549   4.988 -0.8857 -1.2280  0.8708
 2425SOL     OW18736   2.132   4.599   3.764  0.2773 -0.3857  0.4873
 2425SOL    HW118737   2.107   4.571   3.676  1.4312 -0.8529  0.3047
 2425SOL    HW218738   2.209   4.543   3.762 -0.7210 -1.7126 -0.8838
 2426SOL     OW18739   0.130   2.425  15.868  0.0930 -0.0804 -0.2033
 2426SOL    HW118740   0.135   2.423  15.773  1.2576  0.7226 -0.1591
 2426SOL    HW218741   0.079   2.505  15.880 -1.0798 -1.3004  2.9401
 2427SOL     OW18742   1.318   0.228   3.321 -0.4905 -0.6720  0.1263
 2427SOL    HW118743   1.365   0.159   3.369  0.9319 -1.2029 -2.0080
 2427SOL    HW218744   1.240   0.178   3.296 -1.6859  0.7751  0.9360
 2428SOL     OW18745   1.425   1.299  13.676 -0.0275  0.2910  0.1270
 2428SOL    HW118746   1.488   1.362  13.711  1.1918  0.2361 -2.0081
 2428SOL    HW218747   1.488   1.258  13.618 -2.2884 -1.5807 -0.9810
 2429SOL     OW18748   4.060   0.805   2.100  0.0615 -0.3550  0.3493
 2429SOL    HW118749   3.985   0.769   2.054  1.0356 -0.5419 -1.0890
 2429SOL    HW218750   4.048   0.893   2.065  0.7685 -0.6224 -0.5528
 2430SOL     OW18751   0.355   3.880   7.651 -0.2383 -0.1567 -0.2281
 2430SOL    HW118752   0.267   3.894   7.687 -1.1015 -2.6069 -1.3979
 2430SOL    HW218753   0.352   3.949   7.585 -0.5351 -1.5318 -1.6547
 2431SOL     OW18754   0.009   3.039   2.148  0.5461  0.1355  0.1453
 2431SOL    HW118755   4.647   3.089   2.167 -1.1717 -1.7759 -2.1825
 2431SOL    HW218756   4.704   2.951   2.177 -0.3672  0.2555 -0.2074
 2432SOL     OW18757   0.770   0.396   6.700 -0.4685 -0.1286  0.1590
 2432SOL    HW118758   0.790   0.366   6.789 -1.2112  1.2077  0.7779
 2432SOL    HW218759   0.849   0.378   6.649 -0.3022  0.5264  0.1946
 2433SOL     OW18760   2.900   1.722   4.508  0.0966  0.3379  0.0912
 2433SOL    HW118761   2.916   1.629   4.521  0.6557  0.1344 -2.1160
 2433SOL    HW218762   2.978   1.772   4.533 -0.3641  0.7297  0.7687
 2434SOL     OW18763   2.925   2.856   9.975  0.2984  0.6913 -0.6317
 2434SOL    HW118764   3.010   2.880   9.936  0.6563 -2.6491 -1.8559
 2434SOL    HW218765   2.884   2.938  10.002  1.4959  0.4212  2.0216
 2435SOL     OW18766   4.394   0.534   5.663  0.1066  0.1978  1.2723
 2435SOL    HW118767   4.360   0.499   5.581 -0.3716  2.0553  0.6970
 2435SOL    HW218768   4.443   0.606   5.625  0.3060 -0.6279 -0.0407
 2436SOL     OW18769   0.595   2.038   3.575 -0.3382  0.1297 -0.0262
 2436SOL    HW118770   0.636   1.987   3.645  1.0858  1.3062  0.0035
 2436SOL    HW218771   0.508   2.048   3.611 -0.9649 -0.9660 -1.2257
 2437SOL     OW18772   0.300   4.673  10.454  0.0447  0.3440 -0.2983
 2437SOL    HW118773   0.374   4.712  10.408 -1.9767  2.2182 -1.9595
 2437SOL    HW218774   0.245   0.033  10.442 -1.5688 -0.6774  0.5153
 2438SOL     OW18775   3.314   4.027  15.423 -0.2081 -0.1652  0.0063
 2438SOL    HW118776   3.277   4.085  15.356  1.4468 -1.1633 -1.7600
 2438SOL    HW218777   3.386   3.993  15.369  0.1582  0.0537  0.3563
 2439SOL     OW18778   2.367   3.312  15.580  0.2442  0.2401 -0.3989
 2439SOL    HW118779   2.421   3.243  15.542 -0.5542  0.3830 -1.7968
 2439SOL    HW218780   2.279   3.281  15.560  0.1419  0.4492 -0.2711
 2440SOL     OW18781   3.990   1.770   5.574 -0.5256 -0.1331  0.1741
 2440SOL    HW118782   3.931   1.840   5.602  1.2954  0.3876  2.8233
 2440SOL    HW218783   4.074   1.816   5.577 -0.0955 -0.8145 -1.5898
 2441SOL     OW18784   2.681   2.143  13.361  0.4095  0.0595 -0.2961
 2441SOL    HW118785   2.777   2.144  13.362  0.3695  3.0549 -0.2807
 2441SOL    HW218786   2.661   2.050  13.348 -1.5604 -0.0389  3.6349
 2442SOL     OW18787   4.483   3.922   8.136  0.2224  0.1672  0.4102
 2442SOL    HW118788   4.550   3.990   8.145  1.3398 -0.5500 -2.3374
 2442SOL    HW218789   4.399   3.968   8.146 -0.3719 -0.9626  0.5612
 2443SOL     OW18790   4.513   1.536   3.690 -0.2910 -0.6627  0.4590
 2443SOL    HW118791   4.440   1.592   3.664  1.5681  0.7066 -1.8144
 2443SOL    HW218792   4.562   1.526   3.608 -1.6297  0.4674 -0.4760
 2444SOL     OW18793   3.114   0.541   0.276 -0.2358 -0.2430  0.1732
 2444SOL    HW118794   3.088   0.632   0.291 -0.1513 -0.2444  0.3257
 2444SOL    HW218795   3.056   0.493   0.334 -3.0924 -0.2463 -2.6691
 2445SOL     OW18796   1.313   1.667   2.731  0.1669  0.7059  0.6619
 2445SOL    HW118797   1.231   1.660   2.780 -1.4536  0.3929 -2.1219
 2445SOL    HW218798   1.293   1.753   2.695  1.4896  0.4466 -0.6797
 2446SOL     OW18799   4.702   0.821  11.327 -0.0086 -0.0825  0.1890
 2446SOL    HW118800   0.057   0.811  11.265 -1.1820 -1.9996 -0.8990
 2446SOL    HW218801   4.689   0.727  11.338  1.7158 -0.6484 -2.4281
 2447SOL     OW18802   0.243   2.979  11.919 -0.7002 -0.1937  0.0482
 2447SOL    HW118803   0.329   2.976  11.961 -0.8880  0.9981  0.4914
 2447SOL    HW218804   0.187   2.941  11.986  0.4798  0.2510  1.2810
 2448SOL     OW18805   0.972   1.646   6.281  0.4120 -0.1655 -0.0639
 2448SOL    HW118806   1.003   1.557   6.261 -0.3120 -0.1533 -1.2438
 2448SOL    HW218807   0.878   1.629   6.282  0.1403  1.3968  1.7704
 2449SOL     OW18808   0.171   4.214   3.331  0.0394 -0.0360 -0.8652
 2449SOL    HW118809   0.104   4.147   3.324  1.3662 -1.6313  1.7444
 2449SOL    HW218810   0.134   4.290   3.287 -0.0077  1.4419  1.6864
 2450SOL     OW18811   3.282   2.526   6.190 -0.0845  0.2090  0.0698
 2450SOL    HW118812   3.325   2.556   6.270 -1.3206  1.0949  0.4140
 2450SOL    HW218813   3.194   2.517   6.229  0.0498  0.0061  0.3282
 2451SOL     OW18814   3.955   4.452   7.489 -0.5470  0.2926  0.7883
 2451SOL    HW118815   3.994   4.429   7.404  1.7726 -0.0037  1.9066
 2451SOL    HW218816   3.866   4.440   7.458 -1.0969  1.7216  1.8540
 2452SOL     OW18817   4.423   4.127   3.109  0.0205  0.8020  0.5620
 2452SOL    HW118818   4.367   4.203   3.095  0.1726  0.8413  0.1690
 2452SOL    HW218819   4.409   4.086   3.024  2.5885  0.5609  0.2742
 2453SOL     OW18820   3.277   2.791   2.740  0.0727 -0.4965  0.2347
 2453SOL    HW118821   3.359   2.750   2.713  0.7010  2.1648 -1.9009
 2453SOL    HW218822   3.219   2.716   2.732  0.7738 -0.5671 -4.1479
 2454SOL     OW18823   3.769   2.285   0.956 -0.7280 -0.3615  0.5060
 2454SOL    HW118824   3.760   2.348   1.027  0.4025 -0.0548  0.3785
 2454SOL    HW218825   3.861   2.256   0.959 -0.6470 -0.0261  1.2149
 2455SOL     OW18826   2.044   0.652   5.430  0.2387 -0.7360 -0.4809
 2455SOL    HW118827   2.087   0.604   5.359 -1.5541  0.3093 -2.2513
 2455SOL    HW218828   2.020   0.728   5.377 -0.8188  0.3034  1.4987
 2456SOL     OW18829   2.251   3.715  15.885  0.2766 -0.3305  0.3138
 2456SOL    HW118830   2.290   3.730  15.799 -0.2314 -3.2787 -0.4464
 2456SOL    HW218831   2.304   3.651  15.933  1.8580  0.8111  0.0933
 2457SOL     OW18832   2.731   3.651   8.777 -0.4760 -0.4338  0.9952
 2457SOL    HW118833   2.759   3.609   8.696 -0.9708 -0.6111  0.9133
 2457SOL    HW218834   2.761   3.739   8.756 -1.2288 -0.3694  0.1839
 2458SOL     OW18835   3.821   1.590   5.917  0.1886  0.1063 -0.3215
 2458SOL    HW118836   3.791   1.639   5.994 -0.1448  3.0963 -2.3819
 2458SOL    HW218837   3.796   1.499   5.932  1.0455  0.3114  2.3882
 2459SOL     OW18838   0.329   1.186   6.533 -0.3524 -0.3791 -0.2708
 2459SOL    HW118839   0.340   1.239   6.612 -0.1667  2.3901 -2.1533
 2459SOL    HW218840   0.385   1.116   6.568 -0.7815 -0.8505 -0.5344
 2460SOL     OW18841   3.147   3.109  14.556 -0.3364  0.0393  0.9372
 2460SOL    HW118842   3.060   3.068  14.551  0.0569 -0.7067  0.2849
 2460SOL    HW218843   3.121   3.198  14.581 -2.5677 -0.8405  1.8359
 2461SOL     OW18844   0.694   4.707   7.099  0.0215 -0.3326 -0.2810
 2461SOL    HW118845   0.708   0.023   7.187 -2.4608 -1.9792  0.7548
 2461SOL    HW218846   0.663   0.069   7.057  0.4318  1.1813  2.2825
 2462SOL     OW18847   2.775   1.902  10.802 -0.2673  0.0430 -0.2308
 2462SOL    HW118848   2.738   1.843  10.735  0.2391 -1.2038  0.5889
 2462SOL    HW218849   2.729   1.876  10.882  2.2197 -1.3414  0.7457
 2463SOL     OW18850   0.983   2.634   3.360  0.2045  0.1275  0.3544
 2463SOL    HW118851   0.907   2.651   3.304 -0.2347 -0.1203  0.8847
 2463SOL    HW218852   0.939   2.566   3.410 -1.4518  0.3117 -0.8585
 2464SOL     OW18853   4.107   0.617   7.488  0.1658 -0.3849 -0.0286
 2464SOL    HW118854   4.150   0.534   7.466  0.0010 -0.7194  0.9346
 2464SOL    HW218855   4.181   0.650   7.539  0.6149 -1.9992  0.3613
 2465SOL     OW18856   3.886   0.599   7.746  0.4560  0.7696 -0.0683
 2465SOL    HW118857   3.853   0.560   7.665  0.6013  0.6148 -0.0535
 2465SOL    HW218858   3.880   0.693   7.732  2.8593  1.3184  2.7546
 2466SOL     OW18859   0.993   0.903   6.012  0.6296  0.1634 -0.0044
 2466SOL    HW118860   1.057   0.949   5.957 -0.8020  0.8314 -1.1429
 2466SOL    HW218861   0.926   0.878   5.949 -0.5159  1.3230  0.7612
 2467SOL     OW18862   0.977   0.984  11.308  0.5307 -0.3186  0.5383
 2467SOL    HW118863   0.924   1.033  11.370  1.2264 -0.4543  1.2415
 2467SOL    HW218864   0.913   0.936  11.256  2.3446 -1.5612 -0.5866
 2468SOL     OW18865   3.358   2.884   5.162 -0.3153 -0.3058  0.1287
 2468SOL    HW118866   3.309   2.850   5.237  1.2778  0.3337  1.4480
 2468SOL    HW218867   3.384   2.972   5.188  1.3357 -0.6988 -0.2429
 2469SOL     OW18868   2.497   4.696   9.985  0.2074 -0.1594 -0.0752
 2469SOL    HW118869   2.508   4.650  10.068  2.9684 -0.4038 -0.5678
 2469SOL    HW218870   2.405   4.686   9.962 -0.0904  1.7177  0.2739
 2470SOL     OW18871   3.950   2.100  10.192 -0.3339 -0.2416 -0.5663
 2470SOL    HW118872   4.006   2.074  10.119 -0.6213 -0.6826 -0.6321
 2470SOL    HW218873   3.984   2.042  10.261 -2.3834 -0.2602  0.4353
 2471SOL     OW18874   1.200   1.410   7.498  0.0797 -0.5895 -0.4078
 2471SOL    HW118875   1.273   1.461   7.533 -0.8028  0.1998  0.2885
 2471SOL    HW218876   1.127   1.473   7.497 -0.6001 -1.3841 -0.1014
 2472SOL     OW18877   0.481   4.699   5.806  0.5970  0.6489 -0.2433
 2472SOL    HW118878   0.460   4.673   5.716  0.4059  0.5194 -0.1613
 2472SOL    HW218879   0.460   0.075   5.809  1.4530  0.8575 -0.6915
 2473SOL     OW18880   3.227   3.536   7.303  0.7766 -0.2933  0.0708
 2473SOL    HW118881   3.286   3.482   7.356  1.4098  0.0201 -0.3131
 2473SOL    HW218882   3.157   3.540   7.369  0.7260  1.3080 -0.0788
 2474SOL     OW18883   0.332   1.963   2.347 -0.1181 -0.7142  0.1802
 2474SOL    HW118884   0.327   1.950   2.253  1.2634 -1.3977  0.2000
 2474SOL    HW218885   0.259   2.023   2.361 -0.0192 -0.8232  1.2078
 2475SOL     OW18886   1.390   0.794   3.288  0.0068 -0.0632 -0.1651
 2475SOL    HW118887   1.475   0.763   3.257  0.2926  0.4514  0.1077
 2475SOL    HW218888   1.419   0.813   3.377 -0.8950 -0.4939  0.2193
 2476SOL     OW18889   1.344   0.773   9.936 -0.3139 -0.1523  0.0966
 2476SOL    HW118890   1.329   0.689   9.981 -0.3673 -0.3113 -0.2197
 2476SOL    HW218891   1.268   0.793   9.882 -0.5755  1.0527  0.9087
 2477SOL     OW18892   3.651   2.099  16.194  0.6620 -0.4611  0.5969
 2477SOL    HW118893   3.636   2.121  16.102 -1.5720 -0.8815  0.8661
 2477SOL    HW218894   3.584   2.156  16.230 -0.0576 -0.8291 -0.1612
 2478SOL     OW18895   1.093   2.199   7.303 -0.2675 -0.0785 -0.5125
 2478SOL    HW118896   1.177   2.197   7.349 -0.6050  0.3218  0.1120
 2478SOL    HW218897   1.045   2.122   7.333 -0.3966  0.0536 -0.3844
 2479SOL     OW18898   3.794   1.256   7.970 -0.4663 -0.3366 -0.1020
 2479SOL    HW118899   3.723   1.310   7.937  1.8015  2.0666 -1.1196
 2479SOL    HW218900   3.820   1.312   8.044 -0.6084 -1.4573  0.8002
 2480SOL     OW18901   0.458   0.799   5.073  0.2381 -0.4673 -0.3253
 2480SOL    HW118902   0.444   0.704   5.072 -1.7498 -0.1694 -2.0805
 2480SOL    HW218903   0.370   0.834   5.060  0.1561 -0.4203  0.3932
 2481SOL     OW18904   2.266   2.067   5.402 -0.1002 -0.0397  0.1001
 2481SOL    HW118905   2.317   2.100   5.476 -1.0025  2.1041 -0.2407
 2481SOL    HW218906   2.278   1.972   5.408  0.7655  0.0464 -0.2379
 2482SOL     OW18907   2.926   4.284   3.870  0.3080 -0.1816  0.1510
 2482SOL    HW118908   2.971   4.282   3.786  0.7110  3.6999  0.2587
 2482SOL    HW218909   2.948   4.194   3.893 -2.2936 -0.7413  0.3851
 2483SOL     OW18910   2.570   1.880   5.429 -0.2617  0.5356 -0.2904
 2483SOL    HW118911   2.560   1.972   5.405 -0.7419  0.2332 -1.2732
 2483SOL    HW218912   2.512   1.873   5.504  1.9024 -0.5957  1.2847
 2484SOL     OW18913   2.684   0.191   5.242 -0.3021 -0.0706 -0.1111
 2484SOL    HW118914   2.604   0.192   5.294  0.1286 -0.4627  0.5663
 2484SOL    HW218915   2.660   0.245   5.166 -0.6108  0.2366  0.2063
 2485SOL     OW18916   1.094   1.728   7.871 -0.2621  0.0954 -0.6279
 2485SOL    HW118917   1.036   1.665   7.828 -0.4737 -0.0553 -0.1294
 2485SOL    HW218918   1.041   1.757   7.946 -0.7135 -1.9215 -0.1621
 2486SOL     OW18919   2.443   2.364   5.495  0.1326 -0.2147  0.4841
 2486SOL    HW118920   2.379   2.305   5.534  1.0026  0.1338  2.4423
 2486SOL    HW218921   2.502   2.381   5.569 -1.5491  0.5709  1.6461
 2487SOL     OW18922   0.490   2.472   2.391  1.2575  0.1913 -0.7415
 2487SOL    HW118923   0.526   2.547   2.438  0.6047 -0.3589  0.6078
 2487SOL    HW218924   0.522   2.492   2.303  1.2053  1.2654 -0.5184
 2488SOL     OW18925   3.006   4.347   9.701  0.1162 -0.6883  0.4494
 2488SOL    HW118926   3.019   4.435   9.738 -0.1766 -0.2131 -0.6053
 2488SOL    HW218927   2.968   4.363   9.615  1.9168  0.3573 -0.1653
 2489SOL     OW18928   3.453   2.253  16.284 -0.2236 -0.4061  0.3962
 2489SOL    HW118929   3.483   2.321  16.343 -0.1422 -1.1088  1.1715
 2489SOL    HW218930   3.382   2.215  16.337 -0.6848 -1.3347 -0.8733
 2490SOL     OW18931   3.595   2.805   0.081 -0.0126 -0.2318  0.4680
 2490SOL    HW118932   3.508   2.768   0.089  0.0422 -0.2852  0.8159
 2490SOL    HW218933   3.622   2.769  17.670  0.3579 -0.0721  0.5179
 2491SOL     OW18934   1.297   0.593   1.579 -0.2506 -0.0455  0.1766
 2491SOL    HW118935   1.328   0.669   1.628  0.6506 -1.6079  2.0453
 2491SOL    HW218936   1.363   0.592   1.510 -1.8418  2.1921 -1.3694
 2492SOL     OW18937   1.387   3.935  12.589  0.0580 -0.7802 -0.9534
 2492SOL    HW118938   1.370   3.843  12.610  1.5517 -0.5004  1.3962
 2492SOL    HW218939   1.479   3.930  12.565 -0.0585 -1.3987 -1.2921
 2493SOL     OW18940   3.129   1.541   8.731 -0.8350 -1.0356  0.1865
 2493SOL    HW118941   3.175   1.594   8.666  1.5857 -0.8530  2.0556
 2493SOL    HW218942   3.045   1.586   8.742  0.2901  1.8991 -2.9522
 2494SOL     OW18943   3.982   4.714   7.063 -0.1375  0.6295  0.1099
 2494SOL    HW118944   3.973   4.624   7.033  0.6573 -0.1289  2.1530
 2494SOL    HW218945   4.074   4.713   7.090 -0.4467  0.6837  1.1750
 2495SOL     OW18946   1.429   1.535   6.146 -0.1492  0.2873  0.3024
 2495SOL    HW118947   1.507   1.495   6.183 -1.1583 -1.2345  0.7811
 2495SOL    HW218948   1.387   1.456   6.110 -2.6556  2.1822 -0.9286
 2496SOL     OW18949   1.572   0.562   0.786  0.0178  0.5955 -0.2183
 2496SOL    HW118950   1.575   0.495   0.717  1.8969 -0.7800  1.1876
 2496SOL    HW218951   1.664   0.584   0.798 -0.4915  1.5396  1.8857
 2497SOL     OW18952   4.195   4.313   9.349 -0.2045 -0.1308 -0.0362
 2497SOL    HW118953   4.246   4.393   9.352 -0.3706 -0.1114  2.2727
 2497SOL    HW218954   4.220   4.261   9.426 -0.7279 -2.4902 -1.4651
 2498SOL     OW18955   2.094   1.351   5.870  0.1844  0.1302  0.2481
 2498SOL    HW118956   2.133   1.436   5.850  1.1167 -0.3264  0.1374
 2498SOL    HW218957   2.160   1.302   5.919 -0.1555 -0.4260  0.1431
 2499SOL     OW18958   0.843   0.500   1.738 -0.4254  0.5651 -0.2739
 2499SOL    HW118959   0.931   0.466   1.721 -0.5454  0.2364 -0.2288
 2499SOL    HW218960   0.821   0.456   1.820  1.0872  0.3587  0.0209
 2500SOL     OW18961   1.608   1.875   5.661 -0.0619  0.0943  0.2812
 2500SOL    HW118962   1.619   1.867   5.566  0.2089 -1.6034  0.4465
 2500SOL    HW218963   1.543   1.945   5.665  0.2725  0.3712  0.9267
 2501SOL     OW18964   3.180   3.736  15.847 -0.0772  0.6248 -0.0493
 2501SOL    HW118965   3.167   3.777  15.761  0.0930  1.3110  0.2579
 2501SOL    HW218966   3.251   3.679  15.818 -0.4598 -0.1358  0.5004
 2502SOL     OW18967   2.070   0.201   7.140  0.5851 -0.0709 -0.1362
 2502SOL    HW118968   1.997   0.175   7.084 -0.5572  2.0483  0.3453
 2502SOL    HW218969   2.069   0.296   7.126 -1.3597 -0.1936 -0.9401
 2503SOL     OW18970   4.008   2.389   6.734  0.6060  0.3763  0.3384
 2503SOL    HW118971   3.980   2.408   6.824  1.5396 -0.4193  0.8044
 2503SOL    HW218972   3.992   2.471   6.689  4.3387  0.0196 -1.6004
 2504SOL     OW18973   1.293   2.263   5.177 -0.5447 -0.0909 -0.2328
 2504SOL    HW118974   1.389   2.268   5.170 -0.3995 -0.2538  1.8145
 2504SOL    HW218975   1.268   2.268   5.085 -0.4065 -0.8915 -0.3171
 2505SOL     OW18976   2.631   4.524  12.959 -0.5893 -0.0026 -0.6911
 2505SOL    HW118977   2.550   4.574  12.965 -0.5459 -0.1643  1.3048
 2505SOL    HW218978   2.606   4.450  12.905 -2.2170  0.1228 -0.1017
 2506SOL     OW18979   2.015   4.273  13.083  0.5980  0.0529 -0.3794
 2506SOL    HW118980   2.012   4.332  13.159 -0.6750  1.5310 -1.5717
 2506SOL    HW218981   1.925   4.281  13.054  0.1247  0.9092  1.3177
 2507SOL     OW18982   1.236   4.558   0.874 -0.2072 -0.2540 -0.0743
 2507SOL    HW118983   1.237   4.645   0.913  0.3812  0.9809 -2.7802
 2507SOL    HW218984   1.323   4.529   0.900 -0.7291 -1.4193  0.3476
 2508SOL     OW18985   4.710   3.406   5.499  0.3795  0.3687  0.2548
 2508SOL    HW118986   4.631   3.454   5.474  0.5761  0.7439  0.3499
 2508SOL    HW218987   4.666   3.323   5.518 -0.4678  0.4901 -1.1183
 2509SOL     OW18988   2.646   3.830   5.295  0.8090 -0.2459 -0.3494
 2509SOL    HW118989   2.708   3.760   5.274  0.1759 -0.6402 -0.8947
 2509SOL    HW218990   2.633   3.868   5.209  0.5396  0.6972  0.1079
 2510SOL     OW18991   1.791   2.717   9.146 -0.2994 -0.1605  0.1851
 2510SOL    HW118992   1.774   2.665   9.224  0.8349 -0.8799 -0.0423
 2510SOL    HW218993   1.883   2.700   9.127 -0.4430  1.0998 -1.6622
 2511SOL     OW18994   4.378   4.552   9.794  0.5759 -0.3320 -0.0917
 2511SOL    HW118995   4.471   4.573   9.791  0.3611  0.0641 -3.1604
 2511SOL    HW218996   4.373   4.503   9.712 -1.0294  1.0746 -0.8313
 2512SOL     OW18997   4.277   2.788   5.164  0.0933 -0.3578 -0.0922
 2512SOL    HW118998   4.235   2.874   5.168  0.2940 -0.2793  0.3494
 2512SOL    HW218999   4.351   2.788   5.225  1.6813  1.2713 -2.0203
 2513SOL     OW19000   1.195   1.824   7.518 -0.0637 -0.6804 -0.4145
 2513SOL    HW119001   1.128   1.891   7.532  1.4962  0.4857  1.5189
 2513SOL    HW219002   1.225   1.845   7.430 -0.4820  1.2863 -0.1039
 2514SOL     OW19003   2.560   1.384   5.269 -0.3855 -0.4172  0.0417
 2514SOL    HW119004   2.565   1.417   5.358 -1.2176  0.5978 -0.2836
 2514SOL    HW219005   2.654   1.369   5.258 -0.6215 -1.2925 -0.8303
 2515SOL     OW19006   0.597   1.609   9.423 -0.4623 -0.1010  0.0094
 2515SOL    HW119007   0.587   1.682   9.483  0.8774 -0.6113  0.8393
 2515SOL    HW219008   0.514   1.561   9.424 -0.2579 -0.3327  3.5152
 2516SOL     OW19009   1.288   4.489   8.228 -0.1866 -0.4298  0.3684
 2516SOL    HW119010   1.255   4.411   8.182  0.5853  0.3009 -1.4044
 2516SOL    HW219011   1.268   4.467   8.319 -0.5522  0.6261  0.5436
 2517SOL     OW19012   2.123   3.330   1.768  0.4118 -0.4252 -0.2328
 2517SOL    HW119013   2.036   3.291   1.766  0.0243  0.4263  0.0125
 2517SOL    HW219014   2.121   3.387   1.691 -1.0448  0.8597  0.7650
 2518SOL     OW19015   4.062   4.062   6.637  0.2878 -0.1847  0.2021
 2518SOL    HW119016   4.034   4.016   6.558 -1.8768 -0.0647  0.8901
 2518SOL    HW219017   4.137   4.011   6.668 -0.3957 -1.2719  0.0564
 2519SOL     OW19018   0.422   2.744  16.602 -0.5686 -0.0741 -0.1306
 2519SOL    HW119019   0.405   2.838  16.614  1.3664 -0.0242  2.2522
 2519SOL    HW219020   0.506   2.740  16.557 -0.4773 -1.9187  0.2087
 2520SOL     OW19021   1.243   3.831  10.081 -0.6071 -0.2371 -0.2968
 2520SOL    HW119022   1.327   3.787  10.071 -1.1931 -0.9076 -2.1693
 2520SOL    HW219023   1.218   3.844   9.989  1.1584 -2.1425 -1.0390
 2521SOL     OW19024   3.525   0.425   6.904  0.5203 -0.2116 -0.0612
 2521SOL    HW119025   3.481   0.439   6.820 -1.3469 -0.9385  0.8081
 2521SOL    HW219026   3.543   0.513   6.938  1.8244  0.8779 -3.5599
 2522SOL     OW19027   3.868   2.011   5.575 -0.0463  0.2368 -0.2606
 2522SOL    HW119028   3.845   2.083   5.516 -0.7697  0.6926  0.5892
 2522SOL    HW219029   3.781   1.975   5.592 -0.9723  2.1335 -1.0407
 2523SOL     OW19030   2.432   1.116   9.223 -0.4823 -0.2060 -0.1535
 2523SOL    HW119031   2.382   1.043   9.186 -1.7955  0.5609  0.1143
 2523SOL    HW219032   2.441   1.163   9.140  0.9961  2.5285  1.5601
 2524SOL     OW19033   0.947   1.382   9.655  0.3835 -0.4236 -0.2465
 2524SOL    HW119034   0.950   1.294   9.619  1.0186 -0.8352  0.7863
 2524SOL    HW219035   0.880   1.425   9.603  0.4997 -2.0610 -1.7351
 2525SOL     OW19036   1.380   4.543   4.868 -0.6464 -0.0056 -0.1240
 2525SOL    HW119037   1.316   4.612   4.849  1.6627  2.2980  0.4537
 2525SOL    HW219038   1.416   4.520   4.783 -4.4277 -2.5322 -1.0359
 2526SOL     OW19039   2.012   0.408   2.585  0.7077 -0.3014 -0.4553
 2526SOL    HW119040   1.922   0.439   2.592  0.8213  0.0214 -0.4115
 2526SOL    HW219041   2.006   0.326   2.537 -1.4674 -0.5410  0.2291
 2527SOL     OW19042   1.538   2.869   5.077 -0.0821 -0.2973 -0.1685
 2527SOL    HW119043   1.456   2.846   5.120 -1.5589  2.0091 -1.7354
 2527SOL    HW219044   1.581   2.943   5.122  0.1423 -1.1937  1.0975
 2528SOL     OW19045   1.098   4.694  10.107  0.3642 -0.1173 -0.1301
 2528SOL    HW119046   1.034   4.714  10.039  0.4749  3.6431  0.8729
 2528SOL    HW219047   1.029   4.695  10.174 -1.4009 -0.3489 -1.9473
 2529SOL     OW19048   0.086   3.867   8.136  0.4102  0.0719 -0.6345
 2529SOL    HW119049   0.114   3.875   8.228 -1.9632 -2.8848  0.3193
 2529SOL    HW219050   0.040   3.951   8.126  1.2342  0.9825  3.0296
 2530SOL     OW19051   4.197   0.912  16.116  0.1682  0.1227 -0.1693
 2530SOL    HW119052   4.230   0.827  16.145  0.6317  0.1206 -0.7134
 2530SOL    HW219053   4.182   0.896  16.023  1.7828 -1.1753 -0.2071
 2531SOL     OW19054   0.871   2.492   3.544  0.1688  0.1974  0.0143
 2531SOL    HW119055   0.801   2.442   3.587 -1.5883  2.2597 -0.4865
 2531SOL    HW219056   0.870   2.567   3.603  0.4459 -0.0458  0.3306
 2532SOL     OW19057   3.176   3.909  14.730 -0.1428  0.2201 -0.4859
 2532SOL    HW119058   3.265   3.881  14.709  0.5966  1.0648  1.5667
 2532SOL    HW219059   3.124   3.829  14.738  1.2826 -0.2812  3.5064
 2533SOL     OW19060   4.097   3.470   7.516  0.1402 -0.3983 -0.1100
 2533SOL    HW119061   4.148   3.389   7.508  1.0442  0.2234 -0.7675
 2533SOL    HW219062   4.111   3.490   7.608  1.5380  0.6270 -0.5483
 2534SOL     OW19063   0.029   0.019   4.892 -0.2738 -0.3537 -0.2354
 2534SOL    HW119064   0.064   4.691   4.815  0.7409  0.2506 -0.1360
 2534SOL    HW219065   4.661   0.047   4.858 -0.6904  0.0801  1.1652
 2535SOL     OW19066   1.826   2.304  13.576  0.2845  0.6055  0.9809
 2535SOL    HW119067   1.881   2.276  13.649  1.1276  0.6399  0.3704
 2535SOL    HW219068   1.762   2.360  13.619 -1.4946  0.3301 -1.3048
 2536SOL     OW19069   3.848   1.821   7.553  0.2946  0.3768 -0.4428
 2536SOL    HW119070   3.803   1.897   7.589 -2.7883 -1.5984 -0.1411
 2536SOL    HW219071   3.933   1.861   7.532 -0.3153  1.5698 -0.6753
 2537SOL     OW19072   4.373   3.375   2.387  0.2980  0.3290 -0.3032
 2537SOL    HW119073   4.393   3.466   2.409 -0.3571  0.6293 -0.9396
 2537SOL    HW219074   4.277   3.382   2.390  0.3925  1.8491 -0.8116
 2538SOL     OW19075   2.682   1.872   7.299 -0.3043  0.5042  0.0023
 2538SOL    HW119076   2.642   1.958   7.316  1.2509  1.3652 -0.6798
 2538SOL    HW219077   2.775   1.894   7.300 -0.0165 -0.6969 -0.2362
 2539SOL     OW19078   2.082   3.706   1.062  0.6116 -0.1316  0.7741
 2539SOL    HW119079   2.152   3.741   1.117  0.1345 -0.0082  1.3053
 2539SOL    HW219080   2.111   3.616   1.048 -0.9086 -0.3612 -0.8867
 2540SOL     OW19081   1.909   4.396   1.927 -0.3170  0.2466 -0.1772
 2540SOL    HW119082   1.952   4.352   2.000  0.9620 -0.2745 -1.2443
 2540SOL    HW219083   1.974   4.385   1.857  0.1454 -0.1319  0.3093
 2541SOL     OW19084   3.481   3.957  15.907 -0.0802 -0.2917 -0.4512
 2541SOL    HW119085   3.504   3.874  15.864  0.5280 -0.2668 -0.1677
 2541SOL    HW219086   3.470   4.008  15.827 -2.0370  0.5360  0.3488
 2542SOL     OW19087   0.317   0.602  11.819 -0.6438 -0.1768  0.1220
 2542SOL    HW119088   0.344   0.587  11.728  0.1449  2.2517 -0.0597
 2542SOL    HW219089   0.318   0.698  11.812  0.7866 -0.1450  0.6416
 2543SOL     OW19090   1.900   2.628   3.626  0.7142 -0.0343  0.1876
 2543SOL    HW119091   1.970   2.693   3.621 -0.9937  1.7644 -0.4402
 2543SOL    HW219092   1.946   2.550   3.595  1.4295  0.7642 -0.7487
 2544SOL     OW19093   0.701   3.329   1.238  0.1623  0.2848 -0.0954
 2544SOL    HW119094   0.646   3.276   1.181  0.4025 -1.2533  1.1019
 2544SOL    HW219095   0.776   3.343   1.179  2.0279  0.3611  2.2816
 2545SOL     OW19096   2.356   0.677  15.799 -0.0456  0.2170  0.3555
 2545SOL    HW119097   2.269   0.675  15.839  0.1977 -0.7938  0.8449
 2545SOL    HW219098   2.398   0.743  15.854 -1.1775  0.1859  1.2491
 2546SOL     OW19099   4.573   0.613   4.922  0.7341 -0.3438 -0.8201
 2546SOL    HW119100   4.486   0.591   4.887 -0.5202  0.4008  1.8470
 2546SOL    HW219101   4.582   0.586   5.013 -2.3496  0.0007 -0.4148
 2547SOL     OW19102   2.289   1.504   5.305  0.0945  0.2758  0.3309
 2547SOL    HW119103   2.221   1.511   5.238 -0.7214  0.9395  1.2156
 2547SOL    HW219104   2.357   1.451   5.264 -0.5931  0.5315 -1.1404
 2548SOL     OW19105   3.333   3.456   1.853  0.2064  0.1824  0.1983
 2548SOL    HW119106   3.320   3.427   1.763  1.6900  0.2298 -0.0339
 2548SOL    HW219107   3.331   3.548   1.827 -0.4044 -0.3082 -1.4358
 2549SOL     OW19108   2.680   4.056  12.069 -0.4654 -0.1965 -0.2605
 2549SOL    HW119109   2.727   4.138  12.058  0.0445 -0.3802  0.5618
 2549SOL    HW219110   2.599   4.065  12.019 -0.6892  1.3661  0.3943
 2550SOL     OW19111   4.609   2.878   4.526  0.2348  0.1109 -0.2736
 2550SOL    HW119112   4.633   2.848   4.614  0.9070 -0.1075 -0.5330
 2550SOL    HW219113   4.569   2.798   4.491 -0.3339  0.4423 -0.3877
 2551SOL     OW19114   4.470   0.149   1.159 -0.0743 -0.0353 -0.4294
 2551SOL    HW119115   4.503   0.150   1.249  1.2061  0.1011 -0.8987
 2551SOL    HW219116   4.522   0.226   1.135 -3.2231  1.9408 -0.8585
 2552SOL     OW19117   1.285   3.020   7.572 -0.0009 -0.0402  0.4336
 2552SOL    HW119118   1.233   3.100   7.563 -0.5205 -0.6910 -2.1949
 2552SOL    HW219119   1.226   2.951   7.604  0.1141  0.8021  2.4270
 2553SOL     OW19120   1.249   3.400   4.284 -0.4488  0.0154 -0.3476
 2553SOL    HW119121   1.177   3.436   4.336 -2.8421 -0.3615 -3.3998
 2553SOL    HW219122   1.289   3.473   4.238 -0.6644 -0.7574 -1.7449
 2554SOL     OW19123   1.883   3.562   5.724  0.3150  0.4030  0.1170
 2554SOL    HW119124   1.851   3.541   5.637 -0.8144  2.8161 -0.0462
 2554SOL    HW219125   1.975   3.581   5.705 -0.1841  3.4227  0.8473
 2555SOL     OW19126   1.495   3.770  11.712 -0.2369  0.0581  0.6543
 2555SOL    HW119127   1.435   3.792  11.641  0.4927 -0.1329 -0.0210
 2555SOL    HW219128   1.444   3.700  11.752  1.8130 -1.9135 -0.2246
 2556SOL     OW19129   4.113   0.281   4.258 -0.5053  0.1680 -0.4865
 2556SOL    HW119130   4.167   0.321   4.190  1.9465  0.7883  1.8542
 2556SOL    HW219131   4.162   0.200   4.266 -0.0683  0.6310  1.4345
 2557SOL     OW19132   0.502   0.083   3.990  0.0450 -0.3288  0.5693
 2557SOL    HW119133   0.585   0.113   3.955 -0.7781 -0.7633 -1.7237
 2557SOL    HW219134   0.460   0.046   3.912  0.7408  1.6067 -0.7070
 2558SOL     OW19135   1.157   1.246   4.660 -0.5662  0.0521 -0.3370
 2558SOL    HW119136   1.145   1.194   4.739 -0.6708  0.4795 -0.0718
 2558SOL    HW219137   1.247   1.233   4.629 -0.5999 -0.0142 -0.4075
 2559SOL     OW19138   1.124   3.755  16.070 -0.3903 -0.1369 -0.5676
 2559SOL    HW119139   1.139   3.729  16.161  0.6923 -1.1440 -1.0417
 2559SOL    HW219140   1.173   3.693  16.017  0.9067 -0.9575  1.5759
 2560SOL     OW19141   3.655   2.965   0.722 -0.3908  0.3473  0.0103
 2560SOL    HW119142   3.661   2.880   0.766 -0.7543  0.1728 -0.2847
 2560SOL    HW219143   3.686   3.025   0.790  0.8927 -0.3709  0.0542
 2561SOL     OW19144   1.154   2.010   4.571  1.0196 -0.0004  0.1333
 2561SOL    HW119145   1.247   2.004   4.596  0.7788 -1.1966  0.7032
 2561SOL    HW219146   1.146   1.922   4.533 -0.3900  0.5879 -0.9097
 2562SOL     OW19147   4.346   2.570   5.011  0.1978  0.2561 -0.1364
 2562SOL    HW119148   4.328   2.662   5.033  0.9859  0.2751  0.4108
 2562SOL    HW219149   4.271   2.520   5.042 -0.3094  1.8433  1.1863
 2563SOL     OW19150   0.955   1.320  12.323  0.1147 -0.0983  0.2315
 2563SOL    HW119151   0.914   1.323  12.237 -0.6153  4.1909  0.7547
 2563SOL    HW219152   0.895   1.265  12.373  1.1483 -1.7954 -0.3705
 2564SOL     OW19153   3.102   3.883   6.257 -0.1435  0.1153  0.0149
 2564SOL    HW119154   3.115   3.940   6.181  0.0774  0.4877  0.3368
 2564SOL    HW219155   3.122   3.942   6.329 -1.8809  1.0374 -0.2777
 2565SOL     OW19156   3.633   3.787   9.936  0.1301  0.3956 -0.4154
 2565SOL    HW119157   3.654   3.759   9.846 -0.1170 -0.9021 -0.0778
 2565SOL    HW219158   3.714   3.809   9.981 -0.0078 -2.7260  1.3592
 2566SOL     OW19159   2.610   2.237   7.535 -0.2082  0.2814  0.6143
 2566SOL    HW119160   2.598   2.332   7.529 -2.1100  0.0827  1.0953
 2566SOL    HW219161   2.673   2.237   7.607  0.2195 -1.9145  0.2350
 2567SOL     OW19162   2.264   2.008   3.188 -0.7146  0.0183  0.2126
 2567SOL    HW119163   2.268   2.002   3.284 -0.9002 -3.1773  0.0131
 2567SOL    HW219164   2.241   2.101   3.187 -0.3639  0.0773 -1.7645
 2568SOL     OW19165   2.977   0.360   7.810 -0.0859 -0.0415  0.2167
 2568SOL    HW119166   3.070   0.384   7.813  0.0641 -0.5006 -0.6594
 2568SOL    HW219167   2.942   0.429   7.866  0.4293  2.5793 -2.6376
 2569SOL     OW19168   3.518   1.718   2.738  0.8862  0.4080 -0.0454
 2569SOL    HW119169   3.529   1.800   2.690  2.4035  0.1987 -0.0479
 2569SOL    HW219170   3.422   1.720   2.738  0.8933  0.6484  0.2625
 2570SOL     OW19171   1.145   3.363   7.578  0.1008  0.1876  0.0344
 2570SOL    HW119172   1.150   3.414   7.658  3.2107  1.3545 -0.8938
 2570SOL    HW219173   1.055   3.332   7.584  0.2487 -0.4941 -1.1635
 2571SOL     OW19174   3.496   2.232   0.871 -0.0589  0.6196 -0.6133
 2571SOL    HW119175   3.459   2.173   0.937 -0.6727  0.7891 -0.8039
 2571SOL    HW219176   3.581   2.247   0.913  1.0130  1.5568 -3.0978
 2572SOL     OW19177   3.250   2.913   0.420  0.2147  0.3692 -0.4469
 2572SOL    HW119178   3.337   2.901   0.381 -0.6411 -0.8670 -1.9692
 2572SOL    HW219179   3.277   2.966   0.495  2.6683  0.4426 -1.3721
 2573SOL     OW19180   0.586   0.148   6.705 -0.2810 -0.2221  0.0074
 2573SOL    HW119181   0.627   0.062   6.693 -0.8562 -0.9007  2.9613
 2573SOL    HW219182   0.613   0.200   6.629 -0.9587 -0.2303 -0.2341
 2574SOL     OW19183   2.654   3.032   6.714  0.2984  0.2072 -0.2267
 2574SOL    HW119184   2.569   3.028   6.758 -0.4389  1.7085 -1.4788
 2574SOL    HW219185   2.703   3.090   6.773 -1.8678 -1.6228  3.3123
 2575SOL     OW19186   0.218   2.081   6.930 -0.5877  0.3405  0.7775
 2575SOL    HW119187   0.312   2.100   6.938 -0.2521 -1.1634  0.3707
 2575SOL    HW219188   0.194   2.146   6.865 -0.9399 -0.4748  0.0983
 2576SOL     OW19189   3.646   0.649  13.884 -0.1374 -0.4063 -0.9440
 2576SOL    HW119190   3.687   0.672  13.968 -2.0393  2.5422 -0.8120
 2576SOL    HW219191   3.560   0.691  13.883 -0.0372 -0.1652 -0.0623
 2577SOL     OW19192   0.564   4.631   5.405  0.0030 -0.3710 -0.0079
 2577SOL    HW119193   0.506   4.657   5.333 -0.5821  0.0779  0.6260
 2577SOL    HW219194   0.526   4.678   5.479 -0.0338 -2.7398  1.4737
 2578SOL     OW19195   0.843   0.920   9.666  0.9645 -0.0947  0.2036
 2578SOL    HW119196   0.785   0.982   9.623  1.7407  0.1596 -0.4711
 2578SOL    HW219197   0.809   0.924   9.755 -0.8139  1.8507 -0.5710
 2579SOL     OW19198   2.769   3.054  14.324  0.5099  0.0118  0.0895
 2579SOL    HW119199   2.830   3.092  14.260  2.0594  2.2183  2.8570
 2579SOL    HW219200   2.688   3.074  14.277  0.0907  2.3224  1.7717
 2580SOL     OW19201   1.467   3.924   0.202  0.5491  0.7912 -0.6108
 2580SOL    HW119202   1.460   3.981   0.125  0.3342  0.6739 -0.6794
 2580SOL    HW219203   1.458   3.986   0.275  2.5397 -2.1244  2.1034
 2581SOL     OW19204   4.061   3.543   7.243 -0.2598  0.4782  0.0162
 2581SOL    HW119205   4.112   3.623   7.256  0.4186  0.4914 -2.7546
 2581SOL    HW219206   4.071   3.499   7.327 -1.3746 -0.1885 -0.2001
 2582SOL     OW19207   2.607   4.213   5.332 -0.3419 -0.0732 -0.6687
 2582SOL    HW119208   2.546   4.236   5.262 -0.7622  0.7664 -0.0196
 2582SOL    HW219209   2.619   4.121   5.312  1.7685  0.5477 -2.3283
 2583SOL     OW19210   2.133   0.699  15.940 -0.5003  0.6698 -0.0640
 2583SOL    HW119211   2.134   0.632  16.008  0.2204 -0.8372 -1.5708
 2583SOL    HW219212   2.040   0.723  15.948 -0.6592  0.5008 -1.5112
 2584SOL     OW19213   1.261   3.531  16.154  0.6193  0.1249 -0.0044
 2584SOL    HW119214   1.216   3.472  16.215 -2.7666  1.1665 -1.4813
 2584SOL    HW219215   1.256   3.474  16.078 -1.0228 -1.6266  1.4170
 2585SOL     OW19216   4.014   2.858   4.906 -0.4562  0.1737  0.5180
 2585SOL    HW119217   3.924   2.892   4.905 -1.6839 -2.9890  2.5303
 2585SOL    HW219218   4.047   2.873   4.995  0.5263 -0.9208  0.3377
 2586SOL     OW19219   1.776   3.360   3.805 -0.6870 -0.2359  0.1688
 2586SOL    HW119220   1.764   3.265   3.803 -2.7398  0.0394 -0.9171
 2586SOL    HW219221   1.689   3.383   3.772 -2.4427 -0.8450  4.2296
 2587SOL     OW19222   0.333   4.218   6.351 -0.5272  0.4438  0.4290
 2587SOL    HW119223   0.336   4.276   6.427 -1.4003  0.3651  0.5302
 2587SOL    HW219224   0.351   4.131   6.387 -1.7269 -0.1363 -0.3793
 2588SOL     OW19225   0.817   0.201   7.473  0.6608  0.0539 -0.0952
 2588SOL    HW119226   0.801   0.289   7.437 -2.9077 -1.5485 -2.4396
 2588SOL    HW219227   0.912   0.198   7.458  0.7357  0.7324  0.2330
 2589SOL     OW19228   2.106   4.521  15.074 -0.0151 -0.5271  0.2554
 2589SOL    HW119229   2.129   4.560  15.158 -2.4462  2.4840 -0.4860
 2589SOL    HW219230   2.153   4.585  15.020 -1.6795 -0.3315 -1.0001
 2590SOL     OW19231   2.435   3.067   7.239  0.3198 -0.6513 -0.4038
 2590SOL    HW119232   2.389   3.063   7.155 -3.3473  0.2061  1.6113
 2590SOL    HW219233   2.477   2.981   7.233  1.1801 -0.2960  0.5408
 2591SOL     OW19234   1.607   1.930  10.231  0.4808  0.1947  0.1774
 2591SOL    HW119235   1.548   1.939  10.157  0.3786  0.3062  0.2717
 2591SOL    HW219236   1.674   1.865  10.209  0.1872  1.2913 -3.9225
 2592SOL     OW19237   0.171   4.331   7.140  0.3735  0.7141 -0.3613
 2592SOL    HW119238   0.240   4.283   7.094 -0.6567 -1.0337 -0.0736
 2592SOL    HW219239   0.191   4.318   7.233  0.5755 -0.2573 -0.5403
 2593SOL     OW19240   1.503   3.801  16.577  0.1759  0.2517 -0.5765
 2593SOL    HW119241   1.563   3.865  16.613  3.0432 -2.9936  0.4030
 2593SOL    HW219242   1.438   3.856  16.534 -2.0478 -0.8478  1.3817
 2594SOL     OW19243   3.245   3.743   7.097 -0.6843 -0.7107 -0.1709
 2594SOL    HW119244   3.245   3.704   7.185 -0.3707  0.4599  0.3390
 2594SOL    HW219245   3.326   3.794   7.099 -1.2690  0.2687 -1.8796
 2595SOL     OW19246   2.325   2.505   8.358 -0.4567 -0.6065 -0.8889
 2595SOL    HW119247   2.301   2.420   8.321 -1.8625 -1.4074  1.8330
 2595SOL    HW219248   2.256   2.560   8.321  1.0063  0.6813 -1.6988
 2596SOL     OW19249   1.684   1.378   6.830  0.7508 -0.1293 -0.4525
 2596SOL    HW119250   1.720   1.434   6.898 -1.0464 -0.5119  0.8007
 2596SOL    HW219251   1.756   1.372   6.766  2.2105 -0.6792  1.2343
 2597SOL     OW19252   2.308   3.131   3.196 -0.1804 -0.2667 -0.1651
 2597SOL    HW119253   2.263   3.162   3.117 -0.5272  0.0365  0.1549
 2597SOL    HW219254   2.370   3.079   3.146 -0.3621  1.6505 -2.4062
 2598SOL     OW19255   1.754   1.155  16.781 -0.3271  0.3124 -1.0437
 2598SOL    HW119256   1.752   1.063  16.808 -2.3196  0.8438  0.6245
 2598SOL    HW219257   1.846   1.166  16.758  0.3662  0.5549  1.8336
 2599SOL     OW19258   3.422   3.019   6.342  0.2391  0.4651 -0.9664
 2599SOL    HW119259   3.503   3.018   6.291  0.9524  1.6866  0.1690
 2599SOL    HW219260   3.448   3.021   6.434 -0.4313  0.1701 -0.7700
 2600SOL     OW19261   0.035   4.030   7.567  0.2329 -0.1596  0.0268
 2600SOL    HW119262   0.116   4.068   7.532  1.2457 -0.7457  1.7200
 2600SOL    HW219263   4.713   4.106   7.609  2.3014  1.0185 -0.0894
 2601SOL     OW19264   0.931   3.918   2.580 -0.3988  0.1635 -0.1743
 2601SOL    HW119265   0.909   3.841   2.528 -0.6327  0.9451 -1.2503
 2601SOL    HW219266   1.021   3.925   2.546 -1.0448 -0.4452 -2.0078
 2602SOL     OW19267   3.704   0.672  17.133 -0.5616  0.3519 -0.3530
 2602SOL    HW119268   3.756   0.751  17.124  2.3268 -1.3326  1.6120
 2602SOL    HW219269   3.768   0.605  17.159  0.7597  2.3640  1.5423
 2603SOL     OW19270   3.272   4.343   5.990 -0.2106 -0.5506 -0.2820
 2603SOL    HW119271   3.281   4.325   6.084  1.9451  0.3117 -0.3420
 2603SOL    HW219272   3.190   4.300   5.965 -0.9065  0.9812 -0.6646
 2604SOL     OW19273   2.587   0.298   0.644 -0.1667 -0.3398  0.9161
 2604SOL    HW119274   2.538   0.268   0.567 -1.9470  2.4127  1.0024
 2604SOL    HW219275   2.520   0.362   0.666 -0.6129 -0.4064 -0.2199
 2605SOL     OW19276   2.343   3.371   6.851 -0.0247 -0.3502  0.4679
 2605SOL    HW119277   2.390   3.310   6.908  0.3786 -2.6183 -2.3134
 2605SOL    HW219278   2.392   3.452   6.837  0.4448 -0.2519  2.7006
 2606SOL     OW19279   1.403   2.697   3.472 -0.3153  0.5075 -0.4071
 2606SOL    HW119280   1.349   2.773   3.493  0.6137  0.4401  2.2197
 2606SOL    HW219281   1.482   2.747   3.450 -1.1257  1.7476 -0.4804
 2607SOL     OW19282   4.024   3.951   6.395  0.0887  0.4420  0.3455
 2607SOL    HW119283   4.015   3.856   6.397 -0.0460  0.4850  2.0071
 2607SOL    HW219284   3.968   3.977   6.323  2.9472  0.2490 -1.9703
 2608SOL     OW19285   2.169   2.516   7.777  0.1025 -0.1889 -1.1095
 2608SOL    HW119286   2.113   2.562   7.840  0.9568  0.1224 -0.5804
 2608SOL    HW219287   2.182   2.586   7.712  0.8640 -0.2041 -0.9686
 2609SOL     OW19288   3.432   1.501   3.077 -0.5090 -0.3473  0.2673
 2609SOL    HW119289   3.489   1.577   3.067 -0.3639 -0.4963 -0.0372
 2609SOL    HW219290   3.370   1.531   3.143 -0.7601  1.4275 -0.7523
 2610SOL     OW19291   1.012   1.595   7.577  0.2177 -0.0148  0.1711
 2610SOL    HW119292   1.082   1.660   7.573  0.8384 -0.6746  0.2422
 2610SOL    HW219293   0.955   1.646   7.634  0.0600  1.0042 -0.9067
 2611SOL     OW19294   0.346   0.691   1.183 -0.0248  0.0727  0.4236
 2611SOL    HW119295   0.311   0.689   1.272 -0.2682 -0.2492  0.3238
 2611SOL    HW219296   0.282   0.756   1.154  0.8897  1.2901  1.1472
 2612SOL     OW19297   0.980   0.300  15.519  0.2938  0.2536 -0.2794
 2612SOL    HW119298   1.002   0.393  15.525  0.2089  0.3052 -0.7539
 2612SOL    HW219299   1.016   0.271  15.603 -0.0448 -0.1956 -0.2877
 2613SOL     OW19300   1.798   2.578   2.713 -0.3256  0.5195 -1.0810
 2613SOL    HW119301   1.868   2.517   2.687 -0.2570  0.7575 -1.4632
 2613SOL    HW219302   1.853   2.653   2.736 -2.2162  1.3743  0.6326
 2614SOL     OW19303   0.992   0.405  14.917 -0.2784 -0.2391  0.5324
 2614SOL    HW119304   0.948   0.358  14.987  0.9943 -0.6435  1.0665
 2614SOL    HW219305   0.931   0.396  14.844  0.1941  0.4078  0.0546
 2615SOL     OW19306   1.879   3.082   3.278  0.5529 -0.2135  0.1383
 2615SOL    HW119307   1.957   3.038   3.244 -0.2649 -1.5351 -0.0233
 2615SOL    HW219308   1.821   3.007   3.290 -3.3322  2.3823 -2.3847
 2616SOL     OW19309   4.304   3.037  10.399 -0.8567 -0.5244 -0.9274
 2616SOL    HW119310   4.221   3.036  10.351 -1.7206  0.1335  0.5542
 2616SOL    HW219311   4.351   2.957  10.375  0.4079 -0.1513  0.3685
 2617SOL     OW19312   0.122   3.865   2.410 -0.2427  0.0089  0.0883
 2617SOL    HW119313   0.178   3.848   2.485  1.5657  0.8353 -1.0802
 2617SOL    HW219314   0.085   3.777   2.412 -1.0924  0.2836 -2.4459
 2618SOL     OW19315   4.378   3.789   2.255  0.0374 -0.4401  0.1440
 2618SOL    HW119316   4.328   3.828   2.183  0.7865 -1.1533 -0.7719
 2618SOL    HW219317   4.442   3.858   2.271 -0.2193 -0.3779  0.8914
 2619SOL     OW19318   0.241   4.402  14.613  0.3529 -0.3507 -0.5439
 2619SOL    HW119319   0.295   4.438  14.542  0.8509  0.6606  0.3540
 2619SOL    HW219320   0.283   4.458  14.678 -0.8348  0.9219 -0.8920
 2620SOL     OW19321   3.185   1.617   5.425 -0.0097 -0.2835  0.6441
 2620SOL    HW119322   3.191   1.706   5.389 -3.0693 -0.0179  0.7984
 2620SOL    HW219323   3.206   1.633   5.517 -1.2586 -2.0962  1.2512
 2621SOL     OW19324   2.234   1.892  10.122  0.1803  0.2849  0.1838
 2621SOL    HW119325   2.272   1.930  10.042 -1.1923 -0.1892 -0.6813
 2621SOL    HW219326   2.161   1.952  10.135  0.6859  1.0519 -0.4205
 2622SOL     OW19327   0.486   4.334   9.105 -0.3574  0.3460  0.2649
 2622SOL    HW119328   0.523   4.362   9.189  0.1639 -0.9374  0.4701
 2622SOL    HW219329   0.394   4.357   9.121 -0.7699  0.7364 -2.7712
 2623SOL     OW19330   4.656   2.669   0.045  0.5273  1.1505  0.3546
 2623SOL    HW119331   4.564   2.684   0.067  0.4439 -2.0700  2.2159
 2623SOL    HW219332   4.667   2.737  17.653  1.3001 -0.2461 -0.9556
 2624SOL     OW19333   1.253   2.306   2.427 -0.2654  0.7381 -0.2707
 2624SOL    HW119334   1.288   2.356   2.500  0.4967 -0.4625  0.1893
 2624SOL    HW219335   1.241   2.223   2.474  3.1801 -0.3456 -1.3625
 2625SOL     OW19336   0.908   2.937   3.364 -0.4677 -0.1131  0.0219
 2625SOL    HW119337   0.886   2.927   3.271 -1.2052  0.4316  0.1430
 2625SOL    HW219338   0.862   2.872   3.417 -0.6136 -0.9846 -1.1543
 2626SOL     OW19339   4.204   2.592   1.948  0.2111 -0.0871 -0.9656
 2626SOL    HW119340   4.173   2.678   1.917  1.6107  1.1316  1.0318
 2626SOL    HW219341   4.127   2.538   1.929  0.0438  0.0356 -0.6340
 2627SOL     OW19342   4.494   4.646   5.475 -0.1469  0.2044 -0.4178
 2627SOL    HW119343   4.457   4.717   5.528 -2.4221 -1.4220  0.1864
 2627SOL    HW219344   4.522   4.691   5.396 -1.1474 -0.6499 -1.2594
 2628SOL     OW19345   0.710   4.127   0.012  0.3533  0.3976  0.1902
 2628SOL    HW119346   0.753   4.059  17.634  1.5143 -0.2490  1.9835
 2628SOL    HW219347   0.771   4.135   0.085 -0.7483 -0.9854  1.2538
 2629SOL     OW19348   0.735   2.502   0.353  0.2924  0.4894 -0.1947
 2629SOL    HW119349   0.720   2.595   0.369  0.0279  0.5464 -0.7506
 2629SOL    HW219350   0.823   2.484   0.384 -0.5804 -0.0159  1.9759
 2630SOL     OW19351   0.901   2.319   6.045 -0.0647  0.0902 -0.1236
 2630SOL    HW119352   0.871   2.254   6.109  1.2264  0.5054  0.9230
 2630SOL    HW219353   0.900   2.266   5.966 -0.9410  1.1775 -0.8412
 2631SOL     OW19354   4.469   2.591   2.289 -0.4369  0.0815  0.1094
 2631SOL    HW119355   4.434   2.680   2.286  1.4714  0.7595 -2.3477
 2631SOL    HW219356   4.431   2.550   2.212 -0.9674  2.7468 -1.0410
 2632SOL     OW19357   1.497   1.583  13.494 -0.2150 -0.3918 -0.0857
 2632SOL    HW119358   1.523   1.550  13.580  0.4266 -0.3531 -0.2672
 2632SOL    HW219359   1.533   1.522  13.430 -0.1086  0.4738 -0.8543
 2633SOL     OW19360   2.426   3.683   7.339 -0.6387  0.1913  0.2366
 2633SOL    HW119361   2.432   3.759   7.281  0.2216  0.9763  1.3614
 2633SOL    HW219362   2.456   3.614   7.280 -0.9960  0.5944 -0.4159
 2634SOL     OW19363   3.224   3.542   5.280 -0.1156 -0.4453  0.3446
 2634SOL    HW119364   3.187   3.479   5.218 -1.2454 -0.0475  0.6105
 2634SOL    HW219365   3.143   3.591   5.294  0.8863  0.7691  1.7770
 2635SOL     OW19366   3.484   0.486   6.253 -0.5005 -0.2660  0.0765
 2635SOL    HW119367   3.402   0.466   6.207  0.8979 -1.6583 -1.8272
 2635SOL    HW219368   3.545   0.460   6.184 -0.8262 -0.2366 -0.2220
 2636SOL     OW19369   2.161   3.447   4.537  0.1135 -0.5380  0.3872
 2636SOL    HW119370   2.246   3.470   4.502 -0.7051  0.4660 -0.9445
 2636SOL    HW219371   2.132   3.383   4.472  1.2627  0.4606 -1.0871
 2637SOL     OW19372   1.884   3.623   6.758  0.3018  0.3459 -0.0622
 2637SOL    HW119373   1.866   3.602   6.667  0.4990 -2.4615  0.5401
 2637SOL    HW219374   1.941   3.550   6.784  0.6112 -0.0654 -1.9221
 2638SOL     OW19375   3.102   2.146  10.775  0.1642  0.0411 -0.4584
 2638SOL    HW119376   3.036   2.114  10.713  0.5615 -1.2739 -0.2055
 2638SOL    HW219377   3.146   2.211  10.721  2.1696  0.0258  1.1891
 2639SOL     OW19378   3.794   0.554   0.239 -0.0442 -0.1895 -0.0506
 2639SOL    HW119379   3.820   0.463   0.253  0.8447  0.0220 -0.3174
 2639SOL    HW219380   3.706   0.549   0.276  0.2460 -1.0234  0.5309
 2640SOL     OW19381   3.556   0.188   3.258 -0.2146  0.8552 -0.1558
 2640SOL    HW119382   3.605   0.133   3.196 -0.4079 -1.6943  1.9590
 2640SOL    HW219383   3.494   0.219   3.192  0.0817  0.9547 -0.3908
 2641SOL     OW19384   4.038   3.820  15.799  0.9413  0.1002  0.1755
 2641SOL    HW119385   3.987   3.751  15.842  3.2977 -2.4215 -1.1361
 2641SOL    HW219386   4.044   3.877  15.877  1.0228  0.2888  0.0321
 2642SOL     OW19387   2.347   1.798   0.765  0.3131  0.6486  0.4785
 2642SOL    HW119388   2.427   1.851   0.773  2.0503 -1.9995  0.8350
 2642SOL    HW219389   2.280   1.865   0.773 -1.3031 -0.6687 -1.8541
 2643SOL     OW19390   3.389   3.193  13.010 -0.1653  0.1314  0.4178
 2643SOL    HW119391   3.376   3.098  13.013 -0.5225  0.1446 -0.7242
 2643SOL    HW219392   3.479   3.206  13.040  0.1076 -1.3367  0.2056
 2644SOL     OW19393   0.614   2.609   4.394  0.4574 -0.1127  0.5131
 2644SOL    HW119394   0.699   2.573   4.418  0.7757  0.8988  0.9393
 2644SOL    HW219395   0.640   2.698   4.419  2.3293 -0.3875 -0.4244
 2645SOL     OW19396   2.992   2.851   3.534 -0.6640 -0.4013 -0.5084
 2645SOL    HW119397   3.049   2.789   3.488  0.5834  1.1152 -1.0026
 2645SOL    HW219398   3.048   2.872   3.608 -1.3747 -1.0025  0.2076
 2646SOL     OW19399   1.830   0.501  10.779 -0.3079 -0.2495  0.0847
 2646SOL    HW119400   1.895   0.561  10.742  1.4477 -1.7865  0.6414
 2646SOL    HW219401   1.812   0.446  10.704  1.8370  0.8809 -1.2577
 2647SOL     OW19402   2.232   0.428  14.778 -0.0863 -0.1014  0.2670
 2647SOL    HW119403   2.288   0.504  14.795  0.1052 -0.1448 -0.1516
 2647SOL    HW219404   2.211   0.448  14.686 -0.1687  0.4292  0.4016
 2648SOL     OW19405   3.144   0.850   2.748 -0.5896  0.2301  0.5238
 2648SOL    HW119406   3.110   0.810   2.668 -1.2710  0.1640  0.8426
 2648SOL    HW219407   3.235   0.850   2.718 -0.6897  1.9903  0.2310
 2649SOL     OW19408   3.640   1.152  15.900 -0.0358 -0.0769  0.4049
 2649SOL    HW119409   3.698   1.148  15.824  0.0258  1.5396  0.3503
 2649SOL    HW219410   3.625   1.246  15.912  2.1213  0.5446 -1.8211
 2650SOL     OW19411   1.803   4.346  14.166 -0.3638  0.3359 -0.0649
 2650SOL    HW119412   1.755   4.269  14.197 -2.1969  1.2916 -0.5104
 2650SOL    HW219413   1.753   4.417  14.207  0.3981  0.9136 -0.1471
 2651SOL     OW19414   0.566   2.975   4.550  0.1102  0.3799 -0.1314
 2651SOL    HW119415   0.601   3.023   4.475 -2.4015 -1.2581 -2.3575
 2651SOL    HW219416   0.636   2.909   4.555  0.1811  0.5762  1.3782
 2652SOL     OW19417   0.851   2.465   4.411 -0.0815  0.0697  0.0641
 2652SOL    HW119418   0.901   2.502   4.484  0.9956  0.0916 -0.6943
 2652SOL    HW219419   0.919   2.490   4.349  0.0779 -1.9858 -0.6048
 2653SOL     OW19420   3.621   3.870   7.500 -0.2738  0.0967  0.5557
 2653SOL    HW119421   3.625   3.776   7.515 -1.2407 -0.3803 -2.2416
 2653SOL    HW219422   3.581   3.878   7.414  0.6412  2.2089  0.3037
 2654SOL     OW19423   3.974   3.625   2.386  0.0609  0.2815  0.2654
 2654SOL    HW119424   4.034   3.551   2.389  0.6267  0.6606 -1.4717
 2654SOL    HW219425   4.039   3.693   2.367  0.6745  0.3600  2.7231
 2655SOL     OW19426   3.827   3.645   6.896 -0.3790 -0.1049  0.0099
 2655SOL    HW119427   3.897   3.703   6.927  0.8813 -0.8828 -1.4110
 2655SOL    HW219428   3.835   3.568   6.952 -4.2524 -0.5371  0.0144
 2656SOL     OW19429   1.315   3.740   4.436 -0.1853 -0.2046  0.1946
 2656SOL    HW119430   1.254   3.700   4.373  1.0310  2.0983 -2.4643
 2656SOL    HW219431   1.397   3.692   4.426  0.0291  0.4995 -1.4366
 2657SOL     OW19432   4.414   0.384   3.567  0.3476  0.3491  0.3342
 2657SOL    HW119433   4.364   0.436   3.504 -0.0295 -2.2661 -1.5101
 2657SOL    HW219434   4.404   0.440   3.644 -1.5000  0.0503  0.3237
 2658SOL     OW19435   2.567   3.247   1.813  0.0843  0.1488  0.2019
 2658SOL    HW119436   2.606   3.269   1.728 -1.8760 -1.5450 -1.1346
 2658SOL    HW219437   2.497   3.311   1.821 -0.7201 -0.7020 -0.0472
 2659SOL     OW19438   1.734   0.678  12.958  0.0981 -0.1987 -0.0021
 2659SOL    HW119439   1.756   0.744  12.893  1.7437  0.1513  0.8990
 2659SOL    HW219440   1.744   0.600  12.903 -1.0157  0.1497 -0.6991
 2660SOL     OW19441   0.545   3.465   6.989  0.0986  0.5621  0.4827
 2660SOL    HW119442   0.628   3.418   6.994 -1.3345 -1.9757  0.5305
 2660SOL    HW219443   0.497   3.400   7.040  0.8782 -0.5215 -0.1685
 2661SOL     OW19444   3.327   4.082   8.106  0.1135 -0.3146 -0.1001
 2661SOL    HW119445   3.295   3.997   8.135 -1.6529  0.5815  0.5908
 2661SOL    HW219446   3.265   4.103   8.036 -0.4282  0.5836  0.6402
 2662SOL     OW19447   3.499   2.107   7.945  0.3491  0.0557  0.5975
 2662SOL    HW119448   3.444   2.071   7.875  0.0917  0.6964  0.4728
 2662SOL    HW219449   3.579   2.054   7.941  1.0168  1.1175  0.0146
 2663SOL     OW19450   4.385   3.351   3.605 -0.3735  0.1696 -0.7327
 2663SOL    HW119451   4.324   3.378   3.674  2.5980  2.0514  1.1468
 2663SOL    HW219452   4.363   3.408   3.531 -1.7134  1.3498  0.5670
 2664SOL     OW19453   1.099   2.590   8.723  0.2074 -0.3427 -0.7139
 2664SOL    HW119454   1.016   2.586   8.770  0.2786 -0.9512 -0.6329
 2664SOL    HW219455   1.077   2.644   8.647 -1.2348 -1.5200 -1.1249
 2665SOL     OW19456   3.717   3.970   5.418 -0.0215 -0.7784 -0.1487
 2665SOL    HW119457   3.652   4.022   5.467  0.5398  0.4108 -0.6752
 2665SOL    HW219458   3.762   3.938   5.497 -0.9779 -0.3507  0.5723
 2666SOL     OW19459   2.717   3.761   8.156 -0.0046 -0.1748  0.2546
 2666SOL    HW119460   2.698   3.681   8.204  0.9389 -0.9988 -0.7352
 2666SOL    HW219461   2.649   3.825   8.179  0.5592  0.3550  0.4571
 2667SOL     OW19462   4.209   0.232  13.375 -0.5555 -0.3462 -0.3619
 2667SOL    HW119463   4.193   0.208  13.466  2.7080  2.3178  0.8948
 2667SOL    HW219464   4.151   0.305  13.351 -1.8649 -0.8688  1.2076
 2668SOL     OW19465   3.510   0.604  16.912 -0.5495 -0.8289 -0.0665
 2668SOL    HW119466   3.561   0.679  16.882 -0.1311 -1.3758 -0.7466
 2668SOL    HW219467   3.544   0.606  17.001  2.5087 -4.0175 -1.1297
 2669SOL     OW19468   4.056   3.551   3.809  0.0882  0.1141 -0.4335
 2669SOL    HW119469   3.973   3.594   3.791 -0.2438 -0.7413 -0.9552
 2669SOL    HW219470   4.096   3.625   3.855  1.5396 -0.5162 -0.6643
 2670SOL     OW19471   3.760   3.229  16.254  0.4737 -0.0779 -0.4709
 2670SOL    HW119472   3.783   3.319  16.276  1.6380 -1.1092  2.5277
 2670SOL    HW219473   3.674   3.250  16.216  0.9729  0.6132 -1.1954
 2671SOL     OW19474   2.181   4.464  14.248 -0.5351  0.4917 -0.2225
 2671SOL    HW119475   2.159   4.507  14.331  1.2026  2.2733 -0.7019
 2671SOL    HW219476   2.256   4.411  14.274  0.1271  1.1260 -0.8405
 2672SOL     OW19477   2.745   0.595   5.989 -0.0291 -0.0325 -0.4775
 2672SOL    HW119478   2.831   0.589   5.948 -0.4831  0.6734 -1.5477
 2672SOL    HW219479   2.763   0.621   6.079 -0.6444 -0.9822 -0.0878
 2673SOL     OW19480   0.021   3.980   0.552  0.0400 -0.3966 -0.2203
 2673SOL    HW119481   4.705   3.955   0.639 -0.9848 -0.4586 -0.6311
 2673SOL    HW219482   4.653   4.006   0.518  0.0993  0.2493  0.1258
 2674SOL     OW19483   2.885   4.027   9.339  0.3194 -0.1231 -0.3713
 2674SOL    HW119484   2.829   4.098   9.372  0.4184 -0.5568  0.7292
 2674SOL    HW219485   2.822   3.956   9.333  0.7418 -0.5326  0.0638
 2675SOL     OW19486   2.684   1.078  11.561 -0.0182 -0.2961  0.5123
 2675SOL    HW119487   2.740   1.002  11.576 -1.3184 -1.3586  0.0023
 2675SOL    HW219488   2.642   1.058  11.477  1.2315 -0.2138 -0.1328
 2676SOL     OW19489   2.208   0.581   8.869  0.1971 -0.1828  0.1133
 2676SOL    HW119490   2.225   0.487   8.879 -0.0743 -0.1550  0.8533
 2676SOL    HW219491   2.294   0.617   8.851  0.2405 -0.9348 -1.1721
 2677SOL     OW19492   3.374   2.166  13.747  0.8538 -0.5100 -0.1565
 2677SOL    HW119493   3.436   2.094  13.763 -0.7319 -1.4720  1.6694
 2677SOL    HW219494   3.343   2.146  13.658  0.8225  1.2235 -0.5280
 2678SOL     OW19495   1.851   1.663  11.897  0.0577  0.2792  0.0984
 2678SOL    HW119496   1.908   1.735  11.921  1.0089 -0.7809  1.0339
 2678SOL    HW219497   1.888   1.586  11.941 -2.8340 -0.0456  1.9614
 2679SOL     OW19498   2.937   0.272   6.854  0.4233  0.2224  0.4400
 2679SOL    HW119499   2.881   0.323   6.796 -3.1254 -1.3143  2.5285
 2679SOL    HW219500   2.872   0.248   6.920 -1.7579  1.2954 -1.3107
 2680SOL     OW19501   0.538   0.404   9.183 -0.3450 -0.1238 -0.4216
 2680SOL    HW119502   0.531   0.359   9.267 -1.2676 -0.9168 -0.9263
 2680SOL    HW219503   0.615   0.361   9.145 -1.0512 -0.5398 -1.3894
 2681SOL     OW19504   0.618   1.944   0.840 -0.1343 -0.9162  0.1745
 2681SOL    HW119505   0.550   1.961   0.906 -1.0606  1.2010 -1.3159
 2681SOL    HW219506   0.607   1.858   0.801 -1.5176 -1.3034  1.4257
 2682SOL     OW19507   0.406   0.250   5.758  0.3451 -0.3412 -0.0216
 2682SOL    HW119508   0.384   0.284   5.844 -0.2584 -0.6167 -0.0658
 2682SOL    HW219509   0.358   0.304   5.695  1.1022  0.6918  0.2960
 2683SOL     OW19510   4.460   3.634  14.353 -0.1606  0.2386  0.3151
 2683SOL    HW119511   4.477   3.716  14.305  0.7637  0.1043  0.4192
 2683SOL    HW219512   4.470   3.652  14.446 -0.8793  1.0853  0.2310
 2684SOL     OW19513   2.893   1.783  14.733  0.8712  0.5667 -0.2355
 2684SOL    HW119514   2.897   1.690  14.753 -2.9603  0.4433 -0.0471
 2684SOL    HW219515   2.901   1.803  14.639 -0.3369 -2.0449 -0.8910
 2685SOL     OW19516   0.452   2.965   4.997 -0.3350  0.3747  0.0040
 2685SOL    HW119517   0.428   2.889   4.943  0.3579  0.6884 -0.7533
 2685SOL    HW219518   0.421   2.931   5.081 -1.8274  1.3401 -0.1542
 2686SOL     OW19519   4.553   2.984   3.652 -0.5378 -0.0441  0.3926
 2686SOL    HW119520   4.506   2.944   3.578  1.0113 -0.5197 -0.3301
 2686SOL    HW219521   4.479   3.035   3.684 -0.6889  0.5275 -0.8925
 2687SOL     OW19522   2.396   2.436   6.953 -0.0079  0.2452 -0.2063
 2687SOL    HW119523   2.438   2.470   6.874 -1.8527 -0.5088 -1.5180
 2687SOL    HW219524   2.445   2.354   6.954  0.6733  0.6531 -1.2133
 2688SOL     OW19525   3.580   0.686  11.952  0.4666 -0.1116 -0.2714
 2688SOL    HW119526   3.588   0.711  11.860  0.1931 -1.2041 -0.5825
 2688SOL    HW219527   3.645   0.739  12.000 -0.0156  1.7588 -1.6628
 2689SOL     OW19528   3.253   1.140  14.137 -0.2074  0.2376  0.0229
 2689SOL    HW119529   3.232   1.208  14.074  1.0759  1.2807  0.7144
 2689SOL    HW219530   3.316   1.084  14.090  0.4857  0.1235  1.0906
 2690SOL     OW19531   3.935   3.766   8.794 -0.4163  0.3363 -0.5032
 2690SOL    HW119532   3.855   3.752   8.744  0.9321  0.2614 -2.6199
 2690SOL    HW219533   3.965   3.850   8.761 -3.0383  0.8389 -1.6513
 2691SOL     OW19534   2.317   1.517   6.745  0.2626 -0.4969 -0.3044
 2691SOL    HW119535   2.400   1.514   6.698  0.5706  0.7897  0.1408
 2691SOL    HW219536   2.264   1.548   6.671 -0.8721 -1.2909  0.1698
 2692SOL     OW19537   4.192   2.427   5.809 -0.0448  0.1834  0.7462
 2692SOL    HW119538   4.189   2.507   5.861  1.7572  0.9098 -0.3078
 2692SOL    HW219539   4.181   2.353   5.870 -2.0622  1.4850  1.9769
 2693SOL     OW19540   4.193   2.832   8.658 -0.5400  0.3789  0.0722
 2693SOL    HW119541   4.217   2.915   8.619  1.2133 -0.3681 -0.4292
 2693SOL    HW219542   4.275   2.789   8.682 -0.7274 -1.6669 -3.0265
 2694SOL     OW19543   1.386   1.578   8.492  0.2523 -0.6285 -0.1080
 2694SOL    HW119544   1.394   1.526   8.572 -0.1743  0.0530  0.3757
 2694SOL    HW219545   1.318   1.636   8.526  0.1199  1.0897 -3.3065
 2695SOL     OW19546   2.781   4.114   7.217 -0.3519  0.4722 -0.3585
 2695SOL    HW119547   2.824   4.199   7.223 -1.4120  1.0416 -0.7750
 2695SOL    HW219548   2.760   4.098   7.309  3.5647 -2.5881  0.0154
 2696SOL     OW19549   0.840   0.643   9.513 -0.1806 -0.2757  0.2569
 2696SOL    HW119550   0.840   0.695   9.594  1.5974  1.1477 -0.6548
 2696SOL    HW219551   0.807   0.716   9.459 -1.2686 -0.1990  1.0210
 2697SOL     OW19552   3.415   3.662  12.710  0.3184  0.4165 -0.0841
 2697SOL    HW119553   3.321   3.652  12.693  0.0506  1.7741  0.5969
 2697SOL    HW219554   3.428   3.757  12.711  0.2133  0.4242  0.4539
 2698SOL     OW19555   0.021   0.547   5.766 -0.1821  0.5912  0.1938
 2698SOL    HW119556   0.001   0.532   5.674 -2.0164 -2.9794  1.1789
 2698SOL    HW219557   4.654   0.557   5.810 -0.8826 -0.2267 -0.9818
 2699SOL     OW19558   2.032   1.621   7.470 -0.2544  0.6059 -0.5603
 2699SOL    HW119559   1.945   1.594   7.500 -0.7109  0.3523 -2.1099
 2699SOL    HW219560   2.076   1.538   7.449 -1.9828 -0.4287 -0.1816
 2700SOL     OW19561   1.276   2.877   5.250 -0.2790 -0.1923 -0.0170
 2700SOL    HW119562   1.334   2.813   5.290  0.7911  1.5841  1.2397
 2700SOL    HW219563   1.199   2.873   5.307  1.3929  0.8608  2.3126
 2701SOL     OW19564   1.145   0.763   8.189  0.6411  0.3006  0.1883
 2701SOL    HW119565   1.213   0.698   8.208  0.2636  0.2610  1.3943
 2701SOL    HW219566   1.068   0.713   8.215  1.8894 -0.5611  2.2238
 2702SOL     OW19567   3.340   4.111  14.165  0.0279  0.3005  0.1226
 2702SOL    HW119568   3.342   4.031  14.218 -0.7769 -1.1900 -2.1056
 2702SOL    HW219569   3.420   4.152  14.198  0.4584  1.0318 -1.8664
 2703SOL     OW19570   0.094   3.276  12.279 -0.0094 -0.7192 -0.1685
 2703SOL    HW119571   0.176   3.246  12.318  0.2706 -2.0474 -1.7749
 2703SOL    HW219572   0.035   3.246  12.348 -0.3274 -0.2313 -0.2240
 2704SOL     OW19573   0.079   3.404   4.716 -0.3793 -0.6422 -0.0533
 2704SOL    HW119574   0.150   3.364   4.667 -1.3182  0.2411 -2.1664
 2704SOL    HW219575   0.112   3.394   4.805  0.7686  1.2044 -0.2467
 2705SOL     OW19576   0.719   2.272  16.961  0.3890  0.5108  0.1621
 2705SOL    HW119577   0.678   2.347  17.005 -0.6026 -0.1350  0.3369
 2705SOL    HW219578   0.656   2.263  16.890 -0.4688  0.2117  0.9522
 2706SOL     OW19579   3.737   1.592   2.757  1.0453 -0.0066  0.3968
 2706SOL    HW119580   3.647   1.623   2.746  0.4589 -1.0749  2.2856
 2706SOL    HW219581   3.781   1.653   2.698 -1.4885  1.0635 -0.3848
 2707SOL     OW19582   0.415   0.726  10.145 -0.3690  0.3556  0.2251
 2707SOL    HW119583   0.509   0.723  10.126 -0.6384 -2.2694 -0.5849
 2707SOL    HW219584   0.420   0.793  10.213 -2.9689  0.0681  0.6737
 2708SOL     OW19585   1.261   0.185   5.087 -0.2477 -0.3788 -0.0609
 2708SOL    HW119586   1.352   0.176   5.115 -0.4463 -2.2647  0.0057
 2708SOL    HW219587   1.282   0.229   5.005  0.2374 -1.5018 -0.5348
 2709SOL     OW19588   0.855   3.488   4.081 -0.1561 -0.3942  0.2535
 2709SOL    HW119589   0.898   3.412   4.041  3.1643  1.1009  0.9129
 2709SOL    HW219590   0.812   3.535   4.010 -1.9005 -0.0083  1.5722
 2710SOL     OW19591   4.330   2.969   8.932 -0.0283 -0.2140  0.2348
 2710SOL    HW119592   4.355   2.886   8.973 -0.9200  0.0261  1.2782
 2710SOL    HW219593   4.279   2.936   8.858 -0.2519 -0.1029  0.3396
 2711SOL     OW19594   4.333   0.403   5.429 -0.0019  0.0522  0.1314
 2711SOL    HW119595   4.321   0.364   5.342 -1.5306 -0.7715  0.7065
 2711SOL    HW219596   4.258   0.359   5.468  0.6306 -1.0596  0.0991
 2712SOL     OW19597   0.773   4.076   2.314 -0.1500 -0.5633 -0.2409
 2712SOL    HW119598   0.760   4.138   2.386 -0.1180  0.2940 -0.9650
 2712SOL    HW219599   0.844   4.113   2.261 -0.0823  1.2153  1.0852
 2713SOL     OW19600   3.714   2.221  10.359  0.9166  0.8634 -0.3760
 2713SOL    HW119601   3.755   2.239  10.274 -1.1525 -0.5431 -1.6713
 2713SOL    HW219602   3.620   2.224  10.340  0.6214  1.2378  1.1926
 2714SOL     OW19603   4.088   1.990   6.969 -0.1732  0.0811  0.4773
 2714SOL    HW119604   4.021   1.958   7.029 -0.9034 -0.7048 -0.7521
 2714SOL    HW219605   4.122   2.066   7.016 -0.6434  0.3254  0.4256
 2715SOL     OW19606   0.391   0.039   4.694  0.1783 -0.1575 -0.5738
 2715SOL    HW119607   0.377   0.071   4.783  0.7143  2.2441 -1.3526
 2715SOL    HW219608   0.474   0.081   4.672  0.6632 -0.7272  0.1688
 2716SOL     OW19609   1.236   3.988   2.625 -0.1862 -0.0284  0.0942
 2716SOL    HW119610   1.331   3.979   2.617 -0.4773 -1.0163 -2.5793
 2716SOL    HW219611   1.210   3.945   2.543  0.9672  1.2686 -0.9435
 2717SOL     OW19612   3.866   1.608   6.827  0.6001  0.4575  0.4903
 2717SOL    HW119613   3.942   1.666   6.828  0.1427  1.0955 -0.6993
 2717SOL    HW219614   3.844   1.601   6.920  0.5514  0.3466  0.4712
 2718SOL     OW19615   4.257   4.302   2.464  0.1881  0.3810  0.7802
 2718SOL    HW119616   4.260   4.250   2.545  0.5479 -3.3866 -1.6493
 2718SOL    HW219617   4.179   4.272   2.418  0.0097 -0.3469  1.5649
 2719SOL     OW19618   3.878   2.819  17.576 -0.0241 -0.1110  0.6432
 2719SOL    HW119619   3.952   2.765  17.604 -1.1972  0.2203  4.3372
 2719SOL    HW219620   3.838   2.758  17.514 -0.6320  0.6570  0.2891
 2720SOL     OW19621   3.711   2.815   9.258  0.0875  0.0374 -0.6611
 2720SOL    HW119622   3.790   2.868   9.262 -0.4676  0.6647  2.0036
 2720SOL    HW219623   3.751   2.733   9.289 -1.6873 -1.2848 -1.8558
 2721SOL     OW19624   2.312   0.196   4.305  0.3382  0.0799 -0.0099
 2721SOL    HW119625   2.304   0.215   4.399 -0.0344  1.4769 -0.3186
 2721SOL    HW219626   2.349   0.108   4.310  0.1521 -0.0885 -1.5351
 2722SOL     OW19627   0.662   2.352   3.672  0.1349  0.6402  0.2298
 2722SOL    HW119628   0.698   2.284   3.728  0.8149  0.9632  0.1903
 2722SOL    HW219629   0.567   2.337   3.667  0.5862 -1.0118 -3.3366
 2723SOL     OW19630   4.319   1.423   0.904 -0.0371 -0.0287  0.3247
 2723SOL    HW119631   4.332   1.419   0.998 -1.6430 -0.2350  0.5493
 2723SOL    HW219632   4.314   1.518   0.891  1.7374 -0.1570 -1.2751
 2724SOL     OW19633   3.543   3.897   8.157 -0.0640 -0.2765  0.4713
 2724SOL    HW119634   3.518   3.857   8.241  0.4252  0.1964  0.8392
 2724SOL    HW219635   3.492   3.978   8.159  0.4244  0.0599 -0.9796
 2725SOL     OW19636   3.342   0.397   5.489  0.7738 -0.1679 -0.5953
 2725SOL    HW119637   3.261   0.395   5.438  0.5758  0.3858 -0.3034
 2725SOL    HW219638   3.415   0.398   5.427 -0.9467 -1.2483 -2.6634
 2726SOL     OW19639   3.058   3.169   2.928  0.7143  0.0816  0.2227
 2726SOL    HW119640   3.116   3.232   2.886  0.7248 -1.3221 -1.8659
 2726SOL    HW219641   3.038   3.103   2.862 -1.5521 -0.6210  1.5873
 2727SOL     OW19642   3.602   0.742   7.347 -0.4639 -0.2156  0.3843
 2727SOL    HW119643   3.515   0.773   7.319  1.4590  1.1122 -4.2863
 2727SOL    HW219644   3.654   0.717   7.270 -0.6993 -1.1823  0.5431
 2728SOL     OW19645   1.160   3.445  15.621 -0.3564  0.2198 -0.3306
 2728SOL    HW119646   1.162   3.529  15.668  1.6755  0.1676 -0.3348
 2728SOL    HW219647   1.066   3.447  15.600 -0.1842  0.3866 -1.0770
 2729SOL     OW19648   3.447   0.628  11.141  0.4497 -0.3561 -0.2057
 2729SOL    HW119649   3.401   0.711  11.148 -1.0419 -1.3550  1.5994
 2729SOL    HW219650   3.444   0.604  11.048 -1.0025  2.7145 -0.9563
 2730SOL     OW19651   0.104   0.065   4.342 -0.3864  0.1813 -0.1460
 2730SOL    HW119652   0.106   0.088   4.249  0.8200  1.9118  0.3024
 2730SOL    HW219653   0.083   4.690   4.343  0.4190 -0.0357 -2.4621
 2731SOL     OW19654   0.892   0.199   2.792  0.0949 -0.1322 -0.0064
 2731SOL    HW119655   0.874   0.152   2.873 -0.3696  1.4986  0.8230
 2731SOL    HW219656   0.855   0.284   2.815  0.4527  0.3629 -1.2346
 2732SOL     OW19657   1.121   3.138  17.456 -0.0622  0.3417  0.2019
 2732SOL    HW119658   1.143   3.227  17.483  1.7722 -0.4998  1.5546
 2732SOL    HW219659   1.161   3.141  17.369  0.3971  1.6855  0.4651
 2733SOL     OW19660   2.245   1.579  14.016 -0.4534  0.0761  0.9016
 2733SOL    HW119661   2.264   1.537  14.100 -0.0730 -0.0594  0.7495
 2733SOL    HW219662   2.317   1.542  13.965  0.0100  0.3880  1.3327
 2734SOL     OW19663   1.826   0.908  10.750 -0.4679  0.0962  0.1628
 2734SOL    HW119664   1.786   0.992  10.775 -0.7355 -0.0994  0.3838
 2734SOL    HW219665   1.750   0.861  10.715 -1.0580  0.0434  1.5251
 2735SOL     OW19666   0.578   3.357   6.639  0.0919  0.3173 -0.1500
 2735SOL    HW119667   0.664   3.361   6.682 -1.4309 -0.1547  2.9665
 2735SOL    HW219668   0.568   3.450   6.620  0.3058  0.3999  0.1257
 2736SOL     OW19669   3.107   3.710  11.123 -0.0435  0.2137 -0.2084
 2736SOL    HW119670   3.090   3.805  11.123  0.6396  0.3313 -2.3151
 2736SOL    HW219671   3.187   3.716  11.071  0.3311  2.0677  0.5447
 2737SOL     OW19672   2.351   1.107   2.093 -0.0755  0.6150  0.2253
 2737SOL    HW119673   2.336   1.074   2.004 -0.0916 -2.1300  1.2265
 2737SOL    HW219674   2.341   1.028   2.147 -0.0317 -1.6862 -3.1636
 2738SOL     OW19675   2.854   3.194  11.675 -0.0280 -0.1912  0.1706
 2738SOL    HW119676   2.882   3.277  11.636  1.5598  0.0469  1.7908
 2738SOL    HW219677   2.841   3.224  11.765 -0.5976  1.3796 -0.4351
 2739SOL     OW19678   3.304   0.779  11.911  0.1177 -0.2763 -0.3562
 2739SOL    HW119679   3.282   0.739  11.826  2.0507 -0.5336 -0.7334
 2739SOL    HW219680   3.388   0.741  11.938  0.0170 -0.5953 -0.4861
 2740SOL     OW19681   3.907   3.720   6.444 -0.7084 -0.3434  0.0178
 2740SOL    HW119682   3.941   3.660   6.510  0.2492 -1.1594 -1.2337
 2740SOL    HW219683   3.836   3.768   6.487  0.6450  1.7615 -0.0780
 2741SOL     OW19684   2.092   2.221   6.912 -0.3809  0.6472 -0.2415
 2741SOL    HW119685   2.161   2.167   6.873  0.4104  0.8983  0.8109
 2741SOL    HW219686   2.078   2.275   6.834 -0.8193  0.2513 -0.4340
 2742SOL     OW19687   3.246   3.908   9.806 -0.0117  0.2131  0.1833
 2742SOL    HW119688   3.166   3.953   9.782 -0.0815  0.3631  0.6888
 2742SOL    HW219689   3.213   3.858   9.881  2.0433 -0.0151  0.9455
 2743SOL     OW19690   1.871   3.852   5.384  0.2794  0.6000  0.4438
 2743SOL    HW119691   1.900   3.926   5.330 -0.2827  0.7744  0.3818
 2743SOL    HW219692   1.931   3.785   5.349 -0.9030  1.2713 -2.8743
 2744SOL     OW19693   3.405   2.489   7.418 -0.0408 -0.0326  0.4266
 2744SOL    HW119694   3.471   2.547   7.455 -0.6152  0.2242  1.0383
 2744SOL    HW219695   3.343   2.500   7.490 -1.4740  0.6420 -0.9024
 2745SOL     OW19696   4.099   0.776  10.710 -0.4009  0.0442 -0.3795
 2745SOL    HW119697   4.134   0.717  10.777 -2.2477 -0.9124 -0.2678
 2745SOL    HW219698   4.114   0.861  10.751 -0.6626 -0.5561  0.9528
 2746SOL     OW19699   4.174   3.973  16.437  0.8033  0.1202  0.0710
 2746SOL    HW119700   4.252   3.937  16.395  0.8403  0.1593  0.1057
 2746SOL    HW219701   4.193   3.960  16.530  0.4472  1.0402  0.2741
 2747SOL     OW19702   2.470   2.242   4.380 -0.1458  0.2323  0.1350
 2747SOL    HW119703   2.376   2.229   4.393  0.2317 -2.5013  0.0825
 2747SOL    HW219704   2.480   2.235   4.285 -1.2428 -1.9891  0.1787
 2748SOL     OW19705   2.749   1.996   8.094 -0.1027  0.1088  0.2788
 2748SOL    HW119706   2.692   2.051   8.148  2.0366 -0.0047  2.6830
 2748SOL    HW219707   2.761   2.031   8.006  1.9279 -0.4990  0.3223
 2749SOL     OW19708   3.805   4.423   1.082 -1.0977  0.0897 -0.0789
 2749SOL    HW119709   3.807   4.429   0.986  2.0478  0.4488  0.0008
 2749SOL    HW219710   3.899   4.431   1.095 -1.2193 -0.3315  1.0801
 2750SOL     OW19711   0.437   3.158  15.764 -0.0431 -1.2931 -0.0221
 2750SOL    HW119712   0.398   3.162  15.676  0.5755 -0.6832 -0.2765
 2750SOL    HW219713   0.527   3.189  15.749  0.1131 -1.7195  0.0438
 2751SOL     OW19714   1.105   2.966   8.256 -0.2478  0.0966 -0.2800
 2751SOL    HW119715   1.132   2.904   8.189  0.9809  0.1264  0.1785
 2751SOL    HW219716   1.013   2.942   8.262 -0.5077  1.0454 -0.5985
 2752SOL     OW19717   0.612   2.141   4.876 -0.1211 -0.2756  0.2061
 2752SOL    HW119718   0.658   2.223   4.860 -0.1808 -0.4476 -0.8410
 2752SOL    HW219719   0.688   2.084   4.867 -2.5415 -3.3965 -0.5279
 2753SOL     OW19720   0.775   1.328   2.378  0.5090  0.4514 -0.0596
 2753SOL    HW119721   0.816   1.356   2.297  1.3222 -0.1307  0.1538
 2753SOL    HW219722   0.711   1.272   2.335  1.7298  0.3287 -1.7056
 2754SOL     OW19723   1.918   3.382  10.501  0.2799  0.5576 -0.0304
 2754SOL    HW119724   1.832   3.381  10.458  0.5504  1.3559 -0.5919
 2754SOL    HW219725   1.894   3.336  10.582  0.3711 -2.1951 -1.5668
 2755SOL     OW19726   1.916   4.606   2.546  0.0142  0.0551 -0.0239
 2755SOL    HW119727   1.880   4.648   2.467 -1.2791  1.5042  1.3390
 2755SOL    HW219728   1.966   4.680   2.582  0.3242  0.0008 -0.3350
 2756SOL     OW19729   0.224   3.403  10.288  0.4943 -0.0529 -0.1933
 2756SOL    HW119730   0.144   3.355  10.265 -0.6456  1.7106  0.1645
 2756SOL    HW219731   0.201   3.465  10.357 -0.3079  0.7625 -1.2009
 2757SOL     OW19732   0.554   4.100   5.407  1.0650 -0.0586 -0.1815
 2757SOL    HW119733   0.527   4.079   5.318 -0.2150  0.3160  0.1171
 2757SOL    HW219734   0.649   4.100   5.398  0.9151 -0.7593 -1.5847
 2758SOL     OW19735   3.537   0.777   6.107 -0.2425  0.2445  0.3375
 2758SOL    HW119736   3.498   0.749   6.190 -0.7548 -2.7948 -0.9491
 2758SOL    HW219737   3.604   0.844   6.127 -1.2669  1.4419 -0.2259
 2759SOL     OW19738   4.141   1.732  10.703 -0.3908  0.0572 -0.0715
 2759SOL    HW119739   4.189   1.795  10.757  1.9971 -1.0995 -0.8182
 2759SOL    HW219740   4.117   1.794  10.634  2.2516  1.6179  0.3899
 2760SOL     OW19741   0.283   2.960   7.669 -0.1166 -0.2957 -0.2154
 2760SOL    HW119742   0.322   3.041   7.703 -2.2484  0.8058 -0.3952
 2760SOL    HW219743   0.332   2.937   7.590  1.3344 -0.2222  0.6655
 2761SOL     OW19744   0.414   4.703   2.371  0.2386  0.2742  0.0503
 2761SOL    HW119745   0.501   4.707   2.331 -0.7021 -1.3667 -2.1604
 2761SOL    HW219746   0.443   4.697   2.462  1.1145 -2.3226 -0.4001
 2762SOL     OW19747   4.485   3.542   4.265  0.0419  0.1140 -0.5764
 2762SOL    HW119748   4.535   3.473   4.310 -0.6515  1.3434  2.0774
 2762SOL    HW219749   4.521   3.618   4.311  0.1895 -0.6914  0.6475
 2763SOL     OW19750   3.736   0.131   8.229 -0.3708  0.3879 -0.0557
 2763SOL    HW119751   3.753   0.213   8.275 -0.5068  0.0522  0.5947
 2763SOL    HW219752   3.744   0.149   8.135  0.0647  0.0311 -0.0878
 2764SOL     OW19753   4.080   0.001   5.782  0.8226 -0.1478 -0.1731
 2764SOL    HW119754   4.021   4.665   5.730  2.0481 -0.0642 -1.6416
 2764SOL    HW219755   4.034   0.014   5.865  0.9835 -1.3732  0.0995
 2765SOL     OW19756   4.116   3.001   5.115 -0.0667  0.0828  0.5664
 2765SOL    HW119757   4.144   3.086   5.151  0.7373 -1.3668  3.3489
 2765SOL    HW219758   4.061   2.961   5.182 -0.3906 -0.8403 -0.2532
 2766SOL     OW19759   0.811   3.820   2.217  0.3869  0.4158  0.5570
 2766SOL    HW119760   0.795   3.908   2.250  0.5761  0.8760 -0.5867
 2766SOL    HW219761   0.724   3.793   2.188  0.4616 -0.0748  0.7805
 2767SOL     OW19762   2.842   0.577   3.289  0.2411 -0.1180  0.1968
 2767SOL    HW119763   2.813   0.635   3.218  0.0871  1.9715  1.9574
 2767SOL    HW219764   2.927   0.540   3.265 -0.6368 -0.8813 -1.7440
 2768SOL     OW19765   1.423   4.047  17.404 -0.9833  0.4267 -0.7290
 2768SOL    HW119766   1.514   4.022  17.419 -1.3878 -0.1722  0.7812
 2768SOL    HW219767   1.426   4.141  17.422 -0.2002 -0.0275  1.5802
 2769SOL     OW19768   1.339   1.168   5.471 -0.7982 -0.1989  0.6140
 2769SOL    HW119769   1.303   1.204   5.390 -0.2721  1.6767  1.2016
 2769SOL    HW219770   1.276   1.096   5.478 -0.1375 -0.8495 -0.0261
 2770SOL     OW19771   1.551   1.381  13.307 -0.4090 -0.1451 -0.4893
 2770SOL    HW119772   1.549   1.303  13.362 -0.0104 -0.8427 -1.4629
 2770SOL    HW219773   1.480   1.348  13.251 -1.4514 -0.1000  0.8004
 2771SOL     OW19774   2.394   3.502   4.388  0.1028  0.0654  0.4310
 2771SOL    HW119775   2.456   3.432   4.364 -1.1190 -0.9085  0.0873
 2771SOL    HW219776   2.455   3.575   4.391 -0.1455  0.1881  2.6516
 2772SOL     OW19777   2.498   3.950   8.188 -0.2396  0.2798  0.3453
 2772SOL    HW119778   2.459   3.960   8.101  0.1679  0.5598  0.1938
 2772SOL    HW219779   2.419   3.944   8.242  0.6631 -1.9988  1.3713
 2773SOL     OW19780   3.137   4.405   3.100  0.6075 -0.4928 -0.6029
 2773SOL    HW119781   3.184   4.464   3.160 -0.4430  1.2981 -1.5579
 2773SOL    HW219782   3.148   4.323   3.149  0.2040  0.4071  0.9982
 2774SOL     OW19783   3.039   3.408  12.554 -0.2525  0.0435 -0.3268
 2774SOL    HW119784   2.988   3.402  12.634  0.1118  2.0116  0.0516
 2774SOL    HW219785   3.016   3.494  12.520 -0.2273 -0.3295 -1.3024
 2775SOL     OW19786   2.445   3.893   7.129 -0.2133  0.5530 -0.0114
 2775SOL    HW119787   2.507   3.849   7.070 -0.2449  1.1918 -0.5233
 2775SOL    HW219788   2.368   3.860   7.083 -1.6477 -0.6759  3.2694
 2776SOL     OW19789   3.096   1.952  12.067 -0.0080  0.0789 -0.0343
 2776SOL    HW119790   3.033   2.001  12.014 -2.5370  0.7537  3.5718
 2776SOL    HW219791   3.047   1.870  12.060 -0.9322  0.4978  1.6765
 2777SOL     OW19792   3.355   1.281   4.834 -0.7164  0.1051  0.0400
 2777SOL    HW119793   3.362   1.367   4.875 -0.4689  0.1244 -0.0434
 2777SOL    HW219794   3.261   1.284   4.816 -0.4318 -1.4197 -1.6916
 2778SOL     OW19795   2.395   1.901  16.907  0.0100 -0.0854 -0.3337
 2778SOL    HW119796   2.387   1.818  16.953 -3.8461  1.4620  1.7889
 2778SOL    HW219797   2.476   1.870  16.867 -0.3465 -2.6154  0.9010
 2779SOL     OW19798   0.051   2.487   0.564 -0.3412 -0.2078 -0.2054
 2779SOL    HW119799   0.089   2.575   0.577  1.0939 -1.0336  1.1971
 2779SOL    HW219800   4.711   2.518   0.495  2.5037  1.8948 -1.6551
 2780SOL     OW19801   2.273   1.007   1.843 -0.1279  0.2486  0.5893
 2780SOL    HW119802   2.219   0.928   1.842 -0.6955  0.6379  0.4030
 2780SOL    HW219803   2.200   1.067   1.834  0.2658  0.4688 -1.0638
 2781SOL     OW19804   4.269   1.225   9.222 -0.2182  0.4961 -0.2557
 2781SOL    HW119805   4.302   1.138   9.245 -0.9869  0.0474 -0.8506
 2781SOL    HW219806   4.174   1.216   9.215  0.0191 -0.4399 -2.3886
 2782SOL     OW19807   3.269   1.340   9.079 -0.0906 -0.3959  0.2338
 2782SOL    HW119808   3.255   1.269   9.142  2.5447 -1.3895 -0.2727
 2782SOL    HW219809   3.353   1.365   9.116  0.5182  0.4394 -1.6963
 2783SOL     OW19810   0.770   4.634   6.731 -0.2218  0.3366  0.1009
 2783SOL    HW119811   0.832   4.639   6.658 -0.6140  1.2812 -0.1713
 2783SOL    HW219812   0.821   4.636   6.811 -1.5241 -1.5274  0.9933
 2784SOL     OW19813   3.739   3.482  16.357  0.0240 -0.6064  0.0494
 2784SOL    HW119814   3.647   3.507  16.360  0.2868  0.4344 -0.3073
 2784SOL    HW219815   3.779   3.569  16.361  0.9034 -0.9963 -0.1249
 2785SOL     OW19816   4.313   1.783   7.055 -0.6320  0.0697  0.0576
 2785SOL    HW119817   4.230   1.828   7.042  0.1673  0.9972 -1.8594
 2785SOL    HW219818   4.362   1.865   7.047 -1.3369  0.5901  1.0924
 2786SOL     OW19819   1.238   2.354   8.243 -0.0395 -0.4727  0.1295
 2786SOL    HW119820   1.300   2.330   8.312 -0.7493 -0.6217  0.7197
 2786SOL    HW219821   1.205   2.268   8.215  0.7083 -0.3876 -1.0143
 2787SOL     OW19822   2.067   0.640   4.158  0.1580 -0.3141  0.4661
 2787SOL    HW119823   2.083   0.546   4.170  2.2117  0.2403  2.0465
 2787SOL    HW219824   2.125   0.682   4.221  2.0139  0.3172 -1.6937
 2788SOL     OW19825   0.341   2.350  13.659  0.1712 -0.5274  0.2189
 2788SOL    HW119826   0.350   2.259  13.634 -0.4423 -0.3996 -0.4573
 2788SOL    HW219827   0.324   2.335  13.752 -1.3957  0.9902  0.1729
 2789SOL     OW19828   1.718   4.603   4.490 -0.6958  0.1332  0.0229
 2789SOL    HW119829   1.770   4.558   4.557 -0.8060 -2.1013 -1.4054
 2789SOL    HW219830   1.784   4.662   4.453 -0.4366 -1.0047 -1.3506
 2790SOL     OW19831   3.226   2.495   4.585 -0.3292 -0.2821 -0.3671
 2790SOL    HW119832   3.139   2.535   4.588 -0.1852  0.0361 -0.3802
 2790SOL    HW219833   3.276   2.542   4.652  0.1435 -0.1802 -0.7867
 2791SOL     OW19834   0.873   0.968   1.742 -0.4413 -0.1923  0.2990
 2791SOL    HW119835   0.935   1.038   1.721 -1.1618  0.7401  1.3331
 2791SOL    HW219836   0.887   0.971   1.836 -1.2918 -1.5692  0.4688
 2792SOL     OW19837   4.712   2.534   6.735  0.2281 -0.1760 -0.8723
 2792SOL    HW119838   4.664   2.452   6.727 -1.4517  0.6088  1.1874
 2792SOL    HW219839   4.711   2.570   6.646 -0.1727 -1.9504 -1.5748
 2793SOL     OW19840   1.981   3.122   2.042  0.4338 -0.5096 -0.7284
 2793SOL    HW119841   1.943   3.049   1.993  1.8859 -0.3411 -2.1100
 2793SOL    HW219842   2.073   3.127   2.016  0.9625 -0.5114  1.2041
 2794SOL     OW19843   2.227   0.770   4.340  0.3950  0.3848 -0.8160
 2794SOL    HW119844   2.302   0.824   4.366  1.0910 -1.1824  0.4702
 2794SOL    HW219845   2.165   0.803   4.404  0.1724 -0.5311 -0.5533
 2795SOL     OW19846   0.178   1.934   0.533  0.5786 -0.3863  0.5587
 2795SOL    HW119847   0.273   1.943   0.525  0.7833 -1.3162  2.0321
 2795SOL    HW219848   0.154   2.026   0.545 -1.0596 -0.7579  0.2007
 2796SOL     OW19849   0.354   4.173   4.838 -0.0794  0.7636  0.0576
 2796SOL    HW119850   0.302   4.099   4.805  0.0068  0.1078  1.4055
 2796SOL    HW219851   0.298   4.205   4.908  0.2845  3.1590 -0.7314
 2797SOL     OW19852   3.338   3.265  16.075 -0.2515 -0.4419  0.1076
 2797SOL    HW119853   3.418   3.317  16.086  0.3091 -1.1066 -0.7816
 2797SOL    HW219854   3.358   3.214  15.996 -0.6053 -2.1788  1.1530
 2798SOL     OW19855   1.516   4.046   2.119 -0.2239  0.1536  0.3351
 2798SOL    HW119856   1.519   4.130   2.074 -1.7189  0.0552  0.0607
 2798SOL    HW219857   1.563   3.987   2.060 -0.0976  0.7419 -0.1523
 2799SOL     OW19858   1.371   1.066  11.504 -0.2429 -0.0084 -0.2273
 2799SOL    HW119859   1.454   1.019  11.505 -1.4267 -2.1010  0.1680
 2799SOL    HW219860   1.401   1.157  11.506  1.0541 -0.4779  1.1379
 2800SOL     OW19861   1.530   2.016   5.411 -0.2733 -0.3025  0.2601
 2800SOL    HW119862   1.555   2.086   5.351 -0.9656 -2.0851 -2.1161
 2800SOL    HW219863   1.547   1.943   5.351  2.2054 -1.0854  1.9456
 2801SOL     OW19864   0.935   2.212   8.635  0.4363  0.0329 -0.2372
 2801SOL    HW119865   0.888   2.200   8.718  1.2194  0.4870  0.2715
 2801SOL    HW219866   1.021   2.226   8.676  0.4869  1.3965 -0.7948
 2802SOL     OW19867   0.996   0.777   8.472  0.1787 -0.0375  0.0957
 2802SOL    HW119868   0.941   0.842   8.515  0.1434  1.3000 -1.9700
 2802SOL    HW219869   1.064   0.831   8.433  0.8182 -0.5969  0.4532
 2803SOL     OW19870   3.417   3.396  13.574 -0.6113 -0.2747 -0.0618
 2803SOL    HW119871   3.361   3.465  13.540 -0.8971 -0.0493  0.8726
 2803SOL    HW219872   3.361   3.332  13.618  1.0993 -3.4932 -2.5736
 2804SOL     OW19873   4.135   2.760   2.227  0.1684  0.2925  0.1292
 2804SOL    HW119874   4.073   2.709   2.279  0.4585  1.0706  1.2475
 2804SOL    HW219875   4.126   2.723   2.139 -0.9148  2.5092 -0.6820
 2805SOL     OW19876   4.190   0.570   5.830 -0.2900  0.3237 -0.0662
 2805SOL    HW119877   4.227   0.505   5.771 -0.9378  0.5675 -0.7515
 2805SOL    HW219878   4.095   0.557   5.832 -0.1828 -0.2222  1.6796
 2806SOL     OW19879   0.502   2.032   4.637 -0.2262 -0.2268  0.0276
 2806SOL    HW119880   0.529   2.048   4.727  3.0805  0.0625 -1.0129
 2806SOL    HW219881   0.408   2.052   4.633 -0.9390 -3.6537 -0.7712
 2807SOL     OW19882   2.546   3.031  17.555 -0.1246 -0.3511  0.0199
 2807SOL    HW119883   2.543   2.937  17.569 -0.5266 -0.3093  0.1903
 2807SOL    HW219884   2.551   3.068  17.643 -2.2373 -2.3152  0.9571
 2808SOL     OW19885   3.052   2.973  12.196 -0.3712 -0.2010  0.2237
 2808SOL    HW119886   3.050   3.033  12.271  2.7406 -1.2681  1.1615
 2808SOL    HW219887   3.123   3.006  12.141  0.6301 -2.5554  0.0715
 2809SOL     OW19888   4.523   4.411   5.656  0.6472 -0.0943 -0.1385
 2809SOL    HW119889   4.509   4.485   5.597 -1.8712 -2.3199 -2.3894
 2809SOL    HW219890   4.554   4.463   5.730 -2.3679 -0.4080  1.3546
 2810SOL     OW19891   0.092   0.795  16.836 -0.1523  0.1335  0.6979
 2810SOL    HW119892   0.103   0.701  16.824 -3.0694  0.2587 -3.2020
 2810SOL    HW219893   0.176   0.830  16.806 -0.1147 -0.9080 -0.4271
 2811SOL     OW19894   1.539   4.581   8.566  0.2913 -0.5510  0.2472
 2811SOL    HW119895   1.501   4.554   8.649 -0.6076  0.9361  0.3176
 2811SOL    HW219896   1.631   4.601   8.584  0.4797 -0.9528 -0.2690
 2812SOL     OW19897   0.013   1.637   1.825  0.2539 -0.7235  0.0461
 2812SOL    HW119898   0.007   1.643   1.921  0.4826  0.0825  0.0120
 2812SOL    HW219899   0.058   1.717   1.795  0.6014 -0.0624  2.2705
 2813SOL     OW19900   3.450   0.365  16.806  0.0864  0.3192 -0.1705
 2813SOL    HW119901   3.454   0.349  16.900  0.9237 -3.5237 -0.8864
 2813SOL    HW219902   3.480   0.456  16.807 -1.5008  0.8215  0.3866
 2814SOL     OW19903   3.497   1.094   3.447 -0.3076 -0.0957  0.0114
 2814SOL    HW119904   3.539   1.129   3.526 -1.3973  0.2968  0.4153
 2814SOL    HW219905   3.513   1.163   3.383  1.5999  1.4926  2.1807
 2815SOL     OW19906   4.252   1.302   7.792  0.4162  0.6375  0.2783
 2815SOL    HW119907   4.280   1.309   7.701 -0.3323  0.8694  0.0657
 2815SOL    HW219908   4.160   1.276   7.784  0.1614  1.8864 -0.8365
 2816SOL     OW19909   0.953   2.712   5.037 -0.1364 -0.2316  0.1249
 2816SOL    HW119910   0.905   2.761   5.103  0.7450 -2.4486  2.3810
 2816SOL    HW219911   1.007   2.657   5.094  0.8004  0.0330 -0.5055
 2817SOL     OW19912   1.528   1.404   0.560 -0.1188 -0.2623  0.0526
 2817SOL    HW119913   1.445   1.432   0.522 -0.4315 -1.4597 -0.1265
 2817SOL    HW219914   1.525   1.310   0.545  2.7939 -0.4967  0.9446
 2818SOL     OW19915   3.421   0.936   5.176  0.7673  0.0567 -0.8961
 2818SOL    HW119916   3.413   1.028   5.203 -2.4764  0.0678 -1.9165
 2818SOL    HW219917   3.330   0.910   5.165  0.3409  0.4705  1.6449
 2819SOL     OW19918   4.186   2.972   1.583  0.4737 -0.5507 -0.3695
 2819SOL    HW119919   4.275   2.968   1.548  0.3623 -1.2646 -0.5597
 2819SOL    HW219920   4.140   2.933   1.509  0.2439 -1.9719  0.5211
 2820SOL     OW19921   1.205   0.929   7.983 -0.9433  0.3987 -0.1158
 2820SOL    HW119922   1.240   1.003   8.032 -1.8525  0.2394  0.7708
 2820SOL    HW219923   1.194   0.868   8.056 -3.4355 -0.3186 -1.1061
 2821SOL     OW19924   0.679   4.026   0.999  0.3540 -0.9661 -0.8782
 2821SOL    HW119925   0.601   3.992   0.955  0.4522  0.6784 -2.3440
 2821SOL    HW219926   0.705   4.094   0.936  1.3404 -1.4563 -0.9914
 2822SOL     OW19927   4.110   1.318   6.020  0.2318 -0.6722  0.2855
 2822SOL    HW119928   4.136   1.384   6.085 -1.0608 -0.0814  0.2064
 2822SOL    HW219929   4.015   1.320   6.024  0.2042  2.1118 -1.3292
 2823SOL     OW19930   1.567   0.326   6.087 -0.0612 -0.5364 -0.1887
 2823SOL    HW119931   1.519   0.409   6.091  1.6164  0.5043 -1.6662
 2823SOL    HW219932   1.635   0.340   6.153 -2.4688 -1.9020  2.6228
 2824SOL     OW19933   0.031   0.013   5.168 -0.1152  0.1438 -0.1714
 2824SOL    HW119934   0.013   4.637   5.177  0.1641 -0.0799 -2.0692
 2824SOL    HW219935   0.051   0.021   5.075  1.2227  1.3245  0.2043
 2825SOL     OW19936   1.920   3.284   7.528  0.2287 -0.6755 -0.3475
 2825SOL    HW119937   1.874   3.200   7.520  0.6908 -0.8501 -1.1006
 2825SOL    HW219938   1.866   3.340   7.473  1.0103 -3.2080 -3.7084
 2826SOL     OW19939   4.250   2.848   6.153 -0.2384  0.3447 -0.3616
 2826SOL    HW119940   4.202   2.928   6.172  0.1359  0.4881 -0.0390
 2826SOL    HW219941   4.312   2.830   6.224  2.0324  1.8300 -1.9572
 2827SOL     OW19942   0.725   0.821  12.956 -0.0837  0.0663 -0.3254
 2827SOL    HW119943   0.653   0.759  12.970 -0.0376  0.2223  0.5693
 2827SOL    HW219944   0.678   0.880  12.897 -1.3949 -0.8700 -0.2304
 2828SOL     OW19945   0.058   3.320   3.804  0.4766 -0.3727 -0.6915
 2828SOL    HW119946   0.153   3.323   3.814  0.2998  2.8991  0.1422
 2828SOL    HW219947   0.050   3.249   3.868 -2.9971 -0.6027 -1.3945
 2829SOL     OW19948   3.771   2.060   3.506 -0.0173 -0.9197  0.4513
 2829SOL    HW119949   3.848   2.115   3.490 -0.4350 -0.8186 -1.2164
 2829SOL    HW219950   3.729   2.069   3.420  0.9877 -0.5938 -0.0041
 2830SOL     OW19951   1.521   4.544   5.952  0.3733  0.2685  0.2858
 2830SOL    HW119952   1.575   4.546   5.873 -0.7626  1.0596 -0.4816
 2830SOL    HW219953   1.460   4.615   5.931 -1.1458 -1.2768 -0.5620
 2831SOL     OW19954   4.103   0.111  12.930  0.3713  0.0966 -0.1146
 2831SOL    HW119955   4.107   0.019  12.954 -0.6766 -0.8746 -3.6238
 2831SOL    HW219956   4.108   0.110  12.834 -0.4469 -1.4031 -0.1494
 2832SOL     OW19957   2.883   1.002  13.381  0.6491  0.2374 -0.2589
 2832SOL    HW119958   2.889   1.098  13.372  1.6680  0.3807  2.0510
 2832SOL    HW219959   2.818   0.994  13.451  1.3507  1.4821  0.5537
 2833SOL     OW19960   1.084   2.655   6.299 -0.2145  0.2369 -0.1503
 2833SOL    HW119961   1.067   2.561   6.299  3.1002 -0.3569  0.2957
 2833SOL    HW219962   0.993   2.681   6.310 -0.1768  1.2008 -2.1170
 2834SOL     OW19963   4.014   1.965  16.520 -0.4696 -0.0729  0.7221
 2834SOL    HW119964   4.101   1.929  16.538 -0.1545  1.3984  2.1404
 2834SOL    HW219965   4.014   1.914  16.439  0.7423 -0.0225  0.6866
 2835SOL     OW19966   3.598   3.300   9.434 -0.4031  0.5258  0.5681
 2835SOL    HW119967   3.676   3.348   9.405 -0.5114  0.9615  1.0121
 2835SOL    HW219968   3.571   3.262   9.350 -2.0063  0.5006  1.0986
 2836SOL     OW19969   3.439   1.512   4.128  0.1041 -0.2862  0.4111
 2836SOL    HW119970   3.467   1.536   4.040 -1.2066  3.1526  0.9331
 2836SOL    HW219971   3.518   1.467   4.158 -0.9045 -2.4161 -0.1540
 2837SOL     OW19972   3.667   4.068   3.393  0.0467  0.2466  0.4323
 2837SOL    HW119973   3.584   4.058   3.347  0.4979  1.0345 -0.5465
 2837SOL    HW219974   3.721   3.991   3.376  0.6260  1.3399 -2.6884
 2838SOL     OW19975   1.085   4.053  15.738 -0.4060  0.2265  0.3379
 2838SOL    HW119976   1.041   3.985  15.789 -2.6933  1.6935  0.3334
 2838SOL    HW219977   1.106   4.126  15.796  0.5959  1.2023 -1.2787
 2839SOL     OW19978   0.357   4.112  15.690  0.2749  0.1845 -0.0135
 2839SOL    HW119979   0.452   4.118  15.692  0.3947 -2.6391  1.9266
 2839SOL    HW219980   0.337   4.021  15.713 -1.6257  0.2620 -1.3322
 2840SOL     OW19981   1.717   1.891   1.458  0.4916  0.1940  0.1800
 2840SOL    HW119982   1.765   1.955   1.406 -2.5934  2.1847 -0.2450
 2840SOL    HW219983   1.659   1.857   1.390  0.6370 -1.6283  0.9488
 2841SOL     OW19984   3.437   1.924   1.897 -0.3264  0.0792  0.4148
 2841SOL    HW119985   3.491   1.910   1.974  2.2416 -0.1997 -1.4515
 2841SOL    HW219986   3.422   1.833   1.870  0.5553  0.0658 -0.0324
 2842SOL     OW19987   0.095   4.386   4.898  0.5031  0.1501 -0.1111
 2842SOL    HW119988   0.063   4.471   4.867 -1.4404  0.0854  1.7331
 2842SOL    HW219989   0.089   4.328   4.822  0.4050 -0.7354  0.5764
 2843SOL     OW19990   1.455   1.220   6.437  0.1578  0.3999 -0.0014
 2843SOL    HW119991   1.447   1.193   6.346 -1.8650  1.1595 -0.0583
 2843SOL    HW219992   1.462   1.138   6.486 -0.2654  0.1538 -0.3520
 2844SOL     OW19993   0.182   1.998   7.192 -0.2997 -0.3371  0.1588
 2844SOL    HW119994   0.113   1.932   7.188 -1.3940  0.9877 -2.8114
 2844SOL    HW219995   0.189   2.022   7.100  0.0647 -1.7056 -0.1642
 2845SOL     OW19996   0.414   0.512  13.331  0.3407 -0.1919  1.2056
 2845SOL    HW119997   0.458   0.538  13.412  2.4756  1.3227 -0.4604
 2845SOL    HW219998   0.449   0.423  13.325 -2.7026 -1.3206  0.1583
 2846SOL     OW19999   0.558   4.709  15.178  0.2270  0.0119  0.3222
 2846SOL    HW120000   0.620   4.689  15.248  0.4140 -1.0804 -0.1510
 2846SOL    HW220001   0.490   0.035  15.230  0.0023  0.9755 -0.7911
 2847SOL     OW20002   1.446   0.802   1.690 -0.2179 -0.1014 -0.8788
 2847SOL    HW120003   1.460   0.880   1.638 -2.4462  0.7069 -0.2587
 2847SOL    HW220004   1.479   0.833   1.774 -0.1918 -1.3629 -0.4174
 2848SOL     OW20005   2.890   4.126   5.707 -0.5320 -0.3584  0.0819
 2848SOL    HW120006   2.829   4.199   5.710 -2.3370 -1.8553  0.3127
 2848SOL    HW220007   2.877   4.085   5.621 -0.2735 -1.9909  0.8125
 2849SOL     OW20008   3.729   4.276   6.793  0.2516  0.4265 -0.0433
 2849SOL    HW120009   3.654   4.232   6.754 -2.5453  3.9945  1.3523
 2849SOL    HW220010   3.680   4.338   6.847 -0.0529 -2.2139  2.6972
 2850SOL     OW20011   1.432   3.051   0.711 -0.4077 -0.3497 -0.2692
 2850SOL    HW120012   1.503   2.987   0.715 -0.7236 -0.8132 -2.3314
 2850SOL    HW220013   1.356   2.993   0.710  0.2577 -1.1990 -0.9666
 2851SOL     OW20014   2.196   3.985  15.883  0.2352 -0.3573  0.0487
 2851SOL    HW120015   2.210   3.891  15.883  0.2666 -0.3537  1.3332
 2851SOL    HW220016   2.101   3.987  15.889  0.2009 -0.9308 -0.3380
 2852SOL     OW20017   4.263   4.065   8.217  0.3985 -1.0714 -0.1963
 2852SOL    HW120018   4.222   4.039   8.300 -0.3971  1.5846  0.2298
 2852SOL    HW220019   4.224   4.148   8.189  0.1117 -0.2212  2.7721
 2853SOL     OW20020   1.201   0.334   2.374  0.7127 -0.5700  0.1120
 2853SOL    HW120021   1.214   0.427   2.390  3.3365 -0.8303 -0.5676
 2853SOL    HW220022   1.128   0.307   2.430 -0.9222  0.2991 -1.6068
 2854SOL     OW20023   0.648   0.027   7.362  0.1708 -0.0363  0.2317
 2854SOL    HW120024   0.682   4.661   7.393 -0.6177 -0.8879 -1.1827
 2854SOL    HW220025   0.713   0.084   7.403 -2.0589  3.0413 -0.4999
 2855SOL     OW20026   0.319   0.121   7.723 -0.4599 -0.3538 -0.0872
 2855SOL    HW120027   0.374   0.043   7.729  1.3770  0.8201 -1.8204
 2855SOL    HW220028   0.261   0.095   7.651 -0.4666  3.0696 -1.3069
 2856SOL     OW20029   4.092   1.587  15.201  0.6691 -0.0598 -0.5030
 2856SOL    HW120030   4.126   1.602  15.113 -1.2359 -1.3874 -1.4485
 2856SOL    HW220031   4.176   1.559  15.238 -0.2044  0.2746  1.7051
 2857SOL     OW20032   3.925   1.266  12.379 -0.4440 -0.2662  0.1808
 2857SOL    HW120033   3.880   1.199  12.430  1.6980 -1.6618  0.2777
 2857SOL    HW220034   3.869   1.272  12.302 -0.0455 -0.0891 -0.0954
 2858SOL     OW20035   1.944   3.641  15.331 -0.7000  0.2584 -0.0108
 2858SOL    HW120036   1.917   3.700  15.401 -0.9653 -0.2828  0.3430
 2858SOL    HW220037   1.896   3.676  15.256 -1.9702  0.1180  0.7388
 2859SOL     OW20038   1.079   3.147  15.499 -0.1610  0.3637  0.0625
 2859SOL    HW120039   1.118   3.226  15.462  3.2942 -0.9979  0.7849
 2859SOL    HW220040   0.986   3.171  15.497 -0.2850 -0.1132  0.1303
 2860SOL     OW20041   4.608   0.805   3.969 -0.7278 -0.4586  0.0515
 2860SOL    HW120042   4.550   0.856   3.911  0.6386  1.2571  0.1683
 2860SOL    HW220043   4.693   0.802   3.925 -1.0968  0.1528 -0.7193
 2861SOL     OW20044   3.043   3.030   6.669  0.5955  0.1797  0.1006
 2861SOL    HW120045   3.103   3.081   6.616 -0.9536 -0.4829 -2.3135
 2861SOL    HW220046   3.053   3.057   6.760  2.0673 -1.2291  0.3459
 2862SOL     OW20047   2.071   2.280   1.489  0.2194  0.0970  0.6393
 2862SOL    HW120048   2.131   2.220   1.445 -2.5165 -1.4488 -1.0344
 2862SOL    HW220049   2.031   2.310   1.407  0.2066  0.7320  0.8775
 2863SOL     OW20050   3.236   2.002   9.196  0.1034  0.2562  0.0154
 2863SOL    HW120051   3.239   2.042   9.109 -2.1779  2.1189  0.8131
 2863SOL    HW220052   3.149   2.027   9.226  0.6781 -0.4991  2.3035
 2864SOL     OW20053   0.093   1.166  16.133 -0.0190 -0.0528  0.3176
 2864SOL    HW120054   0.099   1.173  16.228 -1.2568 -0.4132  0.4252
 2864SOL    HW220055   4.715   1.174  16.128 -0.1261 -0.7856  1.3495
 2865SOL     OW20056   2.361   3.920   1.243  0.0179 -0.4253 -0.0695
 2865SOL    HW120057   2.403   4.001   1.214  0.5043 -0.6545 -0.0023
 2865SOL    HW220058   2.396   3.858   1.180  1.1765 -2.8997  2.9910
 2866SOL     OW20059   1.975   2.038   2.183  0.0282 -0.1815 -0.0385
 2866SOL    HW120060   1.954   1.991   2.102  1.9646  1.4529 -1.5010
 2866SOL    HW220061   1.975   1.978   2.257  1.9306 -0.3160 -0.1398
 2867SOL     OW20062   2.293   4.258   6.868  0.1448 -0.1324  0.6853
 2867SOL    HW120063   2.308   4.348   6.895 -2.1975  0.6568 -0.6454
 2867SOL    HW220064   2.376   4.219   6.897 -0.1508 -1.4587 -0.2410
 2868SOL     OW20065   2.573   2.992   1.931 -0.0668  0.4219  0.0222
 2868SOL    HW120066   2.645   2.969   1.873 -1.3535 -2.2873 -0.5197
 2868SOL    HW220067   2.552   3.082   1.907 -0.6699  0.6150  1.2493
 2869SOL     OW20068   3.998   3.538   1.223 -0.5507  0.3900 -0.1149
 2869SOL    HW120069   4.074   3.574   1.177  0.0602  0.5293  1.0078
 2869SOL    HW220070   3.987   3.467   1.159 -0.0415 -0.1391  0.3903
 2870SOL     OW20071   3.821   4.018   2.520  0.5516  0.3051  0.1358
 2870SOL    HW120072   3.834   4.103   2.477  0.1230  1.8099  2.9879
 2870SOL    HW220073   3.725   4.020   2.523  0.5619  0.8939 -0.0101
 2871SOL     OW20074   3.560   2.126   3.770 -0.5869  0.5958 -0.9942
 2871SOL    HW120075   3.477   2.165   3.744 -0.5555  0.0330 -1.9149
 2871SOL    HW220076   3.552   2.035   3.739 -1.0073  0.0222  0.7892
 2872SOL     OW20077   4.474   2.574   5.684 -0.2982  0.0479 -0.1593
 2872SOL    HW120078   4.564   2.541   5.689 -0.4784 -0.6577 -1.6673
 2872SOL    HW220079   4.439   2.512   5.748 -1.3672  0.1472 -0.6507
 2873SOL     OW20080   2.894   2.217   7.117 -0.8933  0.2507  0.2353
 2873SOL    HW120081   2.806   2.189   7.143 -1.4558  1.0235 -0.8374
 2873SOL    HW220082   2.907   2.154   7.047  1.4120  1.6566 -0.6012
 2874SOL     OW20083   1.634   3.648  15.635 -0.6491  0.0097 -0.0026
 2874SOL    HW120084   1.721   3.654  15.675  0.0170 -4.4656 -0.7306
 2874SOL    HW220085   1.652   3.693  15.553 -3.1571 -0.2132 -0.6988
 2875SOL     OW20086   3.220   1.380  12.290  0.7789 -0.1881  0.1144
 2875SOL    HW120087   3.284   1.415  12.228  1.2284  0.0807  0.7284
 2875SOL    HW220088   3.172   1.460  12.314 -1.0351 -1.2855  0.1906
 2876SOL     OW20089   1.363   3.892  12.903  0.6860  0.3066  0.2590
 2876SOL    HW120090   1.390   3.800  12.898 -1.1966 -0.2623  0.4029
 2876SOL    HW220091   1.384   3.920  12.815  0.3617  2.5068  0.8869
 2877SOL     OW20092   1.405   3.696  16.315  0.0922 -0.4799 -0.7594
 2877SOL    HW120093   1.352   3.640  16.258 -0.5239 -0.5707 -0.1029
 2877SOL    HW220094   1.338   3.757  16.345  0.1880 -0.7382 -0.0218
 2878SOL     OW20095   2.701   0.758   5.752 -0.3224  0.3160 -0.5483
 2878SOL    HW120096   2.718   0.848   5.779 -1.8638  0.6236 -0.5566
 2878SOL    HW220097   2.706   0.722   5.840  0.1856  0.5547 -0.4800
 2879SOL     OW20098   2.442   4.176   9.348  0.2367 -0.1119  0.1392
 2879SOL    HW120099   2.436   4.157   9.255  0.1052 -0.7311  0.2731
 2879SOL    HW220100   2.373   4.242   9.344 -0.2398 -0.5396  1.2992
 2880SOL     OW20101   1.658   3.851   7.052 -0.0452 -0.0580  0.5558
 2880SOL    HW120102   1.711   3.902   7.113  1.3241  0.4612 -1.0556
 2880SOL    HW220103   1.575   3.896   7.066  0.2524  0.9445 -0.8964
 2881SOL     OW20104   1.145   2.752   7.663  0.0607  0.1596 -0.4607
 2881SOL    HW120105   1.205   2.703   7.718 -2.3529 -1.0648  1.0757
 2881SOL    HW220106   1.064   2.751   7.714  1.1560 -0.2731  1.2431
 2882SOL     OW20107   4.694   1.319   6.725  0.0701  0.4468  0.2858
 2882SOL    HW120108   0.034   1.383   6.767 -2.5076  2.0123  1.4380
 2882SOL    HW220109   4.668   1.257   6.794  1.8468 -1.2201 -0.5425
 2883SOL     OW20110   0.622   4.536   1.450 -0.5107  0.0196 -0.3798
 2883SOL    HW120111   0.586   4.598   1.514 -0.8393 -0.1900 -0.3623
 2883SOL    HW220112   0.597   4.452   1.488  1.2215  0.5135  1.9099
 2884SOL     OW20113   2.674   4.257   1.355  0.0369  0.3495  0.2797
 2884SOL    HW120114   2.698   4.250   1.447 -0.7906 -0.1053  0.4566
 2884SOL    HW220115   2.744   4.201   1.323  0.5681  0.7762  0.7003
 2885SOL     OW20116   4.416   1.477   5.647 -0.1263 -0.1513  0.1827
 2885SOL    HW120117   4.431   1.402   5.704  0.6691  0.2913  0.5552
 2885SOL    HW220118   4.322   1.477   5.666 -0.1194 -3.1665  0.1041
 2886SOL     OW20119   3.667   4.684   1.168  0.3277 -0.1687  0.2765
 2886SOL    HW120120   3.689   4.598   1.134  1.1854 -0.2179  0.9520
 2886SOL    HW220121   3.576   4.671   1.196  0.4652  0.0457  0.8320
 2887SOL     OW20122   3.023   1.308  16.431 -0.7248 -0.6725 -0.6356
 2887SOL    HW120123   3.025   1.326  16.525  2.2603 -1.8881 -0.4691
 2887SOL    HW220124   2.945   1.253  16.422 -0.2133 -1.7650  1.5029
 2888SOL     OW20125   1.350   4.506   5.675 -0.0836  0.4291  0.0329
 2888SOL    HW120126   1.300   4.531   5.752 -1.3595  1.3379 -1.1108
 2888SOL    HW220127   1.306   4.541   5.598 -2.2084 -0.8356  0.6709
 2889SOL     OW20128   1.413   2.554   4.908  0.2433 -0.2121  0.1832
 2889SOL    HW120129   1.501   2.536   4.877 -0.6850  0.2359 -2.6735
 2889SOL    HW220130   1.397   2.638   4.865 -0.6807 -0.7700 -0.5865
 2890SOL     OW20131   3.348   3.161   6.934  0.2271  0.0626  0.2068
 2890SOL    HW120132   3.417   3.099   6.959 -0.1312 -0.7632 -0.8243
 2890SOL    HW220133   3.281   3.096   6.911  1.3548 -1.5339  1.4040
 2891SOL     OW20134   3.130   1.613   1.273  0.3338  0.3183 -0.2954
 2891SOL    HW120135   3.145   1.702   1.241  0.0660  0.9255  1.2424
 2891SOL    HW220136   3.207   1.596   1.328 -1.4842 -0.3229  2.0673
 2892SOL     OW20137   3.604   3.966  17.199  0.8068 -0.2814  0.3864
 2892SOL    HW120138   3.531   3.922  17.156 -0.5378  1.7135  0.5899
 2892SOL    HW220139   3.551   4.036  17.238  1.7530  0.0410  1.0959
 2893SOL     OW20140   0.552   4.445   5.868 -0.4378 -0.6879 -0.2131
 2893SOL    HW120141   0.634   4.422   5.825 -1.5428 -3.3428 -0.8506
 2893SOL    HW220142   0.527   4.533   5.839  0.7121 -0.2981 -0.0537
 2894SOL     OW20143   3.168   4.660   4.004 -0.0524  0.1595 -0.5859
 2894SOL    HW120144   3.101   4.623   3.948  1.3063 -1.2923 -1.2678
 2894SOL    HW220145   3.132   4.652   4.092  2.0790 -2.0439  0.1036
 2895SOL     OW20146   3.905   1.443   7.625  0.5289 -0.1522  0.0036
 2895SOL    HW120147   3.923   1.497   7.702  1.8105 -0.9165  0.2556
 2895SOL    HW220148   3.986   1.458   7.577  0.3475 -0.4856 -0.4029
 2896SOL     OW20149   2.416   1.905  10.833  0.7855  0.6647 -0.6156
 2896SOL    HW120150   2.451   1.953  10.757 -1.7773  1.2114 -1.4554
 2896SOL    HW220151   2.493   1.854  10.856  1.0322  0.7066 -1.3516
 2897SOL     OW20152   3.342   2.275   6.086 -0.7695 -0.4159 -0.3898
 2897SOL    HW120153   3.431   2.302   6.108 -0.4512 -1.3004 -0.5994
 2897SOL    HW220154   3.302   2.361   6.096 -0.0039 -0.0524 -0.4593
 2898SOL     OW20155   3.590   4.121   4.741  0.3208  0.3615 -0.1613
 2898SOL    HW120156   3.597   4.026   4.744 -0.8451  0.2401 -1.3795
 2898SOL    HW220157   3.576   4.140   4.649  0.6844 -0.8809 -0.4681
 2899SOL     OW20158   4.212   2.545   6.903 -0.6285  0.7019 -0.5350
 2899SOL    HW120159   4.200   2.637   6.928 -1.1324  0.9999 -1.8477
 2899SOL    HW220160   4.197   2.552   6.808  1.3543  0.8776 -0.8280
 2900SOL     OW20161   2.970   0.060   6.688 -0.1830 -0.1634  0.1663
 2900SOL    HW120162   2.986   0.129   6.753  1.6392 -0.5602  0.1537
 2900SOL    HW220163   2.880   0.041   6.711 -0.2734  0.6317  0.4819
 2901SOL     OW20164   2.548   2.140   8.780 -0.2868 -0.2993  0.0842
 2901SOL    HW120165   2.512   2.078   8.844  0.7979 -0.0402  0.9569
 2901SOL    HW220166   2.533   2.104   8.693  0.2976 -1.4320  0.4548
 2902SOL     OW20167   0.467   2.628   8.064 -0.5941  0.8200  0.0660
 2902SOL    HW120168   0.387   2.621   8.116  0.4447 -1.7614  1.3508
 2902SOL    HW220169   0.457   2.578   7.982  0.7123 -0.8369  0.9017
 2903SOL     OW20170   4.226   3.109   2.992 -0.4838 -0.2753 -0.0962
 2903SOL    HW120171   4.192   3.101   3.081  0.6307 -5.1764 -0.1255
 2903SOL    HW220172   4.208   3.016   2.978  1.9673 -0.7530 -0.0545
 2904SOL     OW20173   0.557   1.600   5.714 -0.0780  0.5727 -0.2147
 2904SOL    HW120174   0.485   1.651   5.749 -1.7158 -2.0783  0.2154
 2904SOL    HW220175   0.612   1.593   5.792 -0.8987 -2.5377  0.0643
 2905SOL     OW20176   3.743   2.265   2.873 -0.1025  0.4894 -0.9641
 2905SOL    HW120177   3.745   2.284   2.967  1.1730 -1.4649 -0.6058
 2905SOL    HW220178   3.803   2.191   2.871  0.5912  1.0334 -0.4611
 2906SOL     OW20179   4.558   1.881   4.709 -0.2277  0.3165  0.3362
 2906SOL    HW120180   4.494   1.841   4.650 -1.3287 -1.1680  2.5222
 2906SOL    HW220181   4.634   1.861   4.655  0.1336  2.6309  0.0042
 2907SOL     OW20182   2.346   2.419  10.603  0.2290  0.0070  0.1479
 2907SOL    HW120183   2.362   2.484  10.671 -1.1268  0.2032  0.2811
 2907SOL    HW220184   2.432   2.378  10.606  0.3417  0.0936 -1.9123
 2908SOL     OW20185   0.937   4.171   7.743  0.4630  0.3296  0.1024
 2908SOL    HW120186   0.903   4.216   7.820  0.5323  1.3452 -0.4681
 2908SOL    HW220187   0.916   4.230   7.671 -1.8629 -0.9080 -0.2437
 2909SOL     OW20188   0.204   1.772   5.517  0.1467  0.4966  0.0810
 2909SOL    HW120189   0.254   1.765   5.435  0.1589  3.4569 -0.1776
 2909SOL    HW220190   0.185   1.866   5.521  1.4423  0.9364 -3.2077
 2910SOL     OW20191   3.942   1.170   6.783  0.1876  0.3295 -0.2667
 2910SOL    HW120192   3.933   1.134   6.695 -3.4649  0.4274  0.0501
 2910SOL    HW220193   3.929   1.260   6.754  0.1342  0.0418 -1.1396
 2911SOL     OW20194   3.950   2.538   2.594  0.0407  0.0477 -0.0948
 2911SOL    HW120195   3.962   2.588   2.513  0.2994 -0.8164 -0.5842
 2911SOL    HW220196   3.959   2.454   2.550 -0.2085 -1.2165  2.2917
 2912SOL     OW20197   3.059   2.172   0.329 -0.3682  0.3553  0.6398
 2912SOL    HW120198   2.999   2.137   0.395 -1.5792  1.9254  0.3730
 2912SOL    HW220199   3.009   2.245   0.291  0.1943  1.0939  1.3191
 2913SOL     OW20200   2.873   0.489   8.059 -0.4895  0.0273  0.8861
 2913SOL    HW120201   2.890   0.583   8.059 -3.2102  0.4988 -0.3889
 2913SOL    HW220202   2.778   0.482   8.049 -0.4381 -0.3692  0.6724
 2914SOL     OW20203   0.610   2.211   8.519  0.2596  0.4720  0.7317
 2914SOL    HW120204   0.576   2.222   8.430  3.1448  0.0924 -0.3925
 2914SOL    HW220205   0.676   2.143   8.508 -0.7378 -0.3953  0.0964
 2915SOL     OW20206   1.827   2.127   5.140 -0.0704 -0.5484 -0.2007
 2915SOL    HW120207   1.886   2.095   5.208  1.6475  4.2094  0.6012
 2915SOL    HW220208   1.891   2.129   5.069 -2.5618 -0.8293 -2.4008
 2916SOL     OW20209   1.523   1.999  17.481 -0.6012  0.0547 -0.3081
 2916SOL    HW120210   1.610   1.965  17.500 -0.8876 -1.9951 -2.7548
 2916SOL    HW220211   1.531   2.012  17.387 -1.0720  2.6829 -0.0003
 2917SOL     OW20212   0.684   0.258   4.181  0.5681 -0.3599  0.0491
 2917SOL    HW120213   0.623   0.227   4.114 -0.2301 -1.4779  1.2949
 2917SOL    HW220214   0.749   0.190   4.166  1.3087  0.1284  1.0748
 2918SOL     OW20215   3.363   0.123  11.779 -0.7670  0.3624  0.0480
 2918SOL    HW120216   3.299   0.158  11.842  1.7245  2.6513  1.3450
 2918SOL    HW220217   3.335   0.163  11.698 -0.6281 -1.4112 -0.8736
 2919SOL     OW20218   4.315   4.628  15.743 -0.3720  0.3546 -0.1041
 2919SOL    HW120219   4.333   4.616  15.837 -0.2094 -0.4307 -0.2354
 2919SOL    HW220220   4.298   0.004  15.736  1.1433  0.6180 -0.3188
 2920SOL     OW20221   3.443   2.729  14.902 -0.5361 -0.0284 -0.0043
 2920SOL    HW120222   3.349   2.715  14.898 -0.6577  1.0956 -0.8785
 2920SOL    HW220223   3.447   2.825  14.909 -0.8905 -0.0298  0.2143
 2921SOL     OW20224   3.853   0.352   4.182 -0.0346 -0.1436 -0.1790
 2921SOL    HW120225   3.945   0.356   4.155  0.1744  0.9658  0.7004
 2921SOL    HW220226   3.867   0.305   4.264  0.5383  1.0246  0.3911
 2922SOL     OW20227   0.826   4.542   3.932  0.1131 -0.2347  0.1010
 2922SOL    HW120228   0.754   4.499   3.978 -0.4482  0.3619 -0.2222
 2922SOL    HW220229   0.882   4.471   3.899 -1.0665 -1.2581  0.2983
 2923SOL     OW20230   4.667   0.720   1.234  0.1595  0.0078  0.1380
 2923SOL    HW120231   4.642   0.630   1.214 -1.0905  0.8336 -2.0910
 2923SOL    HW220232   4.595   0.772   1.198  0.2444  0.2139  0.2664
 2924SOL     OW20233   1.791   1.836   0.230 -0.2088  0.5302  0.0456
 2924SOL    HW120234   1.873   1.860   0.274  0.9638 -3.4032 -0.0616
 2924SOL    HW220235   1.736   1.864   0.303  0.0664  1.4518 -0.0926
 2925SOL     OW20236   4.411   4.116   1.193  0.6112  0.0060  0.1195
 2925SOL    HW120237   4.340   4.173   1.223  0.5771 -0.6869  1.3663
 2925SOL    HW220238   4.427   4.166   1.113 -1.6519  1.8717  0.8364
 2926SOL     OW20239   4.666   2.056   1.012 -0.8244 -0.0986 -0.2458
 2926SOL    HW120240   0.021   2.065   1.073 -0.8323 -0.1005 -0.2362
 2926SOL    HW220241   4.713   2.014   0.939 -0.5242 -1.0413  0.5001
 2927SOL     OW20242   1.687   2.462   4.166  0.4876  0.3759 -0.3506
 2927SOL    HW120243   1.717   2.373   4.182 -0.3065  0.6810  2.7101
 2927SOL    HW220244   1.648   2.489   4.249  1.4189  0.8318 -0.0579
 2928SOL     OW20245   2.378   2.225  12.815  0.4925  0.3417 -0.6168
 2928SOL    HW120246   2.343   2.191  12.732 -2.8025  2.1501  0.0504
 2928SOL    HW220247   2.472   2.220  12.796  0.6105 -1.1742  0.3474
 2929SOL     OW20248   3.369   1.901   4.476 -0.3147 -0.1946 -0.0406
 2929SOL    HW120249   3.392   1.852   4.397  3.5181 -0.1446  1.0192
 2929SOL    HW220250   3.358   1.989   4.439 -1.2489  0.0263  0.7665
 2930SOL     OW20251   1.818   0.720   1.980  0.0152 -0.1528 -0.1115
 2930SOL    HW120252   1.722   0.717   1.977 -0.0168  1.3653 -0.7788
 2930SOL    HW220253   1.853   0.687   2.062  1.2007 -0.0893 -0.5913
 2931SOL     OW20254   0.653   4.379   6.765 -0.0168  0.2374  0.1875
 2931SOL    HW120255   0.676   4.469   6.740  2.0257 -1.3540 -3.5904
 2931SOL    HW220256   0.709   4.354   6.839  1.5521  2.2819 -0.2930
 2932SOL     OW20257   0.670   2.676   5.638  0.6284  0.2168 -0.1656
 2932SOL    HW120258   0.694   2.735   5.710  3.7883 -0.0950 -0.9504
 2932SOL    HW220259   0.730   2.603   5.655  0.1234 -0.2930 -0.5616
 2933SOL     OW20260   2.996   1.238   8.125  0.6389 -0.4313 -0.3042
 2933SOL    HW120261   3.087   1.211   8.116  0.5958  0.0524 -2.1650
 2933SOL    HW220262   2.995   1.254   8.219  0.5605 -1.4267 -0.1338
 2934SOL     OW20263   2.923   1.923   8.357 -0.3787 -0.7312 -0.0867
 2934SOL    HW120264   2.989   1.855   8.345 -1.2096 -1.2912 -1.4555
 2934SOL    HW220265   2.869   1.913   8.279  0.5513 -1.3126 -0.6548
 2935SOL     OW20266   3.246   2.875   8.857 -0.0024 -0.5723 -0.1166
 2935SOL    HW120267   3.153   2.890   8.839  0.3202  0.7915 -0.6223
 2935SOL    HW220268   3.283   2.890   8.770  0.4290  1.6164  0.4433
 2936SOL     OW20269   2.979   4.138   8.557  0.3091  0.0727  0.4639
 2936SOL    HW120270   3.059   4.086   8.568  1.5380  1.9934  0.7197
 2936SOL    HW220271   3.005   4.205   8.494  0.1523 -1.4798 -1.2527
 2937SOL     OW20272   1.981   3.757   1.346 -0.7837 -0.2944 -0.3699
 2937SOL    HW120273   1.965   3.837   1.398  0.3693  0.0747 -0.5810
 2937SOL    HW220274   2.072   3.752   1.375 -0.8586  1.6218  0.2262
 2938SOL     OW20275   1.833   4.356   8.592  0.1804 -0.2319  0.3979
 2938SOL    HW120276   1.764   4.289   8.596 -1.4116  1.2840 -1.8061
 2938SOL    HW220277   1.811   4.407   8.670 -4.1015 -0.5246 -0.6171
 2939SOL     OW20278   3.065   1.540  16.276 -0.2934 -0.3510 -0.3971
 2939SOL    HW120279   3.053   1.457  16.321 -4.2800  0.5646  0.3006
 2939SOL    HW220280   3.089   1.508  16.189  1.9634 -0.8796  0.4248
 2940SOL     OW20281   2.122   3.669   6.214 -0.1873  0.4412  0.5913
 2940SOL    HW120282   2.092   3.630   6.296 -0.1947 -0.1066  0.3265
 2940SOL    HW220283   2.043   3.654   6.161 -0.3817  1.4923  0.5756
 2941SOL     OW20284   4.054   2.797   9.887 -0.1762  0.1852  0.3529
 2941SOL    HW120285   3.962   2.818   9.872  0.1390  2.4315  1.4720
 2941SOL    HW220286   4.109   2.875   9.896 -0.6798  0.3771  1.8543
 2942SOL     OW20287   1.028   2.769   8.503 -0.6428 -0.7872 -0.2339
 2942SOL    HW120288   1.084   2.738   8.432 -1.0145  3.0518 -2.1965
 2942SOL    HW220289   0.950   2.798   8.456 -2.1818 -1.1411  2.0824
 2943SOL     OW20290   4.207   3.461   3.073 -0.0761  0.1108 -0.1362
 2943SOL    HW120291   4.205   3.365   3.075 -0.3785  0.1114 -0.5112
 2943SOL    HW220292   4.298   3.456   3.042 -0.3080  0.2356 -0.8281
 2944SOL     OW20293   4.468   4.581  17.562  0.2758  0.5240 -0.5740
 2944SOL    HW120294   4.429   4.660  17.599 -0.6037 -0.8543  1.4295
 2944SOL    HW220295   4.530   4.623  17.503  1.4211  3.0363  2.3991
 2945SOL     OW20296   1.815   0.442  15.042  0.1338 -0.2556 -0.2273
 2945SOL    HW120297   1.897   0.451  15.091 -0.5547 -2.4465  1.2999
 2945SOL    HW220298   1.846   0.403  14.961  0.2327 -0.0873 -0.2703
 2946SOL     OW20299   2.665   0.701  15.640 -0.4735  0.2162 -0.1951
 2946SOL    HW120300   2.728   0.670  15.575  0.9881  0.4020  1.1624
 2946SOL    HW220301   2.721   0.732  15.711  0.9488  1.6573 -1.9610
 2947SOL     OW20302   0.568   1.042   8.706  0.0433  0.0255 -0.2478
 2947SOL    HW120303   0.626   1.111   8.675  0.1918  0.2803  0.6194
 2947SOL    HW220304   0.631   0.971   8.716  0.3468 -0.0515 -2.6564
 2948SOL     OW20305   2.976   3.295   7.224  0.0698  0.3652 -0.3191
 2948SOL    HW120306   2.895   3.319   7.270  0.5682  0.3508  0.5739
 2948SOL    HW220307   3.038   3.262   7.290 -2.5750 -1.1563  1.4240
 2949SOL     OW20308   1.658   0.775   3.236 -0.4447  0.2342  0.5570
 2949SOL    HW120309   1.680   0.856   3.189 -0.1740 -0.3474 -0.3282
 2949SOL    HW220310   1.745   0.740   3.258 -0.5626 -1.0169 -0.9419
 2950SOL     OW20311   2.237   3.166   1.982 -0.1005 -0.2846  0.0255
 2950SOL    HW120312   2.193   3.227   1.922  1.0582  0.3866 -0.1404
 2950SOL    HW220313   2.270   3.102   1.919 -0.4858 -0.7833  0.3354
 2951SOL     OW20314   1.043   2.535  12.179  0.3066 -0.3631 -0.8752
 2951SOL    HW120315   0.970   2.473  12.169  0.1035 -0.4124  1.0757
 2951SOL    HW220316   1.039   2.578  12.093 -0.2864 -1.1620 -1.2528
 2952SOL     OW20317   3.628   1.512   8.908 -0.1793  0.6313  0.0689
 2952SOL    HW120318   3.549   1.565   8.917 -0.5552 -0.0933  1.0916
 2952SOL    HW220319   3.705   1.569   8.907  0.0405  0.3240 -0.3597
 2953SOL     OW20320   2.462   4.478  13.186 -0.5531 -0.3781  0.3340
 2953SOL    HW120321   2.527   4.538  13.150 -2.3842  2.1485  1.2909
 2953SOL    HW220322   2.395   4.478  13.117 -1.1699 -1.5952  0.9278
 2954SOL     OW20323   4.091   0.557   6.923  0.7672 -0.2417  0.0547
 2954SOL    HW120324   4.003   0.538   6.890  1.3803 -0.2434 -1.6105
 2954SOL    HW220325   4.077   0.543   7.016 -0.4398  2.1945  0.2695
 2955SOL     OW20326   4.358   4.556  15.468  0.0815 -0.1375  0.2435
 2955SOL    HW120327   4.316   4.589  15.547 -1.3115 -1.4182  0.0465
 2955SOL    HW220328   4.307   4.475  15.455 -1.1332  1.0164 -2.2079
 2956SOL     OW20329   3.643   4.361   1.286 -0.2956 -0.3859  0.3762
 2956SOL    HW120330   3.578   4.430   1.278  2.0524  1.9535  1.5389
 2956SOL    HW220331   3.700   4.373   1.210 -0.5809 -0.1822  0.1985
 2957SOL     OW20332   0.120   1.803   7.542 -0.3843 -0.5219 -0.1021
 2957SOL    HW120333   0.142   1.745   7.469 -1.5976 -0.6132 -0.3832
 2957SOL    HW220334   0.027   1.823   7.540 -0.6138 -1.7011 -0.6546
 2958SOL     OW20335   4.638   2.386   4.669 -0.2433  0.6403  0.2149
 2958SOL    HW120336   4.667   2.439   4.743 -0.9808  0.3390  0.7210
 2958SOL    HW220337   4.677   2.305   4.702 -1.0761  0.1061 -0.1137
 2959SOL     OW20338   0.774   1.170   6.733 -0.0759  0.1989  0.0406
 2959SOL    HW120339   0.840   1.177   6.663  0.1455  0.7711  0.3094
 2959SOL    HW220340   0.828   1.120   6.794 -1.2924 -0.9451  0.1852
 2960SOL     OW20341   4.041   0.580   3.748 -0.0385 -0.8359  0.0398
 2960SOL    HW120342   3.964   0.543   3.791 -1.2042  0.8534 -0.5947
 2960SOL    HW220343   4.006   0.662   3.711  0.0634  0.0711  1.9712
 2961SOL     OW20344   4.569   2.471  15.505  0.0779 -0.3481  0.2330
 2961SOL    HW120345   4.561   2.412  15.581 -1.4344  1.1503  1.2488
 2961SOL    HW220346   4.661   2.497  15.497 -0.3448  0.6960 -1.1502
 2962SOL     OW20347   4.262   0.956   2.352  0.6127 -0.0112  0.5811
 2962SOL    HW120348   4.179   0.999   2.330  1.3907  1.5348  0.6587
 2962SOL    HW220349   4.321   1.030   2.346 -0.5626  0.8802 -0.0999
 2963SOL     OW20350   0.241   4.483   5.307 -0.3452  0.5876 -0.5436
 2963SOL    HW120351   0.153   4.505   5.276 -0.4646 -0.2525 -0.8119
 2963SOL    HW220352   0.213   4.453   5.393 -2.5587  1.2289 -1.0431
 2964SOL     OW20353   0.742   0.979   5.338  0.1213 -0.3545  0.2031
 2964SOL    HW120354   0.755   1.007   5.429  1.1350  0.1283 -0.0983
 2964SOL    HW220355   0.823   1.011   5.299 -0.9078  1.7648 -0.2147
 2965SOL     OW20356   2.595   1.466   1.565 -0.3235  0.6403  0.6489
 2965SOL    HW120357   2.554   1.482   1.650 -1.0962  0.5811  0.2839
 2965SOL    HW220358   2.678   1.431   1.599 -0.3758  0.5276  0.6576
 2966SOL     OW20359   2.283   4.083  13.308  0.3512 -0.4850 -0.1869
 2966SOL    HW120360   2.202   4.124  13.337  1.0707  1.6293 -1.1852
 2966SOL    HW220361   2.257   4.059  13.219  1.0026 -2.5956  0.2007
 2967SOL     OW20362   1.014   3.270  15.215 -0.6060  0.3346  0.7508
 2967SOL    HW120363   1.085   3.312  15.264  0.6545  1.9699 -2.5428
 2967SOL    HW220364   1.063   3.263  15.133 -0.8760 -0.7234  0.6772
 2968SOL     OW20365   3.220   1.915   3.522  0.4789  0.3565  0.3766
 2968SOL    HW120366   3.213   1.994   3.576 -1.7750 -1.1671  2.3182
 2968SOL    HW220367   3.295   1.943   3.469 -0.1728 -1.0638 -1.2741
 2969SOL     OW20368   0.067   1.261   0.986  0.1833 -0.2926 -0.0165
 2969SOL    HW120369   0.008   1.245   1.059 -0.6545  1.8701 -0.2324
 2969SOL    HW220370   0.051   1.349   0.953  1.6723 -0.9314 -2.5103
 2970SOL     OW20371   3.583   1.649  14.597 -0.0417  0.2884  0.3258
 2970SOL    HW120372   3.616   1.699  14.672 -2.1764  0.0099  1.4560
 2970SOL    HW220373   3.600   1.701  14.518  1.6670 -3.9516 -2.0938
 2971SOL     OW20374   0.364   3.921   4.381 -1.0564 -0.0168  0.2091
 2971SOL    HW120375   0.332   3.915   4.291 -2.5727  2.2562  0.5848
 2971SOL    HW220376   0.321   4.000   4.415  3.4675  2.0682  1.2431
 2972SOL     OW20377   2.255   3.029   4.223 -0.0989 -0.1566  0.4765
 2972SOL    HW120378   2.301   3.004   4.303 -1.0100 -3.0210  0.0864
 2972SOL    HW220379   2.163   3.039   4.244 -0.7186 -1.1406 -1.7318
 2973SOL     OW20380   1.879   1.527  13.690  0.4747 -1.1005 -0.2635
 2973SOL    HW120381   1.900   1.559  13.778 -0.4335 -1.0303 -0.0733
 2973SOL    HW220382   1.940   1.455  13.675  2.8034  0.6245  0.8813
 2974SOL     OW20383   4.547   1.214   3.416  0.0182 -0.1178  0.0579
 2974SOL    HW120384   4.575   1.143   3.358 -0.7598 -1.6085  1.5085
 2974SOL    HW220385   4.634   1.237   3.451  0.1290 -2.0792  1.0986
 2975SOL     OW20386   3.982   4.498   9.504 -0.4699 -0.4209 -0.4389
 2975SOL    HW120387   3.995   4.432   9.437  1.0326 -0.6042  0.0436
 2975SOL    HW220388   3.941   4.570   9.455 -0.3838 -0.5304 -0.6691
 2976SOL     OW20389   0.787   4.309   7.933  0.0615  0.1735 -0.0013
 2976SOL    HW120390   0.808   4.257   8.011 -2.4438 -0.4550  0.2735
 2976SOL    HW220391   0.694   4.288   7.937  0.0669  0.5584  2.4276
 2977SOL     OW20392   3.292   2.236   5.795  0.1868 -0.2224  0.1457
 2977SOL    HW120393   3.349   2.301   5.755 -0.1333  0.6802  1.1627
 2977SOL    HW220394   3.312   2.255   5.887  1.0528  1.1939 -0.3429
 2978SOL     OW20395   2.448   2.574   0.822  0.1418  0.0226 -0.4607
 2978SOL    HW120396   2.444   2.613   0.909  0.3958 -0.0062 -0.4342
 2978SOL    HW220397   2.376   2.511   0.818 -1.8232  2.2762 -0.9076
 2979SOL     OW20398   1.493   2.501  13.900 -0.3473  0.1649 -0.6328
 2979SOL    HW120399   1.474   2.418  13.945  1.8812  1.1444  2.1038
 2979SOL    HW220400   1.404   2.521  13.869 -0.0191  1.1462 -0.9096
 2980SOL     OW20401   1.791   3.279  10.720 -0.1271 -0.2493 -0.4708
 2980SOL    HW120402   1.763   3.234  10.799  0.6438  0.3123  0.1206
 2980SOL    HW220403   1.758   3.365  10.746 -1.6530 -1.2789  0.9715
 2981SOL     OW20404   0.772   4.618  13.787  0.3540 -0.5955 -0.3343
 2981SOL    HW120405   0.765   4.604  13.693  0.8764  1.7774 -0.7356
 2981SOL    HW220406   0.825   4.542  13.813  1.0168  0.7273  2.2197
 2982SOL     OW20407   2.750   2.340   1.632 -0.3050  0.3560  0.2370
 2982SOL    HW120408   2.682   2.350   1.565 -0.9272  2.2413  1.1446
 2982SOL    HW220409   2.736   2.412   1.694 -2.9383 -0.0709  0.1306
 2983SOL     OW20410   1.568   2.850   3.226 -0.4677  0.0728  0.4722
 2983SOL    HW120411   1.643   2.832   3.284  0.9616  2.6624 -0.5893
 2983SOL    HW220412   1.607   2.857   3.139  0.8157  1.2991  1.1389
 2984SOL     OW20413   1.744   0.574  13.425  0.4995  0.1656 -0.0133
 2984SOL    HW120414   1.720   0.623  13.346 -0.7289 -0.5575 -0.1009
 2984SOL    HW220415   1.725   0.634  13.497  0.3798  1.0872 -0.8069
 2985SOL     OW20416   3.563   0.743   7.844 -0.0606 -0.0523  0.2412
 2985SOL    HW120417   3.568   0.834   7.817 -1.3385 -0.1164 -0.2092
 2985SOL    HW220418   3.542   0.703   7.760 -0.1217  0.6071 -0.0501
 2986SOL     OW20419   2.268   3.738   5.900 -0.1789  0.4291 -0.4633
 2986SOL    HW120420   2.305   3.825   5.881  2.1712 -0.1518  1.4782
 2986SOL    HW220421   2.340   3.706   5.954  0.7368 -1.8774 -3.0536
 2987SOL     OW20422   2.973   1.869   9.061  0.0480 -0.2757  0.6834
 2987SOL    HW120423   3.058   1.846   9.099 -1.5474 -1.5576  3.4696
 2987SOL    HW220424   2.990   1.829   8.976  1.1606 -0.0537  0.8025
 2988SOL     OW20425   2.163   0.936   7.756  0.0408  0.6040 -0.3353
 2988SOL    HW120426   2.129   1.009   7.808  1.2047  0.6804  0.3099
 2988SOL    HW220427   2.099   0.945   7.686 -2.0377  2.5444  1.8097
 2989SOL     OW20428   1.927   3.750  13.002 -0.0041 -0.8337 -0.2830
 2989SOL    HW120429   1.845   3.795  13.022  0.1409  0.0992 -1.7608
 2989SOL    HW220430   1.984   3.822  12.974 -1.8618  1.1421  1.0230
 2990SOL     OW20431   1.821   4.063  11.683 -0.1976 -0.0548  0.0847
 2990SOL    HW120432   1.753   4.106  11.631  0.8544  0.8408 -0.5705
 2990SOL    HW220433   1.772   4.003  11.739 -2.0100  1.2638 -0.0964
 2991SOL     OW20434   2.924   1.491   3.870  0.5620  0.3828  0.4134
 2991SOL    HW120435   3.015   1.460   3.876  1.0514  1.6699 -0.4206
 2991SOL    HW220436   2.934   1.583   3.896 -0.1845  1.2688 -2.5117
 2992SOL     OW20437   4.421   2.506   1.559  0.6186  0.6900 -0.2464
 2992SOL    HW120438   4.420   2.538   1.649 -0.7394  0.1020 -0.0512
 2992SOL    HW220439   4.340   2.546   1.526  0.1769  0.6184  0.7452
 2993SOL     OW20440   0.362   1.271   2.470 -0.4929 -0.0307  0.0958
 2993SOL    HW120441   0.390   1.181   2.457 -2.4406 -0.6060 -0.0748
 2993SOL    HW220442   0.377   1.298   2.379 -3.4429 -2.8009 -1.1812
 2994SOL     OW20443   4.428   0.775   2.788 -0.1690 -0.2797  0.3659
 2994SOL    HW120444   4.352   0.830   2.806  1.1325  2.3904 -2.1800
 2994SOL    HW220445   4.451   0.796   2.697  1.2561 -0.5420  0.6641
 2995SOL     OW20446   2.416   0.480   5.997 -0.1491  0.0766 -0.6498
 2995SOL    HW120447   2.372   0.562   6.021  0.4925  1.0080 -2.5931
 2995SOL    HW220448   2.488   0.485   6.059  0.0557 -2.2519 -0.7320
 2996SOL     OW20449   1.611   4.528  16.026  0.2101 -0.4675 -0.4996
 2996SOL    HW120450   1.641   4.438  16.036  0.8475 -0.5848 -3.4647
 2996SOL    HW220451   1.524   4.504  15.994  0.0601 -1.2828  0.5100
 2997SOL     OW20452   1.287   1.767   6.176  0.2834  0.3715  0.4872
 2997SOL    HW120453   1.316   1.819   6.101  2.4644  0.6273  1.5001
 2997SOL    HW220454   1.348   1.694   6.174 -0.2476 -0.1249  2.1233
 2998SOL     OW20455   3.525   4.641   4.379  0.2077 -0.9272  0.0849
 2998SOL    HW120456   3.518   4.677   4.290 -0.5349 -1.0965  0.0767
 2998SOL    HW220457   3.447   4.587   4.376 -1.3297  1.2352  1.0637
 2999SOL     OW20458   2.216   3.517   7.142 -0.4018  0.0781 -0.5770
 2999SOL    HW120459   2.182   3.461   7.073 -1.5210 -0.1120  0.1154
 2999SOL    HW220460   2.279   3.570   7.094  1.3540 -0.1799  1.4384
 3000SOL     OW20461   4.023   2.792   5.950 -0.1960 -0.4497  0.1707
 3000SOL    HW120462   4.096   2.839   5.990  0.3985 -2.0902  1.0530
 3000SOL    HW220463   4.039   2.705   5.987  1.4398 -0.0495  0.4123
 3001SOL     OW20464   2.199   4.356   7.533 -0.2783  0.0776  0.0034
 3001SOL    HW120465   2.173   4.448   7.527 -0.0205  0.1531  0.0237
 3001SOL    HW220466   2.177   4.337   7.442 -2.5190  0.4311  0.4658
 3002SOL     OW20467   0.549   2.027   2.683 -0.5571 -0.0960  0.2373
 3002SOL    HW120468   0.473   2.083   2.700 -0.5814 -0.5595  1.6211
 3002SOL    HW220469   0.530   1.952   2.738 -2.0933  1.1063  1.3311
 3003SOL     OW20470   2.143   4.342   3.193 -0.1866  0.1587  0.2444
 3003SOL    HW120471   2.085   4.418   3.194 -0.6824 -0.2228  0.8502
 3003SOL    HW220472   2.129   4.311   3.283 -0.6099 -2.2600 -0.6320
 3004SOL     OW20473   0.170   2.377   1.927 -0.5126 -0.3851  0.3372
 3004SOL    HW120474   0.150   2.464   1.960 -0.6716 -0.0918 -0.5189
 3004SOL    HW220475   0.097   2.356   1.868 -1.3774  1.7934  0.6361
 3005SOL     OW20476   4.212   1.269   2.152 -0.0818 -0.1914 -0.0209
 3005SOL    HW120477   4.239   1.203   2.088  0.8428 -0.2675  0.4572
 3005SOL    HW220478   4.129   1.233   2.184  0.3766 -1.3761 -0.1670
 3006SOL     OW20479   0.019   3.000   0.881 -0.1935  0.3348 -0.5924
 3006SOL    HW120480   0.110   3.007   0.852 -0.3269 -1.5391 -1.4439
 3006SOL    HW220481   0.030   3.050   0.962  0.8437 -0.5768 -0.1786
 3007SOL     OW20482   0.903   0.994   9.056 -0.0568 -0.0709  0.2321
 3007SOL    HW120483   0.943   0.956   8.977  1.0826 -1.1297  1.3292
 3007SOL    HW220484   0.811   0.973   9.038 -1.1911  4.6408  0.3059
 3008SOL     OW20485   0.326   2.252   5.984  0.3248 -0.1351  0.2788
 3008SOL    HW120486   0.310   2.246   6.078  0.2085  1.4853  0.3618
 3008SOL    HW220487   0.395   2.319   5.984  0.4417 -0.2509 -0.7065
 3009SOL     OW20488   4.117   3.526  13.862 -0.4746  0.0781 -0.2129
 3009SOL    HW120489   4.040   3.557  13.909 -0.0370 -0.3910  0.8185
 3009SOL    HW220490   4.186   3.588  13.887 -1.4689  1.1764 -0.1807
 3010SOL     OW20491   0.237   2.494   3.306  0.1303 -0.4798  0.4640
 3010SOL    HW120492   0.266   2.402   3.299  1.5630 -0.1189  1.7169
 3010SOL    HW220493   0.192   2.490   3.390 -1.0062  1.2872 -0.0720
 3011SOL     OW20494   4.197   4.581   1.265 -0.6161  0.2694  0.2188
 3011SOL    HW120495   4.131   4.633   1.310 -1.4809  1.9637 -2.9635
 3011SOL    HW220496   4.231   4.641   1.198 -0.1355  1.1359  1.2515
 3012SOL     OW20497   2.324   2.096   4.699 -0.3904  0.2815  0.3871
 3012SOL    HW120498   2.417   2.112   4.718  0.0255 -0.4637 -1.0316
 3012SOL    HW220499   2.324   2.093   4.603  2.0397 -0.8937  0.4411
 3013SOL     OW20500   1.856   0.928   6.668 -0.1113  0.2451  0.2020
 3013SOL    HW120501   1.944   0.915   6.633  0.3129  0.8354  1.0605
 3013SOL    HW220502   1.832   1.010   6.624 -0.8471  0.6281  1.3257
 3014SOL     OW20503   0.933   1.511   3.365 -0.0692  0.0351 -0.3814
 3014SOL    HW120504   0.917   1.467   3.281 -1.3487  0.6491 -0.4571
 3014SOL    HW220505   1.027   1.497   3.381 -0.1360 -0.9358 -0.8263
 3015SOL     OW20506   1.901   2.484   1.616  0.4846  0.1531 -0.1962
 3015SOL    HW120507   1.979   2.446   1.575 -0.4828 -2.3883  0.3084
 3015SOL    HW220508   1.834   2.425   1.581  1.0200 -0.7264  0.2593
 3016SOL     OW20509   2.553   1.511   6.614  0.1605  0.4623 -0.3719
 3016SOL    HW120510   2.585   1.567   6.544 -0.8798  1.0070 -0.4146
 3016SOL    HW220511   2.591   1.428   6.584  1.0220  0.4043  0.8553
 3017SOL     OW20512   1.139   0.894   6.419  0.3479  0.2049 -0.7077
 3017SOL    HW120513   1.057   0.850   6.440  0.0015  0.4228 -1.6451
 3017SOL    HW220514   1.163   0.866   6.331  1.0817 -0.6377 -0.2501
 3018SOL     OW20515   3.760   0.064   6.687 -0.0879  0.1832 -0.7101
 3018SOL    HW120516   3.788   0.060   6.595 -0.5515  0.8807 -0.8842
 3018SOL    HW220517   3.767   4.689   6.710  0.1716  0.3156 -0.2506
 3019SOL     OW20518   0.465   2.459   5.662  0.4342  0.2674  0.0510
 3019SOL    HW120519   0.462   2.554   5.664  3.7516  0.4273 -1.9737
 3019SOL    HW220520   0.538   2.440   5.721  0.5443  0.8600  0.1052
 3020SOL     OW20521   0.581   3.580   7.922 -0.2174 -0.3553 -0.0684
 3020SOL    HW120522   0.569   3.675   7.922 -2.1169 -0.5948 -1.5553
 3020SOL    HW220523   0.675   3.563   7.917 -0.4598 -1.5610 -0.4810
 3021SOL     OW20524   1.635   4.465   5.306  0.2227  0.4223  0.1265
 3021SOL    HW120525   1.689   4.544   5.294  0.8398  0.4685  3.3020
 3021SOL    HW220526   1.580   4.492   5.380 -0.9695  0.1781 -0.6727
 3022SOL     OW20527   1.558   2.717   9.754 -0.4023  0.0027  0.4027
 3022SOL    HW120528   1.644   2.717   9.713  0.3825 -2.8569  2.0277
 3022SOL    HW220529   1.511   2.652   9.701 -0.3135  0.7999 -0.6574
 3023SOL     OW20530   1.899   1.847   5.688  0.7376 -0.0330  0.3721
 3023SOL    HW120531   1.898   1.939   5.713  2.9897  0.0792  0.0819
 3023SOL    HW220532   1.806   1.828   5.702  0.7581  0.5192  1.2307
 3024SOL     OW20533   4.508   3.391   0.016 -0.1394  0.5398  0.0589
 3024SOL    HW120534   4.589   3.396  17.640 -0.7337  3.5622 -0.6272
 3024SOL    HW220535   4.487   3.484   0.023  0.6742  0.6006  1.8686
 3025SOL     OW20536   3.146   3.149   8.575 -0.6773 -0.8661  0.0186
 3025SOL    HW120537   3.111   3.191   8.495  1.5163  1.7775  0.4366
 3025SOL    HW220538   3.140   3.228   8.630  0.4149 -0.5244 -0.3544
 3026SOL     OW20539   2.463   3.307   7.362  0.3145  0.2948 -0.4315
 3026SOL    HW120540   2.492   3.295   7.453 -0.3821 -3.0473 -0.6523
 3026SOL    HW220541   2.463   3.218   7.329  0.9181 -0.0014  0.3623
 3027SOL     OW20542   3.335   0.088   0.523 -0.1167 -0.1720  0.3923
 3027SOL    HW120543   3.284   0.127   0.594 -0.1428 -0.6353  0.6294
 3027SOL    HW220544   3.332   4.712   0.543 -0.3878  0.0094  1.2267
 3028SOL     OW20545   2.871   2.759   8.681 -0.3100 -0.1762 -0.5379
 3028SOL    HW120546   2.925   2.688   8.715  0.1742  1.0140  1.2284
 3028SOL    HW220547   2.940   2.824   8.667 -0.8891  0.4506 -0.5199
 3029SOL     OW20548   2.284   4.498  16.318  0.4898  0.1579 -0.3268
 3029SOL    HW120549   2.194   4.530  16.316 -0.0418 -1.3126  0.5976
 3029SOL    HW220550   2.325   4.574  16.275 -0.0492 -0.2507 -1.5673
 3030SOL     OW20551   3.957   4.310  14.089  0.2941  0.3032  0.1584
 3030SOL    HW120552   3.950   4.367  14.012 -1.5646  0.3824  0.3865
 3030SOL    HW220553   3.879   4.255  14.083  1.2342 -1.1814  1.7172
 3031SOL     OW20554   1.046   0.305   6.570 -0.0614 -0.3927  0.5462
 3031SOL    HW120555   1.022   0.353   6.490  0.5127  0.6461  1.0030
 3031SOL    HW220556   1.083   0.221   6.543  2.5315  0.8381  0.2603
 3032SOL     OW20557   0.429   0.331   8.965  0.4428  0.8242  0.4018
 3032SOL    HW120558   0.462   0.349   9.054  0.3638 -1.9090  0.9956
 3032SOL    HW220559   0.380   0.409   8.938 -2.1255 -2.3167 -3.8709
 3033SOL     OW20560   3.212   1.615   0.797  0.3160  0.6883 -0.1257
 3033SOL    HW120561   3.287   1.658   0.756 -0.0296 -0.0571 -1.5784
 3033SOL    HW220562   3.250   1.594   0.882  2.6952  3.0923 -0.5807
 3034SOL     OW20563   0.151   4.612   6.276 -0.2022  0.0540  0.2816
 3034SOL    HW120564   0.144   4.579   6.365 -1.3976  3.1977  1.3547
 3034SOL    HW220565   0.180   4.702   6.292  0.0098  0.4274 -2.1999
 3035SOL     OW20566   1.698   4.546   9.019  0.1242 -0.4650  0.3900
 3035SOL    HW120567   1.679   4.454   9.037  1.3413 -1.1139 -1.7592
 3035SOL    HW220568   1.614   4.583   8.993  0.2677  0.5593  1.3725
 3036SOL     OW20569   4.059   1.626   8.602  0.1621 -0.7025 -0.1378
 3036SOL    HW120570   4.002   1.652   8.674 -0.2438  0.0698 -0.7438
 3036SOL    HW220571   4.147   1.651   8.631  0.1582 -0.7427 -0.0927
 3037SOL     OW20572   3.252   4.018  10.333  0.0706  0.0174  0.5909
 3037SOL    HW120573   3.316   4.059  10.391 -3.0538  3.6424  1.4718
 3037SOL    HW220574   3.312   3.998  10.261 -0.3238 -1.4895  0.6899
 3038SOL     OW20575   1.573   1.790  15.485 -0.0492  0.0383 -0.1519
 3038SOL    HW120576   1.618   1.839  15.415  0.0715  0.5810  0.3044
 3038SOL    HW220577   1.537   1.871  15.521  1.8983  0.8352  0.0156
 3039SOL     OW20578   1.513   1.286   2.756  0.0310 -0.3819 -0.0903
 3039SOL    HW120579   1.472   1.333   2.829  0.9219 -0.1360  0.2551
 3039SOL    HW220580   1.561   1.218   2.803  2.4617  0.6024 -1.0822
 3040SOL     OW20581   4.374   2.885  16.252 -0.6094  0.0716 -0.4516
 3040SOL    HW120582   4.388   2.951  16.320 -0.0540 -0.8786  0.3542
 3040SOL    HW220583   4.325   2.832  16.315  1.0628  0.2918  1.0103
 3041SOL     OW20584   0.942   2.448   3.924 -0.5206  0.0873 -0.2544
 3041SOL    HW120585   0.974   2.411   3.841 -1.1785 -0.9692 -0.0466
 3041SOL    HW220586   0.930   2.535   3.887  0.6543 -0.9333 -3.0692
 3042SOL     OW20587   4.387   3.696   0.384 -0.6395 -0.0265  0.0272
 3042SOL    HW120588   4.428   3.765   0.333  1.7507 -0.4436  1.3872
 3042SOL    HW220589   4.310   3.683   0.328 -0.3942 -1.5900  0.0499
 3043SOL     OW20590   0.300   0.402   5.954 -0.4297 -0.3519  0.3244
 3043SOL    HW120591   0.265   0.454   5.882  0.2499 -0.0754  0.1870
 3043SOL    HW220592   0.225   0.395   6.014  0.5269  0.8099  1.6663
 3044SOL     OW20593   3.565   0.863   0.298 -0.5615 -0.1958  0.3772
 3044SOL    HW120594   3.549   0.957   0.291 -0.0143 -0.1841 -0.7504
 3044SOL    HW220595   3.500   0.832   0.361 -0.3075  0.1732  0.8239
 3045SOL     OW20596   1.182   2.771   9.390 -0.0038  0.0815  0.1507
 3045SOL    HW120597   1.232   2.774   9.308 -0.4605 -1.7115 -0.1953
 3045SOL    HW220598   1.185   2.864   9.411  2.6680  0.1690 -0.5215
 3046SOL     OW20599   3.812   0.011   5.097  0.2539 -0.2062 -0.1200
 3046SOL    HW120600   3.731   0.023   5.046 -0.4468  0.8500  1.2571
 3046SOL    HW220601   3.795   4.639   5.126 -0.9440  0.0822  0.0775
 3047SOL     OW20602   0.235   3.683   9.334  0.7568 -0.3138 -0.2666
 3047SOL    HW120603   0.245   3.757   9.274 -0.0069  1.4947  1.8154
 3047SOL    HW220604   0.227   3.738   9.413 -2.0487 -3.9041  1.9335
 3048SOL     OW20605   0.693   2.292   3.957 -0.4467  0.2298  0.3742
 3048SOL    HW120606   0.744   2.273   4.036  2.0262 -0.1129 -1.2629
 3048SOL    HW220607   0.757   2.352   3.917  0.5890 -0.6323  0.7120
 3049SOL     OW20608   1.070   0.112   3.450  0.2298 -0.4271 -0.0613
 3049SOL    HW120609   1.061   0.020   3.474 -0.3065 -0.3588 -0.0061
 3049SOL    HW220610   0.991   0.129   3.398  0.2387 -1.5284 -0.4363
 3050SOL     OW20611   0.580   1.851   8.563 -0.1609  0.0543 -0.1930
 3050SOL    HW120612   0.651   1.906   8.530  0.3828 -0.5129  0.0367
 3050SOL    HW220613   0.594   1.764   8.527  1.5500 -0.2126  1.1109
 3051SOL     OW20614   3.366   0.764   0.438 -0.0048  0.0908 -0.2519
 3051SOL    HW120615   3.339   0.738   0.526  1.4852 -0.2616  0.1028
 3051SOL    HW220616   3.289   0.744   0.386  0.2983 -3.1297  0.5442
 3052SOL     OW20617   3.141   3.479   6.553  0.1805 -0.2320 -0.5807
 3052SOL    HW120618   3.162   3.544   6.620 -2.7734 -0.0739  0.1924
 3052SOL    HW220619   3.094   3.536   6.492 -2.0214 -0.8343  0.5744
 3053SOL     OW20620   2.348   1.005   4.931  0.0186  0.5270  0.2740
 3053SOL    HW120621   2.341   1.095   4.963  0.5656  0.4677  0.5539
 3053SOL    HW220622   2.262   0.976   4.961  0.0733  0.3930  0.3023
 3054SOL     OW20623   0.323   4.163  16.089 -0.4383 -0.1406  0.7838
 3054SOL    HW120624   0.404   4.144  16.136 -2.4579 -1.1465  3.9029
 3054SOL    HW220625   0.342   4.257  16.080  1.1315 -0.5992 -0.5261
 3055SOL     OW20626   2.635   4.077   6.696 -0.0167 -0.2332  0.0131
 3055SOL    HW120627   2.603   4.157   6.653  0.1389 -0.0607  0.2186
 3055SOL    HW220628   2.557   4.023   6.708 -0.0000 -0.1730  0.3989
 3056SOL     OW20629   4.675   0.654   8.514 -0.0800 -0.3239  0.3194
 3056SOL    HW120630   4.605   0.592   8.532  1.0432 -2.2331 -1.7800
 3056SOL    HW220631   0.036   0.601   8.498  0.5601  1.0429 -1.0278
 3057SOL     OW20632   4.317   1.447  10.222 -0.0021 -0.0364 -0.7866
 3057SOL    HW120633   4.321   1.357  10.189 -1.3673  0.1889 -1.5473
 3057SOL    HW220634   4.327   1.438  10.316  0.4799 -1.3892 -0.9590
 3058SOL     OW20635   3.547   2.072   8.468  0.4421 -0.5744  0.3881
 3058SOL    HW120636   3.614   2.080   8.536 -1.0066 -0.6042  1.7895
 3058SOL    HW220637   3.604   2.076   8.391 -0.7120  0.0601 -0.4242
 3059SOL     OW20638   3.624   2.161   7.460  1.0037 -0.5179  0.3858
 3059SOL    HW120639   3.604   2.159   7.367  0.0127 -1.3760  0.6080
 3059SOL    HW220640   3.705   2.209   7.446  0.4776  0.1476 -0.3523
 3060SOL     OW20641   1.802   0.147   8.523  0.2774  0.1439  0.6968
 3060SOL    HW120642   1.712   0.164   8.497 -0.6694 -0.2971  3.7082
 3060SOL    HW220643   1.796   0.156   8.618  0.8337  2.6689  0.5066
 3061SOL     OW20644   1.724   4.422   6.114  0.2904 -0.7437 -0.0536
 3061SOL    HW120645   1.647   4.467   6.079  0.7492  0.3131  0.3307
 3061SOL    HW220646   1.772   4.504   6.121 -1.0457 -0.0174  0.4439
 3062SOL     OW20647   2.466   2.650  17.414 -0.2151  0.0868 -0.0574
 3062SOL    HW120648   2.527   2.577  17.402 -1.8860 -1.0650 -1.7333
 3062SOL    HW220649   2.391   2.599  17.444 -1.9442  2.9180  0.4376
 3063SOL     OW20650   2.259   3.093   1.737 -0.1774 -0.3333  0.2300
 3063SOL    HW120651   2.225   3.183   1.741  1.8479  0.4246  0.7057
 3063SOL    HW220652   2.196   3.063   1.672  1.9142  1.7722 -2.8053
 3064SOL     OW20653   2.259   4.250  11.869  0.3983 -0.1612 -0.2002
 3064SOL    HW120654   2.186   4.277  11.813 -0.1789 -1.3587 -0.0373
 3064SOL    HW220655   2.331   4.288  11.820  0.5681 -1.0095 -0.6116
 3065SOL     OW20656   1.106   1.085   5.811 -0.1940  0.0037  0.0860
 3065SOL    HW120657   1.071   1.051   5.729  0.7136 -1.9723  0.5172
 3065SOL    HW220658   1.193   1.117   5.786  1.0937 -2.5965  1.2188
 3066SOL     OW20659   0.438   2.780   6.150  0.2089 -0.1357  0.1695
 3066SOL    HW120660   0.448   2.687   6.129  2.2175  0.1069  0.0792
 3066SOL    HW220661   0.522   2.810   6.184 -0.9822  1.7212  1.4334
 3067SOL     OW20662   2.495   0.169   2.313 -0.6209 -0.1751  0.0502
 3067SOL    HW120663   2.564   0.205   2.257 -0.8713 -0.6366 -0.5501
 3067SOL    HW220664   2.466   0.092   2.265  2.7905 -0.7056 -1.1439
 3068SOL     OW20665   0.642   3.964   8.347  0.1979  0.2460  0.2134
 3068SOL    HW120666   0.636   4.060   8.344 -0.3019  0.2143  0.1724
 3068SOL    HW220667   0.589   3.949   8.425  1.6404 -2.8289  0.5867
 3069SOL     OW20668   0.071   1.502   6.893 -0.2245  0.2432 -0.2785
 3069SOL    HW120669   0.135   1.568   6.865 -0.4982  1.2491  1.4952
 3069SOL    HW220670   0.043   1.536   6.978 -2.8443 -1.4755 -0.4372
 3070SOL     OW20671   2.484   1.954   8.244  0.4958 -0.5635  0.4050
 3070SOL    HW120672   2.451   1.920   8.161 -0.9760  1.5308  0.1246
 3070SOL    HW220673   2.491   2.048   8.225  1.5775 -0.3631  1.7471
 3071SOL     OW20674   2.069   3.209   5.530 -0.1575 -0.1279 -0.0024
 3071SOL    HW120675   2.032   3.242   5.612 -1.8892  0.0444 -0.8383
 3071SOL    HW220676   2.154   3.182   5.564  0.0228  0.5384  0.0853
 3072SOL     OW20677   3.917   2.283   7.392 -0.3091  0.5318  0.1507
 3072SOL    HW120678   3.921   2.379   7.394 -2.2038  0.6755 -2.1326
 3072SOL    HW220679   3.908   2.275   7.297 -0.1034  1.1360  0.0777
 3073SOL     OW20680   3.149   4.265   4.170 -0.6923 -0.1807  0.1092
 3073SOL    HW120681   3.243   4.261   4.190 -0.1950 -0.5446 -2.2229
 3073SOL    HW220682   3.131   4.178   4.205  1.0001  0.4323  2.4847
 3074SOL     OW20683   2.041   4.451  15.410  0.1395  0.1080 -0.2750
 3074SOL    HW120684   2.092   4.388  15.460 -2.4830 -1.3423  0.6192
 3074SOL    HW220685   2.030   4.538  15.448 -0.1202  0.9760 -2.3688
 3075SOL     OW20686   2.277   0.240  16.539  0.3354 -0.0257 -0.1809
 3075SOL    HW120687   2.337   0.290  16.593 -1.2905  2.3633 -0.6062
 3075SOL    HW220688   2.221   0.207  16.610  0.0553  0.2986 -0.2537
 3076SOL     OW20689   4.063   2.868   6.483 -0.9744  0.1083 -0.1415
 3076SOL    HW120690   4.057   2.940   6.547  0.9918 -0.1837  0.3598
 3076SOL    HW220691   4.063   2.918   6.401 -1.8254 -0.5773 -0.5618
 3077SOL     OW20692   4.488   1.935  15.159 -0.2711 -0.2636  0.0364
 3077SOL    HW120693   4.456   1.861  15.211 -0.0930  0.6865  1.4979
 3077SOL    HW220694   4.412   1.991  15.145  0.6895  1.6677  2.4305
 3078SOL     OW20695   0.109   0.078  13.676 -0.4017 -0.0482  0.1113
 3078SOL    HW120696   0.192   0.121  13.658 -0.6370  0.3356 -0.0589
 3078SOL    HW220697   0.125   0.003  13.733  1.1456 -0.7553 -1.2600
 3079SOL     OW20698   1.995   4.589  13.320 -0.1232  0.2932  0.1723
 3079SOL    HW120699   1.908   4.550  13.322 -0.8024  1.7570 -0.7371
 3079SOL    HW220700   2.047   4.518  13.359  2.4339  2.1319  0.1226
 3080SOL     OW20701   1.090   2.688   8.992 -0.2508 -0.1089 -0.6749
 3080SOL    HW120702   1.147   2.636   8.935 -0.4060 -1.4422  0.3940
 3080SOL    HW220703   1.081   2.635   9.071  0.1973  0.4345 -0.2578
 3081SOL     OW20704   2.419   4.101  11.262 -0.2565 -0.0947  0.5786
 3081SOL    HW120705   2.397   4.191  11.287  2.3901  0.2348  1.7313
 3081SOL    HW220706   2.329   4.069  11.257 -0.1905 -0.2845  0.6323
 3082SOL     OW20707   3.726   3.185   5.824 -0.4960  0.2201  0.0029
 3082SOL    HW120708   3.774   3.152   5.748  0.9950  0.3766  0.8836
 3082SOL    HW220709   3.754   3.127   5.895  0.7833 -0.5031 -1.0925
 3083SOL     OW20710   4.006   1.479   2.346  0.0943 -0.3832  0.0347
 3083SOL    HW120711   4.027   1.559   2.297 -1.4174  2.3131  3.8031
 3083SOL    HW220712   3.974   1.413   2.284 -0.7601  1.7558 -1.7901
 3084SOL     OW20713   1.066   1.899   1.690  0.1478  0.2882 -0.3912
 3084SOL    HW120714   1.107   1.946   1.617  0.2123  1.1257  0.1822
 3084SOL    HW220715   0.975   1.922   1.668  0.4672 -0.8354 -2.9224
 3085SOL     OW20716   0.058   3.767  12.757 -0.2456 -0.2105 -0.6532
 3085SOL    HW120717   0.138   3.736  12.716  1.7663 -0.0730  3.2092
 3085SOL    HW220718   0.032   3.839  12.700  0.9825  0.1248 -0.7883
 3086SOL     OW20719   4.003   3.576  16.483  0.1953  0.0373 -0.1124
 3086SOL    HW120720   3.971   3.486  16.476 -0.5901  0.2968  0.2000
 3086SOL    HW220721   4.089   3.550  16.449  0.3905 -0.3718  0.6839
 3087SOL     OW20722   0.076   1.268   7.107 -0.1596 -0.1207 -0.0976
 3087SOL    HW120723   0.153   1.309   7.145  0.7212 -0.2934 -1.6921
 3087SOL    HW220724   0.091   1.296   7.017 -4.2480  2.1330 -0.1057
 3088SOL     OW20725   2.518   2.626  15.293  1.3284 -0.2129  0.7678
 3088SOL    HW120726   2.465   2.570  15.236  4.2000  0.7992 -2.9719
 3088SOL    HW220727   2.585   2.561  15.316 -0.3940 -1.8702  1.0938
 3089SOL     OW20728   1.155   2.084  12.908  0.0516 -0.2289  0.0429
 3089SOL    HW120729   1.149   2.138  12.986 -0.5194  1.2933 -1.0410
 3089SOL    HW220730   1.090   2.015  12.920  0.5271 -0.9005 -1.1398
 3090SOL     OW20731   4.711   0.776   8.027 -0.0148  0.5202 -0.2532
 3090SOL    HW120732   4.655   0.743   8.097  1.7225  2.5320  2.0805
 3090SOL    HW220733   4.668   0.730   7.955 -1.1324 -0.5288  1.0966
 3091SOL     OW20734   0.313   1.750   6.323  0.0563  0.0962 -0.1112
 3091SOL    HW120735   0.351   1.706   6.247 -1.6778 -2.5764  0.5767
 3091SOL    HW220736   0.270   1.672   6.358  0.7251 -0.2970 -0.1641
 3092SOL     OW20737   0.703   2.062  15.846  0.4803  0.1377 -0.0607
 3092SOL    HW120738   0.772   2.125  15.826 -1.5214  1.9731 -1.1964
 3092SOL    HW220739   0.756   2.003  15.900 -0.0521  1.1524  1.5843
 3093SOL     OW20740   0.154   2.029  11.395  0.4525  0.3437 -1.2375
 3093SOL    HW120741   0.187   1.949  11.436  0.8783  0.6403 -1.0018
 3093SOL    HW220742   0.138   1.997  11.306 -1.8919 -0.0163 -0.6796
 3094SOL     OW20743   0.081   1.155   5.094  0.8921 -0.9023 -0.2216
 3094SOL    HW120744   0.106   1.129   5.006  3.3414  1.9660 -0.3829
 3094SOL    HW220745   4.716   1.202   5.086  1.1435 -0.9267 -2.9899
 3095SOL     OW20746   1.671   0.756  17.557  0.0727 -0.1077 -0.0720
 3095SOL    HW120747   1.693   0.849  17.563  1.8970 -0.5776  0.4918
 3095SOL    HW220748   1.676   0.727  17.648  0.4508 -0.8019 -0.3087
 3096SOL     OW20749   1.248   2.166  11.613 -0.1299 -0.2928  0.8329
 3096SOL    HW120750   1.322   2.122  11.654 -0.9781 -1.1790  1.4098
 3096SOL    HW220751   1.230   2.101  11.544  0.4118  0.2849  0.1521
 3097SOL     OW20752   2.201   0.333   4.519 -0.1160  0.2668 -0.1278
 3097SOL    HW120753   2.107   0.331   4.502 -0.2878  2.5965  0.4657
 3097SOL    HW220754   2.221   0.280   4.596 -2.0735 -1.2534 -0.6692
 3098SOL     OW20755   2.359   3.908  11.728  0.0000 -0.5014 -0.2753
 3098SOL    HW120756   2.376   3.827  11.679 -1.6294 -0.9576 -0.1096
 3098SOL    HW220757   2.272   3.931  11.696  0.4492 -1.1981 -1.9843
 3099SOL     OW20758   4.513   3.926   4.168  0.5581 -0.0422  0.0667
 3099SOL    HW120759   4.533   3.864   4.238 -1.0678 -0.0825  0.5133
 3099SOL    HW220760   4.596   3.973   4.158  0.7391 -0.3544  0.1272
 3100SOL     OW20761   0.390   3.389   9.444  0.2603  0.2407 -0.0791
 3100SOL    HW120762   0.395   3.479   9.476  0.9024  0.0693  0.3052
 3100SOL    HW220763   0.316   3.389   9.383 -1.2284 -2.4940  1.7141
 3101SOL     OW20764   2.728   3.030   6.436  0.2897 -0.5687 -0.0332
 3101SOL    HW120765   2.705   3.045   6.528  0.6420  1.3830 -0.2609
 3101SOL    HW220766   2.643   2.997   6.408  0.3016 -0.8770  0.2807
 3102SOL     OW20767   2.565   4.694   5.585 -0.2486  0.0874 -0.0056
 3102SOL    HW120768   2.660   4.700   5.573 -0.3477  1.4129 -0.0892
 3102SOL    HW220769   2.549   4.617   5.531  1.6250  0.3973 -1.0021
 3103SOL     OW20770   3.279   2.513  13.418 -0.5924  0.2267 -0.2068
 3103SOL    HW120771   3.209   2.578  13.413 -0.4364  0.2996 -1.3096
 3103SOL    HW220772   3.268   2.457  13.341 -0.2559 -0.6963  0.4026
 3104SOL     OW20773   4.692   1.345   8.316  0.2337 -0.2221 -0.6474
 3104SOL    HW120774   0.017   1.287   8.379 -2.1677  0.3874  1.5452
 3104SOL    HW220775   4.680   1.286   8.241  0.7001 -0.4262 -0.5610
 3105SOL     OW20776   1.736   2.597   2.393  0.6312  0.0854  0.5268
 3105SOL    HW120777   1.805   2.595   2.326  0.5924  2.2834  0.4233
 3105SOL    HW220778   1.782   2.595   2.477 -2.1469  1.1600  2.0767
 3106SOL     OW20779   3.757   0.107   4.017 -0.1255  0.7864 -0.2840
 3106SOL    HW120780   3.836   0.139   3.972 -0.6897  1.8578 -0.5328
 3106SOL    HW220781   3.791   0.037   4.073 -1.3866  0.4801  0.0789
 3107SOL     OW20782   3.073   2.366  12.944  0.2990  0.5441 -0.2525
 3107SOL    HW120783   3.089   2.303  13.014  2.8263  0.4046 -0.9552
 3107SOL    HW220784   3.094   2.313  12.867 -0.0216  1.6279 -1.0882
 3108SOL     OW20785   4.607   2.929   8.379 -0.2098  0.4561 -0.1958
 3108SOL    HW120786   4.548   2.874   8.327  0.1481 -0.9532  0.9134
 3108SOL    HW220787   4.637   2.865   8.443 -0.0915 -0.7612 -1.4721
 3109SOL     OW20788   4.220   4.572   3.339 -0.2069  0.2247  0.5230
 3109SOL    HW120789   4.308   4.602   3.360  0.8835 -3.1937  0.9072
 3109SOL    HW220790   4.175   4.653   3.317  1.8720  1.1335 -0.2926
 3110SOL     OW20791   3.441   2.434   5.708  0.2258 -0.1754  0.2126
 3110SOL    HW120792   3.477   2.507   5.758 -1.1422 -0.1292  1.1509
 3110SOL    HW220793   3.522   2.421   5.660  0.0570  1.4680 -0.5267
 3111SOL     OW20794   0.552   1.868   7.281  0.0752  0.3003 -0.1498
 3111SOL    HW120795   0.551   1.857   7.376 -1.1439 -1.7844 -0.4039
 3111SOL    HW220796   0.458   1.865   7.267  0.0180  2.2537 -0.1647
 3112SOL     OW20797   1.263   1.660  17.301  0.8397 -0.7688  0.6006
 3112SOL    HW120798   1.236   1.747  17.328  1.4897 -0.7421  1.1586
 3112SOL    HW220799   1.184   1.618  17.335 -0.9191  0.0403 -2.4655
 3113SOL     OW20800   1.973   2.958   9.185  0.5249 -0.3707 -0.1261
 3113SOL    HW120801   1.881   2.943   9.162  0.9838 -1.8228 -1.0476
 3113SOL    HW220802   1.967   3.033   9.243  1.2987  0.7114 -1.4471
 3114SOL     OW20803   1.609   0.814  11.125 -0.3069  0.4801 -0.1782
 3114SOL    HW120804   1.627   0.791  11.216 -1.3729 -2.4437 -0.7284
 3114SOL    HW220805   1.630   0.730  11.084 -1.2258 -0.2967  0.9520
 3115SOL     OW20806   2.817   2.233   5.534  0.3093 -0.2850 -0.2968
 3115SOL    HW120807   2.881   2.187   5.589 -1.8147 -1.7674  0.9612
 3115SOL    HW220808   2.874   2.296   5.489 -0.5269 -1.0514 -2.4139
 3116SOL     OW20809   0.166   0.503   6.441 -0.3464  0.0259  0.0186
 3116SOL    HW120810   0.224   0.560   6.391  0.4193  0.8910  1.8846
 3116SOL    HW220811   0.088   0.560   6.441  0.0098  0.4768 -2.6401
 3117SOL     OW20812   1.417   3.777   4.772 -0.2684 -0.0914  0.4261
 3117SOL    HW120813   1.441   3.699   4.722 -0.5593  0.7722 -1.0495
 3117SOL    HW220814   1.482   3.842   4.746 -1.7342  0.5853 -1.5431
 3118SOL     OW20815   0.356   1.200  10.424  0.0478  0.3382 -0.6467
 3118SOL    HW120816   0.341   1.295  10.422  0.8178  0.5025  2.1963
 3118SOL    HW220817   0.367   1.185  10.518 -0.9588  0.6454 -0.4786
 3119SOL     OW20818   4.015   2.406   0.032  0.0725 -0.3735 -0.1604
 3119SOL    HW120819   3.939   2.369   0.077 -0.2845  1.9054  1.1266
 3119SOL    HW220820   4.076   2.334   0.048  1.2121  0.7605  0.6492
 3120SOL     OW20821   2.477   4.000   2.521  0.1152 -0.3263  0.4758
 3120SOL    HW120822   2.430   3.931   2.568  1.9237 -0.2185  2.4777
 3120SOL    HW220823   2.486   3.969   2.431  0.8703 -0.5325  0.6188
 3121SOL     OW20824   3.103   2.914  10.426 -0.3142 -0.0444  0.3091
 3121SOL    HW120825   3.168   2.877  10.366 -1.5108 -1.6914  0.0253
 3121SOL    HW220826   3.142   2.898  10.512  1.0271 -0.1290 -0.3136
 3122SOL     OW20827   2.553   1.116  16.061  0.3530  0.3131  0.0749
 3122SOL    HW120828   2.497   1.180  16.105  0.5712  2.6014 -2.9563
 3122SOL    HW220829   2.632   1.169  16.055  0.2844  0.4296  0.1869
 3123SOL     OW20830   1.057   3.527   4.473  0.2791  0.9368  0.6309
 3123SOL    HW120831   1.004   3.552   4.398 -1.9555  0.2870  2.0189
 3123SOL    HW220832   1.029   3.588   4.540 -1.0619  1.9997 -0.8990
 3124SOL     OW20833   1.404   4.620   2.909  0.1857  0.4515  0.1829
 3124SOL    HW120834   1.344   4.623   2.984  0.1228  0.8117  0.1155
 3124SOL    HW220835   1.389   4.538   2.863  0.2115 -0.7075  2.2113
 3125SOL     OW20836   2.003   3.018  13.518 -0.1523  0.3529  0.3978
 3125SOL    HW120837   2.032   3.069  13.594 -2.9998 -0.2039  1.8659
 3125SOL    HW220838   1.910   3.016  13.540  0.3010 -1.5330  2.2509
 3126SOL     OW20839   3.311   0.428   4.014 -0.1370 -0.4614 -0.0009
 3126SOL    HW120840   3.313   0.472   3.929  0.0530 -0.3361  0.0681
 3126SOL    HW220841   3.382   0.364   4.017  0.5916  0.3269 -0.5675
 3127SOL     OW20842   3.761   3.389   0.889  0.5930  0.4366 -0.0685
 3127SOL    HW120843   3.731   3.304   0.922 -0.7305  0.7382 -0.4805
 3127SOL    HW220844   3.852   3.370   0.867  0.2821 -1.7776  0.5948
 3128SOL     OW20845   3.186   2.893   9.866  0.6277 -0.2137  0.1411
 3128SOL    HW120846   3.218   2.903   9.776 -0.7270 -1.1426 -0.4410
 3128SOL    HW220847   3.202   2.985   9.885 -1.1458 -0.3737  2.4697
 3129SOL     OW20848   3.454   1.455   9.267 -0.2412 -0.2075  0.3136
 3129SOL    HW120849   3.520   1.406   9.217 -1.2086 -0.6876 -0.4998
 3129SOL    HW220850   3.499   1.539   9.282  0.0178  0.1516 -2.4046
 3130SOL     OW20851   4.642   3.024   2.622 -0.2733  0.8785  0.1377
 3130SOL    HW120852   4.697   3.101   2.610 -0.6512  1.1471  0.1031
 3130SOL    HW220853   4.603   3.001   2.538 -0.4689  0.0572  0.4598
 3131SOL     OW20854   4.269   3.699  14.849  0.8010 -0.0668  0.0575
 3131SOL    HW120855   4.256   3.707  14.943  0.7422 -2.4116  0.2506
 3131SOL    HW220856   4.196   3.640  14.828  1.1295 -0.1334 -0.9322
 3132SOL     OW20857   0.159   2.090   2.877  0.0637 -0.0055  0.0947
 3132SOL    HW120858   0.146   2.151   2.949 -1.5984  1.0768 -1.1393
 3132SOL    HW220859   0.217   2.024   2.916 -0.2163  0.5114  1.3643
 3133SOL     OW20860   3.240   0.838   8.151 -0.4029  0.0476 -0.1500
 3133SOL    HW120861   3.319   0.882   8.183 -1.6297  2.2103 -0.1452
 3133SOL    HW220862   3.201   0.805   8.232 -1.4644  0.9045 -0.3198
 3134SOL     OW20863   3.298   2.177   4.454 -0.1643 -0.3340  0.2168
 3134SOL    HW120864   3.276   2.266   4.426  2.8498  0.3411  0.0074
 3134SOL    HW220865   3.210   2.148   4.476  0.2382 -0.3217  1.8073
 3135SOL     OW20866   2.336   4.063  14.116 -0.4294 -0.3081 -0.2917
 3135SOL    HW120867   2.343   3.990  14.177  0.0464 -0.5288 -0.6159
 3135SOL    HW220868   2.359   4.020  14.034  1.2640 -0.4036  0.2492
 3136SOL     OW20869   1.169   1.945   8.394 -0.2780  0.4082 -0.0738
 3136SOL    HW120870   1.112   1.869   8.400 -1.6422  1.3522 -1.1641
 3136SOL    HW220871   1.206   1.956   8.482 -0.3741 -2.0207  0.2747
 3137SOL     OW20872   0.947   1.519   7.294  0.2718 -0.6041  0.1497
 3137SOL    HW120873   0.977   1.585   7.232 -2.0441  0.3921  0.0927
 3137SOL    HW220874   0.990   1.442   7.256 -2.9720 -0.9029 -2.9197
 3138SOL     OW20875   1.987   3.867   5.662 -0.6683 -0.3000  0.4030
 3138SOL    HW120876   2.045   3.791   5.668  0.3355  0.2254 -2.6644
 3138SOL    HW220877   1.952   3.856   5.573 -1.5414  1.8750  0.4875
 3139SOL     OW20878   1.529   1.652   3.558 -0.0459 -0.2114 -0.5262
 3139SOL    HW120879   1.444   1.695   3.560  0.7000  1.1746  1.7257
 3139SOL    HW220880   1.576   1.714   3.614  0.3954 -1.3067  0.3141
 3140SOL     OW20881   2.158   0.679   2.529  0.5795 -0.1800  0.3956
 3140SOL    HW120882   2.216   0.608   2.556  0.3682 -0.7123 -0.5603
 3140SOL    HW220883   2.134   0.640   2.445  2.0890 -1.5104  0.5732
 3141SOL     OW20884   4.217   1.573   8.269 -0.0754  0.4066 -0.1666
 3141SOL    HW120885   4.221   1.560   8.364 -0.6235 -1.4257 -0.4001
 3141SOL    HW220886   4.167   1.497   8.239  1.0032 -0.5613  0.4640
 3142SOL     OW20887   2.436   2.572  14.722 -0.6698  0.3538 -0.3758
 3142SOL    HW120888   2.474   2.516  14.655 -3.1628  2.2171 -3.3115
 3142SOL    HW220889   2.366   2.519  14.761  1.0751 -0.6769  1.3427
 3143SOL     OW20890   4.256   3.356   8.955 -0.3975  0.2236 -0.3971
 3143SOL    HW120891   4.264   3.338   8.861  1.2003  0.1166 -0.2365
 3143SOL    HW220892   4.190   3.424   8.941  2.8783  3.1019 -1.6916
 3144SOL     OW20893   1.658   2.690  17.381 -1.1162  0.7328  0.7413
 3144SOL    HW120894   1.740   2.665  17.339 -0.4414  0.9923  1.9048
 3144SOL    HW220895   1.644   2.775  17.337  0.6159  0.5738 -0.1216
 3145SOL     OW20896   2.823   4.282  11.086  0.1762 -0.8190 -0.1131
 3145SOL    HW120897   2.913   4.295  11.058  0.3578 -3.7879 -0.8368
 3145SOL    HW220898   2.780   4.365  11.064 -0.7275 -1.2347  0.0617
 3146SOL     OW20899   0.196   4.647   4.018 -0.0071 -0.6193 -0.0869
 3146SOL    HW120900   0.253   4.626   3.945 -1.2300 -0.3713 -1.1065
 3146SOL    HW220901   0.263   4.665   4.084  1.3718  2.3471 -2.3093
 3147SOL     OW20902   3.845   0.562   8.006  0.7346  0.6121  0.1289
 3147SOL    HW120903   3.864   0.572   7.912 -1.2308 -1.8289 -0.5483
 3147SOL    HW220904   3.863   0.652   8.032 -1.8653  1.7943 -2.1067
 3148SOL     OW20905   4.048   3.964  16.045  0.4181 -0.0812 -0.0703
 3148SOL    HW120906   4.017   3.992  16.132 -0.6893 -4.3294  0.9492
 3148SOL    HW220907   4.141   3.945  16.052  0.2256 -0.8380  0.4848
 3149SOL     OW20908   1.084   4.401   7.989 -0.0701 -0.0016 -0.2643
 3149SOL    HW120909   1.108   4.313   7.959  1.6508  0.7674 -1.1364
 3149SOL    HW220910   1.164   4.453   7.994 -0.5470  0.6896  0.1338
 3150SOL     OW20911   1.212   3.442   1.731 -0.3433 -0.7226  0.2283
 3150SOL    HW120912   1.203   3.531   1.765  1.6472 -1.1683  1.8832
 3150SOL    HW220913   1.194   3.403   1.817  0.5179 -0.9271  0.3088
 3151SOL     OW20914   1.777   3.950   7.308  0.1634  0.3531 -0.3539
 3151SOL    HW120915   1.839   4.021   7.289  0.1353 -0.1850 -2.4846
 3151SOL    HW220916   1.837   3.886   7.344 -0.6605 -0.1175  0.1952
 3152SOL     OW20917   0.954   2.161   1.775 -1.1599  0.3179  0.1034
 3152SOL    HW120918   1.018   2.181   1.706 -0.5977  2.0934  1.1410
 3152SOL    HW220919   0.901   2.092   1.737 -0.7058  0.2857 -0.4831
 3153SOL     OW20920   3.416   3.661   4.571 -0.2243 -0.2667  0.2696
 3153SOL    HW120921   3.435   3.611   4.491 -0.9787  1.7335 -1.1663
 3153SOL    HW220922   3.416   3.750   4.537 -0.6422 -0.2031  0.4382
 3154SOL     OW20923   3.439   4.431   1.523 -0.2950 -0.1247  0.2372
 3154SOL    HW120924   3.405   4.467   1.605 -1.4645  1.5369 -0.9846
 3154SOL    HW220925   3.472   4.345   1.551 -1.3494 -0.7130 -0.3399
 3155SOL     OW20926   0.841   0.946   8.622  0.0827 -0.5253 -0.1788
 3155SOL    HW120927   0.890   0.999   8.685  1.7747 -1.2568 -0.8918
 3155SOL    HW220928   0.809   0.876   8.679 -0.6938 -0.0829 -0.0664
 3156SOL     OW20929   1.389   2.144   6.326  0.1262  0.2332  0.1241
 3156SOL    HW120930   1.383   2.195   6.245  0.0200 -0.3412 -0.2252
 3156SOL    HW220931   1.313   2.086   6.318  0.7352 -0.7194  1.3480
 3157SOL     OW20932   4.103   4.367   7.269  0.1806 -0.1269 -0.4682
 3157SOL    HW120933   4.076   4.278   7.291 -0.9622  0.1471 -0.7950
 3157SOL    HW220934   4.171   4.338   7.208 -1.0241 -0.3176 -1.7029
 3158SOL     OW20935   3.304   2.274   8.029  0.1308  0.4003 -0.1968
 3158SOL    HW120936   3.359   2.335   8.078  0.4172 -0.9692  1.1654
 3158SOL    HW220937   3.372   2.217   7.994  0.3179  0.6827 -0.2983
 3159SOL     OW20938   3.468   0.707  17.248 -0.1570  0.9204 -0.0991
 3159SOL    HW120939   3.555   0.686  17.213  0.4932  1.6846  1.0507
 3159SOL    HW220940   3.430   0.622  17.271  1.3709  0.5465  1.0815
 3160SOL     OW20941   3.491   1.802   9.136  0.1348 -0.7062  0.0101
 3160SOL    HW120942   3.548   1.817   9.061  0.3712 -0.8964  0.1499
 3160SOL    HW220943   3.482   1.892   9.167 -1.7199 -0.9186  0.1004
 3161SOL     OW20944   0.818   0.448   2.841 -0.0099 -0.1903  0.4320
 3161SOL    HW120945   0.886   0.479   2.901 -1.1692  1.6359  0.8145
 3161SOL    HW220946   0.841   0.500   2.763 -0.5055  0.0090  0.4216
 3162SOL     OW20947   3.133   2.208   7.599  0.5623  0.5117 -0.1212
 3162SOL    HW120948   3.115   2.239   7.510 -2.2051 -0.4440  0.1173
 3162SOL    HW220949   3.064   2.248   7.653  0.7268  0.1373  0.3664
 3163SOL     OW20950   2.558   3.142   2.331  0.5371  0.0501  0.0033
 3163SOL    HW120951   2.468   3.129   2.359  0.9555  0.3781  1.4997
 3163SOL    HW220952   2.577   3.219   2.386 -2.6072 -0.1328  1.2895
 3164SOL     OW20953   3.304   0.432   0.554  0.3191 -0.4689  0.6363
 3164SOL    HW120954   3.257   0.379   0.618 -1.0555 -0.5008 -0.3955
 3164SOL    HW220955   3.271   0.517   0.584 -0.1787  0.4770 -2.5360
 3165SOL     OW20956   4.513   3.652   6.407  0.2335 -0.9541 -0.1221
 3165SOL    HW120957   4.550   3.563   6.414  1.4954 -0.5052 -0.9554
 3165SOL    HW220958   4.529   3.674   6.315 -1.2194  1.0816  0.1302
 3166SOL     OW20959   2.840   3.640   5.232  0.5015 -0.0199 -0.1611
 3166SOL    HW120960   2.857   3.642   5.138  0.8585  1.6906 -0.0614
 3166SOL    HW220961   2.854   3.547   5.250 -1.8890 -0.1514  1.0709
 3167SOL     OW20962   2.296   0.197  17.544 -0.6804  0.8103 -0.2419
 3167SOL    HW120963   2.225   0.165  17.488 -0.5495 -1.2038  0.7517
 3167SOL    HW220964   2.350   0.220  17.468  1.3841 -1.4998  0.4966
 3168SOL     OW20965   3.423   1.766   4.253  0.0113 -0.5217  0.1571
 3168SOL    HW120966   3.386   1.686   4.216 -0.3515  0.0714 -0.7646
 3168SOL    HW220967   3.507   1.770   4.207  0.3975  1.6050  1.0518
 3169SOL     OW20968   1.903   2.000   2.682 -0.1693 -0.1746  0.1524
 3169SOL    HW120969   1.866   1.916   2.710  1.1151 -0.7713  0.0750
 3169SOL    HW220970   1.975   2.010   2.745 -1.1063 -1.7992  1.4672
 3170SOL     OW20971   3.799   3.612  11.989 -0.3484 -0.2969  0.4219
 3170SOL    HW120972   3.877   3.577  11.945 -0.9016  0.8240 -1.4880
 3170SOL    HW220973   3.820   3.584  12.078 -2.1671 -0.6194  0.7408
 3171SOL     OW20974   1.450   0.702   5.872 -0.0436  0.1583 -0.4910
 3171SOL    HW120975   1.393   0.626   5.884  1.6325 -0.9143  0.6744
 3171SOL    HW220976   1.472   0.684   5.780  0.7231  0.5234 -0.3835
 3172SOL     OW20977   2.239   3.133   0.161 -0.4602 -0.1355  0.0766
 3172SOL    HW120978   2.332   3.155   0.173 -0.6051  1.2806 -1.4508
 3172SOL    HW220979   2.214   3.084   0.239  0.4352  1.7746  1.5608
 3173SOL     OW20980   4.580   1.858   7.438 -0.4086 -0.1248  1.0215
 3173SOL    HW120981   4.554   1.948   7.457 -0.8385 -0.6245  2.8254
 3173SOL    HW220982   4.492   1.824   7.453 -0.0837 -1.8533 -0.9655
 3174SOL     OW20983   3.085   1.481   7.358 -0.6895 -0.6456  0.0791
 3174SOL    HW120984   3.011   1.477   7.418 -1.7850 -0.5512 -1.2446
 3174SOL    HW220985   3.118   1.391   7.360 -1.2548 -0.8544 -0.0490
 3175SOL     OW20986   4.034   0.717   2.625 -0.6003  0.4324  0.1835
 3175SOL    HW120987   4.067   0.807   2.624 -0.5749  0.3916 -2.4332
 3175SOL    HW220988   4.088   0.667   2.563  0.1202  1.5720 -0.1077
 3176SOL     OW20989   2.574   0.682  15.300 -0.0478 -0.1122  0.3420
 3176SOL    HW120990   2.666   0.680  15.328 -0.1838  2.5085  0.9989
 3176SOL    HW220991   2.553   0.590  15.318 -0.0759 -0.4144 -1.2248
 3177SOL     OW20992   2.287   3.073   5.728 -0.0457  0.1054  0.3711
 3177SOL    HW120993   2.259   2.992   5.770  0.9291 -0.3592  0.1334
 3177SOL    HW220994   2.256   3.145   5.783 -0.7564 -1.0422  1.4542
 3178SOL     OW20995   1.455   2.155   3.123 -0.5026  0.1714 -0.1030
 3178SOL    HW120996   1.382   2.216   3.131  1.3268  1.9836  2.7379
 3178SOL    HW220997   1.418   2.086   3.068 -0.1646 -1.2073  1.4254
 3179SOL     OW20998   1.512   4.658   3.904 -0.1810  0.1526  0.7625
 3179SOL    HW120999   1.591   4.712   3.911 -1.1986  1.6841  0.3227
 3179SOL    HW221000   1.457   4.681   3.978 -2.4637 -1.2740 -0.5054
 3180SOL     OW21001   2.385   1.583   7.915 -0.1477 -0.3955 -0.2111
 3180SOL    HW121002   2.292   1.595   7.933 -0.0956 -0.2543 -0.0383
 3180SOL    HW221003   2.415   1.501   7.954  0.0697  0.2324  0.9414
 3181SOL     OW21004   2.821   4.381   5.393  0.0107  0.0686 -0.1602
 3181SOL    HW121005   2.791   4.295   5.364  0.5070 -0.3102  0.4445
 3181SOL    HW221006   2.774   4.445   5.341  1.9654 -0.9994 -3.2780
 3182SOL     OW21007   2.669   2.958  11.439 -0.4166  0.5548  0.7419
 3182SOL    HW121008   2.621   2.893  11.388  0.4475  2.0912 -2.0479
 3182SOL    HW221009   2.667   3.035  11.382 -0.6284  0.4107  0.5526
 3183SOL     OW21010   1.888   2.545  17.338 -0.2985  0.8705  0.0343
 3183SOL    HW121011   1.860   2.475  17.279 -2.0186  0.7622  0.9708
 3183SOL    HW221012   1.903   2.488  17.414 -1.7377 -0.4807 -0.7087
 3184SOL     OW21013   1.536   2.479   2.229 -0.1168 -0.0303 -0.3117
 3184SOL    HW121014   1.595   2.504   2.301  1.3744 -0.5180 -1.3529
 3184SOL    HW221015   1.586   2.487   2.148  1.2609  1.6102  0.6989
 3185SOL     OW21016   0.718   2.299  14.392 -0.0093  0.3211 -0.7219
 3185SOL    HW121017   0.757   2.256  14.316  1.1787  1.5982 -0.8400
 3185SOL    HW221018   0.773   2.378  14.394 -0.0326  0.3187 -0.0285
 3186SOL     OW21019   1.566   1.688   2.514  0.0841 -0.1291 -0.0464
 3186SOL    HW121020   1.656   1.675   2.543 -0.5320 -3.8291  0.2047
 3186SOL    HW221021   1.540   1.774   2.549 -1.5239 -0.6821  0.1278
 3187SOL     OW21022   2.109   2.534   2.861  0.2895 -0.1538  0.1153
 3187SOL    HW121023   2.171   2.495   2.800  1.1736  0.0955  0.8563
 3187SOL    HW221024   2.170   2.555   2.932 -0.7709 -0.1239  1.0277
 3188SOL     OW21025   0.288   2.923  11.462 -0.0790  0.2135 -0.5075
 3188SOL    HW121026   0.274   3.018  11.462 -1.4421  0.0186  0.8184
 3188SOL    HW221027   0.260   2.905  11.551  0.3820  1.0648 -0.1963
 3189SOL     OW21028   0.752   0.299   2.224  0.0057 -0.0452 -0.4493
 3189SOL    HW121029   0.733   0.214   2.263 -0.7531  0.6325  0.6446
 3189SOL    HW221030   0.843   0.317   2.249  0.0779 -0.6269 -0.2928
 3190SOL     OW21031   3.236   4.188   3.746  0.7974  0.0742  0.2838
 3190SOL    HW121032   3.257   4.245   3.821 -2.7995  1.1315  0.4828
 3190SOL    HW221033   3.155   4.224   3.710  1.4850  2.3001  0.9402
 3191SOL     OW21034   4.147   3.894   2.811  0.2076  0.0567  0.5822
 3191SOL    HW121035   4.115   3.875   2.723 -0.5346  0.1107  0.8375
 3191SOL    HW221036   4.100   3.827   2.861  2.6166 -1.4157  0.8637
 3192SOL     OW21037   1.972   1.612   4.087 -0.2056  0.1793  0.4076
 3192SOL    HW121038   2.042   1.636   4.027  0.0140  1.6040  1.2380
 3192SOL    HW221039   2.005   1.529   4.121  0.7160  1.1246  1.8467
 3193SOL     OW21040   4.600   3.667   8.568  0.3999 -0.4569  0.0277
 3193SOL    HW121041   4.556   3.637   8.648 -0.9231  1.1459 -0.0851
 3193SOL    HW221042   4.551   3.612   8.508  1.5617 -1.7879  0.3173
 3194SOL     OW21043   3.714   3.047   7.252  0.0482 -0.0196  0.0004
 3194SOL    HW121044   3.748   3.136   7.257 -0.5689  0.1486  1.2551
 3194SOL    HW221045   3.663   3.047   7.333  1.6361 -1.6630  1.0010
 3195SOL     OW21046   0.363   0.345   0.070  0.6245  0.2121 -0.5591
 3195SOL    HW121047   0.434   0.401   0.099 -1.4503  0.9923  3.0315
 3195SOL    HW221048   0.297   0.356   0.138  0.3409 -3.0365 -0.3022
 3196SOL     OW21049   1.096   3.466   2.581 -0.2425 -0.0591 -0.0451
 3196SOL    HW121050   1.052   3.467   2.496  0.3861  5.1961 -0.2835
 3196SOL    HW221051   1.153   3.542   2.567  0.6245 -0.5680  0.7018
 3197SOL     OW21052   1.471   3.843   0.919  0.9193  0.2611 -0.2881
 3197SOL    HW121053   1.421   3.870   0.995 -0.0437  1.3769 -1.3104
 3197SOL    HW221054   1.493   3.922   0.869 -0.7643  1.9846  1.7129
 3198SOL     OW21055   4.160   2.511   7.369 -0.2212  0.4033  0.6393
 3198SOL    HW121056   4.121   2.539   7.286 -0.5475 -1.6087  0.1344
 3198SOL    HW221057   4.253   2.530   7.365 -0.3811  0.9556 -0.3580
 3199SOL     OW21058   1.966   2.898   5.532  0.1731 -0.3427  0.2955
 3199SOL    HW121059   1.954   2.992   5.518  0.2672 -0.1339  1.7007
 3199SOL    HW221060   1.879   2.864   5.514  1.1508 -2.6731  0.0017
 3200SOL     OW21061   0.038   3.779   4.268 -0.3257 -0.4446  0.1389
 3200SOL    HW121062   0.030   3.742   4.180  0.3647  2.0113 -0.9522
 3200SOL    HW221063   0.058   3.706   4.327 -0.7762 -0.7140 -0.0459
 3201SOL     OW21064   2.171   3.753  14.201 -0.5650 -0.1775 -0.5449
 3201SOL    HW121065   2.265   3.767  14.209 -0.4698 -0.8761 -0.4575
 3201SOL    HW221066   2.142   3.775  14.290  1.3657  1.4866 -0.3233
 3202SOL     OW21067   4.369   2.248   1.489  0.1874  0.4756 -0.1094
 3202SOL    HW121068   4.406   2.335   1.507  0.9182 -0.5491  3.2745
 3202SOL    HW221069   4.359   2.252   1.394 -1.1818 -1.1354 -0.0146
 3203SOL     OW21070   3.185   3.873  12.543 -0.3762 -0.0571 -0.3688
 3203SOL    HW121071   3.164   3.788  12.582 -1.3080  0.4001  0.1427
 3203SOL    HW221072   3.259   3.896  12.599 -1.5148 -1.6231  1.8014
 3204SOL     OW21073   1.643   1.566   8.965  0.6146 -0.0872 -0.0390
 3204SOL    HW121074   1.703   1.634   8.935  0.0752  1.0874  1.5581
 3204SOL    HW221075   1.647   1.592   9.057 -1.5092 -2.0012  0.5831
 3205SOL     OW21076   3.526   0.562   3.395 -0.2461  0.1356  0.1625
 3205SOL    HW121077   3.516   0.655   3.380  2.0814  0.1167 -1.5292
 3205SOL    HW221078   3.463   0.539   3.464  1.2281 -1.3526  1.0231
 3206SOL     OW21079   2.139   0.862  15.719  0.0794  0.1517 -0.2831
 3206SOL    HW121080   2.221   0.909  15.703  0.4866 -0.5065 -0.1058
 3206SOL    HW221081   2.150   0.818  15.803  0.6582 -4.1706 -2.6524
 3207SOL     OW21082   1.519   3.877   2.620  0.1714 -0.3155  0.4051
 3207SOL    HW121083   1.605   3.836   2.615  0.2830 -0.0601  0.2451
 3207SOL    HW221084   1.524   3.943   2.552  0.3319 -0.6370  0.1061
 3208SOL     OW21085   3.113   0.725   4.383 -0.3137  0.8720 -0.6626
 3208SOL    HW121086   3.021   0.700   4.385  0.0363 -0.3447  0.4589
 3208SOL    HW221087   3.134   0.685   4.298  0.2396  0.8271 -0.5013
 3209SOL     OW21088   0.955   0.940  13.337 -0.3723 -0.0976  0.5420
 3209SOL    HW121089   1.036   0.951  13.388  1.0596 -2.2865 -1.3109
 3209SOL    HW221090   0.890   0.961  13.404 -0.4216 -1.0032  0.7744
 3210SOL     OW21091   1.200   1.971   9.033 -0.4103  0.1049 -0.1866
 3210SOL    HW121092   1.153   2.042   8.990 -0.6450 -0.5481 -1.0215
 3210SOL    HW221093   1.287   2.003   9.009  0.3699 -0.2484  2.1434
 3211SOL     OW21094   1.404   2.715  16.145 -0.1457 -0.2628 -0.2195
 3211SOL    HW121095   1.331   2.745  16.199  1.3108  1.7284  0.6503
 3211SOL    HW221096   1.360   2.645  16.098 -2.0408 -1.0223  2.6865
 3212SOL     OW21097   1.361   2.294  16.196  0.1289  0.2352 -0.6024
 3212SOL    HW121098   1.287   2.310  16.255  1.0954 -1.1843  0.9729
 3212SOL    HW221099   1.335   2.213  16.152 -2.0018 -0.3131  1.7211
 3213SOL     OW21100   1.064   2.025   2.883  0.6032 -0.4944  0.5975
 3213SOL    HW121101   1.095   2.102   2.836 -1.1645 -0.1490 -0.0176
 3213SOL    HW221102   0.974   2.025   2.849  0.0213 -0.1854  2.1609
 3214SOL     OW21103   2.501   1.348  16.641 -0.2871 -0.1082  0.2764
 3214SOL    HW121104   2.538   1.388  16.719  1.7604  0.6729 -1.0981
 3214SOL    HW221105   2.557   1.393  16.578  0.2765  0.1455  0.9612
 3215SOL     OW21106   0.630   1.712   0.680  0.6534 -0.1615  0.7819
 3215SOL    HW121107   0.588   1.763   0.611  2.0911  0.1455  0.1486
 3215SOL    HW221108   0.665   1.638   0.630 -4.8518 -1.5675 -0.9577
 3216SOL     OW21109   1.638   4.086  14.239 -0.2375  0.1248  0.4318
 3216SOL    HW121110   1.562   4.054  14.289  0.2632  1.2257  1.8661
 3216SOL    HW221111   1.627   4.037  14.157  2.1576 -1.8382  1.2784
 3217SOL     OW21112   4.439   1.933   5.288  0.2742 -0.1857  0.3643
 3217SOL    HW121113   4.353   1.891   5.280  0.9589 -1.4689 -0.2892
 3217SOL    HW221114   4.505   1.864   5.276 -0.6823 -0.8878 -0.8681
 3218SOL     OW21115   4.504   3.505   5.347 -0.2322  0.0530 -0.3445
 3218SOL    HW121116   4.414   3.536   5.338 -0.3017 -0.2835 -0.8038
 3218SOL    HW221117   4.550   3.579   5.307 -1.1320  0.3574 -0.7985
 3219SOL     OW21118   2.664   3.458  13.154 -0.2833  0.0917 -0.1129
 3219SOL    HW121119   2.745   3.428  13.197  1.0652 -0.1357 -2.8547
 3219SOL    HW221120   2.674   3.552  13.169  1.4773 -0.1835  0.4495
 3220SOL     OW21121   0.608   2.113   6.094 -0.4248 -0.0007 -0.0231
 3220SOL    HW121122   0.565   2.046   6.146 -1.1053  0.5770  0.1726
 3220SOL    HW221123   0.693   2.098   6.133 -1.3290  0.5744  2.1761
 3221SOL     OW21124   0.148   0.061  14.838 -0.2698 -0.3982 -0.1586
 3221SOL    HW121125   0.084   4.713  14.815 -1.8544  0.3168  2.2361
 3221SOL    HW221126   0.098   0.142  14.847  1.8043  1.0542 -1.6457
 3222SOL     OW21127   4.150   4.688   4.786 -0.3593  0.1120 -0.1514
 3222SOL    HW121128   4.054   4.696   4.782 -0.4554 -1.2840 -0.5944
 3222SOL    HW221129   4.175   0.029   4.715  2.1044  1.6851  2.0252
 3223SOL     OW21130   4.386   1.494   2.847  0.3811  0.4373 -0.1306
 3223SOL    HW121131   4.410   1.586   2.846 -2.0408  1.0629 -1.8294
 3223SOL    HW221132   4.474   1.462   2.828 -0.1873  0.1799 -2.3154
 3224SOL     OW21133   0.031   1.025   7.737 -0.5314 -0.0052  0.0919
 3224SOL    HW121134   4.663   1.064   7.752 -0.3374  1.0402 -1.5274
 3224SOL    HW221135   0.075   1.050   7.818 -0.3420 -4.4450  1.3610
 3225SOL     OW21136   4.072   4.158   3.272  0.0228 -0.2801  0.3852
 3225SOL    HW121137   4.024   4.108   3.206 -1.2923  2.5975 -0.8401
 3225SOL    HW221138   4.005   4.197   3.328  0.0459 -0.7088  0.7135
 3226SOL     OW21139   2.013   3.307   9.148 -0.1252  0.4126  0.0027
 3226SOL    HW121140   1.994   3.286   9.239 -1.1665  0.2233 -0.2608
 3226SOL    HW221141   1.931   3.282   9.105 -0.0909  1.0642 -0.4306
 3227SOL     OW21142   2.432   0.437  16.665  0.1306 -0.2624  0.2527
 3227SOL    HW121143   2.500   0.413  16.728  0.6376 -0.7511 -0.4783
 3227SOL    HW221144   2.487   0.468  16.593 -0.1085  0.5810  0.4327
 3228SOL     OW21145   1.035   4.369  10.000  0.3046 -0.0617 -0.3676
 3228SOL    HW121146   1.074   4.448   9.963  2.8418 -0.6575  1.0039
 3228SOL    HW221147   0.998   4.307   9.937  0.3548  0.1342 -0.5877
 3229SOL     OW21148   4.445   4.251   1.844  0.2533 -0.0497 -0.2948
 3229SOL    HW121149   4.397   4.300   1.911 -2.6813 -0.4736 -2.0510
 3229SOL    HW221150   4.397   4.169   1.855 -0.3489  0.2879 -0.4030
 3230SOL     OW21151   0.250   0.339   3.787 -0.0855  0.8264  0.4426
 3230SOL    HW121152   0.225   0.248   3.804 -1.6357  1.1812  0.0644
 3230SOL    HW221153   0.303   0.321   3.710  1.0436  0.8172  1.2255
 3231SOL     OW21154   4.275   3.873   8.644 -0.0256  0.0863 -0.3966
 3231SOL    HW121155   4.320   3.805   8.695  0.2182 -0.9587 -1.9931
 3231SOL    HW221156   4.346   3.937   8.648  1.0480 -1.1622  0.7416
 3232SOL     OW21157   1.500   0.292   2.421 -0.2423  0.5161  0.1954
 3232SOL    HW121158   1.505   0.386   2.439  1.8150  0.6401 -0.9886
 3232SOL    HW221159   1.408   0.279   2.402  0.6604 -0.7316 -3.2311
 3233SOL     OW21160   2.294   4.059   4.987  0.0561  0.1278 -0.1871
 3233SOL    HW121161   2.288   3.983   4.930  1.1305 -0.4819  0.5160
 3233SOL    HW221162   2.208   4.068   5.029  0.6038  0.6759  0.8169
 3234SOL     OW21163   4.017   1.517  12.491 -0.1433 -0.2504 -0.0378
 3234SOL    HW121164   4.071   1.443  12.520 -0.5494 -0.2071  0.8265
 3234SOL    HW221165   3.970   1.474  12.420 -4.3686  2.3765  1.1807
 3235SOL     OW21166   1.609   2.185  12.507 -0.4113  0.2153 -0.3598
 3235SOL    HW121167   1.534   2.243  12.495 -0.2656  0.5468  0.3002
 3235SOL    HW221168   1.619   2.180  12.602 -0.8273  1.6173 -0.2386
 3236SOL     OW21169   0.554   3.644   6.543 -0.4968 -0.3302  0.2062
 3236SOL    HW121170   0.541   3.661   6.636 -2.2405 -0.1926 -0.0532
 3236SOL    HW221171   0.538   3.735   6.516 -1.0164 -0.2438  0.8022
 3237SOL     OW21172   4.374   3.862   1.118 -0.2739 -0.0757 -0.1466
 3237SOL    HW121173   4.465   3.834   1.109  0.0700  1.1037 -0.3347
 3237SOL    HW221174   4.380   3.957   1.125 -0.1928 -0.0882 -0.0403
 3238SOL     OW21175   0.914   3.545   5.857 -0.6371  0.2520  0.9646
 3238SOL    HW121176   0.866   3.628   5.847 -0.1119  0.6634  1.9247
 3238SOL    HW221177   0.851   3.490   5.811  0.3192 -0.1866  0.1750
 3239SOL     OW21178   3.966   3.418   2.869 -0.0296 -0.0489  0.1119
 3239SOL    HW121179   3.886   3.438   2.821  0.6586  1.3159 -0.4563
 3239SOL    HW221180   3.941   3.330   2.899  2.2395 -0.8001 -0.1888
 3240SOL     OW21181   2.478   1.322  13.788  0.0436 -0.3234 -0.3442
 3240SOL    HW121182   2.395   1.283  13.814  1.6337 -1.6380  2.6559
 3240SOL    HW221183   2.461   1.409  13.826 -1.9835 -1.3306  1.0288
 3241SOL     OW21184   3.378   2.242   1.884 -0.4636 -0.1600  0.2474
 3241SOL    HW121185   3.293   2.265   1.847 -0.9660  0.6163  1.8696
 3241SOL    HW221186   3.359   2.156   1.922  1.3060 -1.2306 -1.2616
 3242SOL     OW21187   2.966   2.617   1.928 -0.2213  0.4945  0.0659
 3242SOL    HW121188   2.884   2.583   1.892  0.2310  0.1117 -0.5916
 3242SOL    HW221189   2.931   2.696   1.969  0.0455  1.7759 -2.1404
 3243SOL     OW21190   2.790   0.924   3.327 -0.7250  0.4276 -0.0772
 3243SOL    HW121191   2.765   0.984   3.397  0.6226  0.2007  0.5964
 3243SOL    HW221192   2.713   0.869   3.311 -2.1020  2.4991 -0.5503
 3244SOL     OW21193   4.007   0.110   7.550  0.0676 -0.5105 -0.1205
 3244SOL    HW121194   4.007   0.197   7.590  0.5004 -0.8993  0.7336
 3244SOL    HW221195   4.008   0.135   7.458  1.1346  0.3143  0.1154
 3245SOL     OW21196   4.274   2.031  16.668  0.0569  0.3014 -0.1675
 3245SOL    HW121197   4.281   1.962  16.734  0.6835 -0.6892 -1.2743
 3245SOL    HW221198   4.194   2.075  16.697  0.5840  0.7744  0.5364
 3246SOL     OW21199   2.966   0.671   6.269 -0.2920  0.0709 -0.0086
 3246SOL    HW121200   2.944   0.697   6.359 -1.4929 -0.6218 -0.1136
 3246SOL    HW221201   2.955   0.750   6.217  0.8917  0.7686  0.8054
 3247SOL     OW21202   0.770   4.715  17.069 -0.0590 -0.4083  0.5196
 3247SOL    HW121203   0.704   4.660  17.111 -0.9806  1.4215  1.4769
 3247SOL    HW221204   0.832   4.646  17.046  0.5427  1.2315 -2.8707
 3248SOL     OW21205   3.368   2.631   8.726 -0.1528 -0.0422 -0.3927
 3248SOL    HW121206   3.424   2.708   8.721 -0.9268  0.4549 -1.5024
 3248SOL    HW221207   3.280   2.668   8.736 -0.0631 -0.0972  0.6223
 3249SOL     OW21208   0.688   0.323  16.925  0.4901  0.4735 -0.1208
 3249SOL    HW121209   0.677   0.397  16.986 -0.1697  0.8709 -0.7210
 3249SOL    HW221210   0.679   0.373  16.844 -1.0153  0.6415  0.1409
 3250SOL     OW21211   3.685   1.630  12.553 -0.1113 -0.1874 -0.1979
 3250SOL    HW121212   3.676   1.552  12.497 -1.0253 -0.3788  0.2137
 3250SOL    HW221213   3.608   1.682  12.527 -1.3194 -1.6841  0.3758
 3251SOL     OW21214   1.704   2.850  16.769  0.0110 -0.1108 -0.1977
 3251SOL    HW121215   1.734   2.913  16.835  0.0343  0.9193 -1.1851
 3251SOL    HW221216   1.641   2.798  16.819 -2.8683  2.2573 -1.3702
 3252SOL     OW21217   4.213   0.376   6.656 -0.4208 -0.0611  0.3736
 3252SOL    HW121218   4.272   0.437   6.700  0.0260 -1.7708  2.1423
 3252SOL    HW221219   4.227   0.300   6.713 -1.0005  0.7250  1.5805
 3253SOL     OW21220   1.566   3.175   6.859 -0.7601 -0.1050  0.2956
 3253SOL    HW121221   1.659   3.173   6.837 -1.2269  1.4730 -1.8446
 3253SOL    HW221222   1.532   3.221   6.783  0.6911  3.1826  1.6111
 3254SOL     OW21223   1.974   1.682   5.173  0.1064 -0.1086 -0.0282
 3254SOL    HW121224   2.062   1.720   5.175  0.1013 -0.1446  0.7441
 3254SOL    HW221225   1.950   1.692   5.265 -0.9981  0.5721 -0.3963
 3255SOL     OW21226   0.792   4.430  17.655  0.1602  0.6928 -0.1558
 3255SOL    HW121227   0.738   4.447   0.058 -3.4120 -0.0675 -2.4742
 3255SOL    HW221228   0.761   4.341  17.636  1.1766  0.3661 -0.2981
 3256SOL     OW21229   1.756   1.172   6.544 -0.0422 -0.2706  0.0481
 3256SOL    HW121230   1.756   1.167   6.448 -1.6242 -1.4356  0.1148
 3256SOL    HW221231   1.795   1.256   6.567  2.0845 -2.0705  3.0089
 3257SOL     OW21232   3.902   2.322  12.853  0.1178  0.6783 -0.8028
 3257SOL    HW121233   3.992   2.299  12.829  0.5776  2.9070 -1.2754
 3257SOL    HW221234   3.854   2.313  12.771 -0.0370 -2.7511 -0.3550
 3258SOL     OW21235   0.899   0.775   6.507  0.1701  0.1733  0.1173
 3258SOL    HW121236   0.810   0.806   6.522  0.6822  2.4479 -1.5490
 3258SOL    HW221237   0.924   0.719   6.580 -0.0615  0.7930  0.6717
 3259SOL     OW21238   4.477   2.142   4.440  0.2321 -0.6733 -0.2860
 3259SOL    HW121239   4.506   2.213   4.498 -0.3066  0.2728 -1.1693
 3259SOL    HW221240   4.560   2.098   4.424  2.0102  2.3060  0.7045
 3260SOL     OW21241   2.203   1.241   6.767 -0.1450  0.0609  0.7482
 3260SOL    HW121242   2.208   1.248   6.862  0.1929 -2.6331  0.9152
 3260SOL    HW221243   2.252   1.320   6.743 -1.7372  1.0409  0.6262
 3261SOL     OW21244   4.080   0.003  14.666 -0.4915  0.5434  0.0039
 3261SOL    HW121245   4.091   4.627  14.683 -2.2671  0.5062  0.9330
 3261SOL    HW221246   4.132   0.014  14.587 -0.6975 -0.6310 -0.3077
 3262SOL     OW21247   4.701   3.771   7.574 -0.2167  0.5264  0.2078
 3262SOL    HW121248   4.619   3.774   7.624 -1.2630 -0.3538 -1.4317
 3262SOL    HW221249   4.711   3.863   7.549  1.6620  0.3794  0.4167
 3263SOL     OW21250   0.608   0.517   2.378  0.1718 -0.2566  0.1020
 3263SOL    HW121251   0.643   0.436   2.339 -0.1251 -0.2919 -0.0904
 3263SOL    HW221252   0.520   0.520   2.342  0.2783 -1.1523 -0.2411
 3264SOL     OW21253   3.361   0.612   4.962 -0.3622  0.0170 -0.4169
 3264SOL    HW121254   3.331   0.530   5.002  0.1683 -0.5004 -1.0698
 3264SOL    HW221255   3.298   0.681   4.984 -1.2794 -0.3868 -1.7768
 3265SOL     OW21256   1.682   1.035  17.595  0.0693  0.2288 -0.3556
 3265SOL    HW121257   1.622   1.093  17.548 -0.9126 -2.9066 -2.9479
 3265SOL    HW221258   1.657   1.068   0.007 -2.4442 -1.4653 -0.4430
 3266SOL     OW21259   2.884   3.406   2.856 -0.1125  0.1580  0.4896
 3266SOL    HW121260   2.867   3.350   2.780  1.2922 -1.0644  1.0859
 3266SOL    HW221261   2.904   3.341   2.922  0.4353  0.9237  1.0753
 3267SOL     OW21262   0.112   3.924   1.265 -0.1238  0.1230 -0.0268
 3267SOL    HW121263   0.124   3.837   1.226 -2.4597  0.0363 -0.5063
 3267SOL    HW221264   0.031   3.918   1.315 -1.9120 -2.2325 -3.2174
 3268SOL     OW21265   0.845   1.933   6.810 -0.4977 -0.0877  0.5925
 3268SOL    HW121266   0.921   1.926   6.752  0.2236  1.9545  1.2525
 3268SOL    HW221267   0.789   1.864   6.776  1.7093 -0.6410 -1.9043
 3269SOL     OW21268   1.226   3.386   9.261  0.6252  0.0494 -0.8557
 3269SOL    HW121269   1.143   3.418   9.296  1.1995 -0.5067  1.0296
 3269SOL    HW221270   1.247   3.314   9.320 -0.7029 -1.3971 -2.1567
 3270SOL     OW21271   3.793   4.089   3.659 -0.2268 -0.6161 -0.0444
 3270SOL    HW121272   3.769   4.107   3.568  0.3105  2.7336  0.4873
 3270SOL    HW221273   3.841   4.008   3.643  0.0004 -0.4011 -0.4546
 3271SOL     OW21274   2.387   4.312   2.105  0.2681 -0.5794 -0.1787
 3271SOL    HW121275   2.461   4.255   2.128 -0.3210 -1.0202  0.6351
 3271SOL    HW221276   2.331   4.298   2.181  1.1580  2.5677  1.0633
 3272SOL     OW21277   0.358   3.641   9.045 -0.3457 -0.9812  0.1068
 3272SOL    HW121278   0.302   3.589   9.104 -2.2357 -0.8370 -1.5429
 3272SOL    HW221279   0.293   3.663   8.978 -0.1048  0.9833  0.5220
 3273SOL     OW21280   2.553   1.725  16.771 -0.3350 -0.0245  0.5473
 3273SOL    HW121281   2.610   1.666  16.820 -0.1117 -2.2671 -2.4441
 3273SOL    HW221282   2.575   1.703  16.681 -1.5848 -0.0698  0.2473
 3274SOL     OW21283   1.156   4.497   9.726 -0.3434 -0.6472 -0.2410
 3274SOL    HW121284   1.073   4.500   9.679 -0.9757 -1.4798  0.8325
 3274SOL    HW221285   1.202   4.419   9.695 -0.5419 -1.0840  0.5610
 3275SOL     OW21286   3.398   1.543   5.036  0.1942 -0.5655 -0.3258
 3275SOL    HW121287   3.316   1.559   5.082  1.5052  0.9565  1.5188
 3275SOL    HW221288   3.455   1.607   5.079  0.0883  0.1524 -1.2342
 3276SOL     OW21289   3.184   0.513  16.881 -0.4882  0.1161  0.1737
 3276SOL    HW121290   3.153   0.487  16.795 -0.3821 -1.6365  0.6723
 3276SOL    HW221291   3.273   0.540  16.861 -0.4482 -1.2769 -1.4372
 3277SOL     OW21292   4.499   3.247  15.262 -0.0136  0.0964  0.2179
 3277SOL    HW121293   4.563   3.179  15.242  0.5146  0.6836 -0.0764
 3277SOL    HW221294   4.551   3.311  15.312 -1.1535  1.8782 -0.8593
 3278SOL     OW21295   4.067   0.239   4.528 -0.2403  0.8575  0.6464
 3278SOL    HW121296   3.999   0.187   4.486  1.0677  2.4762 -3.4931
 3278SOL    HW221297   4.082   0.298   4.454  0.5324  0.4598  0.4829
 3279SOL     OW21298   0.613   2.497   1.817 -0.5900  0.2833  0.2337
 3279SOL    HW121299   0.635   2.407   1.792  0.3400  0.2722  1.0795
 3279SOL    HW221300   0.640   2.501   1.909 -0.9577  1.4923  0.2875
 3280SOL     OW21301   2.034   4.194  15.114 -0.0390  0.4213  0.2922
 3280SOL    HW121302   1.951   4.241  15.122  0.3494  1.0605  0.5728
 3280SOL    HW221303   2.079   4.244  15.047  0.0148  0.5374  0.4150
 3281SOL     OW21304   1.154   1.261   2.636 -0.2189  0.3696 -0.0515
 3281SOL    HW121305   1.093   1.195   2.669 -0.3678  1.7328  2.4599
 3281SOL    HW221306   1.176   1.306   2.717 -1.0200 -1.8999  1.4259
 3282SOL     OW21307   3.306   2.342  13.196  0.1692  0.0447 -0.0734
 3282SOL    HW121308   3.266   2.397  13.128 -0.4444  2.3077  2.1206
 3282SOL    HW221309   3.258   2.260  13.182 -1.9707  1.1124  0.8709
 3283SOL     OW21310   0.085   3.072   3.933  0.1713 -0.3260  0.0749
 3283SOL    HW121311   0.001   3.036   3.958 -0.3209 -0.5727 -1.9540
 3283SOL    HW221312   0.116   3.018   3.860 -1.9278 -1.9412  0.3961
 3284SOL     OW21313   1.714   2.283  10.777  0.0948 -0.5049  0.3096
 3284SOL    HW121314   1.705   2.318  10.689  0.5269 -0.0132  0.4650
 3284SOL    HW221315   1.631   2.236  10.785 -0.0742  0.0749  1.9535
 3285SOL     OW21316   2.418   0.684   8.745  0.1806 -0.6059 -0.1327
 3285SOL    HW121317   2.507   0.711   8.769  0.4769 -1.1107 -0.6647
 3285SOL    HW221318   2.374   0.770   8.743 -1.2872 -1.3804 -1.3354
 3286SOL     OW21319   3.370   4.405   6.520 -0.4017  0.1628  0.3938
 3286SOL    HW121320   3.427   4.341   6.562 -1.0358  0.4238  1.6546
 3286SOL    HW221321   3.383   4.473   6.586 -1.8627 -1.2572  2.1455
 3287SOL     OW21322   3.848   0.193   6.916 -0.0621  0.0084  0.8113
 3287SOL    HW121323   3.820   0.144   6.838  0.0094  2.7739 -0.9432
 3287SOL    HW221324   3.892   0.125   6.967 -0.9835 -1.8917 -0.8962
 3288SOL     OW21325   3.739   4.602   7.715 -0.0146 -0.0304  0.7276
 3288SOL    HW121326   3.722   4.507   7.715 -1.4613  0.1997 -3.9249
 3288SOL    HW221327   3.809   4.599   7.780 -1.5577 -3.4812  2.2277
 3289SOL     OW21328   4.490   2.504   3.354  0.2145  0.4093  0.0573
 3289SOL    HW121329   4.418   2.481   3.296 -1.0044  2.5326  0.6891
 3289SOL    HW221330   4.506   2.425   3.406 -1.1856 -1.2214 -2.0220
 3290SOL     OW21331   4.664   3.347   3.568 -0.0657 -0.1784 -0.0327
 3290SOL    HW121332   4.692   3.339   3.660 -1.0420 -1.1187  0.1866
 3290SOL    HW221333   4.572   3.320   3.563  0.3115 -0.9795 -2.5524
 3291SOL     OW21334   1.599   1.509   8.700  0.2968 -0.5287  0.1721
 3291SOL    HW121335   1.632   1.593   8.667 -1.2530  0.6519  1.6211
 3291SOL    HW221336   1.611   1.530   8.793 -0.9864  1.2921 -0.0773
 3292SOL     OW21337   2.649   3.272   5.379  0.0412  0.2795  0.5691
 3292SOL    HW121338   2.583   3.255   5.446  0.5841  0.6295  1.1996
 3292SOL    HW221339   2.702   3.192   5.385  0.9191  0.7074 -1.5783
 3293SOL     OW21340   4.277   2.174   4.924  0.3582  0.8399 -0.6640
 3293SOL    HW121341   4.341   2.129   4.870  0.5389 -0.2206  0.4212
 3293SOL    HW221342   4.331   2.179   5.004 -0.6250  0.0230  0.0514
 3294SOL     OW21343   3.250   3.168   5.304 -0.2761  0.6050  0.5439
 3294SOL    HW121344   3.314   3.099   5.322  1.7034  2.2338 -0.2424
 3294SOL    HW221345   3.286   3.244   5.350 -0.4039 -1.4181  3.9962
 3295SOL     OW21346   2.058   0.275   5.407 -0.3849  0.5197 -0.5535
 3295SOL    HW121347   2.117   0.213   5.450 -2.0196  0.1721  1.1493
 3295SOL    HW221348   2.045   0.222   5.328  2.0697 -2.4200  0.9900
 3296SOL     OW21349   3.146   4.208   3.285  0.3169  0.3070  0.3440
 3296SOL    HW121350   3.129   4.147   3.357  0.2448 -1.9639 -1.5831
 3296SOL    HW221351   3.207   4.271   3.324 -0.7037  0.2116  2.0941
 3297SOL     OW21352   1.299   2.647  15.532 -0.3280  0.3202 -0.2604
 3297SOL    HW121353   1.358   2.605  15.469 -1.4532  0.0115 -1.1107
 3297SOL    HW221354   1.288   2.735  15.496 -1.8817 -0.8125 -2.5291
 3298SOL     OW21355   3.625   3.826   6.878 -0.0129 -0.2881  0.2853
 3298SOL    HW121356   3.666   3.898   6.831 -3.5628  2.2860  1.0870
 3298SOL    HW221357   3.703   3.771   6.882  0.3484  0.0489 -2.4273
 3299SOL     OW21358   3.234   3.741   1.925  0.6141  0.4304  0.1800
 3299SOL    HW121359   3.161   3.798   1.902  0.3479  0.5798  1.4508
 3299SOL    HW221360   3.263   3.733   1.834 -0.7070  2.0111 -0.3726
 3300SOL     OW21361   4.471   1.787   3.155 -0.7369 -0.2306 -0.3791
 3300SOL    HW121362   4.502   1.744   3.075  0.1809  2.4885 -1.4748
 3300SOL    HW221363   4.554   1.823   3.185 -0.9187  0.5424 -0.8191
 3301SOL     OW21364   4.230   3.254   6.445  0.1697  0.1179  0.3008
 3301SOL    HW121365   4.283   3.323   6.486 -0.4450 -0.6390  2.3675
 3301SOL    HW221366   4.173   3.229   6.517  2.0533 -0.7576  1.4987
 3302SOL     OW21367   2.049   1.681   6.737  0.3537  0.1208 -0.0503
 3302SOL    HW121368   1.954   1.688   6.743  0.5275 -0.2634  3.0978
 3302SOL    HW221369   2.063   1.710   6.647 -1.4053 -2.5943 -1.1938
 3303SOL     OW21370   1.046   3.133   2.824 -0.1499 -0.1102  0.5229
 3303SOL    HW121371   0.998   3.131   2.906  0.2641  0.2198  0.7752
 3303SOL    HW221372   1.086   3.221   2.824  1.4544 -0.8284 -0.7847
 3304SOL     OW21373   3.920   3.505  15.074 -0.1180 -0.2140  0.5851
 3304SOL    HW121374   3.855   3.525  15.007  1.1571  0.7008 -0.3755
 3304SOL    HW221375   3.952   3.417  15.053  2.4068  0.9132 -0.3496
 3305SOL     OW21376   3.110   0.552   8.641 -0.0209 -0.7136 -0.0551
 3305SOL    HW121377   3.088   0.483   8.703  1.3862  0.7820  2.0777
 3305SOL    HW221378   3.162   0.609   8.696  1.3732 -0.8524 -1.2383
 3306SOL     OW21379   2.460   2.679   5.892  0.4148 -0.0031  0.0251
 3306SOL    HW121380   2.502   2.763   5.910 -0.1308  0.1353  0.6353
 3306SOL    HW221381   2.521   2.628   5.945 -0.7592 -1.9404 -0.4956
 3307SOL     OW21382   1.841   1.422   6.208 -0.0200  0.4218 -0.1683
 3307SOL    HW121383   1.821   1.431   6.114 -0.4168  0.1486 -0.1113
 3307SOL    HW221384   1.762   1.457   6.249 -1.0812 -1.1917 -0.8316
 3308SOL     OW21385   3.763   1.970  15.903 -0.0833 -0.3633 -0.3169
 3308SOL    HW121386   3.677   1.964  15.861  1.3674 -1.3716 -3.1206
 3308SOL    HW221387   3.776   1.875  15.908 -0.1141 -0.2779  1.2588
 3309SOL     OW21388   0.279   3.228   3.139 -0.4473 -0.1400  0.3877
 3309SOL    HW121389   0.221   3.156   3.163  1.4606 -1.7005  0.2792
 3309SOL    HW221390   0.251   3.238   3.048 -0.1520  0.0252  0.3162
 3310SOL     OW21391   0.432   0.106  14.543 -0.2730  0.1981  0.1140
 3310SOL    HW121392   0.494   0.035  14.563  1.1711  1.3864 -0.1131
 3310SOL    HW221393   0.372   0.060  14.485 -0.7920 -2.2176  2.5690
 3311SOL     OW21394   0.014   1.157   9.343 -1.0379 -0.3553  0.2298
 3311SOL    HW121395   0.029   1.088   9.278 -0.9307 -0.6108  0.5264
 3311SOL    HW221396   4.664   1.213   9.304 -0.9111 -1.2658 -1.3083
 3312SOL     OW21397   4.406   3.856   5.649  0.0992 -0.5732  0.0751
 3312SOL    HW121398   4.417   3.795   5.722  0.5808  0.1921  0.6469
 3312SOL    HW221399   4.325   3.902   5.667 -0.1283 -0.7484 -0.4959
 3313SOL     OW21400   2.054   4.506   4.181  0.0621 -0.6349  0.0282
 3313SOL    HW121401   2.141   4.511   4.143 -0.6605  2.0063 -1.2774
 3313SOL    HW221402   2.060   4.454   4.262  0.4305  1.7245  1.5295
 3314SOL     OW21403   0.132   0.054   7.531  0.2649  0.6388 -0.4530
 3314SOL    HW121404   0.147   0.090   7.444  1.9851 -2.5205 -1.4908
 3314SOL    HW221405   0.040   0.029   7.542  0.6716 -0.6840 -0.0681
 3315SOL     OW21406   1.447   0.763   6.675  0.0917 -0.4941 -0.1078
 3315SOL    HW121407   1.517   0.805   6.725 -2.1608 -0.3444  2.8898
 3315SOL    HW221408   1.395   0.734   6.750  1.4189 -0.9430  0.6341
 3316SOL     OW21409   3.437   4.650   2.198  0.2777  0.1636 -0.3508
 3316SOL    HW121410   3.445   4.625   2.106 -1.3498 -0.2298 -0.3963
 3316SOL    HW221411   3.384   0.009   2.178  1.0383  1.1333  1.3488
 3317SOL     OW21412   3.539   0.549   0.392  0.4649 -0.3209  0.3533
 3317SOL    HW121413   3.480   0.474   0.401  0.9710 -0.7082  0.4244
 3317SOL    HW221414   3.483   0.620   0.425  0.0010  1.6744 -4.5688
 3318SOL     OW21415   1.204   0.754   6.139  0.0058  0.1871  0.0514
 3318SOL    HW121416   1.188   0.670   6.181 -1.9120 -0.1517 -1.3961
 3318SOL    HW221417   1.120   0.797   6.120 -0.7647 -1.1684  0.4422
 3319SOL     OW21418   2.009   1.426   1.013 -0.1762  0.2192 -0.1742
 3319SOL    HW121419   1.969   1.468   0.936  3.0589 -0.2112 -2.0967
 3319SOL    HW221420   1.986   1.334   1.001 -1.2188  0.4217  0.2507
 3320SOL     OW21421   3.086   1.062   5.278  0.5670  0.4077  0.3323
 3320SOL    HW121422   3.069   1.115   5.356  1.8902 -0.4003  1.1636
 3320SOL    HW221423   3.175   1.090   5.256  1.1754 -0.0449  2.2613
 3321SOL     OW21424   2.236   1.443   4.686  0.1377 -0.2836 -0.7524
 3321SOL    HW121425   2.181   1.508   4.641  0.7302  0.3690 -0.5259
 3321SOL    HW221426   2.318   1.487   4.707  0.1051 -0.3827 -0.4268
 3322SOL     OW21427   4.593   3.713   8.855  0.6137  0.3656  0.2769
 3322SOL    HW121428   4.588   3.808   8.843  2.9482  0.2815 -1.3614
 3322SOL    HW221429   4.513   3.683   8.812 -0.3765 -0.3267  2.6301
 3323SOL     OW21430   1.206   1.370   1.787  0.2650 -0.8947  0.1006
 3323SOL    HW121431   1.186   1.459   1.759  0.5734 -0.6613  0.6117
 3323SOL    HW221432   1.217   1.386   1.881  2.7160 -0.1569 -0.2919
 3324SOL     OW21433   0.739   3.803  11.801 -0.1033  0.2110 -0.7457
 3324SOL    HW121434   0.717   3.806  11.708 -1.1948  1.4848 -0.4414
 3324SOL    HW221435   0.705   3.888  11.829  1.1348  0.2640  0.6136
 3325SOL     OW21436   0.252   0.694   5.958 -0.2868  0.2763  0.8405
 3325SOL    HW121437   0.178   0.753   5.971 -2.3012 -2.2900  1.0320
 3325SOL    HW221438   0.255   0.668   5.866  1.1292  0.5787  0.8001
 3326SOL     OW21439   3.690   1.603   7.660 -0.0805  0.2968  0.6827
 3326SOL    HW121440   3.739   1.677   7.625  1.2094 -0.1554  1.5413
 3326SOL    HW221441   3.751   1.530   7.646 -1.4994 -0.5455 -1.1027
 3327SOL     OW21442   4.384   1.377   7.564  0.0707 -0.1081  0.1415
 3327SOL    HW121443   4.469   1.417   7.582 -0.3079  1.3340 -1.3710
 3327SOL    HW221444   4.405   1.364   7.471 -1.4674  0.4553 -0.2842
 3328SOL     OW21445   3.022   1.676   2.857 -0.2570  0.3414 -0.3506
 3328SOL    HW121446   2.946   1.679   2.800 -0.4663 -1.3779 -0.1563
 3328SOL    HW221447   2.975   1.694   2.938 -0.2178 -1.3466  0.0577
 3329SOL     OW21448   0.533   4.144   2.160 -0.0647 -0.7246 -0.0536
 3329SOL    HW121449   0.619   4.125   2.197 -0.1937 -0.1999  0.5215
 3329SOL    HW221450   0.508   4.218   2.217  2.7541 -0.0398  0.2882
 3330SOL     OW21451   1.464   3.578   2.551  0.3965  0.0354 -0.4044
 3330SOL    HW121452   1.383   3.627   2.537  0.6018 -0.0682 -1.8752
 3330SOL    HW221453   1.469   3.605   2.643  1.7215  0.1675 -0.5140
 3331SOL     OW21454   4.442   2.458   2.033  0.7581  0.0684 -0.1960
 3331SOL    HW121455   4.517   2.501   1.993  0.9295  1.1979  1.3373
 3331SOL    HW221456   4.375   2.516   1.997  1.0791  0.0522 -0.8130
 3332SOL     OW21457   2.371   4.242   8.541 -0.3734  0.1216 -0.0718
 3332SOL    HW121458   2.350   4.149   8.545  0.8533 -0.2515 -2.1942
 3332SOL    HW221459   2.305   4.284   8.485  1.0930  0.0272 -1.8499
 3333SOL     OW21460   1.081   3.020   6.774 -0.4145  0.5038  0.0385
 3333SOL    HW121461   1.049   3.092   6.829  0.2302 -0.4853  1.7282
 3333SOL    HW221462   1.172   3.014   6.805 -0.1629  4.4685  0.0748
 3334SOL     OW21463   3.035   4.333  16.044 -0.3376  0.1492  0.0954
 3334SOL    HW121464   3.001   4.365  15.960 -0.6387 -1.0886 -0.2563
 3334SOL    HW221465   3.129   4.335  16.029 -0.7925  0.0200 -2.7363
 3335SOL     OW21466   0.540   1.403  14.637  0.0124 -0.3449 -0.2756
 3335SOL    HW121467   0.496   1.415  14.721  0.7060  0.6536 -0.0633
 3335SOL    HW221468   0.469   1.380  14.576  0.7058  1.6338 -1.8442
 3336SOL     OW21469   3.489   1.923   7.171  0.7508 -0.6093 -0.1696
 3336SOL    HW121470   3.484   1.858   7.241  2.8600 -0.5323  0.0587
 3336SOL    HW221471   3.452   1.877   7.096 -0.7159  0.1165  0.1188
 3337SOL     OW21472   3.752   0.005   2.153 -0.1937  0.6592 -0.6886
 3337SOL    HW121473   3.676   0.059   2.133  0.5581  2.0740  0.2835
 3337SOL    HW221474   3.729   4.635   2.122 -0.4514  0.4426  0.1208
 3338SOL     OW21475   2.681   1.204   8.996  0.1337  0.0779  0.2744
 3338SOL    HW121476   2.750   1.256   9.036 -0.1963  1.0794 -0.4598
 3338SOL    HW221477   2.668   1.122   9.045  0.6986  0.2159  0.6580
 3339SOL     OW21478   2.229   3.981   9.473 -0.0307  0.4641  0.7174
 3339SOL    HW121479   2.309   4.011   9.430  0.5584 -0.7414  0.9841
 3339SOL    HW221480   2.197   3.904   9.426 -0.6393  0.1702  1.6143
 3340SOL     OW21481   1.245   0.596  13.774  0.2507  0.3146  0.0076
 3340SOL    HW121482   1.254   0.504  13.753 -0.4329  0.5410 -1.2658
 3340SOL    HW221483   1.326   0.614  13.822 -0.2218  0.4348  0.7652
 3341SOL     OW21484   0.736   1.274   4.468  0.3224 -0.6610  0.2330
 3341SOL    HW121485   0.830   1.261   4.464  0.6547  2.1869 -1.2081
 3341SOL    HW221486   0.706   1.209   4.532  1.6192 -0.0293  1.4775
 3342SOL     OW21487   3.587   0.166   1.521  0.0087  0.9158  0.4854
 3342SOL    HW121488   3.495   0.179   1.499 -0.3567  0.8513  1.9968
 3342SOL    HW221489   3.589   0.071   1.536  3.1492  0.6769 -1.4126
 3343SOL     OW21490   1.650   0.013   7.082 -0.3233  0.5372  0.0379
 3343SOL    HW121491   1.742   0.032   7.064 -1.1032  1.0949 -3.1852
 3343SOL    HW221492   1.656   4.635   7.082  1.3183  0.6335  0.9005
 3344SOL     OW21493   0.927   2.936   5.645  0.6504 -0.5035 -0.1981
 3344SOL    HW121494   0.947   2.948   5.552  0.1235 -0.0854 -0.2533
 3344SOL    HW221495   0.927   2.840   5.654  1.0569 -0.5729 -0.9151
 3345SOL     OW21496   3.431   2.698   3.450  0.2273  0.1828 -0.1879
 3345SOL    HW121497   3.494   2.641   3.494 -1.5348 -0.0823  1.9821
 3345SOL    HW221498   3.485   2.777   3.442 -2.9581  2.5553  1.7600
 3346SOL     OW21499   4.394   1.277   3.639  0.2037 -0.4575  0.9584
 3346SOL    HW121500   4.439   1.271   3.555 -1.4375  2.7274 -0.1386
 3346SOL    HW221501   4.437   1.355   3.674  0.5904 -0.4310  0.4209
 3347SOL     OW21502   3.644   3.307   7.869  0.2716 -0.0692 -0.0535
 3347SOL    HW121503   3.705   3.300   7.943  2.1131  2.5357 -1.3190
 3347SOL    HW221504   3.654   3.401   7.854  0.3824 -0.1714 -0.6162
 3348SOL     OW21505   4.679   4.057   1.742 -0.3841 -0.1174  0.1361
 3348SOL    HW121506   4.612   3.991   1.725 -1.5104  0.4620  2.2700
 3348SOL    HW221507   4.634   4.114   1.805  0.7524  0.5865  0.3093
 3349SOL     OW21508   1.793   1.260   4.522  0.3679  0.2107  0.1677
 3349SOL    HW121509   1.879   1.246   4.562  1.0505  0.4704 -1.2167
 3349SOL    HW221510   1.749   1.308   4.592 -0.8854 -3.4674  1.9245
 3350SOL     OW21511   0.184   3.245   4.143  0.2921  1.1275 -0.2372
 3350SOL    HW121512   0.115   3.188   4.111  0.5008  1.1384 -0.7009
 3350SOL    HW221513   0.207   3.193   4.220  1.2070  0.5710 -0.8943
 3351SOL     OW21514   3.099   0.295   8.788 -0.1266  0.7103  0.4909
 3351SOL    HW121515   3.147   0.257   8.861  0.8235  1.5049  0.2791
 3351SOL    HW221516   3.156   0.261   8.719 -1.1285  3.0767 -1.5014
 3352SOL     OW21517   2.441   0.691   5.707  0.2352 -0.0960  0.9873
 3352SOL    HW121518   2.529   0.728   5.706  0.8711 -1.6429 -0.6863
 3352SOL    HW221519   2.425   0.673   5.799  1.2334 -1.1856  0.9493
 3353SOL     OW21520   1.838   4.108   8.186  0.2523  0.0197  0.1612
 3353SOL    HW121521   1.792   4.077   8.108  1.3856 -0.6065 -0.2579
 3353SOL    HW221522   1.800   4.195   8.197 -0.1523  0.2758 -3.2550
 3354SOL     OW21523   0.222   3.029   3.372 -0.0347 -0.0600  0.1587
 3354SOL    HW121524   0.253   3.118   3.384 -0.4125  0.0500  0.3347
 3354SOL    HW221525   0.161   3.029   3.298  1.5271  2.1624 -1.1276
 3355SOL     OW21526   0.276   4.643   2.124 -0.5572 -0.5623 -0.4639
 3355SOL    HW121527   0.308   4.651   2.214  0.8696 -0.4384 -0.9838
 3355SOL    HW221528   0.345   4.703   2.094 -1.3155  1.3639  1.6102
 3356SOL     OW21529   4.660   4.253  13.304 -0.0641 -0.6997 -0.5187
 3356SOL    HW121530   4.715   4.235  13.380 -0.7133 -0.3959  0.0282
 3356SOL    HW221531   4.660   4.348  13.300  0.0546 -0.7544 -1.9777
 3357SOL     OW21532   1.404   2.813   4.652  0.3257 -0.2329  0.0518
 3357SOL    HW121533   1.326   2.827   4.706 -0.6684 -2.8547 -0.6633
 3357SOL    HW221534   1.370   2.741   4.598 -0.3552  1.1224 -1.3001
 3358SOL     OW21535   0.219   0.480  10.256  0.0350 -0.3735  0.0180
 3358SOL    HW121536   0.148   0.448  10.312 -2.3645  0.7714 -2.4204
 3358SOL    HW221537   0.238   0.558  10.308 -0.5553  0.7180 -1.4327
 3359SOL     OW21538   0.540   2.671  10.768 -0.4999  0.2340 -0.0944
 3359SOL    HW121539   0.580   2.617  10.835  0.2434  1.3679  0.3686
 3359SOL    HW221540   0.499   2.742  10.817 -0.7076  0.8617 -1.1714
 3360SOL     OW21541   3.776   0.100  17.266 -0.2322  0.3145  0.2657
 3360SOL    HW121542   3.765   0.121  17.358  0.6172  0.1055  0.4156
 3360SOL    HW221543   3.723   0.020  17.262 -0.3714  0.3481  1.5323
 3361SOL     OW21544   2.330   1.181  16.513 -0.6777  0.5075 -0.4446
 3361SOL    HW121545   2.384   1.230  16.576 -0.3583  0.3742 -0.6124
 3361SOL    HW221546   2.277   1.251  16.474  0.9731  1.1249 -1.5838
 3362SOL     OW21547   2.666   3.575   6.493  0.3925  0.1377 -0.0870
 3362SOL    HW121548   2.674   3.662   6.533 -2.5680 -0.7256  2.3961
 3362SOL    HW221549   2.727   3.520   6.543 -0.4108  1.3216  2.2036
 3363SOL     OW21550   4.688   0.663  13.043  0.4412  0.1403  0.4268
 3363SOL    HW121551   0.007   0.748  13.066 -2.5690  1.6713 -0.3551
 3363SOL    HW221552   4.665   0.625  13.128  1.8936  1.8705  1.5857
 3364SOL     OW21553   1.031   3.140   7.027 -0.8718  0.1519  0.0148
 3364SOL    HW121554   1.119   3.168   7.051  0.0925 -2.2143 -0.7951
 3364SOL    HW221555   1.027   3.062   7.083  2.6142 -2.0132 -2.8046
 3365SOL     OW21556   1.024   2.523   2.709  0.5725 -0.0365 -0.0807
 3365SOL    HW121557   1.058   2.436   2.730  1.0426 -0.3089 -1.9800
 3365SOL    HW221558   1.106   2.567   2.731  0.3137 -0.5262  1.9054
 3366SOL     OW21559   1.957   3.289  12.470  0.7265 -0.2222  0.8152
 3366SOL    HW121560   1.931   3.199  12.453  0.5350 -0.2391  1.1844
 3366SOL    HW221561   1.975   3.333  12.388 -0.0223  1.8986  1.7779
 3367SOL     OW21562   4.345   1.689  17.609  0.1697  0.1476  0.1368
 3367SOL    HW121563   4.291   1.721  17.537  0.4796  0.9308  0.2453
 3367SOL    HW221564   4.322   1.757  17.673 -1.6936  0.1867 -0.5800
 3368SOL     OW21565   0.795   1.932  16.289 -0.7088  0.1530 -0.3595
 3368SOL    HW121566   0.816   2.022  16.314  0.7240 -0.6130  1.1440
 3368SOL    HW221567   0.760   1.904  16.374 -1.3034 -2.6982 -1.5413
 3369SOL     OW21568   1.999   2.897   2.476  0.0923  0.0257  0.5858
 3369SOL    HW121569   1.957   2.913   2.392 -0.9654  1.2500  1.3572
 3369SOL    HW221570   2.006   2.983   2.517  1.0230  0.6303 -0.8362
 3370SOL     OW21571   4.647   0.349   4.236 -0.1225  0.3618 -0.0058
 3370SOL    HW121572   0.002   0.297   4.199 -0.7232 -0.4248 -0.0901
 3370SOL    HW221573   4.672   0.433   4.199 -0.3705  0.6986  0.6041
 3371SOL     OW21574   4.188   1.736  15.849 -0.2047  0.0886 -0.5727
 3371SOL    HW121575   4.104   1.720  15.893  0.0307  1.5510  0.4311
 3371SOL    HW221576   4.178   1.824  15.812 -0.3927  1.3106  2.3874
 3372SOL     OW21577   1.270   2.338  10.370 -0.5789 -0.5149 -0.3569
 3372SOL    HW121578   1.195   2.278  10.373 -0.2013 -0.8419  2.4424
 3372SOL    HW221579   1.218   2.418  10.377 -0.6522 -0.5966 -0.0017
 3373SOL     OW21580   3.617   0.235   7.082 -0.4255  0.2496  0.1539
 3373SOL    HW121581   3.696   0.215   7.032 -1.9365  2.5949 -3.2262
 3373SOL    HW221582   3.567   0.287   7.019  0.6326 -1.7748 -2.3502
 3374SOL     OW21583   4.585   2.214   7.962  0.2268  0.0030  0.0672
 3374SOL    HW121584   4.579   2.239   8.054 -0.4473  2.8940 -0.7732
 3374SOL    HW221585   4.617   2.295   7.923  1.0191  0.1692  1.0651
 3375SOL     OW21586   1.553   0.104   6.546  0.1979  0.1356 -0.3804
 3375SOL    HW121587   1.541   0.050   6.624 -0.3672  0.2115 -0.4143
 3375SOL    HW221588   1.458   0.119   6.536  0.4623  2.1661 -0.0148
 3376SOL     OW21589   0.809   3.104   2.646 -0.0446 -0.1588  0.6290
 3376SOL    HW121590   0.866   3.132   2.717 -0.4206  3.3753 -0.4518
 3376SOL    HW221591   0.862   3.055   2.582 -0.8501  0.3767 -0.4469
 3377SOL     OW21592   3.575   3.836   1.814  0.2561 -0.0245  0.1779
 3377SOL    HW121593   3.502   3.787   1.776 -1.6119  1.7636  1.4644
 3377SOL    HW221594   3.589   3.908   1.752  0.6734 -0.1359  0.1452
 3378SOL     OW21595   0.257   2.706  11.035  0.3865  0.1094 -0.4397
 3378SOL    HW121596   0.213   2.724  11.118  0.7633 -0.8142 -0.0368
 3378SOL    HW221597   0.293   2.620  11.056  1.2823 -0.0781 -2.7127
 3379SOL     OW21598   1.585   0.564   5.627 -0.2365 -0.3835 -0.0827
 3379SOL    HW121599   1.644   0.568   5.552  2.1332  1.0149  1.8371
 3379SOL    HW221600   1.620   0.485   5.668 -0.2940 -0.8314 -0.8962
 3380SOL     OW21601   2.657   1.657   7.823  0.3110  0.6904  0.4255
 3380SOL    HW121602   2.702   1.576   7.847 -0.0895  0.7893  1.4896
 3380SOL    HW221603   2.584   1.657   7.885  0.6773 -0.3260  0.8635
 3381SOL     OW21604   1.232   2.781   6.535 -0.0994 -0.4151  0.2413
 3381SOL    HW121605   1.304   2.718   6.527  0.6623  0.6385 -1.2520
 3381SOL    HW221606   1.205   2.797   6.445  1.9364  1.6920  0.0071
 3382SOL     OW21607   2.146   4.031  13.068 -0.4176 -0.0596  0.0400
 3382SOL    HW121608   2.089   4.108  13.062 -0.6113 -0.2785 -1.1191
 3382SOL    HW221609   2.143   4.003  12.976  0.4884  0.7773 -0.2395
 3383SOL     OW21610   2.853   1.552   8.343  0.5697  0.1141  0.0444
 3383SOL    HW121611   2.926   1.583   8.290  1.6753 -0.7450  1.0818
 3383SOL    HW221612   2.785   1.615   8.319  0.3078  0.4452  1.6354
 3384SOL     OW21613   1.297   1.812   9.966  0.4811 -0.4520 -0.6677
 3384SOL    HW121614   1.261   1.768   9.889 -3.5506  1.0782  0.3413
 3384SOL    HW221615   1.312   1.737  10.023  1.7778 -1.1467 -1.9079
 3385SOL     OW21616   2.251   1.900   1.736  0.2779  0.2568 -0.3436
 3385SOL    HW121617   2.168   1.932   1.701 -0.5310 -2.4244 -0.8458
 3385SOL    HW221618   2.224   1.812   1.762 -1.4471  0.4240 -1.5862
 3386SOL     OW21619   3.923   0.603   3.280  0.4613  0.3097  0.0845
 3386SOL    HW121620   3.881   0.592   3.366 -0.0273  0.0943 -0.1818
 3386SOL    HW221621   3.844   0.610   3.226 -1.1799 -3.8459  1.9534
 3387SOL     OW21622   0.266   1.080   3.083  0.4052  1.1161 -0.0289
 3387SOL    HW121623   0.344   1.041   3.122  0.2653 -0.4461 -1.3256
 3387SOL    HW221624   0.237   1.127   3.161  0.7722  1.4958 -0.1202
 3388SOL     OW21625   2.133   2.356   5.889 -0.1862  0.1292  0.0927
 3388SOL    HW121626   2.082   2.429   5.855  1.4602  1.5491  0.6160
 3388SOL    HW221627   2.117   2.381   5.980  0.4092  1.8048 -0.2694
 3389SOL     OW21628   2.022   4.125   7.571  0.1468 -0.0275 -0.4347
 3389SOL    HW121629   2.078   4.202   7.564 -0.2514  0.3300  0.3250
 3389SOL    HW221630   2.063   4.067   7.507  0.6514 -0.6907  0.4982
 3390SOL     OW21631   3.772   0.629  15.325 -0.3487 -0.4615 -0.4024
 3390SOL    HW121632   3.735   0.712  15.355  2.3231  0.8287 -0.7512
 3390SOL    HW221633   3.833   0.608  15.396 -0.4923  1.9021  0.4081
 3391SOL     OW21634   2.661   0.578   3.479 -0.8658 -0.7675  0.2437
 3391SOL    HW121635   2.733   0.568   3.417 -2.1560  1.5919 -1.6156
 3391SOL    HW221636   2.627   0.665   3.459 -1.3492 -0.1468  3.8394
 3392SOL     OW21637   0.036   4.070   4.078 -0.2707  0.2680 -0.3506
 3392SOL    HW121638   0.106   4.013   4.111  0.4785  0.4848 -1.5842
 3392SOL    HW221639   0.075   4.103   3.997  0.4548  0.0140 -0.1053
 3393SOL     OW21640   2.150   0.668  10.387 -0.0427 -0.4138 -0.0547
 3393SOL    HW121641   2.187   0.631  10.468 -2.1724 -0.5707  0.8457
 3393SOL    HW221642   2.228   0.707  10.347  0.3273 -0.8901  0.2062
 3394SOL     OW21643   1.710   1.752   8.608  0.3271 -0.2051  0.1800
 3394SOL    HW121644   1.665   1.796   8.536  1.0944 -1.4710 -1.0843
 3394SOL    HW221645   1.782   1.815   8.618 -0.8589  0.6723  3.3469
 3395SOL     OW21646   0.567   1.822  14.620  0.3882  0.0259 -0.5212
 3395SOL    HW121647   0.659   1.848  14.621  0.5650 -0.7098  1.6705
 3395SOL    HW221648   0.527   1.906  14.645 -0.4502 -0.3340 -0.6481
 3396SOL     OW21649   2.709   3.042   8.213 -0.1829  0.0513 -0.3401
 3396SOL    HW121650   2.686   3.010   8.126 -1.3047  1.8387 -0.7033
 3396SOL    HW221651   2.797   3.004   8.218 -0.3408 -0.2403  0.1670
 3397SOL     OW21652   3.569   2.224  17.514 -0.4032  0.2679  1.0212
 3397SOL    HW121653   3.576   2.180  17.599  1.6182  1.4488  1.4893
 3397SOL    HW221654   3.516   2.157  17.472  0.5673  0.8999 -1.2091
 3398SOL     OW21655   2.683   0.956   8.706 -0.7263 -0.5582 -0.4135
 3398SOL    HW121656   2.732   0.905   8.641  0.2243  0.3938 -0.4546
 3398SOL    HW221657   2.596   0.967   8.668 -1.4556 -0.4923  1.2789
 3399SOL     OW21658   0.599   0.807   4.582 -0.4626  0.0211 -0.0129
 3399SOL    HW121659   0.635   0.719   4.572  2.3931  1.2539 -0.5050
 3399SOL    HW221660   0.509   0.793   4.611 -0.0956 -0.0080  1.1153
 3400SOL     OW21661   1.415   4.497   6.326  0.3032  0.6318 -0.1190
 3400SOL    HW121662   1.508   4.521   6.325  0.8145 -1.5685 -3.0065
 3400SOL    HW221663   1.405   4.490   6.421  2.7098 -0.7771  0.0342
 3401SOL     OW21664   2.860   2.151   4.896 -0.4819  0.5040  0.2358
 3401SOL    HW121665   2.834   2.197   4.976  0.2603 -0.0754  0.8175
 3401SOL    HW221666   2.786   2.091   4.889 -0.8135  0.9139  0.1830
 3402SOL     OW21667   2.167   2.476   7.083  0.2353 -0.2856 -0.0991
 3402SOL    HW121668   2.164   2.387   7.116  4.4403  0.2558  1.7245
 3402SOL    HW221669   2.237   2.465   7.019 -0.7916 -0.2744 -1.2157
 3403SOL     OW21670   4.072   4.469   4.388 -0.0835  0.6872  0.0185
 3403SOL    HW121671   3.988   4.504   4.418  0.8300  2.3701  0.6394
 3403SOL    HW221672   4.126   4.472   4.467 -0.4488 -1.7768  0.3447
 3404SOL     OW21673   1.013   0.972   2.699  0.0009  0.1854  0.4510
 3404SOL    HW121674   1.067   0.937   2.769  1.5069  0.9144 -0.3520
 3404SOL    HW221675   0.932   0.926   2.720 -0.0955  0.1572  0.0292
 3405SOL     OW21676   4.637   0.883   7.087 -0.7172 -0.1859 -0.3439
 3405SOL    HW121677   4.622   0.953   7.151  2.1377 -1.0039  1.2537
 3405SOL    HW221678   4.657   0.809   7.144 -0.1900  0.0904 -0.1601
 3406SOL     OW21679   4.200   2.560  14.771 -0.0528 -0.5863  0.0612
 3406SOL    HW121680   4.114   2.524  14.749 -0.7118  1.7607 -1.3101
 3406SOL    HW221681   4.193   2.576  14.865 -0.9634 -1.2764  0.1063
 3407SOL     OW21682   3.868   0.658   6.068  0.2723 -0.0785  0.3747
 3407SOL    HW121683   3.809   0.718   6.113  0.2221 -0.3582  0.6795
 3407SOL    HW221684   3.935   0.646   6.135 -0.8183 -0.2106  1.4360
 3408SOL     OW21685   0.594   1.656   2.220 -0.0006  0.1872 -0.3846
 3408SOL    HW121686   0.529   1.613   2.165 -0.6556  0.4283  0.2116
 3408SOL    HW221687   0.579   1.749   2.205  0.6780 -0.0801 -2.6715
 3409SOL     OW21688   0.813   3.930   9.850 -0.7220 -0.7966 -0.6976
 3409SOL    HW121689   0.842   3.853   9.898  1.5482  1.4092  1.4442
 3409SOL    HW221690   0.723   3.937   9.883  0.1779  0.9375  1.3922
 3410SOL     OW21691   3.735   2.487   1.119 -0.6748  0.6225  0.2052
 3410SOL    HW121692   3.649   2.524   1.099 -1.7202 -0.8746  1.8909
 3410SOL    HW221693   3.754   2.512   1.210 -0.9380 -0.9361  0.6980
 3411SOL     OW21694   3.599   0.934  13.344  0.4070  0.0594  0.0080
 3411SOL    HW121695   3.675   0.879  13.362 -1.6544 -2.7160  0.2670
 3411SOL    HW221696   3.537   0.874  13.304  1.4665 -0.7072 -0.4739
 3412SOL     OW21697   0.979   2.013   7.467 -0.7396  0.4772 -0.1387
 3412SOL    HW121698   0.926   1.939   7.438  0.1127 -0.3914  0.5167
 3412SOL    HW221699   0.937   2.041   7.548  0.7278  2.5275 -0.0817
 3413SOL     OW21700   4.049   2.056   3.230  0.0641 -0.1755 -0.3372
 3413SOL    HW121701   3.987   1.997   3.188  2.1363 -1.6565 -1.3630
 3413SOL    HW221702   4.131   2.047   3.181  0.1866 -2.4742  0.2997
 3414SOL     OW21703   2.152   4.337   6.233  0.1116 -0.3282  0.3258
 3414SOL    HW121704   2.130   4.429   6.220  1.0124  0.0229  1.3866
 3414SOL    HW221705   2.243   4.339   6.262 -0.0314 -0.8292  0.8131
 3415SOL     OW21706   2.963   2.189   3.406  0.1508 -0.2140 -0.1164
 3415SOL    HW121707   3.008   2.148   3.480 -0.6186  1.1016  1.0831
 3415SOL    HW221708   2.960   2.272   3.453 -2.6325 -0.5331  0.2433
 3416SOL     OW21709   3.243   2.729  13.699 -0.6006  0.7047  0.2220
 3416SOL    HW121710   3.270   2.821  13.705  1.2194  0.1696  0.2853
 3416SOL    HW221711   3.237   2.719  13.604 -1.7051 -0.0381  0.3776
 3417SOL     OW21712   1.467   2.219   9.968 -0.0741  0.4126  0.7005
 3417SOL    HW121713   1.385   2.249  10.008 -0.8461 -0.7768  0.0213
 3417SOL    HW221714   1.509   2.304   9.957  2.2661 -0.9117 -0.5114
 3418SOL     OW21715   2.289   2.748   8.887 -0.3544  0.6365  0.2365
 3418SOL    HW121716   2.316   2.699   8.810 -1.7024  0.2390  0.0091
 3418SOL    HW221717   2.283   2.680   8.954 -0.1004  0.0007 -0.3949
 3419SOL     OW21718   0.200   4.435   9.038  0.1219  0.3407 -0.7686
 3419SOL    HW121719   0.256   4.511   9.054 -0.3415  0.8314 -1.4959
 3419SOL    HW221720   0.160   4.449   9.124  2.1876  0.5733  0.1540
 3420SOL     OW21721   1.818   3.325   7.787  0.2121 -0.1710 -0.0330
 3420SOL    HW121722   1.885   3.332   7.720  0.2025 -0.2249 -0.0481
 3420SOL    HW221723   1.740   3.352   7.739  0.2134  2.9979  1.7431
 3421SOL     OW21724   2.522   2.454   7.310  0.0185 -0.0087 -0.2722
 3421SOL    HW121725   2.485   2.530   7.265 -0.1457 -0.2455 -0.5373
 3421SOL    HW221726   2.618   2.463   7.306 -0.0615  0.5124 -1.0035
 3422SOL     OW21727   0.352   0.489   2.272  0.3214 -0.6807 -0.3884
 3422SOL    HW121728   0.314   0.497   2.359  1.6833 -1.5009  0.2853
 3422SOL    HW221729   0.350   0.579   2.239 -1.1932 -0.5375  0.0990
 3423SOL     OW21730   4.400   3.013   7.539 -0.4772 -0.3570  0.0111
 3423SOL    HW121731   4.394   2.974   7.626 -2.6691 -0.0764 -0.0202
 3423SOL    HW221732   4.495   3.003   7.525 -0.8976 -1.4290 -2.0492
 3424SOL     OW21733   4.427   2.174   5.156  0.4286 -0.4755 -0.9754
 3424SOL    HW121734   4.511   2.185   5.111 -0.2562  2.8798 -1.4690
 3424SOL    HW221735   4.448   2.111   5.225  1.2986  0.0077 -0.7858
 3425SOL     OW21736   3.690   4.424  15.684  0.7439  0.7137 -0.3801
 3425SOL    HW121737   3.730   4.354  15.633  1.4701  0.4809  0.4988
 3425SOL    HW221738   3.761   4.489  15.685  1.6806 -0.3186  0.2766
 3426SOL     OW21739   0.783   0.003   5.642  0.0865  0.2486  0.5154
 3426SOL    HW121740   0.717   4.710   5.710  0.0375  0.7545  0.5481
 3426SOL    HW221741   0.791   0.095   5.617 -0.2731 -0.0064 -0.5226
 3427SOL     OW21742   3.587   0.364   5.975 -0.5366 -0.1029  0.1183
 3427SOL    HW121743   3.538   0.340   5.896 -0.2679 -1.7241  0.4491
 3427SOL    HW221744   3.637   0.439   5.943  2.6456 -2.6112 -0.7467
 3428SOL     OW21745   4.670   2.605   6.992  0.0304  0.7931 -0.4176
 3428SOL    HW121746   4.674   2.579   6.900 -0.4645  1.3775 -0.6085
 3428SOL    HW221747   4.658   2.516   7.026 -0.5345  0.8481 -0.4735
 3429SOL     OW21748   0.980   1.246  16.539  0.1678  0.2692  0.0924
 3429SOL    HW121749   0.971   1.325  16.485  0.9540  0.3155  0.0345
 3429SOL    HW221750   1.028   1.191  16.477  1.8495  0.5546  1.1527
 3430SOL     OW21751   0.718   0.994   8.339 -0.8633  0.2389 -0.1425
 3430SOL    HW121752   0.739   1.031   8.425 -1.8088  0.4984 -0.0290
 3430SOL    HW221753   0.682   0.910   8.368 -1.8280  0.3532 -1.0039
 3431SOL     OW21754   0.971   3.462  12.354 -0.2315 -0.4650 -0.3059
 3431SOL    HW121755   1.056   3.430  12.324 -0.1601  0.0723 -0.6739
 3431SOL    HW221756   0.922   3.380  12.356 -1.9196  0.5596  0.2829
 3432SOL     OW21757   0.847   1.085  10.916  0.7468  0.2333  0.1292
 3432SOL    HW121758   0.941   1.089  10.933  1.0374 -1.7225 -1.0355
 3432SOL    HW221759   0.822   1.152  10.981  1.3322 -1.4644  2.1025
 3433SOL     OW21760   1.370   2.519   0.529  0.3059  0.3842  0.2304
 3433SOL    HW121761   1.290   2.480   0.565  0.0112  1.4897  0.7830
 3433SOL    HW221762   1.344   2.510   0.437  1.2608  0.5780 -0.0568
 3434SOL     OW21763   1.458   1.301   1.728 -0.3286 -0.6570 -0.1418
 3434SOL    HW121764   1.512   1.378   1.710 -1.3305  0.4815  1.7260
 3434SOL    HW221765   1.374   1.341   1.753  0.7276  1.7243 -0.3449
 3435SOL     OW21766   3.213   2.825   6.581 -0.0112 -0.2117  0.7523
 3435SOL    HW121767   3.143   2.889   6.590  0.9120  0.7539  1.1092
 3435SOL    HW221768   3.285   2.888   6.580  0.5508 -0.8419  1.0759
 3436SOL     OW21769   3.492   4.632   7.872  0.0347 -0.0604 -0.0592
 3436SOL    HW121770   3.469   4.558   7.816 -0.0999 -1.1162  1.4099
 3436SOL    HW221771   3.574   4.655   7.828 -0.4372  0.0450 -0.8948
 3437SOL     OW21772   4.380   3.941  14.642 -0.6401  0.1578  0.3994
 3437SOL    HW121773   4.428   3.896  14.711  2.2370  0.9852 -1.0405
 3437SOL    HW221774   4.309   3.988  14.684  0.0584  1.6007 -0.0100
 3438SOL     OW21775   3.123   1.742  15.997  0.0473  0.5741 -0.3597
 3438SOL    HW121776   3.109   1.767  15.906 -2.3125 -0.6031 -0.3401
 3438SOL    HW221777   3.075   1.659  16.007  1.1213 -0.1783 -1.5610
 3439SOL     OW21778   0.802   0.201   2.525  0.1753  0.3531  0.0444
 3439SOL    HW121779   0.874   0.264   2.511  1.0807 -1.2138 -2.3156
 3439SOL    HW221780   0.823   0.178   2.616 -0.7563  0.7863  0.3722
 3440SOL     OW21781   0.643   4.211   5.662 -0.3814 -0.0429  0.2242
 3440SOL    HW121782   0.658   4.284   5.603 -1.3697 -0.7902 -0.9729
 3440SOL    HW221783   0.590   4.155   5.604  2.1417 -1.5824 -0.5979
 3441SOL     OW21784   1.315   2.388  11.824 -0.3841  0.1739 -0.2526
 3441SOL    HW121785   1.381   2.331  11.785  0.2660  1.2764 -0.7568
 3441SOL    HW221786   1.278   2.325  11.887 -2.9546  0.4390 -1.5378
 3442SOL     OW21787   3.317   0.601   3.810  0.0840 -0.1446 -0.0930
 3442SOL    HW121788   3.404   0.639   3.796  0.8139 -1.5851  0.5504
 3442SOL    HW221789   3.275   0.678   3.772  0.3173 -0.0865 -0.2300
 3443SOL     OW21790   3.998   1.635  13.423 -0.1261 -0.4352  0.0546
 3443SOL    HW121791   4.065   1.689  13.381  0.7089  0.8892  3.0866
 3443SOL    HW221792   3.967   1.690  13.495  0.4556  1.1322 -0.8952
 3444SOL     OW21793   1.160   4.431   1.156 -0.6847  0.0677 -0.1421
 3444SOL    HW121794   1.171   4.520   1.124  0.9735  0.6967  2.2006
 3444SOL    HW221795   1.248   4.394   1.147 -1.4304 -1.3941 -1.4821
 3445SOL     OW21796   3.278   3.423   3.471  0.4055 -0.5029 -0.6673
 3445SOL    HW121797   3.373   3.425   3.461  0.5581  2.1938  1.5336
 3445SOL    HW221798   3.278   3.361   3.544  1.0038 -0.1031 -0.3321
 3446SOL     OW21799   0.702   4.428   5.517 -0.4283 -0.3175  0.4556
 3446SOL    HW121800   0.692   4.389   5.430  1.1866  0.0173  0.1345
 3446SOL    HW221801   0.684   4.518   5.491 -0.9550 -0.8479 -1.0293
 3447SOL     OW21802   3.810   3.406  11.630  0.2739 -0.2677  0.1412
 3447SOL    HW121803   3.818   3.311  11.626  2.0170 -0.0406 -1.8215
 3447SOL    HW221804   3.888   3.427  11.577  0.4981  0.8652  0.9266
 3448SOL     OW21805   1.578   0.039  13.049  0.3538 -0.2063  0.2628
 3448SOL    HW121806   1.601   4.675  13.005  0.1393  0.6518 -1.4113
 3448SOL    HW221807   1.643   0.035  13.120  3.7910 -1.3827 -2.9528
 3449SOL     OW21808   4.603   0.912   3.053 -0.4735 -0.1002  0.5167
 3449SOL    HW121809   4.607   0.816   3.050 -1.6052 -0.1624  0.8277
 3449SOL    HW221810   4.510   0.936   3.053 -0.2762  0.6812  1.3513
 3450SOL     OW21811   3.231   3.395   3.095  0.3362 -0.2751  0.5733
 3450SOL    HW121812   3.213   3.410   3.002  0.4092 -1.0807  0.4306
 3450SOL    HW221813   3.320   3.430   3.094  1.4928 -3.1742 -0.2837
 3451SOL     OW21814   4.320   3.435   3.987 -0.3875 -0.2872  0.2562
 3451SOL    HW121815   4.281   3.502   4.043 -0.8761 -0.4740  0.1439
 3451SOL    HW221816   4.377   3.490   3.934 -1.9640  1.9488  0.8839
 3452SOL     OW21817   1.629   3.369   2.830  0.5394 -0.4459  0.0112
 3452SOL    HW121818   1.566   3.436   2.803  0.4558 -0.7095 -0.4566
 3452SOL    HW221819   1.695   3.426   2.869 -0.6289  0.2298  1.0147
 3453SOL     OW21820   0.475   0.496  16.809 -0.0806  0.3371  0.3032
 3453SOL    HW121821   0.508   0.538  16.889  1.4852 -0.3024 -0.0144
 3453SOL    HW221822   0.382   0.503  16.835 -0.2248 -0.8388  0.0619
 3454SOL     OW21823   4.684   2.430  13.459 -0.2392  0.5192  0.1969
 3454SOL    HW121824   4.646   2.400  13.541 -1.0356  0.8391 -0.0565
 3454SOL    HW221825   4.612   2.484  13.427  1.3923  1.3945 -1.9706
 3455SOL     OW21826   4.123   3.945  16.750 -0.1388  0.3465  0.0262
 3455SOL    HW121827   4.067   3.868  16.753 -1.7397  1.5073 -0.2583
 3455SOL    HW221828   4.048   4.004  16.741  0.8816  1.4959 -1.0753
 3456SOL     OW21829   3.496   0.518   4.282 -0.3392  0.0166  0.1402
 3456SOL    HW121830   3.507   0.613   4.276 -0.4016 -0.0391 -0.8165
 3456SOL    HW221831   3.400   0.513   4.285 -0.3516  0.3703  0.4326
 3457SOL     OW21832   2.198   0.274   9.290  0.1813  0.3655  0.1476
 3457SOL    HW121833   2.115   0.244   9.327 -0.1183  3.1914  1.7310
 3457SOL    HW221834   2.246   0.194   9.267 -1.3957 -0.0480 -1.7592
 3458SOL     OW21835   2.940   3.639  12.449  0.0572 -0.4581 -0.0355
 3458SOL    HW121836   2.923   3.674  12.361  1.2905 -0.5696 -0.3204
 3458SOL    HW221837   2.947   3.717  12.503 -0.2365  0.7437 -1.7304
 3459SOL     OW21838   0.012   2.549   7.543 -0.0318 -0.3880  0.0842
 3459SOL    HW121839   0.060   2.626   7.572  1.0684 -0.6234 -1.1043
 3459SOL    HW221840   0.076   2.498   7.493  0.0006 -0.6053  0.3450
 3460SOL     OW21841   2.513   4.421   9.816  0.2793 -0.3532 -0.2980
 3460SOL    HW121842   2.492   4.356   9.750 -1.0795 -0.2211  0.0028
 3460SOL    HW221843   2.427   4.444   9.852  0.3390  0.4116 -0.6525
 3461SOL     OW21844   1.674   2.354   3.649  0.3558 -0.6502  0.1096
 3461SOL    HW121845   1.630   2.349   3.564  0.3914 -1.6912  0.1491
 3461SOL    HW221846   1.758   2.317   3.622  1.4706  1.4499  0.7559
 3462SOL     OW21847   1.831   0.107  15.151  0.2094 -0.0163  0.0464
 3462SOL    HW121848   1.743   0.115  15.114  0.4778  2.8735  0.0615
 3462SOL    HW221849   1.885   0.098  15.072  2.0947 -2.1534  1.5824
 3463SOL     OW21850   3.147   0.971   8.997 -0.1488  0.1569 -0.2387
 3463SOL    HW121851   3.138   1.047   9.053 -2.9709 -0.4265  0.0716
 3463SOL    HW221852   3.192   1.003   8.919  0.0034 -0.9233 -0.5961
 3464SOL     OW21853   3.861   4.347   2.915 -0.6088 -0.6366 -0.0234
 3464SOL    HW121854   3.788   4.353   2.854 -0.6307 -0.3851  0.0271
 3464SOL    HW221855   3.891   4.256   2.906  1.7227  0.2205 -1.0470
 3465SOL     OW21856   3.626   3.633   6.234 -0.0883  0.5555  0.0930
 3465SOL    HW121857   3.653   3.674   6.317 -0.7533  2.0053 -0.4123
 3465SOL    HW221858   3.543   3.594   6.261  0.0458 -0.1478 -0.5267
 3466SOL     OW21859   0.502   2.321   5.410 -0.2598 -0.5615 -0.0833
 3466SOL    HW121860   0.449   2.349   5.485 -0.4552 -0.4728 -0.2543
 3466SOL    HW221861   0.441   2.257   5.373  0.9872 -0.4877 -2.2674
 3467SOL     OW21862   3.561   4.679   3.826 -0.0315 -0.1422  0.4187
 3467SOL    HW121863   3.546   4.585   3.819  0.4574 -0.3326  1.7759
 3467SOL    HW221864   3.655   4.670   3.845 -0.0833 -0.5681  0.4662
 3468SOL     OW21865   0.163   4.113   5.815  0.0744  0.5388 -0.5519
 3468SOL    HW121866   0.134   4.204   5.805 -0.9933  0.0955 -1.3412
 3468SOL    HW221867   0.254   4.122   5.844 -0.3737 -1.7348  1.5639
 3469SOL     OW21868   0.466   2.256  14.946 -0.4508 -0.1742  0.0874
 3469SOL    HW121869   0.493   2.319  15.013 -3.1793  1.1260 -0.0147
 3469SOL    HW221870   0.386   2.297  14.913 -1.2407 -0.7415  1.2666
 3470SOL     OW21871   2.609   4.453   4.976  0.4039 -0.0582 -0.0320
 3470SOL    HW121872   2.593   4.475   4.884 -0.2103 -0.7113 -0.0809
 3470SOL    HW221873   2.551   4.523   5.005  0.9719  0.5189 -0.2811
 3471SOL     OW21874   1.813   1.623   8.200 -0.3579 -0.1915  0.2145
 3471SOL    HW121875   1.727   1.618   8.241 -0.7760  0.5526 -0.5653
 3471SOL    HW221876   1.801   1.582   8.114  0.0857  1.2311 -0.5347
 3472SOL     OW21877   3.815   4.482   5.265 -0.2398 -0.1199 -0.8302
 3472SOL    HW121878   3.783   4.479   5.355 -1.2915 -0.8078 -1.2224
 3472SOL    HW221879   3.766   4.416   5.216 -2.8717  0.1219  1.5345
 3473SOL     OW21880   4.003   4.649   5.469  0.3553 -0.2451 -1.0727
 3473SOL    HW121881   3.959   4.607   5.543  0.2663 -0.7142 -1.3913
 3473SOL    HW221882   3.995   0.021   5.501 -1.5899 -0.4156 -1.0630
 3474SOL     OW21883   3.466   4.097   1.984  0.0045 -0.1453  0.3971
 3474SOL    HW121884   3.469   4.019   2.039  0.2822 -0.8973 -0.6773
 3474SOL    HW221885   3.398   4.086   1.917 -0.6057  2.1592  0.6270
 3475SOL     OW21886   0.241   1.455   4.524  1.6543 -0.1418  0.1221
 3475SOL    HW121887   0.327   1.412   4.528  2.9081  2.0754 -2.9189
 3475SOL    HW221888   0.186   1.380   4.503  2.2023  0.0323 -1.9502
 3476SOL     OW21889   0.313   2.264  17.278  0.4433  0.4790  0.1140
 3476SOL    HW121890   0.236   2.265  17.334 -0.1570 -0.0666 -0.7008
 3476SOL    HW221891   0.378   2.225  17.336 -2.3078 -2.5990  1.0925
 3477SOL     OW21892   2.404   2.904  10.081  0.1775 -0.5974 -0.6161
 3477SOL    HW121893   2.323   2.874  10.041 -0.5330 -0.4185  0.6996
 3477SOL    HW221894   2.436   2.832  10.137  1.6506 -0.7234 -1.6266
 3478SOL     OW21895   3.633   0.042  11.788 -0.0291  0.0893 -0.2657
 3478SOL    HW121896   3.544   0.071  11.768 -0.2111 -2.0671 -2.6377
 3478SOL    HW221897   3.669   0.018  11.702  0.6222  1.2699 -0.3178
 3479SOL     OW21898   3.687   3.203   3.561 -0.0252  0.2326 -0.2512
 3479SOL    HW121899   3.713   3.212   3.653  0.3445  1.1952 -0.4519
 3479SOL    HW221900   3.763   3.236   3.512  0.3337  1.0220  0.8414
 3480SOL     OW21901   0.417   2.045   8.663 -0.2486 -0.2087  0.2846
 3480SOL    HW121902   0.459   2.123   8.628  2.8277 -0.9905  2.2215
 3480SOL    HW221903   0.449   1.974   8.607  0.3096  0.2316  0.0486
 3481SOL     OW21904   4.683   4.022  16.786 -0.2850  0.5222 -0.2470
 3481SOL    HW121905   4.641   4.054  16.867 -0.5313  0.0878 -0.2056
 3481SOL    HW221906   4.716   3.936  16.813  1.7430  1.6574  0.9704
 3482SOL     OW21907   0.673   0.192   4.648 -0.5890  0.4487  0.2540
 3482SOL    HW121908   0.710   0.265   4.597  1.1278  0.0211  0.8965
 3482SOL    HW221909   0.654   0.129   4.579  0.7063  2.3122 -1.8218
 3483SOL     OW21910   1.144   1.802   2.559  0.5194 -0.0278 -0.3363
 3483SOL    HW121911   1.057   1.836   2.581  0.3181 -1.3971  1.0168
 3483SOL    HW221912   1.123   1.721   2.511 -1.9225  0.6500 -0.4186
 3484SOL     OW21913   3.235   3.199   2.069  0.3663  0.1287  0.2691
 3484SOL    HW121914   3.262   3.124   2.015 -0.3683  0.1764 -0.1692
 3484SOL    HW221915   3.319   3.244   2.058 -0.1790  0.9005 -0.8054
 3485SOL     OW21916   2.413   1.798   7.108 -0.5201  0.0450 -0.1448
 3485SOL    HW121917   2.348   1.750   7.057  0.9258  0.3171 -2.2592
 3485SOL    HW221918   2.372   1.853   7.175 -0.9529 -1.2158  0.6319
 3486SOL     OW21919   3.513   1.269   7.658  0.4850 -0.3980  0.2549
 3486SOL    HW121920   3.422   1.301   7.657  0.4937 -0.4346 -1.0018
 3486SOL    HW221921   3.543   1.328   7.727  2.0202 -0.9544  0.0551
 3487SOL     OW21922   1.060   4.715  14.335 -0.0550  0.1665  0.7330
 3487SOL    HW121923   0.978   4.669  14.320  1.0360 -1.2107 -0.9115
 3487SOL    HW221924   1.058   0.050  14.255  0.2900 -1.2160 -0.1776
 3488SOL     OW21925   2.786   1.033   8.316 -0.1772  0.3441 -0.1811
 3488SOL    HW121926   2.724   0.966   8.345  0.8598 -0.7751 -0.5866
 3488SOL    HW221927   2.719   1.101   8.305 -0.9689 -0.3225  0.5520
 3489SOL     OW21928   2.402   0.068   3.595 -0.3788  0.0457  0.1785
 3489SOL    HW121929   2.498   0.070   3.599 -0.5051  1.0314  2.7624
 3489SOL    HW221930   2.392   4.705   3.545 -1.4634  0.3626 -0.1164
 3490SOL     OW21931   0.061   3.067   3.146 -0.0819 -0.6145 -0.0609
 3490SOL    HW121932   0.111   3.046   3.067  0.8968  1.6100 -0.0301
 3490SOL    HW221933   0.007   2.989   3.157  0.3079 -0.6196  1.8414
 3491SOL     OW21934   0.161   1.387  16.859  0.3240  0.2706  0.2099
 3491SOL    HW121935   0.209   1.417  16.783  1.6809 -1.4019  0.3982
 3491SOL    HW221936   0.103   1.461  16.879  0.9407  1.0827 -1.0491
 3492SOL     OW21937   2.698   2.766   3.294  0.1100 -0.5570 -0.0822
 3492SOL    HW121938   2.790   2.742   3.308  0.6629  1.0540 -0.9456
 3492SOL    HW221939   2.688   2.841   3.353 -0.2624 -0.3958 -0.3539
 3493SOL     OW21940   0.445   3.196   2.877  0.0623  0.6513  0.0067
 3493SOL    HW121941   0.356   3.210   2.909 -0.8020 -0.4407 -1.9304
 3493SOL    HW221942   0.460   3.271   2.818  0.3875  0.9052  0.4088
 3494SOL     OW21943   4.687   2.642   8.320 -0.5850  0.2369 -0.4129
 3494SOL    HW121944   0.014   2.576   8.373 -2.0201  1.3412  2.1596
 3494SOL    HW221945   4.606   2.658   8.368  0.7010  1.2079  1.4069
 3495SOL     OW21946   0.555   1.578  11.859  0.2938 -0.2078 -0.5913
 3495SOL    HW121947   0.581   1.630  11.783 -4.4063 -0.2858 -2.2535
 3495SOL    HW221948   0.519   1.507  11.805  3.0434 -2.5430  0.6731
 3496SOL     OW21949   4.684   4.125   5.149 -0.0534  0.2262  0.2336
 3496SOL    HW121950   4.598   4.163   5.165 -0.3520 -1.0155  1.5770
 3496SOL    HW221951   0.002   4.106   5.235  3.4478  0.2880 -1.1959
 3497SOL     OW21952   3.088   2.702  13.437  0.3800 -0.4479  0.1395
 3497SOL    HW121953   3.049   2.763  13.374  0.1453 -3.3249 -2.5116
 3497SOL    HW221954   3.018   2.697  13.502 -0.0920 -2.8788 -0.5628
 3498SOL     OW21955   3.373   3.553   3.884  0.0550 -0.3151  0.1103
 3498SOL    HW121956   3.298   3.572   3.828  0.4271  1.8074  0.3216
 3498SOL    HW221957   3.444   3.535   3.822  0.9543 -1.7720  1.5595
 3499SOL     OW21958   1.697   3.322   1.767 -0.6292 -0.0701  0.6347
 3499SOL    HW121959   1.653   3.399   1.731  2.0005  1.0296 -0.2017
 3499SOL    HW221960   1.624   3.262   1.778 -0.6691 -0.3446 -1.2530
 3500SOL     OW21961   3.128   4.325  13.235  0.0431  0.2752  0.1962
 3500SOL    HW121962   3.222   4.316  13.252  0.2248  2.1534  0.2451
 3500SOL    HW221963   3.113   4.419  13.221  0.0449  0.3162  0.4670
 3501SOL     OW21964   3.289   4.600   2.733  0.5302 -0.5124  0.0094
 3501SOL    HW121965   3.295   4.601   2.638  0.8956  3.5981  0.0562
 3501SOL    HW221966   3.363   4.658   2.752 -0.3438 -0.3478  2.9996
 3502SOL     OW21967   4.578   4.379   1.639 -0.1624  0.7040  0.1536
 3502SOL    HW121968   4.500   4.432   1.622 -0.9918  0.0932  2.0677
 3502SOL    HW221969   4.547   4.342   1.721 -1.0928 -2.8163 -1.7470
 3503SOL     OW21970   2.281   0.526  13.060  0.4252  0.3779 -0.6783
 3503SOL    HW121971   2.280   0.620  13.047  0.6470  0.2614 -1.5247
 3503SOL    HW221972   2.237   0.499  12.979  0.4679 -0.1080 -0.5438
 3504SOL     OW21973   3.218   1.617  13.914 -0.2758  0.7710 -0.2826
 3504SOL    HW121974   3.246   1.614  14.006  2.2420  1.9113 -1.0146
 3504SOL    HW221975   3.296   1.648  13.868 -0.6480  0.9041 -0.8189
 3505SOL     OW21976   3.759   1.942   6.248 -0.3196  0.1664  0.1811
 3505SOL    HW121977   3.808   1.883   6.306 -1.8689 -1.5421 -0.2638
 3505SOL    HW221978   3.822   1.944   6.176 -0.4993  2.9037  0.1034
 3506SOL     OW21979   0.445   1.016   8.225  0.3937 -0.6444 -0.3867
 3506SOL    HW121980   0.406   1.103   8.217  2.0300  0.1149 -0.1402
 3506SOL    HW221981   0.516   1.027   8.289 -0.0635  0.1447 -0.0144
 3507SOL     OW21982   4.437   4.076  14.426  0.3236  0.3059 -0.0115
 3507SOL    HW121983   4.350   4.079  14.387  0.8641  1.9315 -1.0893
 3507SOL    HW221984   4.424   4.014  14.498  0.5722 -0.6796 -0.8070
 3508SOL     OW21985   1.810   0.668  12.667 -0.0746  0.1745 -0.3165
 3508SOL    HW121986   1.891   0.617  12.659  0.0016  0.8715 -4.0577
 3508SOL    HW221987   1.839   0.751  12.704 -2.2117  1.7389 -2.1882
 3509SOL     OW21988   1.937   4.524   6.452  0.4745  0.4959 -0.2666
 3509SOL    HW121989   1.984   4.542   6.371  1.2313 -0.1750  0.0218
 3509SOL    HW221990   2.013   4.495   6.502  0.2795  1.2809  0.5081
 3510SOL     OW21991   3.037   2.261   7.351 -0.4838 -0.0399 -0.2763
 3510SOL    HW121992   3.116   2.260   7.297  2.0102 -3.1858  3.5499
 3510SOL    HW221993   2.970   2.230   7.289  0.8680 -0.5526 -1.4794
 3511SOL     OW21994   0.989   3.400   6.987 -0.0728  0.3656  0.4941
 3511SOL    HW121995   0.954   3.453   7.058  1.9866  2.1780  0.1715
 3511SOL    HW221996   0.950   3.315   7.005 -1.8826  0.7307 -1.6315
 3512SOL     OW21997   4.685   3.014  15.873 -0.1447 -0.0224 -0.6842
 3512SOL    HW121998   4.620   2.965  15.824 -1.6447  0.6975  0.5856
 3512SOL    HW221999   0.019   2.936  15.893  1.1405  0.5853 -1.5867
 3513SOL     OW22000   2.227   4.442  13.888  0.4911 -0.2220  0.6428
 3513SOL    HW122001   2.233   4.428  13.794  1.1811 -0.2306  0.6886
 3513SOL    HW222002   2.319   4.429  13.910  0.7019 -0.6618 -0.5406
 3514SOL     OW22003   3.733   1.745  12.162  0.4385  0.0333 -0.0589
 3514SOL    HW122004   3.700   1.662  12.128 -0.3400  0.6148 -0.7238
 3514SOL    HW222005   3.654   1.796  12.144 -0.4524 -1.0579  0.7644
 3515SOL     OW22006   3.139   4.468   7.830  0.5274  0.4804  0.1029
 3515SOL    HW122007   3.151   4.531   7.758 -0.8203 -0.0380 -0.5678
 3515SOL    HW222008   3.162   4.384   7.790  2.2048  0.9466  0.0644
 3516SOL     OW22009   2.768   1.299  17.053  0.8007 -0.2896  0.2628
 3516SOL    HW122010   2.834   1.356  17.093 -1.2133  1.5106  1.0076
 3516SOL    HW222011   2.722   1.283  17.135  1.4671 -0.2465  0.6489
 3517SOL     OW22012   2.391   2.262   5.890  0.1730  0.3084  0.5275
 3517SOL    HW122013   2.312   2.315   5.896 -0.0961 -0.0473  0.0042
 3517SOL    HW222014   2.450   2.317   5.837 -1.9391  1.3336 -0.7411
 3518SOL     OW22015   3.203   0.801   6.845 -0.2521 -0.3165  0.0715
 3518SOL    HW122016   3.232   0.877   6.795 -1.9899 -0.6246 -1.3750
 3518SOL    HW222017   3.195   0.844   6.931  1.1927  0.2381 -0.0644
 3519SOL     OW22018   1.879   2.074   9.626 -0.3555 -0.2138 -0.1963
 3519SOL    HW122019   1.888   2.007   9.694 -0.7079  0.8294  0.8669
 3519SOL    HW222020   1.963   2.118   9.634 -0.0490 -0.3693 -2.5046
 3520SOL     OW22021   2.556   2.643   2.337  0.3844  0.3933 -0.0703
 3520SOL    HW122022   2.476   2.604   2.300 -0.2997  0.0773  1.7618
 3520SOL    HW222023   2.541   2.661   2.429 -3.1159  2.0076 -0.9727
 3521SOL     OW22024   4.633   3.623   3.432  0.4473 -0.0235 -0.4452
 3521SOL    HW122025   4.659   3.531   3.445 -0.2812 -0.1207  0.3417
 3521SOL    HW222026   4.715   3.643   3.478  1.0062  1.4980 -2.1399
 3522SOL     OW22027   3.761   0.593   3.508 -0.2915 -0.8837 -0.4624
 3522SOL    HW122028   3.672   0.576   3.476 -0.9074  0.4292  0.5501
 3522SOL    HW222029   3.770   0.528   3.578 -3.4504 -0.1627  0.6570
 3523SOL     OW22030   3.699   1.091  13.557  0.2784  0.6931  0.3360
 3523SOL    HW122031   3.653   1.162  13.602 -0.8095 -0.2803  0.7669
 3523SOL    HW222032   3.628   1.052  13.507 -0.4360  0.6730  1.3570
 3524SOL     OW22033   3.450   0.823   3.345  0.3855 -0.0455 -0.0968
 3524SOL    HW122034   3.538   0.843   3.312  1.8467 -2.7668  2.0455
 3524SOL    HW222035   3.429   0.906   3.388 -0.5389  0.5652 -1.7585
 3525SOL     OW22036   1.139   3.137   8.520 -0.2272 -0.1960  0.1444
 3525SOL    HW122037   1.145   3.080   8.443  0.5119  0.7267 -0.4761
 3525SOL    HW222038   1.093   3.213   8.485 -0.5012  0.0080  0.9528
 3526SOL     OW22039   0.392   4.196   5.878  0.1316 -0.2553 -0.1800
 3526SOL    HW122040   0.427   4.280   5.849  0.7959 -0.3997  0.1938
 3526SOL    HW222041   0.439   4.175   5.959 -0.1338 -1.5955 -0.3690
 3527SOL     OW22042   3.428   1.469   6.804 -0.1589  0.0788 -0.3800
 3527SOL    HW122043   3.403   1.517   6.883 -1.7117 -1.8535  0.2925
 3527SOL    HW222044   3.495   1.525   6.765  0.3845  0.8511  1.6577
 3528SOL     OW22045   3.043   4.672   8.405  0.0673  0.0431 -0.1571
 3528SOL    HW122046   3.104   4.620   8.458  0.5522  1.0598  0.2786
 3528SOL    HW222047   3.099   0.021   8.365 -0.4688  0.3877 -0.3287
 3529SOL     OW22048   2.312   1.674   4.942 -0.0407  0.4924 -0.0652
 3529SOL    HW122049   2.260   1.595   4.958  1.9085 -0.2799  2.4595
 3529SOL    HW222050   2.359   1.682   5.025 -0.2961 -0.0584  0.1341
 3530SOL     OW22051   0.612   0.868   3.178  0.3463 -0.4458  0.0225
 3530SOL    HW122052   0.706   0.869   3.193  0.2394 -3.4652  0.8499
 3530SOL    HW222053   0.592   0.962   3.175  1.3660 -0.2447 -0.5278
 3531SOL     OW22054   3.788   2.305  12.587 -0.2967  0.4200 -0.0633
 3531SOL    HW122055   3.829   2.389  12.608 -2.1199  0.9232  1.4070
 3531SOL    HW222056   3.736   2.339  12.514  0.4260  1.2173 -0.2152
 3532SOL     OW22057   4.305   3.933  16.992  0.2825 -0.1566 -0.4448
 3532SOL    HW122058   4.261   3.906  16.912 -0.1629 -0.4175 -0.1133
 3532SOL    HW222059   4.277   3.867  17.056  1.6018  0.1371  0.4395
 3533SOL     OW22060   0.439   0.585   3.582  0.5419 -0.5686  0.1972
 3533SOL    HW122061   0.376   0.632   3.637  0.2062  1.1802 -1.7190
 3533SOL    HW222062   0.417   0.617   3.495 -0.2396 -0.7339  0.3330
 3534SOL     OW22063   1.582   1.447   6.355 -0.0871 -0.1325 -0.1669
 3534SOL    HW122064   1.566   1.497   6.435 -1.8836 -1.9772  0.6418
 3534SOL    HW222065   1.543   1.369   6.394  0.5674 -0.7519 -0.7554
 3535SOL     OW22066   4.167   1.047   8.657 -0.7083 -0.5569  0.0441
 3535SOL    HW122067   4.235   1.019   8.596 -0.9761 -0.1177 -0.4545
 3535SOL    HW222068   4.218   1.084   8.728  0.6704 -2.9556  0.2959
 3536SOL     OW22069   2.460   1.823   6.485 -0.4149  0.1281  0.5829
 3536SOL    HW122070   2.418   1.806   6.401  1.8712  1.1716 -0.7640
 3536SOL    HW222071   2.535   1.762   6.479  1.9478  2.8906  1.9616
 3537SOL     OW22072   4.172   3.848  15.537  0.4179  0.3309 -0.2392
 3537SOL    HW122073   4.181   3.760  15.500 -0.2851  0.3863 -0.5405
 3537SOL    HW222074   4.132   3.823  15.620  2.3296  1.6974  1.1163
 3538SOL     OW22075   2.692   2.956   2.166  0.0203 -0.3274  0.0447
 3538SOL    HW122076   2.627   2.965   2.096  1.1529  0.9428 -0.8461
 3538SOL    HW222077   2.657   3.019   2.228 -0.4103  1.3809 -1.9325
 3539SOL     OW22078   1.222   3.751   2.769 -0.3216 -0.3527  0.3386
 3539SOL    HW122079   1.195   3.717   2.683  0.8763  1.0152 -0.5943
 3539SOL    HW222080   1.233   3.842   2.741 -0.7021  0.1009  1.6821
 3540SOL     OW22081   4.118   4.261   6.829  0.2456  0.0588  0.3927
 3540SOL    HW122082   4.144   4.277   6.738 -2.0053  1.1666 -0.0508
 3540SOL    HW222083   4.051   4.193   6.819 -1.0073  1.6479 -2.0537
 3541SOL     OW22084   2.516   3.100  17.027 -0.1746 -0.3611  0.2924
 3541SOL    HW122085   2.507   3.017  16.980  0.3785  0.9327 -2.1228
 3541SOL    HW222086   2.611   3.105  17.036  0.1241 -3.1129 -1.2228
 3542SOL     OW22087   1.293   2.409   6.880 -0.6257 -0.7309 -0.2398
 3542SOL    HW122088   1.211   2.444   6.846 -0.3521  0.0828 -0.0646
 3542SOL    HW222089   1.347   2.489   6.884 -3.0001  0.7945  1.0031
 3543SOL     OW22090   3.686   3.711   1.262 -0.2692  0.6982  0.1870
 3543SOL    HW122091   3.740   3.758   1.199 -0.0467 -1.2337 -1.0486
 3543SOL    HW222092   3.649   3.637   1.215 -0.9138 -0.9710  3.3053
 3544SOL     OW22093   2.794   3.231   2.071  0.0035  0.5011 -0.6645
 3544SOL    HW122094   2.720   3.284   2.099  0.0182 -1.3948  2.9286
 3544SOL    HW222095   2.790   3.238   1.975  0.1995  3.2682 -0.4697
 3545SOL     OW22096   3.794   1.731   4.992 -0.4273  0.1969  0.1062
 3545SOL    HW122097   3.802   1.825   4.975  0.4142 -0.1061 -1.1582
 3545SOL    HW222098   3.705   1.714   5.024 -0.0788  0.5838  1.2930
 3546SOL     OW22099   3.139   2.781  15.347  0.4428 -0.2639 -0.4750
 3546SOL    HW122100   3.187   2.839  15.287  0.6507  3.9206  3.7677
 3546SOL    HW222101   3.205   2.739  15.402  1.1280 -2.1556 -2.7475
 3547SOL     OW22102   2.607   3.317   3.171  0.0391 -0.7360  0.0501
 3547SOL    HW122103   2.702   3.332   3.172 -0.3961  1.8932 -0.1437
 3547SOL    HW222104   2.594   3.237   3.120 -0.1846 -1.1124  0.7053
 3548SOL     OW22105   0.996   1.008   3.668  0.7082 -0.4629  0.1799
 3548SOL    HW122106   1.089   1.026   3.683 -0.1263  1.2903  3.2649
 3548SOL    HW222107   0.957   1.013   3.755 -0.6955  0.5855 -0.5187
 3549SOL     OW22108   2.949   1.390   7.597  1.1095  0.5219 -0.6152
 3549SOL    HW122109   2.871   1.391   7.541  1.5365 -0.8774 -1.2316
 3549SOL    HW222110   2.984   1.305   7.570  0.4846  0.1532 -0.2697
 3550SOL     OW22111   3.005   2.328  12.575  0.2758 -0.4859  0.6409
 3550SOL    HW122112   3.083   2.293  12.533  1.3551  0.6164  1.7096
 3550SOL    HW222113   2.998   2.274  12.653 -0.4677 -1.3613 -0.0320
 3551SOL     OW22114   3.374   2.762   3.076 -0.1895  0.1625  0.1727
 3551SOL    HW122115   3.467   2.745   3.065 -0.6738 -1.8493 -0.8518
 3551SOL    HW222116   3.336   2.766   2.989  0.2018  0.7459  0.0349
 3552SOL     OW22117   3.103   3.091   8.137 -0.0075  0.2023  0.0387
 3552SOL    HW122118   3.164   3.106   8.064  1.2609 -1.5628  0.7349
 3552SOL    HW222119   3.069   3.178   8.158  0.5945  0.2239  0.9380
 3553SOL     OW22120   3.196   0.967   2.425  0.2602 -0.9885  0.7284
 3553SOL    HW122121   3.260   0.902   2.395  1.0334 -0.3044  0.8845
 3553SOL    HW222122   3.251   1.027   2.475  0.7016 -1.1941  0.4885
 3554SOL     OW22123   0.600   2.198  16.685 -0.2023  0.0943 -0.8420
 3554SOL    HW122124   0.509   2.214  16.663 -0.1393  2.1254  0.3839
 3554SOL    HW222125   0.631   2.285  16.662  0.6101 -0.0501 -0.3195
 3555SOL     OW22126   1.507   2.816  15.805 -0.4521 -0.6526 -0.5599
 3555SOL    HW122127   1.468   2.839  15.720 -0.9752  2.1323  0.4368
 3555SOL    HW222128   1.582   2.761  15.784 -0.2018 -0.5028 -0.0594
 3556SOL     OW22129   2.532   2.444   7.836 -0.7725 -0.4012 -0.0058
 3556SOL    HW122130   2.535   2.514   7.902  0.2549 -0.0593 -0.4115
 3556SOL    HW222131   2.520   2.368   7.893  2.6628 -0.8796  0.0636
 3557SOL     OW22132   3.554   0.336  11.915  0.1866  0.0339  0.5394
 3557SOL    HW122133   3.571   0.243  11.899 -0.3677  0.6135 -3.3566
 3557SOL    HW222134   3.531   0.363  11.826  2.6186  1.4603  0.3605
 3558SOL     OW22135   0.959   2.863  12.240  0.4366 -0.3977  0.4154
 3558SOL    HW122136   1.002   2.847  12.156 -0.4064  1.0337 -0.2976
 3558SOL    HW222137   1.036   2.858  12.297 -1.1279 -1.3867  2.4339
 3559SOL     OW22138   2.225   2.590   9.466  0.2463  0.5313  0.3137
 3559SOL    HW122139   2.174   2.569   9.387 -2.1642 -0.6696  2.2120
 3559SOL    HW222140   2.181   2.671   9.491 -2.0998 -0.6452 -0.0652
 3560SOL     OW22141   0.033   4.668  13.423  0.1905  0.2793  0.2968
 3560SOL    HW122142   0.051   0.023  13.482  1.0989  0.0802  0.2751
 3560SOL    HW222143   0.043   4.601  13.490 -0.7229  0.2679  0.4140
 3561SOL     OW22144   4.057   2.792   2.716 -0.2234  0.3162  0.1561
 3561SOL    HW122145   4.035   2.711   2.670 -0.4752 -0.4164  1.5936
 3561SOL    HW222146   4.137   2.827   2.677 -0.3904  1.1752  0.5771
 3562SOL     OW22147   2.988   1.177   3.413 -0.9435  0.0493  0.6431
 3562SOL    HW122148   2.992   1.256   3.360 -0.7308  0.1968  0.8812
 3562SOL    HW222149   2.896   1.151   3.420 -1.0213 -0.1216 -1.0771
 3563SOL     OW22150   2.703   3.610   2.563 -0.1166 -0.0263  0.5019
 3563SOL    HW122151   2.724   3.677   2.628  0.0233 -0.6406  1.0881
 3563SOL    HW222152   2.722   3.673   2.493 -0.3319 -1.0791 -0.5132
 3564SOL     OW22153   0.137   2.245  10.267 -0.5706  0.4064 -0.1082
 3564SOL    HW122154   0.095   2.161  10.250 -0.3331  0.0584  0.9967
 3564SOL    HW222155   0.068   2.309  10.247 -1.4005 -0.1521  0.9731
 3565SOL     OW22156   3.532   1.339   4.348 -0.1826 -0.4416 -0.3098
 3565SOL    HW122157   3.493   1.426   4.344  0.9921  0.0835 -0.4440
 3565SOL    HW222158   3.544   1.326   4.442 -2.1774 -0.0699 -0.0005
 3566SOL     OW22159   4.263   1.025  10.329  0.0557  0.3221  0.7620
 3566SOL    HW122160   4.290   1.037  10.420 -0.2567  1.3246  0.7119
 3566SOL    HW222161   4.298   1.105  10.290  3.0524 -0.8891  0.9249
 3567SOL     OW22162   1.621   3.312   4.296 -0.1841 -0.0507 -0.0903
 3567SOL    HW122163   1.604   3.394   4.248  0.0825 -1.7541 -3.0868
 3567SOL    HW222164   1.542   3.306   4.349  1.6769 -0.9611  2.5476
 3568SOL     OW22165   3.050   0.430  10.200 -0.6152  0.2819  0.1720
 3568SOL    HW122166   2.960   0.420  10.169 -0.7385  1.0744  0.2909
 3568SOL    HW222167   3.057   0.351  10.254  1.5297  0.3239 -0.0579
 3569SOL     OW22168   2.614   1.231   5.996 -0.2927  0.1951 -0.7925
 3569SOL    HW122169   2.588   1.261   5.909 -1.0839  1.5264 -0.0942
 3569SOL    HW222170   2.535   1.239   6.050  0.4544 -2.4486  0.6758
 3570SOL     OW22171   4.627   0.143   8.569  0.3513 -0.2454  0.2444
 3570SOL    HW122172   4.607   0.052   8.548 -2.3284 -0.4868  3.7477
 3570SOL    HW222173   4.614   0.181   8.482  0.2122  0.8977  0.7706
 3571SOL     OW22174   1.805   2.049   5.862 -0.0552  0.5453 -0.8597
 3571SOL    HW122175   1.735   2.070   5.800 -0.6673  0.4613 -0.1956
 3571SOL    HW222176   1.760   1.986   5.919 -1.7907  0.7870 -1.9681
 3572SOL     OW22177   4.274   2.315   8.277 -0.4187 -0.1983  0.2612
 3572SOL    HW122178   4.255   2.268   8.196  1.0887 -0.1546 -0.1143
 3572SOL    HW222179   4.186   2.343   8.303  0.5044 -1.3380  4.5605
 3573SOL     OW22180   2.555   4.001  17.610 -0.0840  0.3451  0.5965
 3573SOL    HW122181   2.610   3.925  17.590  1.2171  1.9918 -2.0353
 3573SOL    HW222182   2.486   3.969  17.669 -1.6101  1.7932 -0.4222
 3574SOL     OW22183   3.245   3.774   5.481 -0.6650 -0.7153  0.1359
 3574SOL    HW122184   3.226   3.842   5.417 -0.4310 -0.1506  0.6615
 3574SOL    HW222185   3.159   3.732   5.490 -0.8710  0.0623  1.7763
 3575SOL     OW22186   4.055   2.950  13.501  0.0803  0.2302 -0.1731
 3575SOL    HW122187   3.979   3.009  13.509 -0.6202 -0.7047  0.0250
 3575SOL    HW222188   4.002   2.871  13.496  0.7270 -0.1899 -0.3026
 3576SOL     OW22189   1.671   3.838   5.042  0.2319 -0.1780  0.1318
 3576SOL    HW122190   1.714   3.921   5.023  0.8582 -0.5998 -0.2996
 3576SOL    HW222191   1.701   3.791   4.964  1.7488  0.7013  0.1856
 3577SOL     OW22192   4.460   2.950   4.986 -0.0095 -0.4575  0.9753
 3577SOL    HW122193   4.531   2.981   4.930 -0.7768 -0.0163  0.2537
 3577SOL    HW222194   4.429   2.879   4.931  2.5114  0.8816 -2.2002
 3578SOL     OW22195   3.351   4.185  12.157 -0.1179  0.5932 -0.1459
 3578SOL    HW122196   3.317   4.143  12.235 -2.9938  0.9272 -1.2230
 3578SOL    HW222197   3.398   4.257  12.198  0.4655 -1.0807  2.1171
 3579SOL     OW22198   3.201   1.420   0.595  0.1716 -0.1384  0.1441
 3579SOL    HW122199   3.177   1.345   0.649 -0.9092 -0.8613 -1.3669
 3579SOL    HW222200   3.194   1.487   0.663 -1.6705  0.7504 -0.9239
 3580SOL     OW22201   4.689   1.016   3.302  0.2350 -0.1075 -0.2552
 3580SOL    HW122202   4.655   0.991   3.216  1.5652 -0.9663 -0.5477
 3580SOL    HW222203   0.028   0.945   3.334  0.4212  0.6696  1.1333
 3581SOL     OW22204   3.148   1.372   7.041  0.0954 -0.1288 -0.0849
 3581SOL    HW122205   3.144   1.414   7.127 -3.2460 -1.9560  0.6634
 3581SOL    HW222206   3.223   1.319   7.067  0.7204  0.2139 -1.1965
 3582SOL     OW22207   0.054   2.786   7.669  0.3061 -0.4379  0.9161
 3582SOL    HW122208   0.014   2.830   7.594 -0.2117  0.5980  1.8052
 3582SOL    HW222209   0.121   2.851   7.687  0.6302 -0.9910  1.7057
 3583SOL     OW22210   3.246   0.137   2.121  0.0823  0.4615 -0.1082
 3583SOL    HW122211   3.288   0.196   2.184 -1.4790  0.7562  0.6779
 3583SOL    HW222212   3.167   0.114   2.170 -0.5954 -2.6058 -2.6024
 3584SOL     OW22213   3.333   0.154   6.329 -0.3423  0.1122 -0.0591
 3584SOL    HW122214   3.343   0.067   6.291 -0.4598  1.0021 -2.1274
 3584SOL    HW222215   3.237   0.154   6.334 -0.2943 -0.5575  0.9201
 3585SOL     OW22216   0.200   3.124   4.380 -0.0913  0.0528 -0.3932
 3585SOL    HW122217   0.245   3.054   4.428 -0.0459 -0.9709 -1.9235
 3585SOL    HW222218   0.114   3.130   4.422  0.2477 -0.2644  0.3593
 3586SOL     OW22219   1.108   0.564  15.546 -0.5893 -0.4311  0.5284
 3586SOL    HW122220   1.126   0.594  15.635 -1.4867 -1.2454  0.9837
 3586SOL    HW222221   1.077   0.647  15.509  1.0554 -0.3491 -0.6563
 3587SOL     OW22222   3.131   1.087   4.459 -0.9901  0.1500  0.6159
 3587SOL    HW122223   3.189   1.147   4.506 -0.3738 -1.1469  1.5148
 3587SOL    HW222224   3.045   1.128   4.450 -1.7104 -1.4961  0.1145
 3588SOL     OW22225   1.197   3.345  12.254 -0.4142  0.1740 -0.1419
 3588SOL    HW122226   1.162   3.332  12.166 -0.2623 -1.1546 -0.0154
 3588SOL    HW222227   1.217   3.252  12.269 -0.6768  0.0804 -0.3531
 3589SOL     OW22228   4.061   0.062  13.218 -0.7786  0.3809 -0.0327
 3589SOL    HW122229   4.072   0.120  13.142  2.3742 -1.8788 -1.3036
 3589SOL    HW222230   4.117   0.108  13.280  0.2012 -2.5802  1.2787
 3590SOL     OW22231   3.464   4.236  12.854  0.2985  0.1404  0.0385
 3590SOL    HW122232   3.547   4.279  12.874  0.1637  0.9347 -1.1156
 3590SOL    HW222233   3.392   4.298  12.868  1.1892  1.0507  0.6255
 3591SOL     OW22234   2.153   3.300   8.293 -0.4383  0.2364 -0.5707
 3591SOL    HW122235   2.121   3.366   8.232 -0.0019 -0.9808 -2.1284
 3591SOL    HW222236   2.237   3.333   8.322 -0.3683  1.0267 -1.6692
 3592SOL     OW22237   2.447   2.082   6.537  0.4238  0.0976 -0.3639
 3592SOL    HW122238   2.353   2.071   6.550  0.4043 -0.1466 -0.7306
 3592SOL    HW222239   2.465   1.993   6.509  0.1042 -0.3507  0.8592
 3593SOL     OW22240   0.236   1.016   1.376  0.6005  0.1496  0.0263
 3593SOL    HW122241   0.216   1.105   1.404  1.0317  0.6474 -1.2365
 3593SOL    HW222242   0.325   1.007   1.410  0.5889  1.0755  0.3082
 3594SOL     OW22243   2.215   0.490   7.598  0.3059  0.1170 -0.1012
 3594SOL    HW122244   2.186   0.418   7.654  1.9507  0.1063  0.7318
 3594SOL    HW222245   2.223   0.565   7.658 -0.9422  0.0810  0.1047
 3595SOL     OW22246   4.591   4.718   6.827  0.0039 -0.2325  0.1966
 3595SOL    HW122247   4.559   4.632   6.798 -1.8086  0.5955 -0.2315
 3595SOL    HW222248   4.580   0.055   6.750 -1.6080 -1.1163 -0.2048
 3596SOL     OW22249   1.614   4.142  12.505  0.3264 -0.4676 -0.2026
 3596SOL    HW122250   1.589   4.234  12.498  1.2367 -0.2908 -0.9917
 3596SOL    HW222251   1.704   4.150  12.475  0.0955 -1.9708 -1.2828
 3597SOL     OW22252   0.842   0.690  13.242  0.3150  0.4008 -0.3398
 3597SOL    HW122253   0.850   0.694  13.337  1.3636 -1.9298 -0.3316
 3597SOL    HW222254   0.810   0.603  13.217  0.2960  0.4266 -0.4046
 3598SOL     OW22255   1.689   4.580  16.278 -0.2007  0.1566 -0.9558
 3598SOL    HW122256   1.663   4.568  16.187  0.7448 -0.0888 -1.2000
 3598SOL    HW222257   1.662   4.669  16.300  2.5409  0.6271  0.5508
 3599SOL     OW22258   0.126   2.612   8.918  0.3175  0.1590  0.1901
 3599SOL    HW122259   0.112   2.546   8.850  1.0063  1.8198 -1.5370
 3599SOL    HW222260   0.054   2.672   8.900  0.5059  0.0414 -0.9652
 3600SOL     OW22261   2.029   3.875   7.925 -0.1040  0.6595  0.6202
 3600SOL    HW122262   1.955   3.825   7.892 -0.9739  1.1588  1.8265
 3600SOL    HW222263   2.014   3.959   7.881  0.0000  0.7914  0.8343
 3601SOL     OW22264   0.311   0.595   8.885  0.3748  1.0170 -0.8184
 3601SOL    HW122265   0.349   0.683   8.883  1.2173  0.6785  0.5153
 3601SOL    HW222266   0.220   0.612   8.861  0.3839  2.5307  0.2186
 3602SOL     OW22267   2.025   4.099   1.888 -0.4580  0.1202 -0.6406
 3602SOL    HW122268   2.004   4.011   1.857  0.5753 -1.2245  2.4792
 3602SOL    HW222269   2.077   4.123   1.811  0.1279 -0.5071 -0.4479
 3603SOL     OW22270   2.355   3.278   5.109 -0.4171 -0.5157  0.0131
 3603SOL    HW122271   2.279   3.256   5.162  1.2117 -0.8920  2.1825
 3603SOL    HW222272   2.411   3.342   5.153 -0.1193  0.3826 -1.6364
 3604SOL     OW22273   4.594   2.223   8.228 -0.2130  0.0205  0.7775
 3604SOL    HW122274   4.586   2.130   8.246  1.5423 -0.4081 -0.7217
 3604SOL    HW222275   4.566   2.253   8.315 -2.3132  0.0151  0.1087
 3605SOL     OW22276   4.089   0.996   7.140  0.0861 -0.2382  0.9386
 3605SOL    HW122277   4.123   1.072   7.095  0.2641  0.1898  1.7903
 3605SOL    HW222278   4.103   0.931   7.071  1.0951  0.6659  0.2970
 3606SOL     OW22279   2.591   0.222  10.249  0.5342  0.2611 -0.4593
 3606SOL    HW122280   2.658   0.246  10.313  0.7648 -0.8045 -0.2965
 3606SOL    HW222281   2.574   0.129  10.267  1.6221  0.2805  0.6846
 3607SOL     OW22282   0.476   3.390   8.664 -0.2087  0.0416 -0.4242
 3607SOL    HW122283   0.484   3.456   8.595 -1.5680 -0.0430 -0.6651
 3607SOL    HW222284   0.563   3.367   8.695  1.1605  1.8840 -2.9219
 3608SOL     OW22285   1.851   2.447   7.939 -0.2543 -0.3671  0.1991
 3608SOL    HW122286   1.794   2.524   7.940  1.5278  0.9430  0.2703
 3608SOL    HW222287   1.821   2.406   7.858  1.4362 -0.0354 -0.5847
 3609SOL     OW22288   2.294   4.148   9.920 -0.0115  0.0728 -0.1310
 3609SOL    HW122289   2.325   4.210   9.986 -1.3626  0.1241  0.4762
 3609SOL    HW222290   2.200   4.149   9.938 -0.0595 -0.6637 -0.3273
 3610SOL     OW22291   0.824   0.476  16.152 -0.0588 -0.3166  0.1645
 3610SOL    HW122292   0.738   0.471  16.194  0.3015 -1.8466  0.7058
 3610SOL    HW222293   0.802   0.474  16.058 -3.2869 -0.8834  0.9157
 3611SOL     OW22294   2.813   3.675   9.465  0.0682  0.2751 -0.4380
 3611SOL    HW122295   2.839   3.641   9.380 -1.3090 -0.1974 -0.6788
 3611SOL    HW222296   2.801   3.590   9.508  2.2712  0.9028  1.4422
 3612SOL     OW22297   3.876   1.084   2.832 -0.3406 -0.6171  0.4526
 3612SOL    HW122298   3.833   1.170   2.830 -2.3817 -1.6279  0.2765
 3612SOL    HW222299   3.940   1.103   2.764 -0.2145 -0.4944  0.6044
 3613SOL     OW22300   3.649   2.248   2.598  0.1430  0.0329 -0.2196
 3613SOL    HW122301   3.579   2.295   2.644 -0.8435 -0.2193 -1.4654
 3613SOL    HW222302   3.714   2.249   2.668  1.1671  0.9589 -1.1878
 3614SOL     OW22303   2.834   3.716   4.940  0.6709 -0.3887  0.3639
 3614SOL    HW122304   2.817   3.809   4.922  0.6344 -0.6168 -0.8050
 3614SOL    HW222305   2.757   3.675   4.900  1.0734  0.5488 -1.4025
 3615SOL     OW22306   2.010   0.857  14.382 -0.0563  0.0482 -0.2117
 3615SOL    HW122307   2.001   0.818  14.469 -2.1732 -1.7125 -1.2215
 3615SOL    HW222308   1.925   0.893  14.355  0.0512  0.1994 -0.3460
 3616SOL     OW22309   3.229   2.031   2.452  0.4592 -0.4100  0.1364
 3616SOL    HW122310   3.297   1.999   2.511 -1.8921 -2.5251  1.6962
 3616SOL    HW222311   3.144   1.991   2.473 -0.7109  1.7311 -0.5247
 3617SOL     OW22312   1.790   0.244   3.299  0.2231 -0.0160 -0.0302
 3617SOL    HW122313   1.790   0.148   3.310 -2.8679 -0.1334 -1.1078
 3617SOL    HW222314   1.704   0.268   3.335 -0.0321 -2.3522  0.9574
 3618SOL     OW22315   0.755   1.044  16.585  0.3342  0.1230  0.2388
 3618SOL    HW122316   0.782   1.133  16.562 -2.6848  1.2413  1.0230
 3618SOL    HW222317   0.801   1.001  16.513 -0.8355 -1.1411  0.2422
 3619SOL     OW22318   0.056   3.904   8.431  0.2456 -0.1392 -0.8331
 3619SOL    HW122319   4.703   3.842   8.414 -0.9656  0.6656  1.2929
 3619SOL    HW222320   0.009   3.987   8.426  0.8232  0.0958 -2.3485
 3620SOL     OW22321   3.076   1.264   8.880  0.7383  0.1989 -0.0334
 3620SOL    HW122322   3.137   1.276   8.954 -0.2788  1.5918  0.5871
 3620SOL    HW222323   3.077   1.346   8.831  0.6113  0.2837  0.1044
 3621SOL     OW22324   1.886   2.930  11.453  0.8670  0.1233 -0.0333
 3621SOL    HW122325   1.861   2.931  11.546 -1.0366 -0.5892 -0.5356
 3621SOL    HW222326   1.943   2.854  11.452 -0.2906 -0.7675  1.1549
 3622SOL     OW22327   1.295   1.794   2.012  0.2434  0.2349  0.4125
 3622SOL    HW122328   1.330   1.881   1.994  0.6014 -0.2428 -1.1980
 3622SOL    HW222329   1.228   1.815   2.078 -0.3400  1.0335 -0.4439
 3623SOL     OW22330   0.359   2.376   8.361  0.3006 -0.5706 -0.8332
 3623SOL    HW122331   0.318   2.405   8.443  2.5783  0.7707 -0.1654
 3623SOL    HW222332   0.332   2.449   8.304 -0.0470 -1.5521 -1.9215
 3624SOL     OW22333   3.017   0.086   1.236  0.2340 -0.0539  0.3891
 3624SOL    HW122334   3.040   0.178   1.225  1.2218 -0.2887  0.5223
 3624SOL    HW222335   2.933   0.091   1.190 -0.6161 -0.3209  1.9349
 3625SOL     OW22336   4.034   2.847   5.543 -0.1656 -0.7631  0.5706
 3625SOL    HW122337   4.118   2.844   5.589  1.4922  0.1618 -2.3652
 3625SOL    HW222338   3.985   2.770   5.571  1.2279 -1.1507  1.9014
 3626SOL     OW22339   3.836   0.225  13.079  0.1947 -0.3782  0.1363
 3626SOL    HW122340   3.860   0.139  13.114  1.5690 -0.3851 -0.8222
 3626SOL    HW222341   3.872   0.215  12.991  0.6130 -0.9520  0.3747
 3627SOL     OW22342   3.027   4.674   8.968  0.1601 -0.3000 -0.0131
 3627SOL    HW122343   3.120   4.657   8.954 -0.2745 -1.3872 -1.6829
 3627SOL    HW222344   3.005   0.036   8.921  1.3580 -0.0187 -0.0756
 3628SOL     OW22345   0.574   1.902   1.962 -0.2338 -0.0564  0.1410
 3628SOL    HW122346   0.590   1.953   1.883  0.3349 -1.1780 -0.4664
 3628SOL    HW222347   0.651   1.846   1.960 -0.6954 -0.6071 -1.6479
 3629SOL     OW22348   4.563   1.958  13.379  0.2524 -0.1880  0.4915
 3629SOL    HW122349   4.505   2.034  13.377  1.2266  0.5759  1.1606
 3629SOL    HW222350   4.579   1.966  13.473 -0.0974  0.2719  0.5139
 3630SOL     OW22351   0.348   0.448  15.884 -0.3352  0.7509 -0.5740
 3630SOL    HW122352   0.410   0.399  15.937 -0.9449  0.4875 -0.1093
 3630SOL    HW222353   0.319   0.375  15.828  2.7361 -1.6405  0.9772
 3631SOL     OW22354   1.808   1.445   5.937 -0.2993  0.7194 -0.0109
 3631SOL    HW122355   1.899   1.469   5.919 -0.4852 -0.7504 -2.9235
 3631SOL    HW222356   1.761   1.528   5.930 -0.7988  0.3375 -1.2437
 3632SOL     OW22357   4.047   0.912   3.912  0.1264 -0.1522 -0.8747
 3632SOL    HW122358   4.014   0.876   3.829 -0.0375  2.3250 -1.8740
 3632SOL    HW222359   3.980   0.876   3.971  1.3497 -1.0703 -0.0572
 3633SOL     OW22360   1.679   0.722  13.705  0.3365 -0.0739  0.0831
 3633SOL    HW122361   1.740   0.740  13.777  0.5458 -1.8025  0.3257
 3633SOL    HW222362   1.664   0.629  13.720 -0.1092 -0.1697 -0.9424
 3634SOL     OW22363   2.382   0.720   2.863 -0.0913  0.2347  0.2065
 3634SOL    HW122364   2.346   0.670   2.790 -1.2827  1.5019 -0.0952
 3634SOL    HW222365   2.420   0.649   2.914 -1.4049 -1.4929 -1.2288
 3635SOL     OW22366   0.674   2.556   5.973 -0.2714  0.2558  0.2117
 3635SOL    HW122367   0.659   2.544   6.067 -0.0061 -0.9414  0.1078
 3635SOL    HW222368   0.656   2.466   5.945 -0.8882 -0.0020  1.4259
 3636SOL     OW22369   1.094   2.101   3.280 -0.8701  0.1873  0.3503
 3636SOL    HW122370   1.139   2.123   3.199 -0.7215  0.1605  0.4252
 3636SOL    HW222371   1.098   2.184   3.328  2.6646 -0.5955  1.4540
 3637SOL     OW22372   3.048   1.192  16.108 -0.0402  0.0575 -0.2342
 3637SOL    HW122373   2.961   1.231  16.102 -0.9558 -1.6819  1.7468
 3637SOL    HW222374   3.027   1.100  16.089 -1.1642  0.4936 -1.0975
 3638SOL     OW22375   4.526   0.616   5.906  0.1196 -0.6172  0.1854
 3638SOL    HW122376   4.514   0.605   6.000 -1.3742  0.9236  0.1699
 3638SOL    HW222377   4.450   0.577   5.862  0.0674 -0.9011  0.5313
 3639SOL     OW22378   4.089   2.020   1.994 -0.4036 -0.0599 -0.1196
 3639SOL    HW122379   4.154   2.002   2.062 -1.1142 -0.3475  0.4696
 3639SOL    HW222380   4.138   1.972   1.927 -0.8336  0.6716 -0.9651
 3640SOL     OW22381   2.731   3.134  13.676 -0.1541  0.5914  0.7159
 3640SOL    HW122382   2.711   3.048  13.715  1.1314  0.7886  1.8119
 3640SOL    HW222383   2.641   3.165  13.665 -0.1246 -0.4331 -2.3102
 3641SOL     OW22384   1.169   4.566  15.641 -0.0919 -0.0364 -0.2130
 3641SOL    HW122385   1.086   4.522  15.660  0.2472 -0.2065  0.9014
 3641SOL    HW222386   1.161   4.615  15.560  0.4963 -0.0039 -0.2549
 3642SOL     OW22387   3.444   2.675  13.110  0.0683  0.2257  0.8082
 3642SOL    HW122388   3.366   2.619  13.108 -0.7287  1.2936  1.5758
 3642SOL    HW222389   3.492   2.625  13.044 -0.1824  0.4152  0.4847
 3643SOL     OW22390   1.176   1.990   4.215  0.2860 -0.1431  0.1818
 3643SOL    HW122391   1.142   2.078   4.199  0.3070 -0.1036  0.3550
 3643SOL    HW222392   1.253   1.993   4.272 -0.0275  2.0292  0.4945
 3644SOL     OW22393   1.854   0.791   8.564  0.4142  0.3432  0.4015
 3644SOL    HW122394   1.883   0.858   8.502 -0.0177  0.5179  0.3888
 3644SOL    HW222395   1.936   0.748   8.588 -0.6506 -0.9629  1.6941
 3645SOL     OW22396   4.094   3.764   8.156  0.7470 -0.4215 -0.1788
 3645SOL    HW122397   4.176   3.717   8.143  1.1863  0.4123 -0.3874
 3645SOL    HW222398   4.120   3.850   8.190 -1.1758 -0.1817  0.6891
 3646SOL     OW22399   0.264   0.515   7.073  0.4168  0.7219 -0.2038
 3646SOL    HW122400   0.289   0.445   7.134 -0.7727  0.1669 -0.3566
 3646SOL    HW222401   0.280   0.595   7.122  2.6590 -0.4047  0.8870
 3647SOL     OW22402   3.693   2.522   1.385 -0.6622  0.5067  0.0087
 3647SOL    HW122403   3.599   2.521   1.403 -0.7906 -0.1883 -0.6932
 3647SOL    HW222404   3.724   2.459   1.449 -1.6934  0.6528  0.6655
 3648SOL     OW22405   0.669   4.274   7.467 -0.2479 -0.1305  0.0562
 3648SOL    HW122406   0.628   4.261   7.382  0.9721 -1.2133 -0.3691
 3648SOL    HW222407   0.723   4.195   7.468  1.6586  1.1482 -1.6662
 3649SOL     OW22408   1.127   3.224   3.767  0.3822  0.0496 -0.4190
 3649SOL    HW122409   1.063   3.189   3.705 -1.4656 -1.0448  2.0732
 3649SOL    HW222410   1.180   3.274   3.705 -0.7677 -1.4578 -2.6035
 3650SOL     OW22411   1.221   4.563   0.589 -0.1930 -0.3724  0.0477
 3650SOL    HW122412   1.244   4.561   0.681  1.1376  1.0603 -0.2555
 3650SOL    HW222413   1.142   4.616   0.600  0.6434  0.9855 -0.5279
 3651SOL     OW22414   3.421   2.833   6.856  0.0431  0.4191  0.1627
 3651SOL    HW122415   3.440   2.880   6.775 -2.5258  1.8116  0.3396
 3651SOL    HW222416   3.493   2.865   6.909 -0.2539  1.3399  0.0176
 3652SOL     OW22417   2.600   0.211   7.270 -0.3898  0.4644 -0.4044
 3652SOL    HW122418   2.532   0.211   7.202  1.1344 -2.6862 -1.8895
 3652SOL    HW222419   2.548   0.169   7.339  0.4397 -0.2499 -0.2162
 3653SOL     OW22420   3.587   1.658   8.034 -0.4464  0.3154 -0.7133
 3653SOL    HW122421   3.565   1.634   8.124  0.8472  0.8228 -0.2742
 3653SOL    HW222422   3.634   1.740   8.043  0.2063 -0.0994 -0.3514
 3654SOL     OW22423   2.776   1.620   4.216  0.1950  0.5539 -0.0359
 3654SOL    HW122424   2.791   1.622   4.310 -0.5764  1.0026  0.0797
 3654SOL    HW222425   2.848   1.558   4.203 -0.5456 -0.3623  0.1928
 3655SOL     OW22426   0.329   3.862   6.052  0.0967  0.0292  0.1831
 3655SOL    HW122427   0.387   3.925   6.096 -1.3420  1.4881  0.0059
 3655SOL    HW222428   0.369   3.780   6.080 -0.7384  0.3454  2.3253
 3656SOL     OW22429   0.237   1.161   0.381  0.1590  0.0317  0.1752
 3656SOL    HW122430   0.206   1.248   0.358  0.1502  0.1182  0.5115
 3656SOL    HW222431   0.183   1.104   0.326  0.1894  0.8520 -0.7038
 3657SOL     OW22432   3.135   2.450   2.071  0.2223 -0.0593  0.3426
 3657SOL    HW122433   3.125   2.357   2.051 -1.8339 -0.3188  2.5728
 3657SOL    HW222434   3.074   2.487   2.007 -0.9168 -2.0846  0.2497
 3658SOL     OW22435   0.136   1.127   8.010  0.3486 -0.1000  0.0307
 3658SOL    HW122436   0.164   1.035   8.012 -1.2322 -0.6073 -0.9969
 3658SOL    HW222437   0.210   1.171   8.052  0.4529  1.4818 -1.8239
 3659SOL     OW22438   4.516   0.313   2.015 -0.0691 -0.4780  0.0973
 3659SOL    HW122439   4.498   0.371   1.941 -1.9676 -1.9320 -0.5588
 3659SOL    HW222440   4.571   0.364   2.076  0.5457 -1.7587  0.6127
 3660SOL     OW22441   4.673   4.158  15.970  0.0792  0.0987 -0.2991
 3660SOL    HW122442   4.631   4.163  16.056  0.4629 -0.9069 -0.0503
 3660SOL    HW222443   4.599   4.160  15.909  1.1840  0.0957 -1.6426
 3661SOL     OW22444   2.268   1.368  16.172  0.6409  0.4439 -0.2381
 3661SOL    HW122445   2.275   1.368  16.077 -0.2491  1.1016 -0.3015
 3661SOL    HW222446   2.360   1.346  16.190  0.8423 -0.2945 -2.2424
 3662SOL     OW22447   0.714   3.160   3.646  0.5878 -0.2166  0.0641
 3662SOL    HW122448   0.698   3.166   3.740 -0.4281  1.7383 -0.2271
 3662SOL    HW222449   0.636   3.117   3.611  0.3327 -0.6580  1.1858
 3663SOL     OW22450   3.030   3.192   4.174 -0.3915 -0.0787 -0.3760
 3663SOL    HW122451   3.109   3.246   4.171 -2.2496  2.6677  0.8261
 3663SOL    HW222452   3.084   3.114   4.188  0.3056  0.4959  0.1306
 3664SOL     OW22453   4.011   0.484  11.814 -0.3910  0.1776 -0.5270
 3664SOL    HW122454   4.043   0.566  11.853 -1.9189  1.3336 -1.6701
 3664SOL    HW222455   4.039   0.502  11.724 -3.1736 -1.2281 -1.6939
 3665SOL     OW22456   4.112   1.423   7.111 -0.1316  0.1294 -0.1400
 3665SOL    HW122457   4.169   1.431   7.034 -2.3253  1.1895 -1.6605
 3665SOL    HW222458   4.115   1.327   7.112  0.0643  0.1834  3.4070
 3666SOL     OW22459   2.029   4.572   7.500 -0.3768  0.5308  0.2386
 3666SOL    HW122460   1.966   4.552   7.569 -3.1551 -1.0558 -2.7562
 3666SOL    HW222461   1.977   4.580   7.420 -0.5117  0.0399  0.2809
 3667SOL     OW22462   3.594   3.323   6.652 -0.0188 -0.2504  0.2425
 3667SOL    HW122463   3.623   3.285   6.735 -1.3429  0.0612  0.8499
 3667SOL    HW222464   3.675   3.314   6.602 -0.1750 -1.3918  0.1898
 3668SOL     OW22465   3.652   4.605   1.496 -0.4570 -0.2548 -0.7551
 3668SOL    HW122466   3.572   4.566   1.461 -0.7397 -1.4133  1.2162
 3668SOL    HW222467   3.712   4.548   1.448  0.5941  0.2817 -0.0914
 3669SOL     OW22468   1.134   1.504   4.093 -0.0640 -0.1662  0.2875
 3669SOL    HW122469   1.137   1.526   4.000 -0.8753 -2.1678 -0.2137
 3669SOL    HW222470   1.085   1.423   4.082  0.1359 -0.0618 -1.3916
 3670SOL     OW22471   0.521   3.970  13.029  0.0447  0.3075  0.4727
 3670SOL    HW122472   0.503   4.035  12.962 -0.2421 -0.0116  0.2425
 3670SOL    HW222473   0.562   4.029  13.092  1.4734  0.4557 -0.5939
 3671SOL     OW22474   2.775   3.359  11.885  0.1875 -0.0875  0.4961
 3671SOL    HW122475   2.805   3.334  11.973 -1.3356  1.7692  1.5637
 3671SOL    HW222476   2.790   3.453  11.900 -2.7304  0.5041 -0.3177
 3672SOL     OW22477   4.377   3.577   5.876  0.1552 -0.2143 -0.3722
 3672SOL    HW122478   4.350   3.486   5.862  1.4643 -0.6194 -0.2301
 3672SOL    HW222479   4.469   3.552   5.879 -0.1436 -1.4191 -1.0935
 3673SOL     OW22480   2.751   3.457   8.981 -0.3950  0.1325 -0.2465
 3673SOL    HW122481   2.752   3.511   8.901  0.7334 -0.4262 -0.6097
 3673SOL    HW222482   2.659   3.440   9.001  0.3536 -2.5717  0.8712
 3674SOL     OW22483   4.421   1.151  13.805  0.1648 -0.4638  0.0142
 3674SOL    HW122484   4.375   1.197  13.735  0.4490  0.1161  0.2043
 3674SOL    HW222485   4.508   1.144  13.765  1.6114  0.0083  3.0199
 3675SOL     OW22486   1.775   3.239   7.176  0.7678  0.2998 -0.1936
 3675SOL    HW122487   1.870   3.243   7.167  1.1080 -2.9591  2.0892
 3675SOL    HW222488   1.766   3.151   7.211 -1.4795  0.7641  0.3904
 3676SOL     OW22489   2.124   0.375   4.165 -0.0548  0.5318 -0.6717
 3676SOL    HW122490   2.148   0.352   4.075  1.2581  2.9445 -0.9536
 3676SOL    HW222491   2.193   0.326   4.208 -2.4032 -0.0887  2.3781
 3677SOL     OW22492   2.274   0.068   9.630  0.2991 -0.2291  0.2099
 3677SOL    HW122493   2.236   0.122   9.699 -0.9968 -0.9005  0.0010
 3677SOL    HW222494   2.357   0.106   9.600  0.7231 -1.4006 -0.0971
 3678SOL     OW22495   1.497   1.445   5.107  0.3107 -0.3199 -0.0528
 3678SOL    HW122496   1.432   1.497   5.154  1.7884 -0.7774  2.5024
 3678SOL    HW222497   1.571   1.505   5.114  0.8586 -1.1136  1.0332
 3679SOL     OW22498   4.065   1.860  16.275  0.2745 -0.1914  0.0222
 3679SOL    HW122499   4.066   1.781  16.221  1.9763 -1.2733  1.6159
 3679SOL    HW222500   3.999   1.909  16.226 -2.4078 -2.1905  1.6570
 3680SOL     OW22501   4.683   4.348   6.951  0.3012 -0.0519 -0.1091
 3680SOL    HW122502   4.609   4.319   7.003  0.1986 -1.7586 -1.1978
 3680SOL    HW222503   0.030   4.346   7.022 -0.3219  3.4422  0.5281
 3681SOL     OW22504   4.616   1.038   5.542  0.5192  0.1404 -0.1555
 3681SOL    HW122505   4.636   0.945   5.548 -2.2831 -0.5695 -1.8333
 3681SOL    HW222506   4.521   1.037   5.534  0.5888 -2.4369 -0.6329
 3682SOL     OW22507   1.070   4.406   3.201 -0.0318 -0.7209 -0.2495
 3682SOL    HW122508   1.027   4.435   3.281  1.5638  1.9766 -0.3659
 3682SOL    HW222509   1.006   4.343   3.167  0.7123 -0.9581 -1.2276
 3683SOL     OW22510   4.698   3.132   4.558 -0.4160  0.6123 -0.1291
 3683SOL    HW122511   4.695   3.036   4.553 -0.1496  0.5796  0.3292
 3683SOL    HW222512   4.690   3.153   4.651  0.6380  1.4767 -0.2353
 3684SOL     OW22513   0.169   3.863   6.790 -0.2666 -0.1213  0.4939
 3684SOL    HW122514   0.115   3.942   6.783  0.3024  0.1983 -0.3433
 3684SOL    HW222515   0.202   3.852   6.701 -1.7705  1.8437 -0.2871
 3685SOL     OW22516   2.458   0.292   4.966  0.1539  0.2629 -0.3232
 3685SOL    HW122517   2.428   0.317   5.054 -0.7102 -0.0219 -0.5361
 3685SOL    HW222518   2.430   0.361   4.906 -0.0617  0.4687  0.0177
 3686SOL     OW22519   4.608   2.761   9.884 -0.3891  0.1102 -0.2088
 3686SOL    HW122520   4.628   2.854   9.886 -0.8320  0.1995  0.1624
 3686SOL    HW222521   4.562   2.758   9.968 -0.2821  0.9373 -0.1219
 3687SOL     OW22522   0.799   2.004   8.495  0.1513  0.7432 -0.4617
 3687SOL    HW122523   0.842   2.071   8.548 -2.2742  1.4242  0.6581
 3687SOL    HW222524   0.849   1.927   8.522 -1.2425 -0.6152 -1.7148
 3688SOL     OW22525   4.305   1.939  12.697 -0.9577 -0.6794  0.2365
 3688SOL    HW122526   4.372   1.921  12.763 -0.5034  0.7712  0.1678
 3688SOL    HW222527   4.360   1.934  12.619  0.1691  1.6968  0.8593
 3689SOL     OW22528   1.544   2.168   6.753 -0.1864  0.2539 -0.9350
 3689SOL    HW122529   1.506   2.209   6.831  1.1324  0.8710 -0.6267
 3689SOL    HW222530   1.490   2.091   6.734  1.3623 -0.6006 -1.9023
 3690SOL     OW22531   1.276   2.901  15.458  0.3521  0.0819  0.0429
 3690SOL    HW122532   1.357   2.951  15.472  0.5915 -0.3717  0.2858
 3690SOL    HW222533   1.211   2.968  15.478 -0.7830 -1.1924  0.6358
 3691SOL     OW22534   3.719   1.337   7.043 -1.0648 -0.2957  0.2818
 3691SOL    HW122535   3.773   1.366   7.116 -0.2612  0.1755 -0.4991
 3691SOL    HW222536   3.756   1.387   6.971  0.4876  0.3156  1.5190
 3692SOL     OW22537   2.336   1.997   9.885  0.2672 -0.0894  0.6399
 3692SOL    HW122538   2.298   1.982   9.799 -1.3060  0.6710  1.1914
 3692SOL    HW222539   2.394   2.068   9.857 -0.8324  0.5888  0.0986
 3693SOL     OW22540   2.619   4.154   9.837  0.1751 -0.7456 -0.0762
 3693SOL    HW122541   2.633   4.108   9.919 -0.7655  1.3625  1.2610
 3693SOL    HW222542   2.630   4.249   9.848  1.1749 -0.7017 -1.4083
 3694SOL     OW22543   2.475   4.525   5.796  0.0180 -0.3409 -0.0756
 3694SOL    HW122544   2.499   4.433   5.785  0.5081  0.0730 -2.4640
 3694SOL    HW222545   2.486   4.558   5.707  1.8424  1.3139  0.7612
 3695SOL     OW22546   4.598   0.490   7.240 -0.2037  0.4859 -0.0725
 3695SOL    HW122547   4.654   0.563   7.266  0.6942 -0.0681 -0.4225
 3695SOL    HW222548   4.512   0.532   7.241 -0.2998  0.3431 -1.9450
 3696SOL     OW22549   3.578   0.342   4.094  0.1299 -0.9932 -0.1231
 3696SOL    HW122550   3.669   0.324   4.115  0.9233  1.9671 -1.1302
 3696SOL    HW222551   3.551   0.410   4.155 -1.1290  0.7434 -2.5887
 3697SOL     OW22552   4.667   0.782   1.743  0.1432 -0.2564 -0.2326
 3697SOL    HW122553   4.680   0.786   1.648 -0.0253  1.0783 -0.1982
 3697SOL    HW222554   0.019   0.722   1.772 -0.8637 -0.1438  2.3952
 3698SOL     OW22555   2.972   0.402  11.389 -0.0360  0.2967 -0.3142
 3698SOL    HW122556   2.979   0.327  11.448  1.9661 -0.8475 -2.0032
 3698SOL    HW222557   2.993   0.351  11.311  0.5122  0.6575 -0.3983
 3699SOL     OW22558   2.075   2.635   8.265 -0.1921  0.0256 -0.4714
 3699SOL    HW122559   2.021   2.566   8.303 -1.5179  0.6856 -1.1871
 3699SOL    HW222560   2.041   2.711   8.313  1.4009 -0.4618  1.4505
 3700SOL     OW22561   4.279   0.751  11.157 -0.7282 -0.4736 -0.2099
 3700SOL    HW122562   4.189   0.779  11.174 -0.5777  1.0028 -1.8149
 3700SOL    HW222563   4.270   0.704  11.074 -0.8302 -1.7887  0.5461
 3701SOL     OW22564   3.146   4.158   9.322  0.0840 -0.2476  0.6725
 3701SOL    HW122565   3.100   4.075   9.336 -0.1227 -0.4366 -1.1702
 3701SOL    HW222566   3.156   4.155   9.227 -0.7626  0.1880  0.5684
 3702SOL     OW22567   1.063   3.989   5.399 -0.2642 -0.1074 -0.4761
 3702SOL    HW122568   1.126   3.934   5.352  0.1896  0.4007 -0.4597
 3702SOL    HW222569   1.127   4.053   5.430 -0.0138 -0.1189 -0.9653
 3703SOL     OW22570   2.291   0.270   6.750  0.4615  0.3609 -0.0486
 3703SOL    HW122571   2.307   0.237   6.662 -3.2289 -3.4499  0.7178
 3703SOL    HW222572   2.197   0.289   6.748 -0.1953 -2.7113  1.4111
 3704SOL     OW22573   0.742   0.787  13.903  0.1353  0.3429 -1.1037
 3704SOL    HW122574   0.734   0.794  13.807 -2.9933 -0.2888 -0.8751
 3704SOL    HW222575   0.685   0.714  13.928  0.9570  1.2895  3.5112
 3705SOL     OW22576   3.121   0.837   1.951  0.1278  0.0590 -0.4981
 3705SOL    HW122577   3.120   0.926   1.917 -1.4677 -0.4955 -1.8934
 3705SOL    HW222578   3.049   0.837   2.014  0.2728  1.7311 -0.3492
 3706SOL     OW22579   0.368   4.575  14.794  0.3466 -0.1222  0.4110
 3706SOL    HW122580   0.458   4.596  14.822  1.7792 -2.9559 -2.1527
 3706SOL    HW222581   0.325   4.657  14.819  0.9816  0.2299  0.3748
 3707SOL     OW22582   0.092   1.920   6.373 -0.4203  0.0285  0.2782
 3707SOL    HW122583   0.035   1.881   6.307  0.0996  3.2595 -2.0296
 3707SOL    HW222584   0.173   1.879   6.342 -1.7449 -2.2742 -0.1853
 3708SOL     OW22585   0.961   4.643   6.935  0.3770  0.2290 -0.2490
 3708SOL    HW122586   1.004   0.010   6.925  1.3855 -0.3107 -0.4879
 3708SOL    HW222587   0.909   4.654   7.014  1.7008  3.0280  0.2551
 3709SOL     OW22588   3.530   3.093   3.037  0.2727 -0.4340  0.0332
 3709SOL    HW122589   3.520   3.185   3.013 -0.2155 -0.4718  0.0824
 3709SOL    HW222590   3.490   3.062   2.955 -0.4130  0.8373 -0.1125
 3710SOL     OW22591   0.549   3.808  15.287  0.3446  0.3350 -0.5701
 3710SOL    HW122592   0.493   3.807  15.209  0.4746 -1.0362 -0.6355
 3710SOL    HW222593   0.612   3.738  15.270 -1.3915 -1.4021  0.1630
 3711SOL     OW22594   2.063   0.483   9.596 -0.0189  0.3466 -0.4148
 3711SOL    HW122595   2.083   0.567   9.638  2.2371 -0.1400 -0.5115
 3711SOL    HW222596   2.090   0.511   9.509 -2.3493 -0.7018 -1.4735
 3712SOL     OW22597   1.713   4.198  14.754  0.4867 -0.0612  0.1691
 3712SOL    HW122598   1.726   4.292  14.746 -1.6430  0.2381  0.2682
 3712SOL    HW222599   1.650   4.213  14.824  0.9598 -0.7033  0.7401
 3713SOL     OW22600   2.934   2.288   5.945 -0.6732 -0.4280  0.3762
 3713SOL    HW122601   2.996   2.244   6.003  1.5665  0.4551 -1.3557
 3713SOL    HW222602   2.872   2.324   6.009 -1.3930 -0.4268 -0.3277
 3714SOL     OW22603   4.184   0.011   2.080  0.2046 -0.2109 -0.1918
 3714SOL    HW122604   4.175   4.700   2.171 -0.9620  0.6642 -0.0268
 3714SOL    HW222605   4.120   4.674   2.033  0.0470  0.2298 -0.4868
 3715SOL     OW22606   1.850   1.848   4.021  0.3706 -0.2696 -0.4461
 3715SOL    HW122607   1.901   1.772   4.050  2.5954  1.3203 -0.2475
 3715SOL    HW222608   1.903   1.921   4.052  0.1656 -1.5688  2.8694
 3716SOL     OW22609   2.656   4.399  10.705 -0.1681 -0.1256  0.3868
 3716SOL    HW122610   2.597   4.405  10.780 -1.9866 -2.8311 -0.8164
 3716SOL    HW222611   2.600   4.454  10.650 -1.0062 -0.5116  0.8589
 3717SOL     OW22612   3.725   4.543  17.174  0.2589  0.1874 -0.2116
 3717SOL    HW122613   3.798   4.486  17.200  0.4465  0.2068 -0.6991
 3717SOL    HW222614   3.653   4.482  17.188  0.4523 -0.2040 -0.9291
 3718SOL     OW22615   3.209   0.132   2.913 -0.3298  0.2189 -0.2880
 3718SOL    HW122616   3.302   0.114   2.906 -0.7621 -1.5817 -1.4973
 3718SOL    HW222617   3.198   0.165   2.824  0.5315 -0.9343 -0.8288
 3719SOL     OW22618   1.070   2.627  11.251 -0.6353  0.4345 -0.9279
 3719SOL    HW122619   0.981   2.634  11.216 -1.1546 -0.7983  0.1620
 3719SOL    HW222620   1.063   2.626  11.346 -0.6168  0.9197 -0.9179
 3720SOL     OW22621   0.006   4.088   9.098  0.5019  0.2735  0.3206
 3720SOL    HW122622   0.018   4.016   9.160 -0.7935 -1.3435 -1.3097
 3720SOL    HW222623   4.689   4.145   9.167 -1.3830  0.4476 -0.7574
 3721SOL     OW22624   2.492   1.022  11.381 -0.0699  0.1156  0.3711
 3721SOL    HW122625   2.477   1.116  11.372 -0.9067  0.0120  0.6736
 3721SOL    HW222626   2.417   0.974  11.349  0.4616 -0.3624 -0.1595
 3722SOL     OW22627   1.272   3.545   4.775 -0.0374 -0.5557  0.6167
 3722SOL    HW122628   1.211   3.478   4.743  0.8417 -1.9233  1.7560
 3722SOL    HW222629   1.344   3.524   4.716 -0.6765 -0.9985 -0.0005
 3723SOL     OW22630   1.292   1.930   7.293  0.6706  0.0414 -0.4238
 3723SOL    HW122631   1.232   1.937   7.218  1.3912  1.7442 -0.8306
 3723SOL    HW222632   1.325   2.020   7.298  0.9878 -0.2212  1.9231
 3724SOL     OW22633   0.779   1.133   4.907 -0.3918 -0.1044  0.3954
 3724SOL    HW122634   0.694   1.169   4.933 -0.1683 -0.2219  1.2957
 3724SOL    HW222635   0.751   1.092   4.826  0.0947 -1.1425  0.7519
 3725SOL     OW22636   2.830   4.313   5.085  0.3096 -0.6522 -0.1789
 3725SOL    HW122637   2.894   4.378   5.056  0.5012 -1.2333 -1.0705
 3725SOL    HW222638   2.743   4.354   5.077  0.6588  0.3020  0.9644
 3726SOL     OW22639   3.317   3.790   5.975 -0.1350  0.1473  0.3226
 3726SOL    HW122640   3.367   3.870   5.959  0.4291  0.2441  2.4959
 3726SOL    HW222641   3.225   3.816   5.964  0.1842  1.0613 -0.1302
 3727SOL     OW22642   1.097   1.394   0.128  0.5103  0.1087 -0.3934
 3727SOL    HW122643   1.053   1.471   0.164  0.9143 -0.4255  1.2391
 3727SOL    HW222644   1.090   1.332   0.200 -2.8983  1.0278  0.0740
 3728SOL     OW22645   1.515   4.389   1.279  0.3229  0.0757  0.0507
 3728SOL    HW122646   1.521   4.303   1.322 -1.9812 -0.1604 -0.0891
 3728SOL    HW222647   1.607   4.395   1.255  0.3219 -0.6974 -0.1745
 3729SOL     OW22648   1.619   2.680   4.754  0.3667  0.4561 -0.7406
 3729SOL    HW122649   1.562   2.726   4.692 -0.3878 -0.3084 -0.6013
 3729SOL    HW222650   1.660   2.756   4.796  0.3516 -0.7692  1.5085
 3730SOL     OW22651   2.309   2.465   8.015 -0.6261  1.1940 -0.0489
 3730SOL    HW122652   2.257   2.450   7.936  1.0791 -4.2609 -0.1726
 3730SOL    HW222653   2.370   2.533   7.987  0.6015  0.0482 -0.1987
 3731SOL     OW22654   0.258   1.456  10.357  0.2164  0.0233  0.7207
 3731SOL    HW122655   0.319   1.512  10.404  0.2449  1.3489 -0.9094
 3731SOL    HW222656   0.178   1.462  10.409 -1.6063 -0.9894 -1.9995
 3732SOL     OW22657   0.147   3.291  12.013 -0.1711  0.1626  0.2102
 3732SOL    HW122658   0.116   3.289  12.104  0.5346  1.2332  0.4751
 3732SOL    HW222659   0.227   3.244  12.035  0.0327  0.7313  0.6940
 3733SOL     OW22660   1.687   1.945   6.267 -0.3243 -0.2088  0.7690
 3733SOL    HW122661   1.671   2.020   6.324  1.2941  0.0274  0.9182
 3733SOL    HW222662   1.710   1.871   6.323 -0.5561 -2.0231 -1.5351
 3734SOL     OW22663   0.327   1.350  10.654  0.0383 -0.4208 -0.4236
 3734SOL    HW122664   0.302   1.276  10.709  0.2129 -1.0167 -1.1398
 3734SOL    HW222665   0.399   1.392  10.701  0.8313 -0.3791 -1.6714
 3735SOL     OW22666   2.235   2.258  10.866  0.4050 -0.2334  0.4663
 3735SOL    HW122667   2.151   2.252  10.820  1.0819  2.4559 -1.1324
 3735SOL    HW222668   2.272   2.332  10.818  0.6402 -0.4012  0.3894
 3736SOL     OW22669   4.086   1.931   7.496 -0.6230 -0.7393  0.1229
 3736SOL    HW122670   4.122   2.002   7.443  0.3652  0.3752  2.3014
 3736SOL    HW222671   4.158   1.873   7.520  0.2225  0.7331  1.1172
 3737SOL     OW22672   0.448   4.693   6.400  0.2310 -0.1098 -0.9396
 3737SOL    HW122673   0.451   0.067   6.428  0.0986 -0.7313  1.0565
 3737SOL    HW222674   0.407   4.687   6.313 -0.4274 -1.3590 -0.5293
 3738SOL     OW22675   0.502   2.865  16.968 -0.0489  0.1554  0.4001
 3738SOL    HW122676   0.467   2.930  16.909  0.8225  0.8879  0.6811
 3738SOL    HW222677   0.473   2.891  17.055  0.4381  1.1977  0.2496
 3739SOL     OW22678   4.663   1.056   1.242  0.4744  0.4390 -0.2269
 3739SOL    HW122679   4.619   1.066   1.158  2.9805 -0.1651 -1.6097
 3739SOL    HW222680   4.676   1.145   1.275  1.7305 -0.6350  2.1670
 3740SOL     OW22681   2.933   0.380  12.792  0.3750 -0.5406  0.3260
 3740SOL    HW122682   3.001   0.433  12.832 -0.2204  0.0962  0.5007
 3740SOL    HW222683   2.860   0.387  12.853  0.6472 -1.2615  0.7290
 3741SOL     OW22684   0.592   3.566  17.547  0.1601 -0.0004  0.2597
 3741SOL    HW122685   0.622   3.643  17.498 -1.3028 -1.3237 -2.7400
 3741SOL    HW222686   0.518   3.600  17.598 -1.1028 -1.8849 -0.2923
 3742SOL     OW22687   0.423   4.306   5.192 -0.3986 -0.0965 -0.0133
 3742SOL    HW122688   0.345   4.269   5.151 -0.4898  0.9909 -0.7892
 3742SOL    HW222689   0.369   4.373   5.234  0.6782  0.7016  0.0891
 3743SOL     OW22690   4.185   0.553   6.455  0.1173 -0.1669 -0.6345
 3743SOL    HW122691   4.280   0.566   6.447 -0.0933  0.1256 -2.8025
 3743SOL    HW222692   4.190   0.505   6.537 -1.8396 -1.4494 -1.2683
 3744SOL     OW22693   1.447   2.069   9.019  0.7107  0.3691 -0.3944
 3744SOL    HW122694   1.513   2.056   9.088 -0.0460 -0.2902  0.2105
 3744SOL    HW222695   1.493   2.024   8.948  2.2985  1.5308 -0.0991
 3745SOL     OW22696   2.922   2.965  14.539 -0.5430  0.1078  0.0490
 3745SOL    HW122697   2.868   2.958  14.460 -0.8219 -1.8138  0.4121
 3745SOL    HW222698   2.876   3.029  14.594 -2.3169 -0.9958 -0.1513
 3746SOL     OW22699   3.572   4.347   3.361 -0.1272  0.0590 -0.6548
 3746SOL    HW122700   3.552   4.255   3.344 -0.5833  0.1252 -0.4608
 3746SOL    HW222701   3.516   4.390   3.296 -1.0340  1.3869  1.0114
 3747SOL     OW22702   1.831   3.990   0.251 -0.1857 -0.4637 -0.5084
 3747SOL    HW122703   1.784   3.916   0.213  0.5242 -2.2752  2.1759
 3747SOL    HW222704   1.873   4.027   0.174 -2.8658  0.8393 -1.3589
 3748SOL     OW22705   2.470   2.091   7.926  0.0290  0.0568  0.4874
 3748SOL    HW122706   2.413   2.122   7.856 -0.7529 -1.6486  0.3750
 3748SOL    HW222707   2.419   2.021   7.967 -1.5324  0.8495 -0.0965
 3749SOL     OW22708   1.846   4.245   3.702 -0.5567  0.0788  0.8070
 3749SOL    HW122709   1.869   4.320   3.756 -3.1210  0.6242  1.1732
 3749SOL    HW222710   1.859   4.272   3.611  1.6843 -1.2268  0.7560
 3750SOL     OW22711   1.309   3.455   8.983  0.4797 -0.8756 -0.1564
 3750SOL    HW122712   1.246   3.447   9.054  2.4840 -1.4825  1.5580
 3750SOL    HW222713   1.276   3.409   8.906 -2.0758 -0.9268  0.9840
 3751SOL     OW22714   3.586   4.405  10.604  0.3695  0.4743  0.1537
 3751SOL    HW122715   3.637   4.449  10.672  1.1722  1.2332 -0.9469
 3751SOL    HW222716   3.557   4.479  10.551 -1.3102  1.1142  1.9204
 3752SOL     OW22717   4.248   1.014   4.758 -0.1073  0.1617  0.2377
 3752SOL    HW122718   4.264   0.939   4.817  1.4163  0.7229  0.5265
 3752SOL    HW222719   4.153   1.001   4.751  0.1150 -1.0485 -0.5401
 3753SOL     OW22720   0.078   2.520   2.551  0.4587 -0.1272 -0.5302
 3753SOL    HW122721   0.159   2.529   2.601 -0.3888 -0.8088  0.9707
 3753SOL    HW222722   0.097   2.588   2.486 -2.9130  1.8846  0.5604
 3754SOL     OW22723   1.329   0.555   4.281 -0.2522 -0.6264 -0.2480
 3754SOL    HW122724   1.397   0.594   4.226 -1.7929 -1.2301 -2.5952
 3754SOL    HW222725   1.258   0.616   4.261 -0.6265 -0.5873  1.1795
 3755SOL     OW22726   2.176   4.440  12.959  0.8093  0.3542 -0.1975
 3755SOL    HW122727   2.136   4.360  12.993  1.3405 -0.8853 -2.4798
 3755SOL    HW222728   2.115   4.502  13.000 -0.2906 -0.6096 -0.3582
 3756SOL     OW22729   1.998   0.420   8.391  0.2785 -0.4155 -0.6636
 3756SOL    HW122730   1.959   0.404   8.477  2.1379  0.2549  0.3032
 3756SOL    HW222731   1.937   0.374   8.334  0.0054 -2.5733  1.3984
 3757SOL     OW22732   1.775   3.423   4.784  0.1484  0.0857  0.4117
 3757SOL    HW122733   1.859   3.381   4.766  1.0268  1.3640  1.6165
 3757SOL    HW222734   1.734   3.423   4.697 -0.6176 -0.9965  0.7639
 3758SOL     OW22735   3.905   2.390  10.747  0.8808  0.2569 -0.4794
 3758SOL    HW122736   3.907   2.484  10.730  2.0657  0.4973  1.0430
 3758SOL    HW222737   3.899   2.392  10.842 -1.7695  0.1016 -0.6327
 3759SOL     OW22738   2.125   4.527   5.604  0.0099 -0.0292  0.0034
 3759SOL    HW122739   2.155   4.453   5.550 -0.5937 -0.8139  0.7443
 3759SOL    HW222740   2.084   4.481   5.677  1.5103  0.3781  1.1081
 3760SOL     OW22741   1.909   3.481   3.586  0.2360 -0.0351 -0.4558
 3760SOL    HW122742   1.979   3.418   3.570 -1.4945 -1.3490 -2.9179
 3760SOL    HW222743   1.845   3.433   3.638  0.5198  2.0361  1.7952
 3761SOL     OW22744   2.351   3.082  12.854 -0.7001  0.4821  0.3239
 3761SOL    HW122745   2.306   3.165  12.842  0.5645  1.0400 -0.5283
 3761SOL    HW222746   2.295   3.038  12.918 -0.0335 -0.5779  0.1867
 3762SOL     OW22747   1.958   3.832   2.870  0.5917  0.1717  0.2888
 3762SOL    HW122748   2.023   3.899   2.851 -1.0513  1.2175 -1.6033
 3762SOL    HW222749   2.017   3.760   2.848  0.9380  0.3701  0.5892
 3763SOL     OW22750   2.801   4.501  15.472  0.0088 -0.2494  0.7854
 3763SOL    HW122751   2.888   4.524  15.505  1.2688 -1.0649 -1.9770
 3763SOL    HW222752   2.773   4.586  15.437  1.6075  0.5223  1.3757
 3764SOL     OW22753   4.351   4.264   7.467 -0.1389 -0.4926 -0.3131
 3764SOL    HW122754   4.320   4.186   7.422 -0.4967 -0.7714  0.4035
 3764SOL    HW222755   4.273   4.276   7.523  1.0173  1.1018  0.9546
 3765SOL     OW22756   0.554   4.198   7.702  0.2900 -0.0172 -0.0426
 3765SOL    HW122757   0.550   4.237   7.614 -0.3986 -0.4814 -0.2126
 3765SOL    HW222758   0.629   4.141   7.687 -1.1697 -1.5251 -1.6467
 3766SOL     OW22759   2.993   3.758  12.227  0.2360 -0.7311  0.4452
 3766SOL    HW122760   3.081   3.724  12.242 -0.5884 -2.7873  0.5870
 3766SOL    HW222761   3.005   3.852  12.211  0.4075 -0.5820  1.4414
 3767SOL     OW22762   4.041   2.281   8.894  0.0241  0.2160  0.4336
 3767SOL    HW122763   4.057   2.187   8.885  0.9300  0.3376  0.7269
 3767SOL    HW222764   4.059   2.309   8.804  1.5796 -2.1810  0.0172
 3768SOL     OW22765   0.401   3.464   9.823  0.0524  0.5435  0.5498
 3768SOL    HW122766   0.405   3.511   9.739  0.7471 -0.4919  0.0063
 3768SOL    HW222767   0.481   3.411   9.824  0.4041  1.0608 -0.1829
 3769SOL     OW22768   3.413   4.517  13.736 -0.0138 -0.5574  0.1267
 3769SOL    HW122769   3.465   4.449  13.694 -1.2652 -2.5624  1.7912
 3769SOL    HW222770   3.409   4.481  13.825 -0.5579  0.2939  0.4491
 3770SOL     OW22771   1.960   0.185   9.928  0.0599  0.1721  0.4727
 3770SOL    HW122772   1.877   0.206   9.971 -0.6010 -0.2584 -0.5794
 3770SOL    HW222773   2.020   0.230   9.987  1.1156  0.8902 -1.1588
 3771SOL     OW22774   1.727   2.315   9.558  0.1690 -0.0454 -0.4638
 3771SOL    HW122775   1.812   2.358   9.545 -0.2036  1.3785  1.8840
 3771SOL    HW222776   1.750   2.239   9.612 -1.8796 -0.2261  0.1404
 3772SOL     OW22777   0.280   3.500   6.547  0.0463  0.2005 -0.4459
 3772SOL    HW122778   0.252   3.591   6.540 -0.7805  0.0488  0.7724
 3772SOL    HW222779   0.298   3.491   6.640  0.0619  0.0875 -0.4604
 3773SOL     OW22780   4.692   2.171   6.486  0.5663 -0.3767  0.3023
 3773SOL    HW122781   0.012   2.256   6.460  2.1385 -1.2565 -0.2636
 3773SOL    HW222782   0.011   2.108   6.425 -0.0443 -0.4183 -0.0172
 3774SOL     OW22783   1.503   1.315   4.024  0.6992  0.0763  0.1891
 3774SOL    HW122784   1.561   1.385   4.054  1.6508 -1.6656  2.4384
 3774SOL    HW222785   1.486   1.271   4.108 -0.0138 -0.0432 -0.0154
 3775SOL     OW22786   0.125   1.255   1.417 -0.2368  0.0377 -0.0301
 3775SOL    HW122787   0.124   1.292   1.505  0.2290 -1.6828  0.6818
 3775SOL    HW222788   0.146   1.332   1.364 -0.3677  0.0684 -0.0392
 3776SOL     OW22789   4.470   0.846  14.090 -0.0590  0.7284  0.6740
 3776SOL    HW122790   4.532   0.915  14.067 -1.2624  1.2358 -1.0840
 3776SOL    HW222791   4.390   0.887  14.120  0.4957  0.4856  2.4597
 3777SOL     OW22792   1.580   1.059   1.678 -0.1908 -0.0846 -0.4530
 3777SOL    HW122793   1.550   1.150   1.686 -1.0201 -0.1628 -2.6567
 3777SOL    HW222794   1.657   1.063   1.622  1.1165 -1.0795  1.2641
 3778SOL     OW22795   3.532   3.900   4.041 -0.0820  0.5145 -0.1228
 3778SOL    HW122796   3.511   3.888   3.948 -1.1854  3.7057 -0.2749
 3778SOL    HW222797   3.592   3.974   4.036 -0.3633  0.6561 -1.3490
 3779SOL     OW22798   0.638   1.644  11.470  0.1679 -0.0955  0.2048
 3779SOL    HW122799   0.583   1.703  11.521  0.1612 -0.4401  0.5947
 3779SOL    HW222800   0.704   1.617  11.534 -0.7433 -0.4494  0.9831
 3780SOL     OW22801   0.110   0.220   2.083  0.2850 -0.1314  0.2724
 3780SOL    HW122802   0.155   0.198   2.164  0.8311  1.5585  0.4269
 3780SOL    HW222803   0.057   0.294   2.113  0.7702  0.2175  0.2804
 3781SOL     OW22804   1.055   2.311   3.433 -0.1547 -0.2502  0.2045
 3781SOL    HW122805   0.977   2.366   3.439 -0.7327 -1.3620  2.7391
 3781SOL    HW222806   1.120   2.372   3.468 -0.5836 -0.8410  2.0138
 3782SOL     OW22807   0.507   2.188   3.071  0.4983  0.0059  0.1711
 3782SOL    HW122808   0.508   2.107   3.020  1.1847 -0.3765  0.8003
 3782SOL    HW222809   0.425   2.224   3.037  0.8769 -0.9936 -1.8078
 3783SOL     OW22810   2.863   4.186   6.817  0.5322 -0.3526  0.0021
 3783SOL    HW122811   2.843   4.274   6.848 -0.4211  0.6324 -3.4260
 3783SOL    HW222812   2.784   4.155   6.773  1.3148  0.1097 -1.7344
 3784SOL     OW22813   3.463   3.644   0.042 -0.1243  0.1107  0.2212
 3784SOL    HW122814   3.549   3.680   0.021  1.3790 -2.7019  1.6120
 3784SOL    HW222815   3.485   3.551   0.043  2.9362  0.8275 -0.2343
 3785SOL     OW22816   4.593   3.986   5.944 -0.4399 -0.0349  0.1171
 3785SOL    HW122817   4.577   4.075   5.914  2.6759  0.6559  0.4725
 3785SOL    HW222818   4.515   3.973   5.998  0.4762  2.0780  1.9586
 3786SOL     OW22819   1.876   4.699   4.124  0.1679  0.2431  0.0414
 3786SOL    HW122820   1.942   4.634   4.150 -2.5303 -1.2545  3.0886
 3786SOL    HW222821   1.906   0.002   4.035 -0.2869 -0.1875 -0.2125
 3787SOL     OW22822   2.104   1.753  15.753  0.0764  0.2974  0.3285
 3787SOL    HW122823   2.122   1.768  15.846  1.0417  1.8591 -0.1080
 3787SOL    HW222824   2.009   1.745  15.744 -0.1193  1.2632  1.5243
 3788SOL     OW22825   0.512   2.942   7.523 -0.3281  0.2889  0.1807
 3788SOL    HW122826   0.556   2.878   7.468 -0.9786 -0.8934  1.0202
 3788SOL    HW222827   0.561   2.934   7.605  1.3001  1.6043 -0.6651
 3789SOL     OW22828   0.567   3.768  14.599  0.3540 -0.2638  0.5317
 3789SOL    HW122829   0.656   3.757  14.633 -0.1902 -0.3440  1.9174
 3789SOL    HW222830   0.523   3.703  14.653  0.0367  1.6534  2.5402
 3790SOL     OW22831   3.896   3.426   1.714 -0.4298 -0.0131 -0.2638
 3790SOL    HW122832   3.886   3.486   1.640  0.8822 -0.8430 -1.1157
 3790SOL    HW222833   3.903   3.345   1.664 -0.8851 -0.9422  1.1751
 3791SOL     OW22834   2.527   3.035   7.645 -0.1552 -0.0500 -0.6572
 3791SOL    HW122835   2.552   2.947   7.616 -3.0408 -0.6783 -1.1501
 3791SOL    HW222836   2.432   3.034   7.640 -0.1694 -0.7164 -0.2568
 3792SOL     OW22837   3.796   4.620   9.129 -0.0899  0.3350 -0.0288
 3792SOL    HW122838   3.735   4.552   9.101 -1.8708  2.0143 -0.2372
 3792SOL    HW222839   3.739   4.683   9.173  0.5651  0.9981 -0.1279
 3793SOL     OW22840   3.299   2.193   5.371 -0.2234 -0.0676  0.3718
 3793SOL    HW122841   3.219   2.191   5.318  0.3459 -0.9943 -0.4570
 3793SOL    HW222842   3.330   2.283   5.360  2.9351 -1.1661  0.2729
 3794SOL     OW22843   3.863   2.060  10.503 -0.4062 -0.0390 -0.2368
 3794SOL    HW122844   3.913   2.111  10.567 -1.2816 -0.9235  1.1547
 3794SOL    HW222845   3.820   2.127  10.451 -0.6879 -0.5560 -0.6791
 3795SOL     OW22846   0.928   3.774   3.584  0.0002 -0.0259  0.2754
 3795SOL    HW122847   0.967   3.690   3.560 -1.9875 -0.9668  0.3279
 3795SOL    HW222848   0.995   3.804   3.645 -0.1925  0.0655  0.4421
 3796SOL     OW22849   0.077   2.788   8.590  0.2618 -0.1255 -0.5938
 3796SOL    HW122850   0.146   2.794   8.657  0.8606  0.7896 -1.2895
 3796SOL    HW222851   0.135   2.787   8.513  2.0007 -0.9250  0.7126
 3797SOL     OW22852   0.740   0.548   4.565  0.0039  0.0076 -0.5858
 3797SOL    HW122853   0.810   0.612   4.552 -0.0217  0.4054  1.2372
 3797SOL    HW222854   0.785   0.515   4.643 -1.5165  1.9323  1.1342
 3798SOL     OW22855   2.829   1.019   8.043  0.2410 -0.1581 -0.3415
 3798SOL    HW122856   2.876   1.101   8.057 -0.9875  0.6641 -0.9561
 3798SOL    HW222857   2.831   0.978   8.129  3.7670  1.0315  0.1432
 3799SOL     OW22858   3.479   1.702   7.386  0.0051 -0.3747  0.4040
 3799SOL    HW122859   3.389   1.691   7.354  0.1596 -2.0098  0.5500
 3799SOL    HW222860   3.512   1.613   7.386 -0.4727 -0.5390 -1.7243
 3800SOL     OW22861   3.887   4.010   6.181  0.3152 -0.3331  0.5819
 3800SOL    HW122862   3.897   4.025   6.086  2.6672  0.3080  0.9147
 3800SOL    HW222863   3.800   4.045   6.197 -0.4553 -1.8608 -0.3411
 3801SOL     OW22864   4.663   4.230   1.420 -0.4053 -0.3924  0.1135
 3801SOL    HW122865   4.583   4.180   1.437 -0.8648 -0.4984 -2.3530
 3801SOL    HW222866   4.664   4.279   1.502  0.0431 -1.7481  0.9039
 3802SOL     OW22867   3.295   0.219   1.570  0.5198  0.3848 -0.3140
 3802SOL    HW122868   3.238   0.296   1.574  0.0598  0.0328 -0.2360
 3802SOL    HW222869   3.323   0.229   1.661  1.1878 -1.7849 -0.2898
 3803SOL     OW22870   2.643   0.295   3.219 -0.1020  0.1308  0.0529
 3803SOL    HW122871   2.684   0.288   3.305  0.7082 -0.0909 -0.3559
 3803SOL    HW222872   2.717   0.310   3.161  0.8745  1.3471  1.6050
 3804SOL     OW22873   0.830   2.443   8.861  0.4690 -0.1745 -0.8116
 3804SOL    HW122874   0.752   2.453   8.806  0.5068 -0.5802 -0.9381
 3804SOL    HW222875   0.820   2.350   8.883 -0.3324 -0.5144 -2.5798
 3805SOL     OW22876   0.781   2.411   7.551 -0.0022 -0.4929 -0.4960
 3805SOL    HW122877   0.875   2.420   7.566 -0.7021  3.6267  1.5493
 3805SOL    HW222878   0.762   2.475   7.482 -0.9856 -0.1414  0.1054
 3806SOL     OW22879   1.294   4.269   7.081 -0.2665  0.2951 -0.3180
 3806SOL    HW122880   1.207   4.236   7.101 -0.2314 -0.4309 -1.3606
 3806SOL    HW222881   1.304   4.335   7.149 -1.9245  0.0033  0.2008
 3807SOL     OW22882   4.090   1.794   6.553 -0.2199  0.0608  0.0543
 3807SOL    HW122883   4.180   1.761   6.564 -1.4818 -2.8116  1.6468
 3807SOL    HW222884   4.072   1.779   6.460  1.0462  1.0504 -0.3620
 3808SOL     OW22885   1.670   0.138   8.153 -0.0961 -0.3074 -0.2177
 3808SOL    HW122886   1.625   0.207   8.104 -0.2850 -0.0428  0.3204
 3808SOL    HW222887   1.605   0.068   8.160  0.3812 -0.7803 -0.6512
 3809SOL     OW22888   3.574   1.639   8.293  0.4638 -0.0583 -0.0393
 3809SOL    HW122889   3.614   1.581   8.358  1.5818  1.7452  0.8950
 3809SOL    HW222890   3.575   1.726   8.333 -0.7526 -0.3203  0.5878
 3810SOL     OW22891   0.836   2.706  14.669  0.0817 -0.3695 -0.2247
 3810SOL    HW122892   0.929   2.682  14.661  0.0480 -0.7116  0.3416
 3810SOL    HW222893   0.809   2.622  14.707 -1.8884  0.6678  0.6824
 3811SOL     OW22894   2.393   1.089   0.480 -0.2215 -0.2619  0.1519
 3811SOL    HW122895   2.311   1.139   0.477  0.6839  1.4499  3.1265
 3811SOL    HW222896   2.447   1.161   0.515 -0.2431 -1.1536  2.0417
 3812SOL     OW22897   3.320   1.955   5.530 -0.0577  0.1621  0.5073
 3812SOL    HW122898   3.256   1.946   5.459  0.7464 -0.3344 -0.1576
 3812SOL    HW222899   3.309   2.050   5.536  1.1151  0.4403 -1.7000
 3813SOL     OW22900   4.369   1.154   1.162  0.0997  0.0272  0.1640
 3813SOL    HW122901   4.429   1.112   1.100 -1.5739 -0.3368 -1.2308
 3813SOL    HW222902   4.324   1.218   1.107  3.4071 -0.1913 -2.7998
 3814SOL     OW22903   0.380   2.408  16.411 -0.7285  0.0591  0.3546
 3814SOL    HW122904   0.301   2.457  16.387  0.5199  2.3853  0.9386
 3814SOL    HW222905   0.446   2.464  16.371 -0.5386 -0.6297 -0.2886
 3815SOL     OW22906   0.169   3.937  12.967  0.2869  0.3739 -0.3345
 3815SOL    HW122907   0.175   3.868  12.901  2.0684  1.2323 -1.0341
 3815SOL    HW222908   0.107   4.004  12.938  0.7363 -0.0800 -2.3208
 3816SOL     OW22909   0.014   1.952  12.917  0.0712  0.4065 -0.8833
 3816SOL    HW122910   0.062   1.869  12.905  2.1100  1.2729  1.3689
 3816SOL    HW222911   0.053   1.972  13.002  0.1418 -0.0375 -0.8078
 3817SOL     OW22912   3.704   1.549  13.096  0.2640  0.5300 -0.2076
 3817SOL    HW122913   3.619   1.552  13.140 -1.0080  2.4199 -2.7509
 3817SOL    HW222914   3.680   1.533  13.005 -0.0393 -1.8051  0.2904
 3818SOL     OW22915   4.249   2.877   3.399 -0.4875  0.1603 -0.2797
 3818SOL    HW122916   4.343   2.867   3.412 -0.1630  1.6917 -1.4939
 3818SOL    HW222917   4.226   2.858   3.490 -1.2605  1.2508 -0.2470
 3819SOL     OW22918   3.453   4.262   5.797 -0.0567  0.0001 -0.4426
 3819SOL    HW122919   3.388   4.296   5.858 -1.1415 -1.9919 -0.4955
 3819SOL    HW222920   3.420   4.304   5.718  0.5152  1.1087 -0.0932
 3820SOL     OW22921   3.202   4.391   3.924  0.6347  0.4173 -0.5704
 3820SOL    HW122922   3.218   4.480   3.956 -1.5453  0.5106  0.2731
 3820SOL    HW222923   3.176   4.351   4.006  3.9726 -0.8024 -0.1345
 3821SOL     OW22924   1.007   2.885   5.373  0.5246 -0.2557  0.4348
 3821SOL    HW122925   0.961   2.801   5.375 -1.3091  0.7955  1.5812
 3821SOL    HW222926   0.963   2.933   5.303 -0.6480 -0.6711  0.8857
 3822SOL     OW22927   4.428   3.205   7.251  0.3972  0.0577 -0.9364
 3822SOL    HW122928   4.436   3.266   7.325  1.3139 -0.0290 -0.9699
 3822SOL    HW222929   4.519   3.187   7.227  0.5573 -0.9391  0.4470
 3823SOL     OW22930   2.090   1.237   6.277  0.6318  0.4090 -0.4848
 3823SOL    HW122931   2.007   1.274   6.246  0.2930 -0.5411 -0.7273
 3823SOL    HW222932   2.069   1.145   6.261  0.7374  0.2541  0.2886
 3824SOL     OW22933   3.163   1.570   5.164 -0.1818  0.5724 -0.0608
 3824SOL    HW122934   3.068   1.559   5.153  0.0541 -1.3462 -0.1413
 3824SOL    HW222935   3.165   1.553   5.258  0.7391 -1.7183 -0.5122
 3825SOL     OW22936   0.158   0.794   3.563  0.2259  0.5176  0.1919
 3825SOL    HW122937   0.079   0.741   3.565  0.4859  0.0845 -1.1499
 3825SOL    HW222938   0.178   0.786   3.470  4.0162  0.7495  0.9871
 3826SOL     OW22939   1.796   2.134   7.740 -0.3168 -0.4795 -1.0940
 3826SOL    HW122940   1.851   2.112   7.815  1.3503  1.3985 -1.7357
 3826SOL    HW222941   1.793   2.046   7.702  3.0014 -0.9204 -0.3567
 3827SOL     OW22942   0.922   4.438   0.434  0.3333  0.1081 -0.0153
 3827SOL    HW122943   0.856   4.478   0.378 -0.0282 -1.1048 -0.4615
 3827SOL    HW222944   0.967   4.506   0.484  0.5976 -0.7312  0.9142
 3828SOL     OW22945   3.017   2.631   4.334  0.1637  0.0249  0.6234
 3828SOL    HW122946   2.979   2.549   4.301  0.0832 -0.6947  2.4882
 3828SOL    HW222947   3.070   2.648   4.256 -0.3082 -0.1967  0.2545
 3829SOL     OW22948   2.908   0.062   8.617  0.3656  0.0482 -0.2977
 3829SOL    HW122949   2.970   0.057   8.543  1.6266 -0.1057  0.7672
 3829SOL    HW222950   2.853   4.703   8.600  3.5919 -1.9844 -1.6810
 3830SOL     OW22951   3.835   1.898   9.363 -0.0033 -0.0348 -0.0319
 3830SOL    HW122952   3.894   1.971   9.382  2.1099 -2.4886  2.8648
 3830SOL    HW222953   3.786   1.905   9.444 -1.6649  4.1679 -1.4149
 3831SOL     OW22954   2.902   2.008   6.929  0.2182  0.1204  0.0271
 3831SOL    HW122955   2.912   1.913   6.922  1.0172  0.3975 -2.4461
 3831SOL    HW222956   2.807   2.013   6.922  0.2895  1.8862  0.2201
 3832SOL     OW22957   2.920   4.541   5.988 -0.5053  0.7228  0.4763
 3832SOL    HW122958   2.998   4.585   6.022 -0.0517 -0.2614  0.7220
 3832SOL    HW222959   2.863   4.557   6.064 -0.7397  1.6330  0.1080
 3833SOL     OW22960   2.863   1.387   2.507 -0.4771  0.1467  0.1147
 3833SOL    HW122961   2.775   1.362   2.479 -0.4390 -2.0648  1.9971
 3833SOL    HW222962   2.906   1.354   2.428 -1.5935  0.1352 -0.4918
 3834SOL     OW22963   0.452   1.469   3.873  0.1935  0.5391  0.2302
 3834SOL    HW122964   0.427   1.437   3.960 -2.2648  3.8407  0.7580
 3834SOL    HW222965   0.388   1.538   3.852 -1.0522 -0.1654  1.6420
 3835SOL     OW22966   2.349   1.023   4.079 -0.7177  0.2227 -0.3978
 3835SOL    HW122967   2.372   1.110   4.111 -3.0919  0.0665  1.7773
 3835SOL    HW222968   2.274   1.002   4.134 -0.0155  0.7265  0.7527
 3836SOL     OW22969   0.481   0.077   8.581 -0.4422  0.3797 -0.2706
 3836SOL    HW122970   0.495   0.154   8.636  1.9907  0.2553 -0.7454
 3836SOL    HW222971   0.542   0.094   8.510  0.1692  0.7953  0.3544
 3837SOL     OW22972   0.962   2.632   3.038  0.1738 -0.6681 -0.5371
 3837SOL    HW122973   0.988   2.656   2.949  0.7968  1.0910  0.1220
 3837SOL    HW222974   0.984   2.539   3.036  1.3699 -0.4410  1.6766
 3838SOL     OW22975   0.053   2.764  13.281 -0.3658  0.3095 -0.4629
 3838SOL    HW122976   4.713   2.838  13.301 -0.2753  0.5147 -0.9736
 3838SOL    HW222977   4.701   2.699  13.287  2.4391 -2.8183 -1.9062
 3839SOL     OW22978   3.267   3.100  11.791  0.2085 -0.4580 -0.5310
 3839SOL    HW122979   3.269   3.085  11.886 -1.0277 -1.4446 -0.6563
 3839SOL    HW222980   3.210   3.028  11.764 -1.4114  0.9896 -0.9883
 3840SOL     OW22981   2.846   1.069   2.517 -0.1020  0.0868 -0.1990
 3840SOL    HW122982   2.899   1.104   2.589 -2.9250  1.1668  1.3910
 3840SOL    HW222983   2.775   1.039   2.575  1.0273 -0.9215  0.6616
 3841SOL     OW22984   3.814   3.697   3.866 -0.1419  0.6319  0.3052
 3841SOL    HW122985   3.767   3.766   3.821 -2.4457 -0.1624  1.4889
 3841SOL    HW222986   3.851   3.741   3.942 -1.0227  1.7819  0.0555
 3842SOL     OW22987   0.439   0.372   1.722 -0.1933 -0.7206  0.8268
 3842SOL    HW122988   0.387   0.324   1.786 -0.2448 -0.0409  1.2910
 3842SOL    HW222989   0.459   0.303   1.659  4.0827  0.7644  0.5487
 3843SOL     OW22990   4.645   1.226  17.113 -0.0971 -1.1044  0.2036
 3843SOL    HW122991   4.612   1.235  17.203 -0.9072  1.1820 -0.3163
 3843SOL    HW222992   4.675   1.135  17.115  0.4661 -0.9363 -0.7730
 3844SOL     OW22993   4.410   3.880   7.611  0.3825 -0.3082 -0.3081
 3844SOL    HW122994   4.340   3.944   7.623  2.0209  1.0228  1.9561
 3844SOL    HW222995   4.458   3.903   7.690  0.7685 -0.5951 -0.4590
 3845SOL     OW22996   4.684   1.708   2.558 -0.3599  0.0549  0.2210
 3845SOL    HW122997   0.004   1.751   2.481 -0.1912  0.9764  0.8217
 3845SOL    HW222998   4.601   1.678   2.521 -1.0987  0.6262  1.4330
 3846SOL     OW22999   3.933   1.014   8.802 -0.1109  0.4317 -0.2646
 3846SOL    HW123000   4.015   1.025   8.754 -0.1457  2.4205  0.1060
 3846SOL    HW223001   3.938   0.919   8.799  0.2629  0.4174  0.7638
 3847SOL     OW23002   3.029   1.376   6.059 -0.2551 -0.2069  0.4233
 3847SOL    HW123003   3.056   1.465   6.035  2.4590 -1.2455 -0.3669
 3847SOL    HW223004   3.099   1.321   6.024  0.5303  1.2648 -0.3491
 3848SOL     OW23005   0.662   0.025   1.720  0.2398  1.1922 -0.4254
 3848SOL    HW123006   0.706   0.018   1.804 -0.0134 -0.0922 -0.4098
 3848SOL    HW223007   0.725   0.082   1.675  1.5428  0.8203  0.9449
 3849SOL     OW23008   2.415   3.545   1.536 -0.2208 -0.0003  0.0047
 3849SOL    HW123009   2.477   3.474   1.520  0.2427  0.1258  1.2511
 3849SOL    HW223010   2.433   3.578   1.624  1.4714 -1.4750  0.2063
 3850SOL     OW23011   4.250   3.912   4.139 -0.4642  0.4398  0.0809
 3850SOL    HW123012   4.345   3.920   4.136 -0.5823  2.2091  1.2445
 3850SOL    HW223013   4.239   3.875   4.227  0.5164 -1.6807 -0.6846
 3851SOL     OW23014   1.274   0.536  10.024 -0.4509 -0.3889 -0.1249
 3851SOL    HW123015   1.234   0.507  10.107  0.6002 -1.8127 -0.1202
 3851SOL    HW223016   1.282   0.454   9.975  0.3885 -0.1839 -0.3282
 3852SOL     OW23017   3.407   0.792   2.357 -0.7354  0.0064 -0.2710
 3852SOL    HW123018   3.459   0.711   2.358 -0.2925  0.2900 -0.3153
 3852SOL    HW223019   3.461   0.858   2.401 -0.2041  0.2236 -1.2359
 3853SOL     OW23020   3.895   1.969  16.126  0.1487 -0.4163  0.4086
 3853SOL    HW123021   3.817   1.967  16.182  1.2924  3.1295  2.1385
 3853SOL    HW223022   3.863   1.983  16.036  0.4150 -0.8773  0.2454
 3854SOL     OW23023   0.241   1.490   5.016  0.1235  0.2267  0.1758
 3854SOL    HW123024   0.176   1.512   4.949  0.4785  0.9996  0.0830
 3854SOL    HW223025   0.286   1.574   5.017  0.0467  0.2637  0.5501
 3855SOL     OW23026   1.671   2.165  12.761  0.4058  0.1673  0.3607
 3855SOL    HW123027   1.649   2.091  12.818 -2.0257 -0.4677 -1.3876
 3855SOL    HW223028   1.645   2.236  12.820  1.7317  1.6478 -0.8528
 3856SOL     OW23029   3.244   0.268   0.325  0.1324 -0.1528 -0.4200
 3856SOL    HW123030   3.278   0.210   0.393 -1.2954  0.8377  1.1348
 3856SOL    HW223031   3.246   0.343   0.385 -1.4643 -0.4142 -0.0339
 3857SOL     OW23032   1.747   2.529   9.358  0.4789  0.2382 -0.2484
 3857SOL    HW123033   1.689   2.458   9.388  1.6812  0.3578  2.3962
 3857SOL    HW223034   1.703   2.603   9.399  3.1544  1.0944  1.0471
 3858SOL     OW23035   4.089   4.549  14.240 -0.3385  0.5745 -0.1728
 3858SOL    HW123036   4.094   4.476  14.179 -1.0413  2.0150 -1.9743
 3858SOL    HW223037   4.002   4.580  14.212 -0.3154  2.2210  1.5832
 3859SOL     OW23038   2.678   0.016   9.574 -0.4440 -0.5051 -0.0553
 3859SOL    HW123039   2.635   0.036   9.657 -0.6742  2.9014 -1.0048
 3859SOL    HW223040   2.613   0.056   9.516 -0.2608  0.0615  0.1332
 3860SOL     OW23041   0.447   0.957  11.046 -0.6182  0.7155  0.3113
 3860SOL    HW123042   0.442   1.050  11.070  2.3344  0.9954 -0.2513
 3860SOL    HW223043   0.478   0.924  11.130  0.5949 -0.4247 -0.5836
 3861SOL     OW23044   2.400   3.903   0.112 -0.6586  0.4825 -0.4361
 3861SOL    HW123045   2.378   3.935   0.199  0.6342  2.8825 -1.0001
 3861SOL    HW223046   2.355   3.818   0.113 -1.9635  1.1853  0.3024
 3862SOL     OW23047   0.832   1.982   4.776 -0.5386  0.2284 -0.4061
 3862SOL    HW123048   0.896   2.035   4.823 -1.3290  0.3833  0.4834
 3862SOL    HW223049   0.890   1.915   4.740 -0.9987  0.9845 -2.5902
 3863SOL     OW23050   1.668   2.946  15.601 -0.0079 -0.3031  0.0422
 3863SOL    HW123051   1.682   2.991  15.685 -2.8891  0.3787  0.1906
 3863SOL    HW223052   1.694   3.008  15.534  1.4100 -0.0616  0.8227
 3864SOL     OW23053   0.193   2.628   3.053  0.3699 -0.4075  0.0798
 3864SOL    HW123054   0.244   2.595   3.127 -0.3711  0.4171  0.9609
 3864SOL    HW223055   0.116   2.661   3.098 -0.5488  0.0299 -1.8085
 3865SOL     OW23056   0.504   4.433   1.697  0.5630 -0.0029 -0.0624
 3865SOL    HW123057   0.438   4.445   1.629 -0.9399  0.2221  1.4292
 3865SOL    HW223058   0.448   4.435   1.775  0.5408  0.7329 -0.1020
 3866SOL     OW23059   3.274   3.735  16.238  0.3205  0.4824 -0.2003
 3866SOL    HW123060   3.198   3.716  16.182 -0.7075 -0.9310  1.6776
 3866SOL    HW223061   3.279   3.830  16.246  1.1307  0.3404  1.0264
 3867SOL     OW23062   1.887   2.246   2.887  0.5874  0.3767  0.4018
 3867SOL    HW123063   1.914   2.283   2.803 -0.0681  1.1279  0.5228
 3867SOL    HW223064   1.801   2.283   2.909 -0.5952 -2.5822  0.7152
 3868SOL     OW23065   4.331   3.143  10.084 -0.2514  0.0682 -0.0027
 3868SOL    HW123066   4.363   3.170  10.170 -0.6513 -1.3023  0.5793
 3868SOL    HW223067   4.262   3.209  10.076  0.9846  1.4610  0.8052
 3869SOL     OW23068   2.373   3.443   5.621  0.0318 -0.2327 -0.2246
 3869SOL    HW123069   2.388   3.358   5.579 -0.2576 -1.0972  1.4503
 3869SOL    HW223070   2.441   3.441   5.688 -0.1717 -2.0408 -0.0575
 3870SOL     OW23071   2.275   4.406   9.305  0.1188 -0.3342  0.0462
 3870SOL    HW123072   2.303   4.459   9.380 -1.4755  1.0935 -0.3667
 3870SOL    HW223073   2.179   4.409   9.306  0.1341 -0.1770  1.9285
 3871SOL     OW23074   1.762   2.480   6.843  0.0373 -0.2146 -0.1474
 3871SOL    HW123075   1.774   2.535   6.921 -2.3764 -0.9860  0.7779
 3871SOL    HW223076   1.850   2.451   6.819 -0.3584 -2.8887  1.6683
 3872SOL     OW23077   3.614   0.625   5.122 -0.6985  0.1278 -0.0422
 3872SOL    HW123078   3.550   0.667   5.064  0.8880  0.5709 -1.4834
 3872SOL    HW223079   3.616   0.536   5.086 -1.7967  0.1137 -0.0899
 3873SOL     OW23080   3.858   3.518  16.764 -0.4040  0.0487 -0.0236
 3873SOL    HW123081   3.893   3.437  16.727 -1.8106 -0.4440 -0.2841
 3873SOL    HW223082   3.890   3.513  16.855  2.5461 -1.3658 -1.1417
 3874SOL     OW23083   2.651   0.841   6.398  0.0950  0.0861 -0.1217
 3874SOL    HW123084   2.724   0.901   6.381  0.0548 -0.0455 -0.7656
 3874SOL    HW223085   2.623   0.871   6.484 -1.4301  0.8278 -0.8867
 3875SOL     OW23086   2.988   1.110   3.682 -0.3757 -0.0762  0.0233
 3875SOL    HW123087   3.010   1.157   3.601  0.1011 -2.8813 -1.4634
 3875SOL    HW223088   3.071   1.108   3.729 -0.1705 -0.5839 -0.3656
 3876SOL     OW23089   4.091   3.890   8.449 -0.5530 -0.3218  0.6923
 3876SOL    HW123090   4.088   3.798   8.422  0.6016  0.0876 -0.8209
 3876SOL    HW223091   4.155   3.884   8.520 -1.1580  1.3085  1.3721
 3877SOL     OW23092   0.825   2.760   6.314  0.6402 -0.2608  0.3109
 3877SOL    HW123093   0.764   2.812   6.367 -0.8278 -0.2703 -1.3724
 3877SOL    HW223094   0.841   2.814   6.238  1.0695 -0.7347  0.0626
 3878SOL     OW23095   2.618   1.963  17.254  0.4748  0.3563  0.0367
 3878SOL    HW123096   2.556   1.974  17.326 -1.0285  0.8163 -1.3292
 3878SOL    HW223097   2.599   1.871  17.235 -0.9743  0.7386 -0.4153
 3879SOL     OW23098   3.979   4.388   6.291  0.0534 -0.0518 -0.2201
 3879SOL    HW123099   3.901   4.338   6.316 -0.7068  0.9601 -0.6141
 3879SOL    HW223100   3.989   4.374   6.197 -0.6513  0.2458 -0.3339
 3880SOL     OW23101   4.101   3.113   6.670 -0.0231  0.7871  0.5551
 3880SOL    HW123102   4.186   3.124   6.713  0.3967 -0.7816  0.1213
 3880SOL    HW223103   4.041   3.172   6.716 -3.0055 -0.7955 -1.3123
 3881SOL     OW23104   1.137   4.036  12.663  0.1231 -0.1194  0.1064
 3881SOL    HW123105   1.151   4.128  12.686  0.8148 -0.2652  0.2643
 3881SOL    HW223106   1.222   4.017  12.622 -0.5590 -1.7916 -0.5096
 3882SOL     OW23107   4.092   1.978   8.940  0.0160  0.3258 -0.1070
 3882SOL    HW123108   4.028   1.922   8.984  1.7318 -0.5963  1.2239
 3882SOL    HW223109   4.102   1.941   8.852 -0.2913 -1.3550  0.5551
 3883SOL     OW23110   3.947   1.379  13.209  0.7459 -0.0161 -0.3079
 3883SOL    HW123111   4.036   1.365  13.240  1.7923 -2.7016 -4.5884
 3883SOL    HW223112   3.910   1.296  13.238  1.3276 -0.5163 -0.9941
 3884SOL     OW23113   4.602   1.741  11.278  0.1476 -0.0044 -0.5826
 3884SOL    HW123114   4.597   1.833  11.253 -0.0158  0.6189  1.7103
 3884SOL    HW223115   4.684   1.709  11.242 -0.4527 -1.4082 -0.7225
 3885SOL     OW23116   1.610   2.914  17.226 -0.2616  0.4868 -0.1981
 3885SOL    HW123117   1.683   2.915  17.164 -0.8147 -0.5495 -0.8785
 3885SOL    HW223118   1.561   2.992  17.200  0.9970  1.3674  0.1158
 3886SOL     OW23119   1.947   3.368   6.819  0.2116  0.1553  0.3307
 3886SOL    HW123120   2.003   3.293   6.840 -0.9621 -0.7740  0.1973
 3886SOL    HW223121   1.907   3.321   6.746  2.7418  1.2305 -1.7605
 3887SOL     OW23122   2.751   1.563  17.407  0.1416  0.4326 -0.0826
 3887SOL    HW123123   2.719   1.475  17.388  2.1707 -0.2242 -0.4744
 3887SOL    HW223124   2.700   1.583  17.485  0.5072  0.4855  0.1459
 3888SOL     OW23125   2.563   2.727   5.584 -0.9692  0.1822  0.3286
 3888SOL    HW123126   2.626   2.784   5.629 -0.1550  0.8884 -1.7120
 3888SOL    HW223127   2.622   2.681   5.525 -1.3041 -1.4663  1.2788
 3889SOL     OW23128   4.654   3.711  13.510 -0.0640  0.5937 -0.6925
 3889SOL    HW123129   4.576   3.766  13.524  0.2095  0.1602  2.5011
 3889SOL    HW223130   4.663   3.730  13.417 -3.8148  2.2424 -0.7435
 3890SOL     OW23131   1.201   1.699   3.098 -0.3471 -0.0457 -0.5737
 3890SOL    HW123132   1.127   1.739   3.144 -0.6195 -0.7817 -0.3686
 3890SOL    HW223133   1.266   1.684   3.166  0.7972 -0.7576 -1.8333
 3891SOL     OW23134   2.958   0.793   8.776 -0.3106 -0.0033 -0.2207
 3891SOL    HW123135   2.914   0.809   8.859 -2.9931 -0.1151 -1.6120
 3891SOL    HW223136   3.049   0.773   8.797 -1.0530 -2.2567  0.8342
 3892SOL     OW23137   0.722   4.670   6.372 -0.0457  0.1667 -0.2590
 3892SOL    HW123138   0.630   4.664   6.396  0.6548  0.5199  2.4172
 3892SOL    HW223139   0.733   4.601   6.305  0.5664  0.8645 -0.8770
 3893SOL     OW23140   3.596   4.347   7.565 -0.2090 -0.5653  0.2594
 3893SOL    HW123141   3.570   4.432   7.530 -1.2772  0.0138  2.4465
 3893SOL    HW223142   3.528   4.288   7.531  1.2416 -0.9014 -2.0813
 3894SOL     OW23143   4.615   3.764   5.541  0.3562  0.2379 -0.0965
 3894SOL    HW123144   4.678   3.805   5.600 -0.4788  1.5838 -0.1416
 3894SOL    HW223145   4.531   3.793   5.576  0.3069 -0.6855  0.5675
 3895SOL     OW23146   1.573   2.222   5.057 -0.1351 -0.0749  0.7210
 3895SOL    HW123147   1.655   2.175   5.070  0.8565  1.6920  0.8393
 3895SOL    HW223148   1.549   2.190   4.970 -0.5920 -0.0555  0.8405
 3896SOL     OW23149   1.723   1.158   2.882 -0.3721 -0.3996 -0.3789
 3896SOL    HW123150   1.696   1.076   2.840 -0.7820  1.3420 -3.4290
 3896SOL    HW223151   1.808   1.165   2.839 -0.5999  1.3421 -0.5318
 3897SOL     OW23152   1.567   0.744   7.626 -0.2921 -0.1129  0.0908
 3897SOL    HW123153   1.516   0.793   7.562 -0.2787 -0.2374 -0.0142
 3897SOL    HW223154   1.599   0.677   7.566 -1.6855 -0.3638 -0.3590
 3898SOL     OW23155   4.067   1.646   0.688  0.5016 -0.0452 -0.2588
 3898SOL    HW123156   4.075   1.675   0.779 -1.9271  0.4041 -0.1846
 3898SOL    HW223157   4.010   1.718   0.659 -3.0175 -2.2710  1.1223
 3899SOL     OW23158   0.552   2.830  14.753 -0.2424 -0.0188 -0.2592
 3899SOL    HW123159   0.624   2.789  14.801 -0.0146 -0.0625 -0.6369
 3899SOL    HW223160   0.568   2.800  14.663  3.5551 -0.1373  0.4233
 3900SOL     OW23161   2.837   0.026   9.275 -0.0837  0.0822 -0.0754
 3900SOL    HW123162   2.903   4.689   9.316  1.4501  1.9117 -0.0938
 3900SOL    HW223163   2.776   4.676   9.244  0.8784 -1.7213  1.9912
 3901SOL     OW23164   2.926   2.091  11.939 -0.2522  0.2270  0.4201
 3901SOL    HW123165   2.945   2.084  11.845 -1.5519 -1.9163  0.3090
 3901SOL    HW223166   2.847   2.145  11.941 -0.9648 -0.7862 -0.4067
 3902SOL     OW23167   2.028   2.027  15.095  0.2107  0.3176 -0.7945
 3902SOL    HW123168   2.006   1.937  15.073  1.5457 -0.4437  1.0047
 3902SOL    HW223169   2.016   2.024  15.189  0.0648  0.2088 -0.8169
 3903SOL     OW23170   1.411   3.631   6.731  0.5789 -0.4508  0.6143
 3903SOL    HW123171   1.441   3.587   6.811  2.1965 -1.2845 -0.4496
 3903SOL    HW223172   1.328   3.668   6.761  1.8707  2.5018  0.5190
 3904SOL     OW23173   0.618   3.190  13.629 -0.1579 -0.0530  0.6687
 3904SOL    HW123174   0.569   3.168  13.549 -0.2339 -0.1060  0.7298
 3904SOL    HW223175   0.568   3.161  13.705 -1.3697  1.1544  0.3257
 3905SOL     OW23176   2.115   0.313  10.755  0.5304 -0.0208 -0.5332
 3905SOL    HW123177   2.198   0.343  10.792 -0.3836 -0.5876  1.9972
 3905SOL    HW223178   2.122   0.363  10.674  0.7951  1.3640  0.3299
 3906SOL     OW23179   0.866   3.766   9.446 -0.2464  0.6176  0.7280
 3906SOL    HW123180   0.813   3.755   9.525 -1.1653 -1.7099 -0.2066
 3906SOL    HW223181   0.946   3.798   9.489  1.0146  0.3118 -1.4012
 3907SOL     OW23182   0.577   3.531   5.741  0.0294  0.2081 -0.1815
 3907SOL    HW123183   0.637   3.605   5.730  1.3069 -0.6864  0.7861
 3907SOL    HW223184   0.632   3.455   5.729  0.1929  0.0182  1.7175
 3908SOL     OW23185   1.100   0.610   5.472 -0.1852  0.2040 -0.3307
 3908SOL    HW123186   1.005   0.619   5.467 -0.1517 -0.0044 -1.3645
 3908SOL    HW223187   1.119   0.669   5.545  0.6463 -2.8533  1.9053
 3909SOL     OW23188   0.943   3.695   1.712 -0.5840  0.2693 -0.3832
 3909SOL    HW123189   0.968   3.711   1.803  1.5367  2.6895 -1.3833
 3909SOL    HW223190   0.910   3.783   1.692 -1.9566 -0.0188  0.5880
 3910SOL     OW23191   2.960   1.956   2.524 -0.1675 -0.3113 -0.1793
 3910SOL    HW123192   2.911   1.875   2.512  1.8422 -1.9009  2.2253
 3910SOL    HW223193   2.920   2.009   2.455 -0.8732 -1.2470 -0.4917
 3911SOL     OW23194   0.224   3.510   4.078 -0.4847 -0.3923  0.3415
 3911SOL    HW123195   0.220   3.414   4.089  0.0827 -0.5682 -1.0240
 3911SOL    HW223196   0.139   3.540   4.111 -0.2923  0.8881 -0.3356
 3912SOL     OW23197   0.196   3.763   3.843  0.2642  0.2550 -0.1191
 3912SOL    HW123198   0.272   3.705   3.835  0.2458  0.2831 -0.4890
 3912SOL    HW223199   0.147   3.761   3.760 -0.1293 -2.1278  0.1718
 3913SOL     OW23200   0.223   0.374   7.837  0.2646  0.2765  0.0412
 3913SOL    HW123201   0.245   0.348   7.927  2.4039  0.3111 -0.4550
 3913SOL    HW223202   0.235   0.291   7.792  3.3456 -0.1663  1.6740
 3914SOL     OW23203   4.370   2.119   7.770  0.4036  0.1896  1.0264
 3914SOL    HW123204   4.442   2.156   7.821  1.0626 -0.6465  0.7028
 3914SOL    HW223205   4.416   2.099   7.689  0.8100 -1.9066  1.7617
 3915SOL     OW23206   1.450   0.611   1.026 -0.1323  0.0993 -0.0269
 3915SOL    HW123207   1.465   0.599   0.932  0.6519 -0.0083  0.1077
 3915SOL    HW223208   1.527   0.659   1.057 -0.9304  0.7594  0.9164
 3916SOL     OW23209   3.756   4.170  10.619  0.2577 -0.1466 -0.6101
 3916SOL    HW123210   3.700   4.120  10.679  0.4290  1.2697  0.7394
 3916SOL    HW223211   3.715   4.257  10.622  3.7938  1.4914  0.2567
 3917SOL     OW23212   1.080   3.672  13.520 -0.5090  0.4717 -0.1763
 3917SOL    HW123213   0.995   3.666  13.476 -0.5200 -1.3244  0.0900
 3917SOL    HW223214   1.086   3.767  13.529 -0.5257  0.5906 -1.4517
 3918SOL     OW23215   0.025   0.509  15.066  0.2504  0.1135 -0.3045
 3918SOL    HW123216   0.006   0.490  15.158  2.9764 -0.0917  0.1986
 3918SOL    HW223217   0.104   0.563  15.073 -0.5861  1.3614 -0.2826
 3919SOL     OW23218   2.066   2.988  11.956  0.3059 -0.4946 -0.2420
 3919SOL    HW123219   2.083   2.990  12.051  0.6772 -0.0516 -0.3184
 3919SOL    HW223220   2.158   2.970  11.937  0.6321  3.3871 -2.2910
 3920SOL     OW23221   1.802   1.270   5.284  0.1710 -0.2482 -0.4467
 3920SOL    HW123222   1.880   1.228   5.320 -0.6008 -0.5600  0.8739
 3920SOL    HW223223   1.731   1.216   5.320 -2.6961  3.1470 -0.9213
 3921SOL     OW23224   1.312   1.400   3.766 -0.2495  0.3160 -0.3785
 3921SOL    HW123225   1.322   1.325   3.825 -1.6071  1.7023  1.6224
 3921SOL    HW223226   1.397   1.443   3.776  0.3814 -0.4109 -2.6750
 3922SOL     OW23227   1.527   0.228   4.409  0.0312 -0.6314  0.1851
 3922SOL    HW123228   1.585   0.195   4.340  1.0029  1.5265 -0.0243
 3922SOL    HW223229   1.461   0.274   4.357 -0.6182 -2.2224 -0.4112
 3923SOL     OW23230   1.419   3.712  14.023  0.4491  0.1848  0.0872
 3923SOL    HW123231   1.394   3.711  14.116 -0.5698 -3.1457 -0.2363
 3923SOL    HW223232   1.506   3.752  14.019  0.9065 -0.8185  0.1474
 3924SOL     OW23233   4.412   0.762   6.970 -0.2300  0.6788  0.0772
 3924SOL    HW123234   4.489   0.801   7.010  1.0416 -1.4935 -0.2347
 3924SOL    HW223235   4.357   0.837   6.949  0.9033  1.7165  0.8272
 3925SOL     OW23236   1.005   2.463   0.351  0.8253 -0.4290 -0.8606
 3925SOL    HW123237   1.067   2.518   0.302  0.4221  2.9838  2.4287
 3925SOL    HW223238   1.051   2.458   0.435 -1.0919  3.9489  0.4590
 3926SOL     OW23239   0.100   0.739   2.665  0.7834  0.0136 -0.1344
 3926SOL    HW123240   0.027   0.699   2.713  1.1757 -0.4537  0.0661
 3926SOL    HW223241   0.133   0.802   2.728 -0.1061  1.8486 -1.5178
 3927SOL     OW23242   4.477   0.420  17.618  0.3540  0.0854  0.2110
 3927SOL    HW123243   4.465   0.482   0.016 -0.6931  0.1496 -0.0066
 3927SOL    HW223244   4.494   0.481  17.547 -1.1144 -0.4769 -0.6335
 3928SOL     OW23245   3.957   0.518  12.154 -0.0896 -0.2343 -0.6729
 3928SOL    HW123246   3.923   0.464  12.224 -0.8992 -1.4412 -1.9920
 3928SOL    HW223247   3.912   0.602  12.152  0.3881 -0.0011 -2.2609
 3929SOL     OW23248   2.171   4.348   1.974  0.1139  0.6546  0.1245
 3929SOL    HW123249   2.253   4.350   2.022 -0.0089  0.0703  0.3627
 3929SOL    HW223250   2.140   4.260   1.998  1.4987 -0.0064 -0.4854
 3930SOL     OW23251   0.464   0.909   9.868  0.4015 -0.6608  0.1004
 3930SOL    HW123252   0.554   0.884   9.890  0.3717 -0.5436  0.3498
 3930SOL    HW223253   0.480   1.001   9.847 -1.0535 -0.2309  0.9245
 3931SOL     OW23254   1.279   4.316  15.603 -0.2165 -0.3693 -0.3860
 3931SOL    HW123255   1.242   4.396  15.639 -0.2304  0.1688 -1.6197
 3931SOL    HW223256   1.331   4.286  15.678 -1.1887  0.5493  0.6560
 3932SOL     OW23257   2.678   1.450  14.683 -0.0055 -0.0671 -0.1025
 3932SOL    HW123258   2.661   1.520  14.621 -2.5300  1.5617  2.4387
 3932SOL    HW223259   2.763   1.478  14.717 -1.2398  0.6077  2.4626
 3933SOL     OW23260   2.334   1.431   1.795  0.5533  0.0502  0.0092
 3933SOL    HW123261   2.352   1.345   1.759 -0.0445 -0.2479  0.4110
 3933SOL    HW223262   2.339   1.413   1.889  0.5440  0.5350  0.1057
 3934SOL     OW23263   2.606   0.384   6.228  0.3611  0.4632  0.4983
 3934SOL    HW123264   2.684   0.352   6.183  0.9749  2.4678  0.1362
 3934SOL    HW223265   2.554   0.309   6.200  0.6278  0.3640  0.2636
 3935SOL     OW23266   4.019   0.658   5.534 -0.1641  0.0298 -0.1107
 3935SOL    HW123267   3.985   0.606   5.461 -0.0529 -1.5571  0.9718
 3935SOL    HW223268   3.941   0.672   5.587  0.4985 -2.5286  1.5298
 3936SOL     OW23269   1.455   2.920  11.270 -0.1720  0.4471  0.0693
 3936SOL    HW123270   1.433   2.837  11.314  1.2718 -0.8163 -1.6078
 3936SOL    HW223271   1.423   2.893  11.184 -1.6353  0.6622  0.5395
 3937SOL     OW23272   3.593   2.775   5.091  0.3402 -0.0788  0.0951
 3937SOL    HW123273   3.551   2.702   5.046  0.8119 -1.0063  1.1738
 3937SOL    HW223274   3.518   2.832   5.109  0.4513 -0.5415  1.9769
 3938SOL     OW23275   2.775   3.447   4.673  0.0286  0.3822 -0.1050
 3938SOL    HW123276   2.717   3.491   4.735 -0.4153  0.6165 -0.6852
 3938SOL    HW223277   2.728   3.366   4.656  1.0992 -0.0064 -1.2246
 3939SOL     OW23278   0.026   0.901   6.762 -0.2554 -0.2686  0.4564
 3939SOL    HW123279   0.051   0.967   6.827  3.4295 -0.2860 -0.9516
 3939SOL    HW223280   0.042   0.942   6.677  1.8829 -1.3041  0.3506
 3940SOL     OW23281   3.669   3.351  10.843  0.7224 -0.1764 -0.7130
 3940SOL    HW123282   3.735   3.415  10.869  1.1115 -0.8979  0.0689
 3940SOL    HW223283   3.586   3.397  10.855  0.6412 -0.2570 -0.9660
 3941SOL     OW23284   1.726   1.959  12.416  0.3541 -0.0531  0.4241
 3941SOL    HW123285   1.685   2.043  12.439 -2.0008 -0.5201 -2.1435
 3941SOL    HW223286   1.757   1.989  12.331  1.8462 -0.9301  0.6530
 3942SOL     OW23287   3.281   4.364   1.304  0.2401 -0.0910 -0.2753
 3942SOL    HW123288   3.324   4.288   1.264  1.0196  0.3718 -0.3183
 3942SOL    HW223289   3.323   4.397   1.384  0.0591  1.8815 -1.0059
 3943SOL     OW23290   3.967   3.069  15.171 -0.1411 -0.4201 -0.2884
 3943SOL    HW123291   3.994   3.054  15.262  0.3065  0.2086 -0.3212
 3943SOL    HW223292   3.951   2.980  15.140 -1.8761 -0.0779 -0.3453
 3944SOL     OW23293   1.710   4.613  12.779  0.0586  0.4131  0.0546
 3944SOL    HW123294   1.728   4.667  12.702 -0.1490 -2.4547 -2.0079
 3944SOL    HW223295   1.753   4.669  12.843 -1.3274 -2.2682  3.2898
 3945SOL     OW23296   1.484   1.790  10.619 -0.3877  0.1068  0.3192
 3945SOL    HW123297   1.551   1.859  10.616  1.3237 -1.5455  0.5534
 3945SOL    HW223298   1.477   1.753  10.531  0.7060  1.2871 -0.2767
 3946SOL     OW23299   4.254   0.942   7.369  0.7769  0.0847 -0.3588
 3946SOL    HW123300   4.195   0.960   7.442 -0.4035 -0.7627 -1.1025
 3946SOL    HW223301   4.197   0.970   7.297 -0.7995  0.8506  1.1871
 3947SOL     OW23302   0.772   1.712  11.232  0.2629  0.2174  0.5635
 3947SOL    HW123303   0.823   1.787  11.264 -0.7712  0.9436  0.4924
 3947SOL    HW223304   0.744   1.677  11.317  0.7971 -0.8795  0.2922
 3948SOL     OW23305   1.260   0.865   2.328 -0.9055  0.6275  0.4847
 3948SOL    HW123306   1.209   0.945   2.345 -0.1017  0.9191  1.5126
 3948SOL    HW223307   1.278   0.883   2.236 -1.2415 -3.3559 -0.3528
 3949SOL     OW23308   4.191   1.332   4.464 -0.1432 -0.2454 -0.2241
 3949SOL    HW123309   4.214   1.372   4.380 -1.7259 -0.9315 -0.9881
 3949SOL    HW223310   4.137   1.263   4.426 -2.4141  0.7901  1.1183
 3950SOL     OW23311   0.366   0.458  12.846 -0.7726  0.2327 -0.6001
 3950SOL    HW123312   0.273   0.467  12.864 -1.2136 -0.5069 -2.5256
 3950SOL    HW223313   0.404   0.505  12.920 -0.1666 -2.3330  0.7499
 3951SOL     OW23314   1.515   3.591   4.619 -0.0843 -0.2730 -0.8309
 3951SOL    HW123315   1.548   3.502   4.635  1.9948  0.4101 -1.2479
 3951SOL    HW223316   1.584   3.627   4.563  0.1417  0.7841  0.1278
 3952SOL     OW23317   1.039   0.064   4.957 -0.6692  0.0935 -0.2273
 3952SOL    HW123318   1.115   0.120   4.972 -1.8581  1.0221  2.3391
 3952SOL    HW223319   1.010   0.080   4.867 -0.5415  0.1251 -0.2625
 3953SOL     OW23320   1.274   3.412   8.592  0.0351  0.6566 -0.0641
 3953SOL    HW123321   1.283   3.347   8.662  1.0195  0.2983 -0.5183
 3953SOL    HW223322   1.188   3.449   8.610  0.6964  1.9665  0.3888
 3954SOL     OW23323   4.665   1.235   6.372 -0.7702  0.7526  0.4229
 3954SOL    HW123324   0.000   1.223   6.293  0.4843 -1.9124  1.6494
 3954SOL    HW223325   0.006   1.198   6.438 -0.2805 -0.5924 -0.7692
 3955SOL     OW23326   4.261   3.030  12.628 -0.4990  0.2385 -0.1615
 3955SOL    HW123327   4.225   3.098  12.683 -0.0137  0.1901  0.2195
 3955SOL    HW223328   4.182   2.977  12.630  1.3507 -2.4802  1.4219
 3956SOL     OW23329   4.142   3.060  15.406 -0.4922  0.0001  0.0348
 3956SOL    HW123330   4.213   3.114  15.441 -1.8714  1.2701  0.8252
 3956SOL    HW223331   4.128   3.001  15.480 -2.4655  0.9979  0.4458
 3957SOL     OW23332   1.664   1.457   3.306 -0.2882  0.3952 -0.2023
 3957SOL    HW123333   1.621   1.537   3.337  0.3470  0.2545  1.0553
 3957SOL    HW223334   1.654   1.460   3.211  0.7476  1.5549 -0.2657
 3958SOL     OW23335   3.133   2.409  17.663 -0.4062 -0.1873  0.2599
 3958SOL    HW123336   3.119   2.493   0.034  0.4883  0.8747 -1.4413
 3958SOL    HW223337   3.166   2.432  17.576 -1.4827 -0.4268 -0.2061
 3959SOL     OW23338   0.744   4.598   3.100  0.0062  0.4967  0.0696
 3959SOL    HW123339   0.724   4.636   3.186 -1.0123 -0.1664  0.1290
 3959SOL    HW223340   0.710   4.509   3.109  0.1684  0.3609 -0.6358
 3960SOL     OW23341   4.663   4.203   9.345  0.5366  0.9247 -0.0362
 3960SOL    HW123342   4.602   4.277   9.336  1.3088  1.7062  1.2486
 3960SOL    HW223343   0.020   4.263   9.343  0.5355  1.0010  2.0023
 3961SOL     OW23344   0.320   4.432   7.872  0.2720  0.5584  0.0448
 3961SOL    HW123345   0.282   4.402   7.789 -0.7967  0.4811  0.5547
 3961SOL    HW223346   0.373   4.502   7.834 -2.7760  1.9942 -1.5823
 3962SOL     OW23347   2.836   1.124  14.603  0.4512  0.0897 -0.0935
 3962SOL    HW123348   2.799   1.100  14.519  1.5217 -0.4623 -0.4123
 3962SOL    HW223349   2.928   1.102  14.589  1.0636  1.3993  1.8501
 3963SOL     OW23350   0.857   1.020   2.476 -0.1874  0.2706 -0.7188
 3963SOL    HW123351   0.861   1.005   2.571  1.0859  0.5148 -0.7450
 3963SOL    HW223352   0.796   1.094   2.469  2.0187  1.8661 -2.8248
 3964SOL     OW23353   2.015   2.050  10.213 -0.4790  0.8312  0.1381
 3964SOL    HW123354   1.941   2.044  10.152 -0.4957  2.7048 -0.0381
 3964SOL    HW223355   1.986   1.993  10.284  0.3290 -0.3501 -0.4632
 3965SOL     OW23356   4.112   1.874   0.436  0.0221  0.2537  0.0920
 3965SOL    HW123357   4.189   1.854   0.491 -0.8877 -0.1517  1.2172
 3965SOL    HW223358   4.105   1.790   0.390  0.4203 -0.1930  0.8420
 3966SOL     OW23359   2.762   2.420  12.564  0.1664  0.0334 -0.0620
 3966SOL    HW123360   2.763   2.512  12.589 -0.8308  0.2347 -0.7575
 3966SOL    HW223361   2.851   2.386  12.554  1.1285  2.1455  1.4487
 3967SOL     OW23362   3.651   2.026   5.909  0.2866  0.2125 -0.6277
 3967SOL    HW123363   3.649   2.090   5.980 -2.0149 -0.5020 -0.0356
 3967SOL    HW223364   3.728   2.059   5.863  1.3315  1.7314  2.2531
 3968SOL     OW23365   1.622   2.414   4.794 -0.3427  0.7838  0.0157
 3968SOL    HW123366   1.632   2.367   4.711 -0.2731  0.5576  0.1525
 3968SOL    HW223367   1.620   2.504   4.760 -3.8586  0.0162 -1.7841
 3969SOL     OW23368   2.181   4.114   8.288  0.2229 -0.5586 -0.5127
 3969SOL    HW123369   2.108   4.177   8.287  0.2503 -0.5193  1.4800
 3969SOL    HW223370   2.147   4.042   8.233 -1.0678 -1.2101  1.1468
 3970SOL     OW23371   0.582   0.611   0.221  0.6989 -0.0142  0.2225
 3970SOL    HW123372   0.575   0.592   0.314 -0.0921 -0.6061  0.0367
 3970SOL    HW223373   0.657   0.559   0.194  0.2641 -0.9672  0.8648
 3971SOL     OW23374   4.122   0.922   9.189 -0.3001 -0.3432 -0.2621
 3971SOL    HW123375   4.039   0.947   9.147  0.0927  1.8587  0.2617
 3971SOL    HW223376   4.138   0.832   9.161 -2.3274 -0.3992 -1.2480
 3972SOL     OW23377   4.108   2.349  12.452 -0.6657  0.7302 -0.3276
 3972SOL    HW123378   4.109   2.258  12.423  1.2858  0.8602 -0.6982
 3972SOL    HW223379   4.193   2.356  12.496 -2.0042 -2.0522  2.6421
 3973SOL     OW23380   1.210   3.044   2.033 -0.2506 -0.4635  0.1215
 3973SOL    HW123381   1.241   3.130   2.059  0.4460 -1.0658  1.2830
 3973SOL    HW223382   1.256   3.029   1.951 -0.2238 -1.6074  0.3428
 3974SOL     OW23383   4.582   0.221   3.788  0.5087  0.1251  0.2096
 3974SOL    HW123384   4.511   0.285   3.784  1.1575  0.7986 -0.4963
 3974SOL    HW223385   4.576   0.188   3.878 -0.2840 -0.1072  0.0707
 3975SOL     OW23386   2.950   4.414   2.593 -0.4833  0.7163 -0.2788
 3975SOL    HW123387   2.948   4.507   2.615 -2.8054  0.4016  0.8010
 3975SOL    HW223388   2.869   4.366   2.611 -0.2197  0.5490  0.4688
 3976SOL     OW23389   4.551   3.798   4.464  0.4539 -0.7014  0.2322
 3976SOL    HW123390   4.563   3.790   4.558 -0.6569  1.9545  0.6140
 3976SOL    HW223391   4.632   3.757   4.434  1.3660  0.6960  0.8159
 3977SOL     OW23392   3.367   1.493   1.659 -0.2273 -0.7298 -0.6482
 3977SOL    HW123393   3.360   1.462   1.749  0.0884  3.2968  0.7746
 3977SOL    HW223394   3.450   1.542   1.658 -0.9254  0.3709 -4.1790
 3978SOL     OW23395   2.379   1.289   4.952 -0.0455  0.4914 -0.2025
 3978SOL    HW123396   2.452   1.347   4.972 -0.9942  1.2904  0.9769
 3978SOL    HW223397   2.358   1.307   4.860  1.8774 -0.7636 -0.8886
 3979SOL     OW23398   2.809   1.431   3.138 -0.3709  0.1290 -0.4572
 3979SOL    HW123399   2.762   1.421   3.055 -0.3905  0.1616 -0.4497
 3979SOL    HW223400   2.891   1.455   3.095 -0.2646  1.6892  0.6300
 3980SOL     OW23401   3.969   4.705   8.971 -0.4040 -0.1288  0.1513
 3980SOL    HW123402   3.901   4.671   9.029  0.6265 -0.8812  0.9145
 3980SOL    HW223403   3.965   0.082   8.986  0.5926 -0.0906  0.1539
 3981SOL     OW23404   4.266   0.685   3.005 -0.1448 -0.1546 -0.3825
 3981SOL    HW123405   4.310   0.618   3.057  0.6021  1.2997  0.8199
 3981SOL    HW223406   4.325   0.709   2.934 -0.5792  0.1455 -0.6439
 3982SOL     OW23407   2.861   1.372   1.646  0.0845  0.9644 -0.1179
 3982SOL    HW123408   2.946   1.354   1.686  0.4364 -2.8237 -2.5483
 3982SOL    HW223409   2.882   1.390   1.554  0.3323 -0.1802 -0.2938
 3983SOL     OW23410   3.840   1.749   2.542  0.3402 -0.6986 -0.7494
 3983SOL    HW123411   3.835   1.843   2.523  0.3206 -0.4732  0.3664
 3983SOL    HW223412   3.889   1.706   2.472 -0.3510 -1.2558 -0.8911
 3984SOL     OW23413   0.310   4.664   5.554 -0.3537  0.1514 -0.1267
 3984SOL    HW123414   0.231   0.001   5.550  0.2250  1.0799  1.3186
 3984SOL    HW223415   0.270   4.577   5.565  0.5758 -0.5182 -2.0634
 3985SOL     OW23416   4.221   0.505   3.403 -0.2587 -0.4581 -0.7402
 3985SOL    HW123417   4.256   0.522   3.315 -1.2376  2.2872 -0.6086
 3985SOL    HW223418   4.150   0.445   3.380  0.7686 -1.8769 -0.1626
 3986SOL     OW23419   2.480   0.890  15.887 -0.2534  0.1288  0.5652
 3986SOL    HW123420   2.484   0.961  15.952  0.7617  0.9092 -0.3348
 3986SOL    HW223421   2.448   0.935  15.808 -0.0120 -1.0916 -0.2205
 3987SOL     OW23422   2.427   4.254   9.614 -0.2517 -0.0930 -0.5149
 3987SOL    HW123423   2.507   4.207   9.637 -1.0362 -0.2455  1.9224
 3987SOL    HW223424   2.449   4.276   9.523  1.9818  3.4336  0.8353
 3988SOL     OW23425   1.750   1.421   2.613  0.0050 -0.6135 -0.0137
 3988SOL    HW123426   1.775   1.340   2.568 -0.5983 -1.7681  1.7380
 3988SOL    HW223427   1.669   1.396   2.658 -1.6295  1.1246 -2.0064
 3989SOL     OW23428   2.337   0.035   9.210  0.2297 -0.0758 -0.6299
 3989SOL    HW123429   2.425   0.071   9.205 -0.7522  2.3322 -0.8124
 3989SOL    HW223430   2.360   4.666   9.176 -2.2512 -0.8157 -0.4305
 3990SOL     OW23431   4.398   0.840   1.111  0.2573  0.2554  0.5215
 3990SOL    HW123432   4.315   0.841   1.063 -0.1719  4.6808  1.3301
 3990SOL    HW223433   4.445   0.917   1.077 -1.3650  0.9549 -0.1394
 3991SOL     OW23434   1.517   4.629   8.222  0.3606  0.1157  0.7456
 3991SOL    HW123435   1.553   4.591   8.303  3.0239  1.5839  0.2488
 3991SOL    HW223436   1.434   4.582   8.218  0.5015 -0.0671 -0.0601
 3992SOL     OW23437   1.732   2.454  10.488  0.3236  0.0601  0.1498
 3992SOL    HW123438   1.683   2.532  10.513  2.1628  1.0970  0.5600
 3992SOL    HW223439   1.818   2.495  10.478  0.0269  0.5669 -0.3158
 3993SOL     OW23440   1.543   1.213   2.338  0.2853  0.4622 -0.4634
 3993SOL    HW123441   1.499   1.194   2.420 -0.8923  0.5510 -1.0755
 3993SOL    HW223442   1.632   1.228   2.371  0.4125 -0.2180 -0.4997
 3994SOL     OW23443   1.703   1.680   4.780 -0.2183 -0.1624  0.5545
 3994SOL    HW123444   1.706   1.617   4.853  0.6162 -2.2444 -1.2769
 3994SOL    HW223445   1.718   1.765   4.822  1.4642  0.4189 -1.2254
 3995SOL     OW23446   2.603   2.143   5.420  0.2131  0.2319 -0.0385
 3995SOL    HW123447   2.680   2.174   5.467 -0.2172  1.3524 -0.0848
 3995SOL    HW223448   2.550   2.222   5.421  0.6115  0.4797  1.0427
 3996SOL     OW23449   3.687   0.241   7.347 -0.2679 -0.2503  0.3361
 3996SOL    HW123450   3.700   0.148   7.363  1.6405  0.0632  0.5751
 3996SOL    HW223451   3.674   0.249   7.253 -0.0287 -0.5912  0.2773
 3997SOL     OW23452   0.208   1.944  14.831 -0.6315  0.3115  0.0778
 3997SOL    HW123453   0.191   1.951  14.925  0.2243 -4.0468  0.5342
 3997SOL    HW223454   0.261   1.865  14.829 -2.0635 -0.6428  0.1847
 3998SOL     OW23455   3.247   0.802   7.514 -0.1501 -0.2238  0.6172
 3998SOL    HW123456   3.336   0.814   7.484 -1.7094  1.4525 -3.2248
 3998SOL    HW223457   3.234   0.707   7.509  4.0161 -0.6885 -0.7293
 3999SOL     OW23458   0.677   4.333   6.492 -0.2805  0.7121  0.1539
 3999SOL    HW123459   0.767   4.355   6.471 -0.2475 -0.3933 -0.8821
 3999SOL    HW223460   0.673   4.341   6.587  3.2101  0.9028  0.2561
 4000SOL     OW23461   0.553   0.609  11.990 -0.1270 -0.1355 -0.0613
 4000SOL    HW123462   0.463   0.642  11.983  0.2930  1.1234  0.4898
 4000SOL    HW223463   0.553   0.555  11.911  0.0807  1.3271 -1.0630
 4001SOL     OW23464   2.327   0.502   4.809 -0.3131 -1.5956  0.2429
 4001SOL    HW123465   2.244   0.537   4.843  0.3302 -1.7459  1.9717
 4001SOL    HW223466   2.321   0.544   4.723  0.6498 -1.3117  0.3177
 4002SOL     OW23467   2.996   3.341  14.564  0.1065  0.0900 -0.0868
 4002SOL    HW123468   2.969   3.426  14.531  4.1684  1.5094  0.2557
 4002SOL    HW223469   2.919   3.312  14.613  0.3565 -0.9264 -0.2997
 4003SOL     OW23470   2.561   2.900  12.436 -0.3627  0.0208 -0.1796
 4003SOL    HW123471   2.494   2.955  12.477 -0.2147  0.0786 -0.0155
 4003SOL    HW223472   2.629   2.967  12.427  1.2544 -1.5405  0.3052
 4004SOL     OW23473   1.748   0.157   6.233  0.5276  0.5974  0.4487
 4004SOL    HW123474   1.804   0.220   6.188  1.8593 -2.1405 -1.7516
 4004SOL    HW223475   1.721   0.213   6.305  1.5233  1.1975  0.3530
 4005SOL     OW23476   1.517   2.941   7.144  0.0594 -0.2505  0.4065
 4005SOL    HW123477   1.502   2.979   7.230 -2.2395 -2.1948  0.8721
 4005SOL    HW223478   1.429   2.910   7.119  0.1014  0.2986 -0.4317
 4006SOL     OW23479   4.284   4.498   5.315  0.3650 -0.3635 -0.0468
 4006SOL    HW123480   4.335   4.424   5.285  1.4382  1.4077 -2.6042
 4006SOL    HW223481   4.355   4.530   5.371 -0.6374  0.3034  0.8473
 4007SOL     OW23482   1.070   1.843   2.160  0.4340  0.0508 -0.2572
 4007SOL    HW123483   0.994   1.804   2.202  0.5036  0.2616  0.0669
 4007SOL    HW223484   1.043   1.933   2.146 -1.8825 -0.7942 -1.1631
 4008SOL     OW23485   0.933   1.031   7.331 -0.7413  0.5293  0.0762
 4008SOL    HW123486   0.923   0.944   7.293  0.5695  0.3689  0.1103
 4008SOL    HW223487   0.913   1.013   7.423  0.8227  0.7126  0.4424
 4009SOL     OW23488   0.386   2.418  14.593  0.1297 -0.1600  0.6008
 4009SOL    HW123489   0.347   2.438  14.679 -2.7116 -0.2889 -0.6774
 4009SOL    HW223490   0.402   2.501  14.550 -0.2342 -0.8585 -0.8635
 4010SOL     OW23491   0.103   3.509  13.637  0.2593  0.4117  0.2888
 4010SOL    HW123492   0.180   3.457  13.614 -0.0448  0.5755 -1.1101
 4010SOL    HW223493   0.104   3.583  13.575  1.3782 -1.9319 -2.4845
 4011SOL     OW23494   4.415   3.649  17.673 -0.1576  0.3421  0.3317
 4011SOL    HW123495   4.357   3.598  17.616  1.9739 -1.8274  0.1309
 4011SOL    HW223496   4.365   3.730   0.014  1.0808  0.6161  2.8629
 4012SOL     OW23497   1.882   4.163   2.115 -0.1800 -0.0363  0.5761
 4012SOL    HW123498   1.933   4.130   2.041 -2.1755  0.5675 -1.0617
 4012SOL    HW223499   1.822   4.091   2.136  0.1102 -0.4160  0.1200
 4013SOL     OW23500   1.634   1.193   3.343  0.4586  0.7022  0.1590
 4013SOL    HW123501   1.653   1.282   3.315 -0.2219  0.7188 -0.2384
 4013SOL    HW223502   1.569   1.210   3.411  1.5951  3.3005  0.6043
 4014SOL     OW23503   0.128   3.023  15.558  0.2870  0.6566 -0.0019
 4014SOL    HW123504   0.204   3.078  15.536  0.4617  0.7574  0.8661
 4014SOL    HW223505   0.067   3.091  15.588 -0.6793 -0.5577  0.7519
 4015SOL     OW23506   4.503   2.252   3.494 -0.7581  0.2630  0.0530
 4015SOL    HW123507   4.471   2.301   3.570 -1.8669 -1.0137  0.4061
 4015SOL    HW223508   4.427   2.198   3.471 -1.7134  0.7962  1.9696
 4016SOL     OW23509   2.319   2.589   5.423  0.1914  0.1298 -0.3145
 4016SOL    HW123510   2.404   2.634   5.422 -0.2775  1.0115 -0.3628
 4016SOL    HW223511   2.355   2.508   5.457  0.3307 -0.4813 -1.9543
 4017SOL     OW23512   3.868   4.246   5.751  0.4690  0.1045  0.1127
 4017SOL    HW123513   3.791   4.246   5.694  0.8510 -0.5743 -0.3917
 4017SOL    HW223514   3.941   4.256   5.690  0.4366  2.9637  0.4977
 4018SOL     OW23515   1.498   2.130   4.072  0.3976 -0.1588  0.4154
 4018SOL    HW123516   1.462   2.217   4.091 -0.8131 -0.1214 -2.0911
 4018SOL    HW223517   1.497   2.123   3.976 -3.6168  0.4977  0.3882
 4019SOL     OW23518   1.546   1.011   4.197 -0.0981  0.2907 -0.0450
 4019SOL    HW123519   1.508   0.924   4.209  2.0674 -0.7331 -0.5884
 4019SOL    HW223520   1.603   1.001   4.121 -1.1382  0.1883 -0.8230
 4020SOL     OW23521   3.369   4.491   8.736  0.5583 -0.0773  0.0416
 4020SOL    HW123522   3.393   4.467   8.826  0.2926  3.4738  1.0373
 4020SOL    HW223523   3.432   4.559   8.714 -0.0345  0.2869 -0.5413
 4021SOL     OW23524   2.507   3.099  13.896 -0.2251 -0.3325  0.7137
 4021SOL    HW123525   2.535   3.097  13.988 -0.8211  0.4116  0.9137
 4021SOL    HW223526   2.460   3.016  13.884  2.9593 -2.0690  0.3103
 4022SOL     OW23527   1.868   2.630   4.048 -0.6882 -0.0469  1.0736
 4022SOL    HW123528   1.839   2.633   3.957 -0.5758  0.3011  1.0484
 4022SOL    HW223529   1.808   2.570   4.092 -2.6071  0.8825 -0.3100
 4023SOL     OW23530   1.690   3.149   6.023  0.1584  0.0107 -0.3490
 4023SOL    HW123531   1.730   3.236   6.014  1.4491 -0.3904  1.4709
 4023SOL    HW223532   1.655   3.134   5.935 -1.4003  0.8115  0.1486
 4024SOL     OW23533   2.991   0.074   7.787 -0.7241 -0.1307 -0.0756
 4024SOL    HW123534   2.981   0.168   7.800 -0.9539  0.0712 -1.7738
 4024SOL    HW223535   2.926   0.047   7.851  0.5460 -1.4153  0.6797
 4025SOL     OW23536   2.282   4.476   2.987  0.2214  0.1974 -0.5585
 4025SOL    HW123537   2.349   4.411   3.008 -1.8233 -1.5831  0.4510
 4025SOL    HW223538   2.250   4.493   3.076  1.5173 -1.4159  0.2292
 4026SOL     OW23539   0.048   0.188   2.728  0.0105 -0.0531  0.0969
 4026SOL    HW123540   0.032   0.100   2.761 -0.2590  0.0261  0.1750
 4026SOL    HW223541   0.055   0.178   2.633 -2.7754 -0.2806 -0.0764
 4027SOL     OW23542   4.443   0.642  14.276  0.2216 -0.0096  0.1883
 4027SOL    HW123543   4.520   0.660  14.331  0.7632 -1.2819 -0.1601
 4027SOL    HW223544   4.455   0.709  14.210  0.9581 -0.4002 -0.0827
 4028SOL     OW23545   3.765   0.565   5.380 -0.2421 -0.3477  0.0557
 4028SOL    HW123546   3.725   0.483   5.351 -0.4591  0.7442 -2.7008
 4028SOL    HW223547   3.727   0.621   5.312 -0.4534  0.0039  0.4601
 4029SOL     OW23548   3.986   2.342   2.319 -0.1256 -0.1088  0.3646
 4029SOL    HW123549   3.970   2.248   2.311 -2.6340  0.2003  1.8604
 4029SOL    HW223550   4.050   2.347   2.248  0.4767  0.1535  0.9275
 4030SOL     OW23551   2.398   3.554   8.175  0.4990  0.2012  0.3706
 4030SOL    HW123552   2.469   3.503   8.214  1.1604  1.5420  0.9141
 4030SOL    HW223553   2.390   3.623   8.240  3.7888 -0.6708  1.7100
 4031SOL     OW23554   0.509   0.237  12.736 -0.3129  0.3224  0.2425
 4031SOL    HW123555   0.577   0.265  12.675  0.1374 -0.9730  0.1594
 4031SOL    HW223556   0.454   0.316  12.740  0.4340  0.8611  0.0092
 4032SOL     OW23557   3.765   0.698   5.612 -0.2064 -0.1761 -0.1212
 4032SOL    HW123558   3.698   0.764   5.633 -0.5715 -0.9112  1.0239
 4032SOL    HW223559   3.737   0.664   5.527 -1.0983 -1.6500  0.7719
 4033SOL     OW23560   3.373   3.259   3.665 -0.0083 -0.1205  0.1091
 4033SOL    HW123561   3.461   3.292   3.681 -0.6072  0.5431  2.0639
 4033SOL    HW223562   3.398   3.167   3.658  2.9964  0.4088  3.6746
 4034SOL     OW23563   3.555   3.361   5.713  0.2317 -0.1972  0.5852
 4034SOL    HW123564   3.463   3.375   5.733 -0.0864  1.5682 -2.0046
 4034SOL    HW223565   3.580   3.294   5.776  0.7142  0.4461  1.0750
 4035SOL     OW23566   0.038   3.386   8.533 -0.3474  0.1347 -0.2602
 4035SOL    HW123567   4.707   3.467   8.520  0.6495  0.2965 -2.8759
 4035SOL    HW223568   4.702   3.342   8.599  0.4204  0.6645  0.7305
 4036SOL     OW23569   0.045   2.802  10.587  0.2060  0.4369  0.0756
 4036SOL    HW123570   0.091   2.786  10.505 -0.7903  2.2621 -0.8584
 4036SOL    HW223571   0.106   2.759  10.646  0.1866  0.6233  0.2318
 4037SOL     OW23572   4.550   4.469   1.254  0.0471 -0.2917 -0.4077
 4037SOL    HW123573   4.456   4.465   1.274  0.4900 -1.9262  1.3893
 4037SOL    HW223574   4.590   4.414   1.321 -1.7066 -0.6930  0.3273
 4038SOL     OW23575   2.734   2.773   4.505  0.0840 -0.2346  0.0909
 4038SOL    HW123576   2.784   2.839   4.457  0.1263 -0.2427  0.1239
 4038SOL    HW223577   2.791   2.696   4.506  1.6098  0.8545 -1.9269
 4039SOL     OW23578   0.143   1.321  14.663 -0.8067 -0.2854  0.1177
 4039SOL    HW123579   0.101   1.386  14.608 -1.3460 -1.3992 -0.7778
 4039SOL    HW223580   0.226   1.320  14.615  0.2882  0.0112  1.9974
 4040SOL     OW23581   3.232   1.688   7.262 -0.0009  0.4049 -0.0014
 4040SOL    HW123582   3.159   1.724   7.213  0.4281 -0.6888 -1.4455
 4040SOL    HW223583   3.188   1.609   7.295  0.8678 -0.2352 -0.3565
 4041SOL     OW23584   0.605   3.442  14.983 -0.8319  0.1827 -0.7239
 4041SOL    HW123585   0.580   3.478  14.898  0.1056  1.1137 -0.6197
 4041SOL    HW223586   0.618   3.349  14.966  2.8298  0.9396 -2.2069
 4042SOL     OW23587   4.487   4.678   3.299  0.4164  0.3338  0.0189
 4042SOL    HW123588   4.575   4.707   3.276  0.3550  0.7854  0.3526
 4042SOL    HW223589   4.479   0.006   3.383 -0.4606 -0.0666  0.1451
 4043SOL     OW23590   3.303   1.570   4.560  0.5745 -0.2001  0.0818
 4043SOL    HW123591   3.383   1.561   4.507  1.0986 -0.3636  0.8946
 4043SOL    HW223592   3.345   1.597   4.642 -1.0486  1.4068  0.3694
 4044SOL     OW23593   2.664   1.006   2.298 -0.5360  0.7785  0.3791
 4044SOL    HW123594   2.677   1.052   2.215 -0.8490 -1.4584 -0.9132
 4044SOL    HW223595   2.737   1.044   2.347 -0.1413  2.7279 -1.7125
 4045SOL     OW23596   1.038   3.516   9.705  0.5602 -0.5127 -0.3913
 4045SOL    HW123597   0.978   3.530   9.778  1.0621  1.5423 -0.3918
 4045SOL    HW223598   0.974   3.484   9.641  0.1490 -0.8841  0.2073
 4046SOL     OW23599   3.794   3.777   9.045 -0.2573 -0.4097 -0.3609
 4046SOL    HW123600   3.835   3.826   8.974  3.1254 -1.9746  0.5250
 4046SOL    HW223601   3.706   3.814   9.036 -0.2945 -0.8154 -1.5327
 4047SOL     OW23602   4.159   4.649   0.595  0.0978 -0.5363 -0.2163
 4047SOL    HW123603   4.227   4.673   0.658  0.8131 -1.0132 -0.8077
 4047SOL    HW223604   4.186   4.698   0.517 -1.3971  1.1328  0.3134
 4048SOL     OW23605   3.709   0.444   2.134  0.4548  0.3407 -0.2337
 4048SOL    HW123606   3.649   0.518   2.133  0.0649  0.0527  0.9593
 4048SOL    HW223607   3.763   0.466   2.210 -0.1867 -0.3981  0.4362
 4049SOL     OW23608   3.445   3.162   0.609  0.2910 -0.2625 -0.3237
 4049SOL    HW123609   3.512   3.103   0.644  1.4881  0.1634 -1.9326
 4049SOL    HW223610   3.379   3.186   0.675 -0.2690 -2.5170 -0.0637
 4050SOL     OW23611   1.252   4.022  12.380  0.9825  0.7286  0.5250
 4050SOL    HW123612   1.197   3.951  12.347 -1.1865  1.2207  3.0027
 4050SOL    HW223613   1.291   3.982  12.458  0.1655  1.6662  1.4281
 4051SOL     OW23614   0.248   2.454  13.357  0.2067 -0.5681  0.1345
 4051SOL    HW123615   0.176   2.503  13.397  1.2008  1.0039  0.0071
 4051SOL    HW223616   0.207   2.394  13.294 -0.5914 -0.1720  0.2736
 4052SOL     OW23617   3.696   3.769  11.793 -0.2256  0.0474 -0.4113
 4052SOL    HW123618   3.638   3.714  11.739  1.7061 -0.2275 -2.2091
 4052SOL    HW223619   3.704   3.723  11.876 -0.7757 -1.0073 -0.9435
 4053SOL     OW23620   3.672   4.346   7.830 -0.1098  0.7107 -0.7254
 4053SOL    HW123621   3.650   4.332   7.737 -0.9666  0.5593 -0.5043
 4053SOL    HW223622   3.595   4.303   7.867 -0.3248  0.5854 -1.3158
 4054SOL     OW23623   4.015   1.841  17.192 -0.1182 -0.2739 -0.1141
 4054SOL    HW123624   4.016   1.934  17.167  0.1667  0.2424  1.8003
 4054SOL    HW223625   4.024   1.799  17.107 -0.3682  1.2389 -0.8861
 4055SOL     OW23626   3.495   0.584   6.617  0.0110 -0.1616 -0.3135
 4055SOL    HW123627   3.543   0.505   6.592 -2.1101 -1.9400  1.2733
 4055SOL    HW223628   3.424   0.587   6.553  0.9801  0.0808 -1.3732
 4056SOL     OW23629   0.752   3.337   5.723 -0.2237 -0.1041  0.2790
 4056SOL    HW123630   0.757   3.326   5.628 -0.0999  0.1662  0.2554
 4056SOL    HW223631   0.737   3.246   5.748  0.4463  0.1834  1.7180
 4057SOL     OW23632   3.751   2.420  14.958 -0.4355  0.0754 -0.4446
 4057SOL    HW123633   3.803   2.412  15.038 -1.2712 -2.1612 -0.1361
 4057SOL    HW223634   3.667   2.380  14.980  0.4294 -1.4754  0.0086
 4058SOL     OW23635   3.684   4.360   5.551  0.4586  0.5106  0.4205
 4058SOL    HW123636   3.619   4.413   5.505 -0.1059 -1.3846 -0.9698
 4058SOL    HW223637   3.679   4.401   5.638  3.3891 -0.0977  0.8540
 4059SOL     OW23638   2.477   2.194   4.096  0.8705 -0.4423  0.5536
 4059SOL    HW123639   2.567   2.183   4.065  1.1274 -1.9695  1.9176
 4059SOL    HW223640   2.440   2.117   4.054  0.5871 -0.4097  0.7476
 4060SOL     OW23641   3.910   4.532   5.692  0.4359  0.0173  0.0736
 4060SOL    HW123642   3.961   4.456   5.718 -0.6052 -0.3057  1.1804
 4060SOL    HW223643   3.828   4.505   5.733  0.5995 -0.7657 -0.1326
 4061SOL     OW23644   3.749   2.462   5.781 -0.5062 -0.3052  0.5670
 4061SOL    HW123645   3.783   2.373   5.788  1.1257  0.0705 -2.2390
 4061SOL    HW223646   3.749   2.464   5.685  0.0167  1.0058  0.6013
 4062SOL     OW23647   3.773   1.208  14.481 -0.3756  0.2853  0.0869
 4062SOL    HW123648   3.710   1.271  14.516  0.3220  1.6302 -1.0674
 4062SOL    HW223649   3.788   1.238  14.391  0.3944 -0.4755 -0.0377
 4063SOL     OW23650   2.214   3.217   7.464 -0.0817 -0.5432  0.0337
 4063SOL    HW123651   2.283   3.279   7.443  0.9117 -1.3805  0.8207
 4063SOL    HW223652   2.148   3.285   7.477 -0.1209 -0.4410 -0.7100
 4064SOL     OW23653   2.095   3.634   8.925  0.0218 -0.6192 -0.0794
 4064SOL    HW123654   2.035   3.619   8.998 -2.7147  3.0116 -1.5879
 4064SOL    HW223655   2.175   3.666   8.967  1.6942 -5.3887  0.3762
 4065SOL     OW23656   3.635   4.158  16.626 -0.1135 -0.4149 -0.2749
 4065SOL    HW123657   3.625   4.069  16.593 -0.8121 -0.1871 -0.6896
 4065SOL    HW223658   3.623   4.213  16.548  2.2651  1.7479  0.9059
 4066SOL     OW23659   3.868   1.034   9.072 -0.8315 -0.3132  0.2340
 4066SOL    HW123660   3.885   1.036   8.978 -1.0221  0.9643  0.2322
 4066SOL    HW223661   3.909   1.114   9.104 -1.2176  0.6000 -1.5951
 4067SOL     OW23662   3.218   3.374   5.040  0.3555  1.0221 -0.4474
 4067SOL    HW123663   3.145   3.430   5.013  0.4066  0.6536 -1.3591
 4067SOL    HW223664   3.268   3.379   4.959 -0.3114  0.3303 -0.9004
 4068SOL     OW23665   0.747   4.526   7.488  0.3307  0.6332 -0.7151
 4068SOL    HW123666   0.709   4.439   7.493  1.0590  0.3331 -0.3365
 4068SOL    HW223667   0.799   4.510   7.567 -0.6977  2.0336  0.2502
 4069SOL     OW23668   2.871   0.593   2.351  0.1198 -0.1397 -0.1946
 4069SOL    HW123669   2.799   0.628   2.299 -1.6638 -0.1785  2.3020
 4069SOL    HW223670   2.915   0.535   2.288  0.2877 -1.5529  1.2093
 4070SOL     OW23671   0.303   0.142   0.624 -0.1924  0.1176 -0.3855
 4070SOL    HW123672   0.215   0.177   0.611 -0.2932  0.0381  0.0539
 4070SOL    HW223673   0.303   0.082   0.550  1.2461 -0.3545 -0.0089
 4071SOL     OW23674   0.706   1.126   9.567 -0.8875 -0.0482 -0.0388
 4071SOL    HW123675   0.760   1.134   9.487 -0.7315  1.7057  0.2336
 4071SOL    HW223676   0.682   1.219   9.576 -1.0679 -0.3041  1.9169
 4072SOL     OW23677   2.947   3.161   7.737 -0.0732 -0.1009 -0.3130
 4072SOL    HW123678   2.861   3.143   7.773 -0.3194 -0.6132 -1.1696
 4072SOL    HW223679   2.998   3.109   7.799 -1.3602 -0.8855  0.0803
 4073SOL     OW23680   4.524   1.326  16.153 -0.5161  0.2206 -0.0410
 4073SOL    HW123681   4.497   1.272  16.228 -0.4301  1.7136  1.0494
 4073SOL    HW223682   4.488   1.278  16.079  0.5003 -0.7155  0.0596
 4074SOL     OW23683   2.494   0.423   6.794 -0.2830 -0.4848  0.2329
 4074SOL    HW123684   2.422   0.365   6.770 -0.0967 -0.3042 -0.7850
 4074SOL    HW223685   2.449   0.504   6.818  0.3485 -0.2492  0.6331
 4075SOL     OW23686   4.163   3.384   6.752  0.0394  0.2421 -0.3207
 4075SOL    HW123687   4.218   3.461   6.760  2.6770 -1.9204  2.1250
 4075SOL    HW223688   4.223   3.315   6.779 -0.7449 -0.0928  0.5711
 4076SOL     OW23689   0.364   3.516  16.929 -0.1586 -0.4715 -0.0574
 4076SOL    HW123690   0.401   3.583  16.871 -0.8500 -0.3193 -0.3140
 4076SOL    HW223691   0.439   3.502  16.988  2.2017  0.8799 -2.7112
 4077SOL     OW23692   0.972   0.098   1.173  0.4640 -0.7843  0.4124
 4077SOL    HW123693   0.972   0.022   1.232 -0.7746 -0.0824  1.3064
 4077SOL    HW223694   0.944   0.166   1.233 -3.2680 -1.0801 -1.0206
 4078SOL     OW23695   4.670   3.632   0.254 -0.2676 -0.7664 -0.0854
 4078SOL    HW123696   4.587   3.595   0.282 -1.6396  1.4258 -1.2116
 4078SOL    HW223697   4.645   3.722   0.233  0.4666 -0.5142  0.1194
 4079SOL     OW23698   2.671   3.227  11.340  0.3953  0.0642 -0.5863
 4079SOL    HW123699   2.637   3.313  11.363  0.6403  0.5097 -1.8596
 4079SOL    HW223700   2.677   3.194  11.430  2.3295 -0.4088 -0.8835
 4080SOL     OW23701   0.268   4.341  15.783  1.0801 -0.4250  0.0149
 4080SOL    HW123702   0.316   4.260  15.764  1.2787 -0.3655  0.2693
 4080SOL    HW223703   0.227   4.352  15.697 -3.1239 -3.1986  1.6451
 4081SOL     OW23704   1.597   4.137   8.603 -0.2176 -0.3503  0.1327
 4081SOL    HW123705   1.619   4.111   8.693 -0.7588  1.7069  0.8529
 4081SOL    HW223706   1.503   4.147   8.614  0.0213 -0.6192  2.4308
 4082SOL     OW23707   2.707   1.695   0.927  0.0483 -0.5629 -0.3386
 4082SOL    HW123708   2.751   1.626   0.877  0.0723 -0.3571 -0.5961
 4082SOL    HW223709   2.668   1.649   1.002  0.7939 -0.8653 -0.1348
 4083SOL     OW23710   3.613   1.468   8.525 -0.1177 -0.4934  0.0872
 4083SOL    HW123711   3.617   1.376   8.500  0.3695 -0.0675 -1.3816
 4083SOL    HW223712   3.556   1.466   8.602 -0.0246 -1.5787  0.1277
 4084SOL     OW23713   0.481   2.706   5.452  0.3930 -0.6227  0.0457
 4084SOL    HW123714   0.548   2.683   5.517  1.0402  1.9902  0.3167
 4084SOL    HW223715   0.517   2.646   5.386  0.1479 -1.0135  0.2662
 4085SOL     OW23716   0.008   3.299   7.585 -0.3123 -0.2311  0.4429
 4085SOL    HW123717   0.090   3.343   7.566 -0.0825 -1.2657 -1.0419
 4085SOL    HW223718   4.662   3.340   7.526  0.5454  0.3094 -0.1083
 4086SOL     OW23719   2.776   3.817   2.985 -0.5328 -0.3370  0.0232
 4086SOL    HW123720   2.698   3.780   2.943  0.9522 -1.5672 -1.6796
 4086SOL    HW223721   2.838   3.761   2.937 -1.0472 -2.3534  1.6773
 4087SOL     OW23722   1.972   1.623  13.948 -0.3430  0.0811  0.3110
 4087SOL    HW123723   2.067   1.618  13.936 -0.0166 -0.4924  3.0744
 4087SOL    HW223724   1.962   1.703  13.999  2.8883  1.0272 -0.5595
 4088SOL     OW23725   3.570   3.594   7.561  0.6733 -0.5558  0.0804
 4088SOL    HW123726   3.604   3.582   7.650  0.9804 -0.5897 -0.0400
 4088SOL    HW223727   3.637   3.564   7.500  0.8654  0.5838 -0.2663
 4089SOL     OW23728   0.255   3.121   8.848  0.0428  0.2121 -0.3813
 4089SOL    HW123729   0.257   3.105   8.943  0.3898  2.8298  0.0637
 4089SOL    HW223730   0.278   3.037   8.809 -1.1108  0.3906 -1.4422
 4090SOL     OW23731   2.080   2.872   4.610 -0.0676  0.1499  0.4522
 4090SOL    HW123732   2.114   2.802   4.554  1.5988  0.9440  0.4877
 4090SOL    HW223733   1.987   2.879   4.587 -0.0653 -1.7618 -0.1578
 4091SOL     OW23734   1.680   1.273  14.933  0.2477 -0.1911 -0.5350
 4091SOL    HW123735   1.710   1.347  14.879 -0.2952 -0.2239 -0.8753
 4091SOL    HW223736   1.731   1.286  15.014 -1.0623 -1.4648  0.4951
 4092SOL     OW23737   3.272   2.192   6.401 -0.0788 -0.0286 -0.4809
 4092SOL    HW123738   3.326   2.223   6.474 -0.7402  0.2773 -0.1250
 4092SOL    HW223739   3.335   2.149   6.344  1.8430  2.6138 -0.3657
 4093SOL     OW23740   1.398   1.165   7.857 -0.1221  0.1271 -0.7832
 4093SOL    HW123741   1.412   1.073   7.835 -0.9565  0.3459 -2.2746
 4093SOL    HW223742   1.425   1.165   7.948 -0.2017 -1.8042 -0.7638
 4094SOL     OW23743   3.603   0.395  13.991  0.1633 -0.3347  0.0822
 4094SOL    HW123744   3.629   0.478  13.952  0.3484 -1.7151 -2.8076
 4094SOL    HW223745   3.574   0.348  13.912 -1.1606 -0.5611  0.7189
 4095SOL     OW23746   1.572   0.443  13.711  0.5657 -0.2613  0.3758
 4095SOL    HW123747   1.488   0.407  13.682  0.2724  1.4822 -0.9266
 4095SOL    HW223748   1.545   0.496  13.786  2.9649 -0.7547  1.5795
 4096SOL     OW23749   0.544   0.329   3.101 -0.4319  0.5517  0.1112
 4096SOL    HW123750   0.608   0.293   3.039 -2.6568 -1.4526 -1.0101
 4096SOL    HW223751   0.474   0.264   3.102 -1.5883  1.8000 -0.0738
 4097SOL     OW23752   4.692   2.683   9.260 -0.4110  0.0317  0.3353
 4097SOL    HW123753   0.064   2.711   9.280  0.3514 -1.0341 -1.5932
 4097SOL    HW223754   4.693   2.608   9.201 -1.5396  0.8104 -0.6538
 4098SOL     OW23755   4.695   2.442   7.880  0.4445  0.3777 -0.0233
 4098SOL    HW123756   4.658   2.463   7.794  0.2506  1.7441  0.4037
 4098SOL    HW223757   0.026   2.523   7.892  3.7204 -1.9884  2.5737
 4099SOL     OW23758   0.315   0.746   8.571 -0.0355 -0.0815 -0.1151
 4099SOL    HW123759   0.346   0.657   8.586  1.8905  0.7116  0.6206
 4099SOL    HW223760   0.274   0.765   8.656 -0.5293  2.1515 -0.8432
 4100SOL     OW23761   1.943   4.176   7.252  0.2058  0.1751  0.2102
 4100SOL    HW123762   1.968   4.147   7.164  3.0676  1.2702  0.6685
 4100SOL    HW223763   2.004   4.249   7.265  0.4964 -0.0311 -0.0003
 4101SOL     OW23764   0.689   1.726   8.333  0.5208  0.0350 -0.2111
 4101SOL    HW123765   0.684   1.819   8.307  3.2583 -0.0627 -1.1285
 4101SOL    HW223766   0.658   1.683   8.253 -0.1548 -0.4757  0.3278
 4102SOL     OW23767   2.948   0.930   2.303 -0.1144  0.0371  0.1910
 4102SOL    HW123768   2.902   0.948   2.385 -2.3381 -3.2857 -0.3222
 4102SOL    HW223769   3.038   0.938   2.333  0.3496 -2.6810 -0.4289
 4103SOL     OW23770   0.906   4.215   4.183  0.0407 -0.0127  0.0603
 4103SOL    HW123771   0.987   4.169   4.205 -0.9101 -0.3999  2.8268
 4103SOL    HW223772   0.883   4.247   4.271 -1.3758 -2.2772  0.5179
 4104SOL     OW23773   3.295   1.224   8.011 -0.1686 -0.4205  0.5100
 4104SOL    HW123774   3.289   1.317   8.032 -0.1946 -0.5262  0.9661
 4104SOL    HW223775   3.388   1.204   8.006 -0.0671  0.2602 -0.3233
 4105SOL     OW23776   2.044   4.228   6.012 -0.1647  0.3088 -0.1440
 4105SOL    HW123777   2.085   4.231   6.098  1.5843  0.8550 -0.9889
 4105SOL    HW223778   2.031   4.134   6.008  1.5957  0.0531  0.2963
 4106SOL     OW23779   1.037   0.022   9.040 -0.5269  0.4929 -0.3059
 4106SOL    HW123780   1.080   0.072   8.971  1.6148  0.6468  1.1279
 4106SOL    HW223781   0.974   4.689   8.989  1.2640 -1.5248 -0.5189
 4107SOL     OW23782   1.837   4.708   6.026 -0.1415 -0.7671 -0.3056
 4107SOL    HW123783   1.816   0.048   6.099  1.9413  2.9376 -2.6164
 4107SOL    HW223784   1.775   0.014   5.956 -0.8980  0.0385  0.6304
 4108SOL     OW23785   4.183   3.017   9.357 -0.3610 -0.0552  0.5312
 4108SOL    HW123786   4.159   3.108   9.375 -0.5165  0.1124 -0.5071
 4108SOL    HW223787   4.101   2.969   9.370 -0.2260 -0.1666  0.9790
 4109SOL     OW23788   2.853   4.105   4.601  0.1054  0.0420  0.5544
 4109SOL    HW123789   2.833   4.144   4.686  0.4328  0.2217  0.5503
 4109SOL    HW223790   2.898   4.178   4.557 -1.3034  1.7403  1.9264
 4110SOL     OW23791   4.530   1.181   1.486 -0.3336 -0.5617 -0.2777
 4110SOL    HW123792   4.559   1.268   1.460 -1.0898 -0.2320 -0.0261
 4110SOL    HW223793   4.530   1.197   1.581  0.1103 -0.1302 -0.3547
 4111SOL     OW23794   0.317   2.535   4.763 -0.2472  0.2863  0.1160
 4111SOL    HW123795   0.366   2.512   4.685 -0.6551 -2.6448  0.7287
 4111SOL    HW223796   0.231   2.550   4.724 -1.2405 -0.7516  1.8723
 4112SOL     OW23797   3.037   2.726   1.356  0.4276 -0.3967 -0.4449
 4112SOL    HW123798   3.094   2.803   1.358 -1.1720  0.7619  0.4755
 4112SOL    HW223799   2.991   2.717   1.273  1.6994 -0.2146 -1.1723
 4113SOL     OW23800   4.016   3.894  13.783  0.1302 -0.6541 -0.8608
 4113SOL    HW123801   3.934   3.859  13.748  0.9528 -0.7347 -2.7280
 4113SOL    HW223802   3.978   3.972  13.822  1.1825  0.5683 -2.3130
 4114SOL     OW23803   1.766   1.930   3.768 -0.2996  0.2674 -0.2855
 4114SOL    HW123804   1.674   1.935   3.794 -0.3972 -1.0041 -0.3859
 4114SOL    HW223805   1.793   1.889   3.850  2.0163  2.3406  0.0102
 4115SOL     OW23806   2.133   1.956   6.241 -0.0485  0.2396 -0.4008
 4115SOL    HW123807   2.073   1.896   6.285 -1.4438  1.5124 -0.5575
 4115SOL    HW223808   2.090   1.951   6.156  0.3010 -0.5150 -0.5344
 4116SOL     OW23809   2.125   0.532   5.181 -0.1105 -0.0911 -0.6508
 4116SOL    HW123810   2.202   0.477   5.194 -1.9021 -1.9253  2.1911
 4116SOL    HW223811   2.057   0.464   5.181  0.6750 -0.8762 -0.1157
 4117SOL     OW23812   3.309   3.583   6.149 -0.0473 -0.2812  0.2549
 4117SOL    HW123813   3.302   3.501   6.100  1.2679 -1.0708  1.3663
 4117SOL    HW223814   3.308   3.654   6.085 -0.9149 -1.9529 -1.5667
 4118SOL     OW23815   3.021   2.864  13.886 -0.9496 -0.2345 -0.5370
 4118SOL    HW123816   3.107   2.884  13.850 -1.2679  0.0503 -1.1318
 4118SOL    HW223817   3.016   2.909  13.971 -0.2507 -1.7250  0.2954
 4119SOL     OW23818   2.375   2.977   6.775 -0.3411  0.1570  0.0797
 4119SOL    HW123819   2.364   2.999   6.868 -0.7298  0.6550 -0.0857
 4119SOL    HW223820   2.296   2.926   6.755 -0.4759  1.0380 -1.5616
 4120SOL     OW23821   3.582   1.115   7.215 -0.1960  0.0055 -0.1550
 4120SOL    HW123822   3.642   1.169   7.266 -3.2529 -0.4270  3.9440
 4120SOL    HW223823   3.643   1.066   7.159 -0.3330 -2.1803  1.6073
 4121SOL     OW23824   4.103   3.099   2.741 -0.2893 -0.5777  0.4202
 4121SOL    HW123825   4.168   3.094   2.672 -0.1752  0.9075  0.4227
 4121SOL    HW223826   4.160   3.121   2.814 -0.1228  1.0252 -0.2046
 4122SOL     OW23827   2.915   1.258   9.404 -0.0789  0.1926  0.3525
 4122SOL    HW123828   2.827   1.221   9.411  0.5429 -1.6627 -1.5062
 4122SOL    HW223829   2.938   1.296   9.489  0.6086 -0.8255  0.6214
 4123SOL     OW23830   3.911   3.761  17.461  0.4720  0.0309 -0.4300
 4123SOL    HW123831   3.908   3.769  17.366 -0.6008 -0.4970 -0.4431
 4123SOL    HW223832   3.840   3.819  17.490  1.1906  0.0788  1.2641
 4124SOL     OW23833   4.343   0.384   4.108 -0.0184  0.2838  0.1803
 4124SOL    HW123834   4.423   0.353   4.150  0.4178 -1.0680 -1.6538
 4124SOL    HW223835   4.384   0.453   4.056 -0.5873  0.6936  0.2818
 4125SOL     OW23836   3.615   2.205   2.313  0.3834 -0.1881  0.2320
 4125SOL    HW123837   3.701   2.223   2.274 -0.0395  2.3818  0.5080
 4125SOL    HW223838   3.623   2.235   2.403 -0.6715  1.4876 -0.2492
 4126SOL     OW23839   2.373   0.596   6.953 -0.0999  0.2864 -0.2195
 4126SOL    HW123840   2.438   0.660   6.981  0.6455 -0.3988 -0.3734
 4126SOL    HW223841   2.299   0.652   6.974 -0.7485 -1.6640  2.7012
 4127SOL     OW23842   1.612   1.198  16.136  0.1977 -0.4991  0.1355
 4127SOL    HW123843   1.690   1.252  16.149  1.4469 -2.5403  1.0949
 4127SOL    HW223844   1.573   1.202  16.223  1.8939  0.6588  0.8270
 4128SOL     OW23845   2.039   2.360   5.609 -0.1894 -0.1316 -0.1271
 4128SOL    HW123846   2.007   2.429   5.666  0.6355  1.4526 -1.5599
 4128SOL    HW223847   1.985   2.367   5.530 -1.5146  0.7340  0.8810
 4129SOL     OW23848   2.593   2.473   4.483  0.7935 -0.8016  0.2999
 4129SOL    HW123849   2.534   2.416   4.434  1.8723 -0.7416 -1.0777
 4129SOL    HW223850   2.625   2.533   4.416  0.1235 -2.4004 -1.4646
 4130SOL     OW23851   0.880   1.884  16.715  0.4341  0.3142  0.4759
 4130SOL    HW123852   0.935   1.935  16.775  1.3452 -0.5122  0.3440
 4130SOL    HW223853   0.942   1.819  16.681 -1.5240 -0.2209 -2.0047
 4131SOL     OW23854   1.269   3.070  15.707 -0.5179 -0.1992  0.6819
 4131SOL    HW123855   1.208   3.116  15.649  0.0480 -0.4034 -0.0768
 4131SOL    HW223856   1.221   2.988  15.714 -0.0665 -0.5340 -0.1890
 4132SOL     OW23857   2.269   3.789   8.305 -0.2176 -0.2098  0.6919
 4132SOL    HW123858   2.231   3.746   8.382 -2.0550 -0.8417 -0.5852
 4132SOL    HW223859   2.195   3.843   8.277 -1.4206 -3.1847 -1.8358
 4133SOL     OW23860   0.140   2.228  15.010 -0.4580 -0.2186 -0.3447
 4133SOL    HW123861   0.101   2.142  14.991  1.2589 -0.9617 -0.5314
 4133SOL    HW223862   0.178   2.217  15.097 -0.7210 -2.2934 -0.4876
 4134SOL     OW23863   4.675   2.309  16.646  1.3180  0.0162  0.3798
 4134SOL    HW123864   0.005   2.340  16.723  2.4609 -0.1013 -0.2731
 4134SOL    HW223865   0.040   2.281  16.606  0.8271 -1.5885  0.5217
 4135SOL     OW23866   2.780   4.208   6.105  1.0718 -0.1490 -0.6932
 4135SOL    HW123867   2.706   4.212   6.166  0.7594 -0.7926 -1.0276
 4135SOL    HW223868   2.833   4.275   6.147  1.8416  0.9263 -3.4246
 4136SOL     OW23869   4.382   2.067   1.053 -0.0598  0.3091 -0.1689
 4136SOL    HW123870   4.473   2.049   1.029  0.5665  0.9709  1.6953
 4136SOL    HW223871   4.337   2.020   0.983  0.2008 -1.1691  0.6610
 4137SOL     OW23872   3.865   4.452  10.037 -0.2138  0.0122 -0.1100
 4137SOL    HW123873   3.888   4.363  10.062  0.1125 -0.1041 -0.8330
 4137SOL    HW223874   3.912   4.453   9.953  0.4529  1.5673  0.2715
 4138SOL     OW23875   0.871   3.746   4.980 -0.5330 -0.8926 -0.3842
 4138SOL    HW123876   0.898   3.799   5.055  0.7559 -1.7778 -0.2120
 4138SOL    HW223877   0.857   3.664   5.028 -1.4587  0.5259  1.7600
 4139SOL     OW23878   0.866   1.313   7.512  0.6968  0.5841  0.4348
 4139SOL    HW123879   0.910   1.398   7.516  3.0473 -0.4843 -2.4703
 4139SOL    HW223880   0.838   1.313   7.421  0.7523 -1.8507  0.4244
 4140SOL     OW23881   0.362   4.644   9.107 -0.0521 -0.3768 -0.3844
 4140SOL    HW123882   0.425   4.597   9.162 -0.0906 -0.0889 -0.0864
 4140SOL    HW223883   0.313   4.690   9.175  2.6314  2.3570 -0.2885
 4141SOL     OW23884   2.262   2.063   4.399 -0.2114 -0.4459 -0.1883
 4141SOL    HW123885   2.250   1.969   4.412 -0.6101 -0.4497 -0.6119
 4141SOL    HW223886   2.271   2.064   4.303  0.6388  1.0781 -0.1021
 4142SOL     OW23887   3.160   3.214   3.271 -0.4109 -0.9655 -0.4949
 4142SOL    HW123888   3.206   3.271   3.209 -0.8034  0.9348  0.9485
 4142SOL    HW223889   3.070   3.243   3.257 -0.4124 -1.0416 -0.6354
 4143SOL     OW23890   1.766   3.440  15.354  0.0104  0.0773 -0.4387
 4143SOL    HW123891   1.842   3.384  15.341  0.5167  0.5489  0.4902
 4143SOL    HW223892   1.816   3.517  15.380  1.9873 -1.4679  0.3124
 4144SOL     OW23893   3.366   1.311   1.874  0.7103 -0.4356  0.3637
 4144SOL    HW123894   3.402   1.231   1.837  0.0647  0.9587 -3.3093
 4144SOL    HW223895   3.429   1.315   1.947  1.2522 -1.5001 -0.0552
 4145SOL     OW23896   0.157   3.317   6.404 -0.2813 -1.5326 -0.6899
 4145SOL    HW123897   0.132   3.228   6.429  1.9619 -1.7670  0.6631
 4145SOL    HW223898   0.219   3.355   6.466  0.7279 -0.3761 -2.3932
 4146SOL     OW23899   2.042   4.216   1.620 -0.1601 -0.1839  0.1716
 4146SOL    HW123900   1.995   4.281   1.568 -2.2099 -0.4220  1.7316
 4146SOL    HW223901   2.118   4.198   1.564  0.3011 -1.1247  1.0956
 4147SOL     OW23902   4.155   4.705   6.522 -0.3509  0.2931  0.3259
 4147SOL    HW123903   4.145   0.079   6.495  3.1660  0.8543  0.9188
 4147SOL    HW223904   4.157   4.714   6.618  1.0436 -0.1595  0.3466
 4148SOL     OW23905   3.010   4.654   2.782 -0.7682 -0.2877  0.3621
 4148SOL    HW123906   3.104   4.642   2.797 -0.8679  0.0475  1.2606
 4148SOL    HW223907   2.980   4.601   2.856  1.3125  1.1636  2.2803
 4149SOL     OW23908   4.033   1.985   0.742 -0.0985  0.0382  0.4043
 4149SOL    HW123909   3.976   1.957   0.671  1.2404  0.0890 -0.6941
 4149SOL    HW223910   4.047   1.900   0.784 -0.7088 -1.8638 -3.2488
 4150SOL     OW23911   3.126   2.593   5.211 -0.5202 -0.5531 -0.2364
 4150SOL    HW123912   3.036   2.598   5.179 -0.9725  0.6467  1.2185
 4150SOL    HW223913   3.177   2.596   5.130  1.9655  0.9706  1.3796
 4151SOL     OW23914   0.009   0.902  16.428 -0.5308  0.8392 -0.0797
 4151SOL    HW123915   4.666   0.870  16.362 -2.6010  2.1565  1.1942
 4151SOL    HW223916   0.083   0.845  16.407 -0.9550  0.1716  0.2258
 4152SOL     OW23917   2.942   4.589   3.878  0.0317  0.3435 -0.1124
 4152SOL    HW123918   2.937   4.494   3.887  1.7633  0.2545 -0.0711
 4152SOL    HW223919   2.974   4.604   3.788  2.2699  1.0587  0.8032
 4153SOL     OW23920   2.325   0.761   3.450 -0.0299 -0.2187 -0.0235
 4153SOL    HW123921   2.301   0.848   3.481  1.4233  0.3512 -0.4850
 4153SOL    HW223922   2.409   0.772   3.405 -1.3350 -0.8787 -2.5859
 4154SOL     OW23923   3.583   1.367   5.525  0.0905 -0.0201 -0.0321
 4154SOL    HW123924   3.628   1.420   5.459  0.5990 -2.0188 -1.2798
 4154SOL    HW223925   3.593   1.413   5.608 -0.9881 -1.2152  0.7473
 4155SOL     OW23926   4.606   4.298   7.582 -0.4827 -0.2285 -0.5536
 4155SOL    HW123927   4.583   4.267   7.670  0.4007  1.1353  0.1620
 4155SOL    HW223928   4.523   4.280   7.539  0.5007 -1.3268 -2.0004
 4156SOL     OW23929   1.850   3.191  11.910 -0.2727 -0.8079  0.3103
 4156SOL    HW123930   1.883   3.264  11.963  0.3007 -0.9457  0.1449
 4156SOL    HW223931   1.916   3.122  11.918 -0.4555 -0.9845  0.2923
 4157SOL     OW23932   1.741   4.347  10.214 -0.5093  0.2672 -0.3952
 4157SOL    HW123933   1.667   4.314  10.165  0.9444 -2.3941 -0.8036
 4157SOL    HW223934   1.697   4.428  10.242  1.4207  0.3487  2.5052
 4158SOL     OW23935   2.847   4.632   3.229  0.0290  0.5305  0.0086
 4158SOL    HW123936   2.756   4.660   3.214 -0.6743 -1.0969  1.1378
 4158SOL    HW223937   2.896   4.714   3.227  0.6871  0.1729  1.5164
 4159SOL     OW23938   2.485   3.433   2.805  0.0087  0.0944  0.2803
 4159SOL    HW123939   2.491   3.493   2.730 -2.4253 -0.3488 -0.2832
 4159SOL    HW223940   2.451   3.356   2.760  3.6293  0.1157 -2.5276
 4160SOL     OW23941   4.084   1.660   4.848  0.0252 -0.2126  0.0943
 4160SOL    HW123942   4.005   1.698   4.810  0.1048 -1.2244 -1.0822
 4160SOL    HW223943   4.112   1.594   4.785  0.7411  0.9704 -0.8180
 4161SOL     OW23944   0.296   3.357   8.452  0.4423  0.0246 -0.2497
 4161SOL    HW123945   0.347   3.354   8.533 -0.5473 -0.1850  0.3556
 4161SOL    HW223946   0.205   3.353   8.480 -0.9183  0.3842 -4.6160
 4162SOL     OW23947   1.376   3.368  14.837 -0.0494 -0.1821  0.6427
 4162SOL    HW123948   1.415   3.289  14.799  1.8086 -0.3840  2.9021
 4162SOL    HW223949   1.457   3.418  14.830 -0.1562 -0.0796  0.1471
 4163SOL     OW23950   0.824   0.641   9.090  0.1131  0.2668  0.0501
 4163SOL    HW123951   0.773   0.585   9.032  1.5724 -1.2102  0.1922
 4163SOL    HW223952   0.753   0.668   9.149  1.9953  0.2411  2.3548
 4164SOL     OW23953   0.258   3.824   7.037 -0.5223 -0.3583  0.1823
 4164SOL    HW123954   0.199   3.858   7.104  0.4756 -1.4348  1.6130
 4164SOL    HW223955   0.218   3.837   6.950 -1.1280 -1.8418  0.2281
 4165SOL     OW23956   2.631   2.514   6.047 -0.6140 -0.7027  0.1520
 4165SOL    HW123957   2.698   2.566   6.090  0.6220 -0.9536 -1.4943
 4165SOL    HW223958   2.683   2.487   5.972 -1.0178 -0.7763 -0.1022
 4166SOL     OW23959   1.262   1.367   4.999  0.3511 -0.1664 -0.4595
 4166SOL    HW123960   1.278   1.401   4.911  1.6290 -1.0312 -0.5552
 4166SOL    HW223961   1.345   1.394   5.039  0.8190 -1.4471 -0.5802
 4167SOL     OW23962   2.224   0.994  13.244 -0.2714 -0.6740  0.6404
 4167SOL    HW123963   2.256   1.072  13.291 -0.4776  0.5811 -1.2965
 4167SOL    HW223964   2.231   0.932  13.316  0.5661 -0.3593  0.8309
 4168SOL     OW23965   4.320   1.431   4.933 -0.0237  0.4036  0.1041
 4168SOL    HW123966   4.344   1.480   5.012  1.1476 -0.2549  0.1491
 4168SOL    HW223967   4.244   1.385   4.968  0.1307  0.4681  0.5238
 4169SOL     OW23968   1.267   0.799  11.257  0.4241  0.0202 -0.3034
 4169SOL    HW123969   1.310   0.778  11.174 -0.3109 -1.6966 -0.2346
 4169SOL    HW223970   1.240   0.710  11.279  0.8357  0.0457  0.2804
 4170SOL     OW23971   1.678   1.876   5.177 -0.1425 -0.2770 -0.3696
 4170SOL    HW123972   1.748   1.932   5.142 -0.2894 -1.4907 -2.6417
 4170SOL    HW223973   1.672   1.822   5.098  1.9645 -0.7806 -0.1804
 4171SOL     OW23974   4.590   3.144   3.364 -0.0343  0.0237 -0.2406
 4171SOL    HW123975   4.646   3.108   3.433  0.9300 -1.8634 -1.9846
 4171SOL    HW223976   4.605   3.084   3.290 -1.1884 -1.6376  0.8556
 4172SOL     OW23977   3.469   3.453  13.208  0.5737 -0.5289 -0.2079
 4172SOL    HW123978   3.447   3.495  13.125 -0.2384  2.6716  1.6421
 4172SOL    HW223979   3.549   3.498  13.233 -0.0027  0.6715 -0.5552
 4173SOL     OW23980   0.734   1.481   6.273 -0.1172 -0.0904 -0.3205
 4173SOL    HW123981   0.754   1.388   6.268  0.5272  0.1258 -1.6258
 4173SOL    HW223982   0.688   1.488   6.357  0.0149  0.2063 -0.2702
 4174SOL     OW23983   3.557   3.433  15.682  0.1693  0.1961 -0.0002
 4174SOL    HW123984   3.642   3.424  15.725  0.1425 -0.8646 -0.1739
 4174SOL    HW223985   3.590   3.466  15.598 -3.7631 -1.6061 -2.2623
 4175SOL     OW23986   3.924   4.594   7.902  0.2014 -0.3153 -0.0890
 4175SOL    HW123987   3.901   4.537   7.976  0.4475  0.7466  0.7973
 4175SOL    HW223988   3.911   4.677   7.948  0.1332 -0.3713 -0.0057
 4176SOL     OW23989   3.119   3.093   5.070  0.4372  0.7611 -0.1580
 4176SOL    HW123990   3.188   3.080   5.134  2.3183 -1.2245 -2.5846
 4176SOL    HW223991   3.143   3.168   5.016  1.0652  0.1745 -0.6864
 4177SOL     OW23992   2.481   1.929   1.881  0.2638  0.0258  0.0959
 4177SOL    HW123993   2.432   1.904   1.959 -0.1871  2.8742  0.7374
 4177SOL    HW223994   2.409   1.957   1.825 -0.5333 -1.3361  0.4400
 4178SOL     OW23995   0.551   0.556   7.767  0.8168 -0.2183 -0.2796
 4178SOL    HW123996   0.552   0.470   7.809  0.7761 -0.5210 -0.9092
 4178SOL    HW223997   0.484   0.543   7.700  0.9816 -0.8309 -0.3208
 4179SOL     OW23998   3.244   0.479   6.447  0.0078  0.0389  0.1759
 4179SOL    HW123999   3.322   0.471   6.393 -0.2844 -1.0142 -0.0913
 4179SOL    HW224000   3.172   0.472   6.385  0.2209 -1.2166  0.0854
 4180SOL     OW24001   2.295   1.934   4.167 -0.1396 -0.7667  0.8173
 4180SOL    HW124002   2.351   1.924   4.090  0.1841 -0.0258  0.9597
 4180SOL    HW224003   2.321   1.856   4.216  0.2846 -0.5445  0.9452
 4181SOL     OW24004   2.478   2.908   6.380  0.2097 -0.1128  0.1233
 4181SOL    HW124005   2.408   2.848   6.354 -1.9005  2.4244 -0.0764
 4181SOL    HW224006   2.501   2.876   6.467  0.8319  0.5237  0.1941
 4182SOL     OW24007   3.776   3.722   8.344 -0.4716  0.8669 -0.0496
 4182SOL    HW124008   3.800   3.774   8.268  0.4499  1.8586  0.9117
 4182SOL    HW224009   3.747   3.650   8.288  3.7601  0.3787 -1.6493
 4183SOL     OW24010   2.322   2.843   3.149 -0.1545  0.1287 -0.2557
 4183SOL    HW124011   2.389   2.865   3.084 -1.2813  1.4638 -0.9636
 4183SOL    HW224012   2.380   2.778   3.187  1.8022  1.4121 -1.0527
 4184SOL     OW24013   0.388   2.791   1.931  0.1265 -0.2374  0.6500
 4184SOL    HW124014   0.338   2.795   1.850  2.0308  1.4553 -0.4449
 4184SOL    HW224015   0.352   2.868   1.975 -1.0420 -1.4638  1.8406
 4185SOL     OW24016   0.401   4.416   6.540 -0.4550 -0.3148 -0.2512
 4185SOL    HW124017   0.492   4.433   6.518 -0.6487  1.3954  0.3055
 4185SOL    HW224018   0.357   4.494   6.573 -0.2297 -0.5861  0.6866
 4186SOL     OW24019   2.694   2.536   6.757 -0.4215  0.6512 -0.1051
 4186SOL    HW124020   2.778   2.494   6.776  0.0257  1.8038  0.4726
 4186SOL    HW224021   2.718   2.627   6.775  0.0347  0.6386 -0.6337
 4187SOL     OW24022   3.219   1.704   9.146  0.7189  0.0914 -0.2340
 4187SOL    HW124023   3.253   1.770   9.207  1.9521  1.0432 -1.9448
 4187SOL    HW224024   3.284   1.710   9.075  1.8446  0.7161  0.8490
 4188SOL     OW24025   4.374   0.683   3.559 -0.4900  0.2651  0.1619
 4188SOL    HW124026   4.300   0.635   3.522 -0.4429  0.6101 -0.3868
 4188SOL    HW224027   4.321   0.759   3.583 -1.5527  0.6113 -3.2555
 4189SOL     OW24028   3.693   2.797   4.763  0.5439  0.2297  0.0889
 4189SOL    HW124029   3.713   2.838   4.847  1.5423  0.9986 -0.5109
 4189SOL    HW224030   3.662   2.874   4.714 -1.4545 -3.5180 -4.5250
 4190SOL     OW24031   2.420   0.570   2.097  0.1832 -0.4047 -0.6310
 4190SOL    HW124032   2.331   0.571   2.061 -0.7304  1.4656  1.7033
 4190SOL    HW224033   2.452   0.484   2.072  0.7233  0.2645 -2.2808
 4191SOL     OW24034   3.537   2.258  12.470  0.4126  0.5429 -0.1452
 4191SOL    HW124035   3.514   2.224  12.383  0.8082  0.2506 -0.1344
 4191SOL    HW224036   3.585   2.335  12.438  0.1646  0.6073 -0.3614
 4192SOL     OW24037   0.629   0.015   3.318 -0.0423 -0.2976 -0.0339
 4192SOL    HW124038   0.646   0.026   3.412 -1.1186 -2.5141  0.4102
 4192SOL    HW224039   0.536   4.710   3.318 -0.3172  0.8155  1.8056
 4193SOL     OW24040   3.425   0.514  12.085  0.2870  0.0442  0.1122
 4193SOL    HW124041   3.469   0.434  12.056  0.1188 -0.7889  2.1627
 4193SOL    HW224042   3.465   0.580  12.029 -0.7634  2.1987  1.9202
 4194SOL     OW24043   3.021   0.770   7.994  0.0894  0.3860  0.3804
 4194SOL    HW124044   2.985   0.858   7.986  0.6791  1.0459  5.3634
 4194SOL    HW224045   3.110   0.773   8.030  0.0488  0.8806  0.4417
 4195SOL     OW24046   0.740   2.745  16.964  0.3418  0.1460 -0.2842
 4195SOL    HW124047   0.667   2.805  16.945  0.0401 -0.3379 -0.6569
 4195SOL    HW224048   0.698   2.659  16.965 -1.0787  0.8328 -0.4005
 4196SOL     OW24049   0.065   0.222   4.657  0.5259 -0.3397  0.1478
 4196SOL    HW124050   0.046   0.131   4.635  0.0391  0.3643 -2.3132
 4196SOL    HW224051   4.713   0.275   4.617 -0.4156 -1.4839  0.2687
 4197SOL     OW24052   1.322   0.578   8.256  0.0871 -0.2055  0.0434
 4197SOL    HW124053   1.338   0.507   8.193  0.0520 -2.6316  2.7743
 4197SOL    HW224054   1.294   0.525   8.331 -0.9873 -1.4785 -1.2489
 4198SOL     OW24055   4.567   2.197   3.956  0.6365 -0.0846 -0.0242
 4198SOL    HW124056   4.663   2.193   3.949  0.7217  0.3077  0.8388
 4198SOL    HW224057   4.550   2.102   3.951  0.4210 -0.1231  1.3759
 4199SOL     OW24058   3.416   3.985  17.463 -0.0783 -0.2148  0.0949
 4199SOL    HW124059   3.386   3.896  17.481 -1.5362  0.3155  0.3027
 4199SOL    HW224060   3.339   4.020  17.417 -0.7887  0.2095  1.6052
 4200SOL     OW24061   2.288   2.880   7.856 -0.2898 -0.0436  0.8480
 4200SOL    HW124062   2.295   2.807   7.794  0.6762  1.2199 -0.5181
 4200SOL    HW224063   2.202   2.915   7.832 -1.2552 -0.4690  3.6781
 4201SOL     OW24064   4.019   0.269   8.236 -0.2899 -0.6130  0.1125
 4201SOL    HW124065   4.051   0.358   8.255  0.8668 -0.7906 -0.9589
 4201SOL    HW224066   4.032   0.270   8.141 -1.2806  0.3167 -0.0211
 4202SOL     OW24067   3.846   2.387   3.416  0.2689  0.0069  0.1481
 4202SOL    HW124068   3.915   2.451   3.400  0.5968 -0.4784 -0.3719
 4202SOL    HW224069   3.901   2.320   3.457  1.5797 -1.3133 -3.7077
 4203SOL     OW24070   2.591   3.611   3.008 -0.3289 -0.8568 -0.5783
 4203SOL    HW124071   2.570   3.541   2.945  0.6320 -1.9612  0.3164
 4203SOL    HW224072   2.668   3.573   3.051  0.4239 -1.0010 -2.0316
 4204SOL     OW24073   4.076   2.540   3.357  0.3240  0.1356  0.1394
 4204SOL    HW124074   4.136   2.591   3.303 -0.2748  1.4381  0.7187
 4204SOL    HW224075   4.128   2.533   3.438  0.6632 -0.3223 -0.1170
 4205SOL     OW24076   4.491   3.184   3.023 -0.1065 -0.0912 -0.0640
 4205SOL    HW124077   4.474   3.260   2.967 -0.6075 -0.7884 -0.8606
 4205SOL    HW224078   4.410   3.133   3.016 -0.7689  0.8818  0.5911
 4206SOL     OW24079   0.096   0.034   1.388  0.0170 -0.4401 -0.5585
 4206SOL    HW124080   0.098   0.065   1.297 -1.2457  1.8827  0.1963
 4206SOL    HW224081   0.111   4.658   1.379  1.3597 -0.1866 -0.8901
 4207SOL     OW24082   4.080   0.064   3.355 -0.1477  0.4279  1.0368
 4207SOL    HW124083   4.051   0.155   3.349 -1.1268  0.0664  0.2271
 4207SOL    HW224084   4.010   0.034   3.413 -1.5225  0.8663 -0.3799
 4208SOL     OW24085   2.395   3.898   5.478  1.0142  0.1149  0.0360
 4208SOL    HW124086   2.341   3.960   5.428 -0.5149 -2.9908 -2.1254
 4208SOL    HW224087   2.465   3.862   5.425  0.1441  0.0604 -1.0856
 4209SOL     OW24088   3.088   1.771  11.844  0.0014 -0.3677  0.0995
 4209SOL    HW124089   3.046   1.856  11.829 -0.0655 -0.1652  1.4354
 4209SOL    HW224090   3.080   1.735  11.755 -2.2031 -0.1028  0.2091
 4210SOL     OW24091   0.847   1.717   7.774 -0.2800 -0.0647 -0.0032
 4210SOL    HW124092   0.764   1.764   7.772  0.1210  0.6321 -0.5173
 4210SOL    HW224093   0.813   1.629   7.784 -0.2145 -0.1996 -0.9620
 4211SOL     OW24094   2.810   4.173  10.807 -0.5349 -0.0438  0.0709
 4211SOL    HW124095   2.764   4.185  10.889  0.8425  1.4193  0.6434
 4211SOL    HW224096   2.776   4.250  10.761  1.8138  1.3337  0.6519
 4212SOL     OW24097   0.722   2.657   8.126 -0.2427 -0.1305  0.0114
 4212SOL    HW124098   0.716   2.575   8.176  1.0641 -0.4889 -0.4364
 4212SOL    HW224099   0.634   2.659   8.087 -0.1696  0.8287 -0.1175
 4213SOL     OW24100   2.889   3.911  11.095  0.3168  0.2539  0.5537
 4213SOL    HW124101   2.822   3.948  11.153 -1.1464 -0.9455 -0.3577
 4213SOL    HW224102   2.849   3.905  11.008  4.0326 -0.5467 -1.1063
 4214SOL     OW24103   1.691   1.068   7.944  0.0563  0.2108  0.5151
 4214SOL    HW124104   1.659   1.084   8.033  0.9863  1.5831  0.5951
 4214SOL    HW224105   1.696   0.972   7.940 -1.3739  0.1638 -0.1280
 4215SOL     OW24106   3.819   2.752   5.737 -0.1320  0.3675  0.2012
 4215SOL    HW124107   3.866   2.733   5.818  0.4487  1.2300  0.0740
 4215SOL    HW224108   3.740   2.699   5.745  1.0983 -1.5694 -0.6213
 4216SOL     OW24109   1.997   3.297  15.348 -0.0522  0.5215  0.1928
 4216SOL    HW124110   2.065   3.336  15.292  0.0291 -2.8977 -2.0856
 4216SOL    HW224111   2.047   3.268  15.424  0.7171  2.3570  0.3888
 4217SOL     OW24112   3.963   3.370  14.211  0.4740  0.1466  0.0512
 4217SOL    HW124113   3.957   3.438  14.145 -1.8564  0.2826  0.4080
 4217SOL    HW224114   4.051   3.335  14.198  0.5767  0.7235 -0.7654
 4218SOL     OW24115   2.738   0.937  16.250  0.7359 -0.1998 -0.0310
 4218SOL    HW124116   2.674   0.988  16.201  1.3208  0.9487  0.4024
 4218SOL    HW224117   2.792   0.999  16.300 -0.6424 -0.0319  1.2617
 4219SOL     OW24118   1.465   4.273   8.138 -0.4648 -0.5784  0.2449
 4219SOL    HW124119   1.509   4.288   8.222  0.5849 -0.5428 -0.3163
 4219SOL    HW224120   1.407   4.201   8.162 -0.3320 -1.0708 -0.9297
 4220SOL     OW24121   0.808   1.515   6.961 -0.2631  0.4764 -0.1135
 4220SOL    HW124122   0.767   1.574   7.025 -2.2976 -1.5854  0.4529
 4220SOL    HW224123   0.900   1.539   6.973  0.0958 -0.6997 -0.5096
 4221SOL     OW24124   1.176   1.271   5.275 -0.5161  0.6204  0.2258
 4221SOL    HW124125   1.093   1.316   5.260 -1.0208 -0.5784 -0.6130
 4221SOL    HW224126   1.208   1.296   5.188  1.7133  1.5148  1.3257
 4222SOL     OW24127   4.168   3.712  11.711 -0.1179  0.0863 -0.2108
 4222SOL    HW124128   4.196   3.802  11.696 -0.3127  0.4902  1.7988
 4222SOL    HW224129   4.227   3.687  11.782  0.3831  1.4736 -0.1396
 4223SOL     OW24130   1.646   3.791   3.362 -0.9648  0.3107 -0.0941
 4223SOL    HW124131   1.670   3.879   3.334 -0.2868  0.3031  0.4738
 4223SOL    HW224132   1.688   3.741   3.293 -1.6499  0.4258 -0.5980
 4224SOL     OW24133   1.005   0.007   8.129 -0.0399  0.6008 -0.6729
 4224SOL    HW124134   0.993   4.642   8.175 -0.7179  1.3883  0.5638
 4224SOL    HW224135   1.069   0.056   8.182  0.2690 -1.1941  0.6393
 4225SOL     OW24136   4.556   4.064   3.485  0.2667 -0.1492 -0.6113
 4225SOL    HW124137   4.594   4.054   3.398 -1.4579  0.0280 -1.3960
 4225SOL    HW224138   4.465   4.048   3.460 -0.8942  2.0066  2.1364
 4226SOL     OW24139   2.544   4.021  13.331  0.3673  0.4161  0.0700
 4226SOL    HW124140   2.545   3.980  13.417 -0.2683  0.2506 -0.0047
 4226SOL    HW224141   2.452   4.045  13.331  0.4303  0.6613 -0.3565
 4227SOL     OW24142   1.222   3.030   1.687  0.2681 -0.1481  0.2569
 4227SOL    HW124143   1.202   3.096   1.620  1.7827  0.0523  0.0051
 4227SOL    HW224144   1.303   3.059   1.729  0.4879 -3.2277  1.9384
 4228SOL     OW24145   1.436   3.161   1.871  0.3919  0.2767 -0.4070
 4228SOL    HW124146   1.484   3.088   1.910  1.4568  1.4081  0.3969
 4228SOL    HW224147   1.421   3.206   1.954  1.0003  2.1388 -1.3024
 4229SOL     OW24148   0.927   1.627   5.282  0.5249 -0.0463  0.2002
 4229SOL    HW124149   0.833   1.636   5.261  0.9110  2.7190 -0.3658
 4229SOL    HW224150   0.930   1.534   5.304 -0.1579 -0.0062  0.4584
 4230SOL     OW24151   2.923   4.312  10.285  0.2124 -0.0778  0.0367
 4230SOL    HW124152   2.967   4.230  10.263  1.2209  0.6378 -0.6416
 4230SOL    HW224153   2.929   4.319  10.380  1.1356  0.3832 -0.0524
 4231SOL     OW24154   3.299   4.276   6.266 -0.7275 -0.4108  0.2366
 4231SOL    HW124155   3.219   4.232   6.295 -0.6761 -0.8712 -0.3002
 4231SOL    HW224156   3.343   4.303   6.346 -1.1294  1.0145 -0.0198
 4232SOL     OW24157   0.109   4.531   0.834  0.5228 -0.0740 -0.0111
 4232SOL    HW124158   0.127   4.480   0.913  0.9373 -2.4454 -1.6233
 4232SOL    HW224159   0.122   4.619   0.869  1.7190 -0.4543  0.4799
 4233SOL     OW24160   3.479   1.789   3.449  0.0860 -0.6830  0.3401
 4233SOL    HW124161   3.460   1.697   3.430  0.6006 -0.7004 -0.1054
 4233SOL    HW224162   3.563   1.805   3.404 -0.5472 -1.1003 -0.9887
 4234SOL     OW24163   0.942   4.107   2.095  0.7457  0.1575 -0.0546
 4234SOL    HW124164   0.946   4.198   2.125  1.3972  0.2409 -0.3989
 4234SOL    HW224165   0.899   4.117   2.011  0.9802 -1.5744 -0.3808
 4235SOL     OW24166   0.730   3.690   9.708  0.4187  0.3666 -0.1741
 4235SOL    HW124167   0.786   3.634   9.762  1.3632 -0.5116 -2.0638
 4235SOL    HW224168   0.708   3.749   9.780  0.2664  0.0709  0.0230
 4236SOL     OW24169   0.978   4.237   5.605  0.5179  0.5720  0.2244
 4236SOL    HW124170   0.964   4.329   5.628 -2.2112  0.1082  0.4714
 4236SOL    HW224171   1.036   4.244   5.529 -0.2822  2.6530 -0.2100
 4237SOL     OW24172   2.624   3.037  10.045 -0.1501 -0.3155 -0.7333
 4237SOL    HW124173   2.544   2.987  10.058 -0.7647  0.7004 -0.6842
 4237SOL    HW224174   2.590   3.117  10.085 -1.2132 -0.6654 -0.9468
 4238SOL     OW24175   3.335   1.350  14.338  0.4223 -0.5074  0.0737
 4238SOL    HW124176   3.328   1.299  14.257 -1.4085 -0.0437 -0.0733
 4238SOL    HW224177   3.279   1.306  14.401 -0.4559  0.0764 -0.2877
 4239SOL     OW24178   2.707   0.394   3.705 -0.6611  0.0828 -0.0818
 4239SOL    HW124179   2.711   0.472   3.650  0.7004  1.1412  1.5307
 4239SOL    HW224180   2.613   0.390   3.723 -1.0059 -1.7433 -2.2600
 4240SOL     OW24181   2.096   1.863  14.820  0.3932  0.2721 -0.2472
 4240SOL    HW124182   2.156   1.828  14.887  0.4365 -1.4629 -1.1840
 4240SOL    HW224183   2.010   1.843  14.856 -0.2908  1.4174 -1.2530
 4241SOL     OW24184   0.495   0.999   3.812 -0.3275  0.2974  0.1652
 4241SOL    HW124185   0.484   0.904   3.825  1.5694 -0.2958 -2.4714
 4241SOL    HW224186   0.513   1.012   3.905  0.9923  1.8752 -0.3104
 4242SOL     OW24187   1.617   3.935   8.401 -0.2083 -0.3631  0.2209
 4242SOL    HW124188   1.621   4.012   8.343 -0.8814 -1.1274 -0.8383
 4242SOL    HW224189   1.614   3.984   8.483 -2.7836 -0.1925  0.0172
 4243SOL     OW24190   1.538   3.531   7.958  0.2976 -0.4189 -0.0003
 4243SOL    HW124191   1.599   3.552   7.887  0.1577  3.5301  1.1058
 4243SOL    HW224192   1.601   3.497   8.022 -1.2154 -0.8093  1.2813
 4244SOL     OW24193   3.873   3.281   7.336 -0.1363  0.6021  0.5131
 4244SOL    HW124194   3.924   3.339   7.392 -1.6035 -0.2816  2.7451
 4244SOL    HW224195   3.787   3.325   7.341 -0.2111  0.6853 -1.4725
 4245SOL     OW24196   3.799   2.266   3.726  0.3354 -1.1277  0.1938
 4245SOL    HW124197   3.837   2.236   3.643  1.8173  0.8321  0.1673
 4245SOL    HW224198   3.724   2.207   3.725 -0.8500  0.4068 -0.9977
 4246SOL     OW24199   1.396   3.672   8.701 -0.4005 -0.1398 -0.9407
 4246SOL    HW124200   1.385   3.577   8.707  0.8217 -0.0151  2.7524
 4246SOL    HW224201   1.472   3.666   8.642  1.1173 -2.2673  1.2610
 4247SOL     OW24202   4.060   3.558  14.784  0.1632  0.6525 -0.0826
 4247SOL    HW124203   3.985   3.533  14.730  0.0385 -1.6334  1.1429
 4247SOL    HW224204   4.038   3.507  14.862 -1.6508 -0.1674 -1.1185
 4248SOL     OW24205   4.714   1.995  15.002  0.2688  0.0930 -0.1233
 4248SOL    HW124206   4.696   1.983  14.909 -1.0877 -0.7232  0.2512
 4248SOL    HW224207   4.629   2.000  15.046 -0.1705 -2.2462 -0.6893
 4249SOL     OW24208   4.237   0.614  10.896  0.1256 -0.0513  0.3795
 4249SOL    HW124209   4.301   0.556  10.854 -0.5498  0.1411 -0.9209
 4249SOL    HW224210   4.167   0.556  10.927 -0.0909  0.2993  0.5453
 4250SOL     OW24211   2.578   0.735   3.250 -0.6358 -0.0200 -0.2806
 4250SOL    HW124212   2.596   0.657   3.197 -0.8525  0.7367 -1.4643
 4250SOL    HW224213   2.506   0.777   3.204  1.0831  0.1788 -2.7921
 4251SOL     OW24214   0.431   2.650   6.873 -0.4293 -0.6554  0.4267
 4251SOL    HW124215   0.418   2.573   6.818 -0.2106  0.7645 -1.6454
 4251SOL    HW224216   0.346   2.695   6.871 -0.2358 -0.3681 -1.6222
 4252SOL     OW24217   3.806   1.016  12.445 -0.1740 -0.0079 -0.1589
 4252SOL    HW124218   3.795   1.041  12.537 -1.8271 -1.1950 -0.0348
 4252SOL    HW224219   3.751   0.937  12.447 -0.9114  0.5496  1.7817
 4253SOL     OW24220   4.062   3.122   8.087  0.1809  0.3664 -0.2425
 4253SOL    HW124221   4.153   3.092   8.090  0.1817  0.5234  1.2064
 4253SOL    HW224222   4.026   3.052   8.141 -0.7641  0.5016 -0.6978
 4254SOL     OW24223   1.544   0.431  14.761  0.5515 -0.2920  0.1308
 4254SOL    HW124224   1.463   0.438  14.810  0.6842  1.5343  0.0902
 4254SOL    HW224225   1.547   0.521  14.729  0.6164  0.2221  1.6162
 4255SOL     OW24226   1.943   3.690   5.966 -0.4325  0.4087  0.2814
 4255SOL    HW124227   1.903   3.644   6.041  0.2879 -0.4626  0.1342
 4255SOL    HW224228   1.938   3.623   5.897  0.7325  1.8485 -1.1822
 4256SOL     OW24229   0.939   4.471   0.913  0.1021  0.2914 -0.8222
 4256SOL    HW124230   0.916   4.564   0.922 -0.7487  0.1291 -1.3424
 4256SOL    HW224231   1.034   4.479   0.902  0.3652  0.3477  1.5140
 4257SOL     OW24232   0.183   3.753   0.576 -0.5051  0.4081  0.2032
 4257SOL    HW124233   0.108   3.811   0.577  0.2162  1.3370  0.9809
 4257SOL    HW224234   0.225   3.770   0.661  0.4552  0.8358 -0.3593
 4258SOL     OW24235   3.549   1.868   3.691 -0.5942 -0.1853  0.1479
 4258SOL    HW124236   3.635   1.829   3.673  0.2144  2.1340 -0.9448
 4258SOL    HW224237   3.497   1.833   3.619 -1.4822  0.0091  0.6862
 4259SOL     OW24238   1.622   3.504   8.640  0.4689 -0.0362  0.3578
 4259SOL    HW124239   1.621   3.445   8.715 -0.2061  0.1844  0.5225
 4259SOL    HW224240   1.695   3.474   8.586  0.1633  1.2789 -0.7833
 4260SOL     OW24241   0.382   1.706   5.894  0.4029  0.5707 -0.3090
 4260SOL    HW124242   0.378   1.801   5.893 -0.4504  0.5419  0.2204
 4260SOL    HW224243   0.340   1.675   5.975 -2.3318  2.0843 -1.1858
 4261SOL     OW24244   2.900   1.073  14.933 -0.2496 -0.1564 -0.0399
 4261SOL    HW124245   2.874   1.074  15.025 -0.6026  1.3270 -0.1519
 4261SOL    HW224246   2.946   1.157  14.926 -0.7342 -0.0011 -1.1960
 4262SOL     OW24247   3.083   0.893   7.302  0.3650  0.2011 -0.0932
 4262SOL    HW124248   3.003   0.865   7.346  0.0046  3.2249  1.1851
 4262SOL    HW224249   3.153   0.873   7.365  0.5227  1.0557  0.0002
 4263SOL     OW24250   0.811   3.766   7.451 -0.2861  0.4604  0.3799
 4263SOL    HW124251   0.874   3.734   7.516 -0.3774  1.3674  0.9135
 4263SOL    HW224252   0.733   3.724   7.488 -1.2723 -0.8365 -3.1741
 4264SOL     OW24253   3.316   0.540   1.395 -0.2817 -0.2027 -0.1463
 4264SOL    HW124254   3.245   0.603   1.387 -1.3593 -1.4348 -0.2667
 4264SOL    HW224255   3.277   0.491   1.467  1.1135 -0.9368  0.1209
 4265SOL     OW24256   2.002   1.755   3.479  0.2342  0.0657 -0.2691
 4265SOL    HW124257   1.930   1.818   3.481  1.1363  1.1061 -0.4836
 4265SOL    HW224258   1.950   1.679   3.454  1.2382 -1.5102  2.3784
 4266SOL     OW24259   0.713   3.881   5.580 -0.0781  0.5093  0.5669
 4266SOL    HW124260   0.731   3.959   5.527  0.0752  0.1749  0.1268
 4266SOL    HW224261   0.801   3.845   5.595  0.1877  1.4273  1.2298
 4267SOL     OW24262   0.484   3.589   7.359  0.3031  0.2021 -0.2225
 4267SOL    HW124263   0.413   3.526   7.345  2.4914 -2.4044  0.4869
 4267SOL    HW224264   0.488   3.640   7.278  0.2715 -1.2279 -1.1303
 4268SOL     OW24265   2.551   1.749   2.521 -0.2046 -0.4252 -0.3162
 4268SOL    HW124266   2.523   1.714   2.606 -1.3851 -0.7248 -0.8263
 4268SOL    HW224267   2.480   1.727   2.461  0.3283 -0.8199 -0.7977
 4269SOL     OW24268   1.874   2.621   6.140 -0.2494 -0.2872 -0.0366
 4269SOL    HW124269   1.859   2.527   6.143  2.3032 -0.6458  0.7774
 4269SOL    HW224270   1.964   2.612   6.109  0.1892 -3.6011  2.2650
 4270SOL     OW24271   3.171   1.936   8.753 -0.1115 -0.1778 -0.1560
 4270SOL    HW124272   3.223   1.932   8.672 -0.8525 -0.9605 -0.6005
 4270SOL    HW224273   3.087   1.905   8.719 -1.2968  4.1431 -1.1638
 4271SOL     OW24274   3.383   4.581   1.736 -0.1984 -0.7023 -0.7818
 4271SOL    HW124275   3.432   4.593   1.817 -0.6299  1.2937 -0.8156
 4271SOL    HW224276   3.343   4.668   1.726  0.6365 -0.5228 -2.6446
 4272SOL     OW24277   2.987   4.057   9.748 -0.8752  0.2776  0.1074
 4272SOL    HW124278   3.012   4.148   9.734  1.2568 -0.2837  0.2116
 4272SOL    HW224279   2.929   4.078   9.820  2.6054  1.8527  2.4684
 4273SOL     OW24280   3.035   1.328   6.353  0.2120 -0.4938  0.3949
 4273SOL    HW124281   3.098   1.400   6.354 -2.2773  1.6862 -0.5350
 4273SOL    HW224282   2.992   1.329   6.267  1.4794 -0.0614 -0.2432
 4274SOL     OW24283   2.573   3.905   4.443  0.1167 -0.8020 -0.2513
 4274SOL    HW124284   2.573   3.829   4.385 -0.7318 -1.0587  0.0745
 4274SOL    HW224285   2.666   3.908   4.462 -0.1732 -0.1138  1.1135
 4275SOL     OW24286   2.511   1.274   6.465 -0.1927 -0.4291 -0.1222
 4275SOL    HW124287   2.479   1.339   6.402 -0.4875  0.9364  1.4393
 4275SOL    HW224288   2.603   1.295   6.448 -1.0552  2.5309 -1.2479
 4276SOL     OW24289   3.504   0.468  14.308 -0.5080 -1.1918  0.2837
 4276SOL    HW124290   3.546   0.551  14.288 -2.5508 -0.2491 -0.0319
 4276SOL    HW224291   3.461   0.497  14.388 -0.0932 -1.0915  0.4739
 4277SOL     OW24292   3.214   2.280   6.720  0.2751  0.0004  0.0314
 4277SOL    HW124293   3.167   2.198   6.701 -0.6319  0.5284 -0.0367
 4277SOL    HW224294   3.212   2.278   6.816  1.0907  0.4632  0.0548
 4278SOL     OW24295   2.685   2.166   6.634  0.2006  0.3206 -0.3546
 4278SOL    HW124296   2.603   2.147   6.589 -0.5939 -0.9662  1.6488
 4278SOL    HW224297   2.657   2.139   6.721  1.8349  1.7084  0.5944
 4279SOL     OW24298   0.064   1.302   6.136  0.5060  0.0463 -0.0963
 4279SOL    HW124299   0.102   1.341   6.058  0.2824  1.0971  0.3247
 4279SOL    HW224300   0.023   1.232   6.085 -1.3559 -0.1976  1.7200
 4280SOL     OW24301   0.877   2.343   5.406 -0.0152 -0.2172 -0.0380
 4280SOL    HW124302   0.967   2.314   5.419  0.5479  1.8102  0.6397
 4280SOL    HW224303   0.838   2.262   5.374  0.8565 -0.3519 -0.7473
 4281SOL     OW24304   3.164   3.430  11.827 -0.7618 -0.3853 -0.4508
 4281SOL    HW124305   3.166   3.503  11.889 -1.7260  0.0573 -0.9377
 4281SOL    HW224306   3.112   3.361  11.868 -1.4865  0.9944  0.9426
 4282SOL     OW24307   2.625   1.300  17.284  0.0476 -0.3214 -0.2597
 4282SOL    HW124308   2.575   1.223  17.259 -1.6564  1.4067 -2.1941
 4282SOL    HW224309   2.618   1.289  17.379  1.6175  0.6579 -0.0291
 4283SOL     OW24310   4.008   2.320   4.353 -0.0952  0.4428  0.3933
 4283SOL    HW124311   3.958   2.327   4.435  0.4592  0.6655  0.7090
 4283SOL    HW224312   4.041   2.409   4.353  1.9584 -0.3473 -2.2209
 4284SOL     OW24313   0.679   1.384   9.584 -0.0540  0.6441  0.4382
 4284SOL    HW124314   0.682   1.455   9.520  1.1689 -0.8286 -1.1602
 4284SOL    HW224315   0.641   1.425   9.661  0.2203 -2.0448  1.9949
 4285SOL     OW24316   1.054   2.183   6.441  0.0603  0.0864  0.0774
 4285SOL    HW124317   1.026   2.095   6.466  0.0281 -0.6340 -2.4403
 4285SOL    HW224318   1.108   2.220   6.511  0.0879 -0.0264  0.1157
 4286SOL     OW24319   0.865   2.663   3.762 -0.0409  0.0976 -0.3117
 4286SOL    HW124320   0.902   2.752   3.771  4.2989 -1.4678 -2.3715
 4286SOL    HW224321   0.787   2.671   3.816 -0.4656  1.3060 -1.1056
 4287SOL     OW24322   1.459   3.906   4.150  0.3443  0.3090  0.4021
 4287SOL    HW124323   1.493   3.915   4.061 -1.1265  2.5058  0.0723
 4287SOL    HW224324   1.396   3.978   4.150  1.1901  1.0511  0.0326
 4288SOL     OW24325   0.729   0.914   2.107  0.1706  0.3002  0.2331
 4288SOL    HW124326   0.749   0.994   2.059 -0.9401  1.4592  1.6760
 4288SOL    HW224327   0.812   0.885   2.145 -0.2949  0.7003  1.5792
 4289SOL     OW24328   4.220   4.239  12.316 -0.2246 -0.2213  0.2264
 4289SOL    HW124329   4.263   4.320  12.289 -1.8062  0.0997 -1.2978
 4289SOL    HW224330   4.295   4.179  12.322 -0.5707 -0.6394  0.3505
 4290SOL     OW24331   4.271   1.390   8.789 -0.4102  0.5760 -0.1267
 4290SOL    HW124332   4.358   1.428   8.774  0.4987 -1.2940  0.3733
 4290SOL    HW224333   4.255   1.430   8.874  1.4192 -1.4931  1.1985
 4291SOL     OW24334   1.927   1.377   0.679  0.4633 -0.8097  0.3280
 4291SOL    HW124335   2.022   1.384   0.670  0.0976  1.4297 -1.8887
 4291SOL    HW224336   1.931   1.300   0.736  2.2873 -0.1880  1.0573
 4292SOL     OW24337   1.020   2.379   1.035  0.0335  0.2227  0.1302
 4292SOL    HW124338   1.047   2.355   0.947 -2.3657  1.5572 -0.9789
 4292SOL    HW224339   1.099   2.406   1.082  1.1602 -0.2285 -1.5512
 4293SOL     OW24340   0.336   0.693   3.009 -0.1638 -0.4436 -0.1253
 4293SOL    HW124341   0.410   0.703   2.949  2.4012 -0.3168  2.9948
 4293SOL    HW224342   0.286   0.757   2.960 -1.2935 -0.1080  1.4482
 4294SOL     OW24343   0.855   4.611  16.754  0.4468 -0.3791  0.2225
 4294SOL    HW124344   0.806   4.692  16.761  0.4698 -0.4218  0.9263
 4294SOL    HW224345   0.789   4.542  16.758 -0.4249  0.3256 -2.1554
 4295SOL     OW24346   0.166   3.088  13.722 -0.2036  0.1239  0.0958
 4295SOL    HW124347   0.107   3.103  13.648  0.6312 -0.8591 -0.7695
 4295SOL    HW224348   0.134   3.158  13.779  1.1207 -1.1345  2.3570
 4296SOL     OW24349   0.207   0.739   8.318  0.1859 -0.2448  0.0681
 4296SOL    HW124350   0.198   0.644   8.317 -1.0293 -0.0973 -3.1245
 4296SOL    HW224351   0.246   0.763   8.402  0.5683 -0.5695 -0.0196
 4297SOL     OW24352   2.529   2.736  10.806  0.1366 -0.2029 -0.3270
 4297SOL    HW124353   2.477   2.770  10.733 -1.7863 -3.2800 -0.3990
 4297SOL    HW224354   2.571   2.811  10.846 -0.2578  1.0581 -2.2863
 4298SOL     OW24355   4.335   3.835   6.484  0.0689 -0.4021  0.2213
 4298SOL    HW124356   4.409   3.782   6.455 -1.1393 -1.8509 -0.2184
 4298SOL    HW224357   4.271   3.793   6.427 -0.4128 -1.5634  1.6223
 4299SOL     OW24358   2.547   1.431   3.681 -0.0192 -0.1458  0.2955
 4299SOL    HW124359   2.592   1.512   3.703 -0.5191  0.4869 -0.9898
 4299SOL    HW224360   2.628   1.383   3.698  2.1182  3.4634  0.2296
 4300SOL     OW24361   2.518   4.176   6.990  0.6864 -0.2215  0.2221
 4300SOL    HW124362   2.581   4.103   6.981  1.8406  0.9161 -0.9761
 4300SOL    HW224363   2.500   4.174   7.084 -1.5607 -0.1100 -0.2062
 4301SOL     OW24364   3.595   4.056  16.948  0.0997 -0.5073 -0.3096
 4301SOL    HW124365   3.637   4.051  17.034 -1.4013  0.8542  0.4978
 4301SOL    HW224366   3.657   4.004  16.896 -1.2411 -0.5181 -1.8893
 4302SOL     OW24367   3.487   0.999   4.532 -0.3276  0.1934  0.2616
 4302SOL    HW124368   3.428   0.996   4.608  1.4538  0.8058  1.6835
 4302SOL    HW224369   3.532   1.078   4.563  0.1860  0.4280 -1.1119
 4303SOL     OW24370   4.435   1.698  12.110  0.3898 -0.0994  0.0588
 4303SOL    HW124371   4.466   1.654  12.031 -2.8317 -1.0041 -0.7010
 4303SOL    HW224372   4.500   1.659  12.169  0.6804 -0.6007 -0.5950
 4304SOL     OW24373   4.700   2.000  17.564  0.2583 -0.2427 -0.0401
 4304SOL    HW124374   4.631   2.006  17.630  1.1194 -0.5980  0.9044
 4304SOL    HW224375   4.646   1.997  17.485 -1.8061  0.8868  1.3309
 4305SOL     OW24376   2.543   4.549   4.423  0.3495  0.6738  0.3335
 4305SOL    HW124377   2.632   4.579   4.405 -0.1304  0.5643 -2.2642
 4305SOL    HW224378   2.519   4.490   4.352  0.1947 -0.9651  1.7418
 4306SOL     OW24379   2.850   3.995   3.558  0.0183  0.0802  0.0015
 4306SOL    HW124380   2.793   4.066   3.529 -1.3387  0.0068  2.5302
 4306SOL    HW224381   2.932   4.036   3.587  0.0247  0.6486 -0.8102
 4307SOL     OW24382   0.824   0.730   3.750 -0.1289  0.2479 -0.1905
 4307SOL    HW124383   0.895   0.668   3.768 -0.4701 -0.3547 -0.9181
 4307SOL    HW224384   0.750   0.673   3.730 -1.2730  1.5138  0.4777
 4308SOL     OW24385   4.089   4.293   5.577 -0.2615 -0.5269  0.5609
 4308SOL    HW124386   4.174   4.266   5.611  0.1178  1.2650  1.0086
 4308SOL    HW224387   4.088   4.250   5.491  0.7152 -0.5140  0.5475
 4309SOL     OW24388   3.486   2.644   8.026 -0.7200 -0.7874  0.5980
 4309SOL    HW124389   3.523   2.592   7.954  0.1311 -2.1195  2.0054
 4309SOL    HW224390   3.454   2.583   8.092 -2.3312  0.0975  0.6319
 4310SOL     OW24391   3.600   1.029   8.025 -0.8566 -0.0285 -0.3133
 4310SOL    HW124392   3.681   1.078   8.012 -1.3090  0.2124 -2.2407
 4310SOL    HW224393   3.559   1.025   7.939 -0.6576 -0.2489 -0.3958
 4311SOL     OW24394   0.290   2.119  15.253  0.2383 -0.1914 -1.0320
 4311SOL    HW124395   0.370   2.067  15.262  1.1314  1.1787 -0.9780
 4311SOL    HW224396   0.218   2.058  15.267  0.6692 -0.2962  0.7748
 4312SOL     OW24397   1.962   4.386   5.801  0.1579  0.5091  0.3024
 4312SOL    HW124398   1.893   4.320   5.805  0.5670 -0.0675 -2.2237
 4312SOL    HW224399   2.020   4.360   5.873  1.3233 -0.0675 -0.8312
 4313SOL     OW24400   3.685   3.473   8.686  0.1640  0.0663  0.6017
 4313SOL    HW124401   3.776   3.443   8.686 -0.6454 -2.3553  0.0008
 4313SOL    HW224402   3.707   3.557   8.646 -1.0319  0.4208  0.6892
 4314SOL     OW24403   0.792   3.589   8.452  0.5660  0.2607  0.2234
 4314SOL    HW124404   0.707   3.585   8.496  0.4386 -1.0095 -0.1392
 4314SOL    HW224405   0.785   3.676   8.415 -0.0179  0.1283  0.0223
 4315SOL     OW24406   3.819   2.648  13.316 -0.5884  0.0467  0.2822
 4315SOL    HW124407   3.806   2.660  13.410  0.2135 -1.0268  0.5320
 4315SOL    HW224408   3.750   2.590  13.284 -0.5292  0.0395  0.1678
 4316SOL     OW24409   3.149   0.697   3.384 -0.1043  0.3352 -0.4311
 4316SOL    HW124410   3.070   0.734   3.424 -0.4514 -0.6739 -0.1710
 4316SOL    HW224411   3.189   0.783   3.379 -0.6448  0.6072 -0.1200
 4317SOL     OW24412   3.062   3.196   2.452 -0.5186 -0.3033  0.3811
 4317SOL    HW124413   3.121   3.121   2.462  0.9044  0.5901 -1.2067
 4317SOL    HW224414   3.035   3.180   2.361  1.2899 -0.2930 -0.1623
 4318SOL     OW24415   2.290   4.606   6.850 -0.1690 -0.8468 -0.0431
 4318SOL    HW124416   2.287   4.690   6.896  2.6910  0.1735 -1.7225
 4318SOL    HW224417   2.293   4.632   6.758  1.3676 -1.9259 -0.3109
 4319SOL     OW24418   4.276   1.673   3.344 -0.1461 -0.1885 -0.1078
 4319SOL    HW124419   4.344   1.721   3.295 -1.5326  1.7501 -0.1309
 4319SOL    HW224420   4.300   1.581   3.341 -3.2844 -0.9588 -1.0588
 4320SOL     OW24421   0.289   3.385   1.960 -0.4424 -0.6906  0.0709
 4320SOL    HW124422   0.346   3.309   1.949 -0.6298 -0.8733  0.3850
 4320SOL    HW224423   0.225   3.366   1.891 -1.5659  2.1009  0.3189
 4321SOL     OW24424   3.788   2.930   7.964  0.5505 -0.4862  0.4118
 4321SOL    HW124425   3.728   2.903   8.034 -0.4023 -1.1311 -0.6418
 4321SOL    HW224426   3.873   2.920   8.008  0.0199 -1.0211  1.3124
 4322SOL     OW24427   0.776   1.529   8.508 -0.3573 -0.0592  1.0273
 4322SOL    HW124428   0.785   1.600   8.445 -1.5948  0.7736  1.7842
 4322SOL    HW224429   0.867   1.523   8.535  0.8067 -1.9299 -3.3395
 4323SOL     OW24430   3.940   2.748  12.392 -0.4142  0.0247 -0.4031
 4323SOL    HW124431   3.902   2.767  12.306 -0.4305  0.4886 -0.2916
 4323SOL    HW224432   3.928   2.654  12.406 -0.1381  0.2915  1.6652
 4324SOL     OW24433   0.676   0.257   5.695  0.2753  0.9152  0.4653
 4324SOL    HW124434   0.586   0.234   5.717  0.0235 -0.5273 -2.0300
 4324SOL    HW224435   0.667   0.266   5.600 -1.0340 -0.2066  0.4900
 4325SOL     OW24436   3.650   4.644  13.072  0.3728 -0.1602  0.5578
 4325SOL    HW124437   3.674   4.668  12.982 -2.2596  0.2285 -0.0436
 4325SOL    HW224438   3.571   4.694  13.088  0.3266 -0.1349  0.2582
 4326SOL     OW24439   0.258   2.085   0.093  0.5643 -0.1461 -0.7151
 4326SOL    HW124440   0.212   2.085   0.008 -0.3088 -0.4757 -0.2465
 4326SOL    HW224441   0.198   2.148   0.134 -0.4966 -1.5778 -0.0821
 4327SOL     OW24442   3.057   0.312   8.127  0.2523  0.2029  0.9564
 4327SOL    HW124443   2.995   0.384   8.118 -0.7533 -0.8055 -0.1046
 4327SOL    HW224444   3.002   0.234   8.121 -1.8379  1.6969  0.6874
 4328SOL     OW24445   3.207   0.057  16.190 -0.4111 -0.1291 -0.7239
 4328SOL    HW124446   3.257   0.088  16.114 -0.1805  1.2499  0.0043
 4328SOL    HW224447   3.273   0.006  16.237  1.0772  1.4196 -1.1206
 4329SOL     OW24448   2.479   3.626   6.800  0.0583  0.3714  0.3453
 4329SOL    HW124449   2.522   3.667   6.725 -2.6084 -0.0262 -1.3776
 4329SOL    HW224450   2.544   3.653   6.866  1.1031 -0.7258 -0.2352
 4330SOL     OW24451   4.211   1.516   4.238 -0.3562  0.2982 -0.1046
 4330SOL    HW124452   4.241   1.475   4.157 -3.0824  0.8096 -1.3805
 4330SOL    HW224453   4.116   1.509   4.229 -0.2880 -0.2755 -0.3635
 4331SOL     OW24454   1.279   3.139   7.150  0.7156  0.2139  0.0266
 4331SOL    HW124455   1.357   3.188   7.125  2.0497 -1.6030  0.6848
 4331SOL    HW224456   1.264   3.195   7.227  2.3144  2.0298 -0.9827
 4332SOL     OW24457   3.963   3.122   3.747 -0.4118 -0.6010 -0.0611
 4332SOL    HW124458   3.959   3.092   3.656  0.3941  1.0525 -0.6506
 4332SOL    HW224459   4.040   3.179   3.744 -0.6156 -0.5148 -3.1575
 4333SOL     OW24460   3.146   3.451   8.436 -0.6827  0.6215  0.3624
 4333SOL    HW124461   3.221   3.399   8.407 -1.9154 -0.6050 -0.6660
 4333SOL    HW224462   3.161   3.542   8.413 -0.0631  1.0104  2.2711
 4334SOL     OW24463   4.065   1.230   3.165  0.4217  0.2233 -0.6050
 4334SOL    HW124464   4.068   1.276   3.249  0.7928  2.6445 -1.9304
 4334SOL    HW224465   4.157   1.228   3.140  0.3668 -2.4199 -0.6289
 4335SOL     OW24466   1.955   1.274   5.644 -0.8041 -0.2468 -0.0563
 4335SOL    HW124467   1.862   1.279   5.666 -1.3731 -0.3050 -2.4486
 4335SOL    HW224468   1.994   1.296   5.729 -2.9684  0.1609  0.8386
 4336SOL     OW24469   3.995   0.015   9.330  0.4713 -0.0726 -0.0773
 4336SOL    HW124470   4.087   0.040   9.339  0.0838 -0.2626  4.6887
 4336SOL    HW224471   3.951   0.097   9.311 -1.8835 -1.2848  0.1185
 4337SOL     OW24472   1.904   2.226   3.530  0.4324 -0.3642 -0.1742
 4337SOL    HW124473   1.992   2.253   3.505 -0.4814  0.9352 -2.0123
 4337SOL    HW224474   1.858   2.276   3.462 -2.3584 -0.6604  1.5122
 4338SOL     OW24475   1.792   2.659  12.350 -0.2733 -0.1371 -0.4512
 4338SOL    HW124476   1.848   2.693  12.280  0.1875 -1.0050 -0.4926
 4338SOL    HW224477   1.858   2.643  12.417  0.3886  0.2062 -1.0225
 4339SOL     OW24478   0.562   2.619  16.351 -0.2659  0.2825  0.0525
 4339SOL    HW124479   0.644   2.611  16.302 -0.2273  2.0911 -0.1889
 4339SOL    HW224480   0.529   2.704  16.321 -0.7265  0.5400  1.2967
 4340SOL     OW24481   1.349   0.007  16.355 -0.0947 -0.5070  0.3315
 4340SOL    HW124482   1.294   0.074  16.395 -0.3353 -0.0531 -0.7611
 4340SOL    HW224483   1.432   0.051  16.335  0.0926 -0.9344  0.1571
 4341SOL     OW24484   0.964   1.145   8.242  0.2833  0.2644 -0.0186
 4341SOL    HW124485   0.913   1.106   8.313  0.4801 -0.4714 -0.2742
 4341SOL    HW224486   0.886   1.169   8.193  0.8992 -0.2451 -1.2425
 4342SOL     OW24487   2.825   2.606   5.108 -0.4906 -0.3846 -0.1089
 4342SOL    HW124488   2.879   2.577   5.034  0.4884 -0.0191  0.4746
 4342SOL    HW224489   2.760   2.660   5.063 -0.4226  1.2909  1.8555
 4343SOL     OW24490   1.188   4.588  14.051  0.2466 -0.5719 -0.3163
 4343SOL    HW124491   1.133   4.511  14.062  0.0695 -0.3294  0.4726
 4343SOL    HW224492   1.130   4.665  14.052 -0.8203 -1.3649 -1.2688
 4344SOL     OW24493   2.061   0.524   7.186 -0.5164 -0.4132  0.5537
 4344SOL    HW124494   2.134   0.538   7.246 -0.8718  0.8669  0.6815
 4344SOL    HW224495   2.087   0.580   7.113  2.4464 -1.0140  1.1109
 4345SOL     OW24496   3.585   0.079   9.221  0.2303 -0.2256 -0.6280
 4345SOL    HW124497   3.542   0.082   9.306  0.3194 -1.5579 -0.5303
 4345SOL    HW224498   3.519   0.109   9.158 -1.0015  0.0666  0.8053
 4346SOL     OW24499   2.559   3.434  16.289 -0.0371  0.3301  0.3555
 4346SOL    HW124500   2.502   3.434  16.212  2.4388  0.1076 -1.4845
 4346SOL    HW224501   2.638   3.469  16.249 -0.4483  0.4831 -0.3266
 4347SOL     OW24502   4.557   2.839   1.834  0.1826  0.1493  0.0099
 4347SOL    HW124503   4.488   2.801   1.781  0.0229 -1.3357  1.2831
 4347SOL    HW224504   4.603   2.759   1.857  1.4786  0.8700 -0.0683
 4348SOL     OW24505   2.028   1.612   4.610 -0.2600  0.1752  0.0382
 4348SOL    HW124506   1.978   1.575   4.683 -3.4491  0.5648 -1.9432
 4348SOL    HW224507   2.029   1.707   4.624  0.0578  0.4520 -1.8801
 4349SOL     OW24508   0.884   0.893   3.236 -0.3782  0.1690 -0.0533
 4349SOL    HW124509   0.861   0.893   3.329 -2.0253 -1.2671 -0.4642
 4349SOL    HW224510   0.979   0.906   3.236 -0.5712  1.6131 -1.5892
 4350SOL     OW24511   1.505   1.566  10.433  0.3222 -0.2142  0.5756
 4350SOL    HW124512   1.596   1.578  10.407  1.0530  0.5948  3.4792
 4350SOL    HW224513   1.476   1.533  10.348  1.4870  0.2000  0.0211
 4351SOL     OW24514   1.834   0.694   2.826 -0.1172 -0.4881 -0.2800
 4351SOL    HW124515   1.779   0.636   2.877 -0.4231  1.6424  1.8161
 4351SOL    HW224516   1.844   0.638   2.749  2.2245 -2.1151  1.1826
 4352SOL     OW24517   4.242   0.677   9.186  0.0939  0.0146  0.0235
 4352SOL    HW124518   4.295   0.599   9.172 -1.2311 -0.4604 -2.4223
 4352SOL    HW224519   4.210   0.666   9.276  0.1477 -0.8333 -0.0620
 4353SOL     OW24520   0.308   0.543   7.656 -0.3674  0.0047 -0.2258
 4353SOL    HW124521   0.241   0.604   7.687  1.2350  1.7305 -0.1514
 4353SOL    HW224522   0.283   0.467   7.709  1.6017  0.2331  1.0563
 4354SOL     OW24523   2.555   1.039   0.265 -0.4344  0.3617  1.1930
 4354SOL    HW124524   2.522   1.036   0.355  0.0846 -2.2734  1.2740
 4354SOL    HW224525   2.528   1.129   0.246  0.7776  0.9775  2.3683
 4355SOL     OW24526   3.361   3.833   0.216 -0.7223 -0.2917  0.5228
 4355SOL    HW124527   3.420   3.774   0.170  0.1751  0.4062  0.7757
 4355SOL    HW224528   3.273   3.795   0.213  0.1619 -2.2237 -1.3243
 4356SOL     OW24529   3.993   0.148   8.496 -0.3122  0.0274 -0.3344
 4356SOL    HW124530   4.068   0.101   8.530 -1.6614 -0.6314  1.7713
 4356SOL    HW224531   4.018   0.186   8.412  1.1988 -1.2345 -0.4514
 4357SOL     OW24532   4.591   0.417  15.265 -0.2701 -0.0516 -0.1302
 4357SOL    HW124533   4.537   0.496  15.273  1.3789  0.8796  1.5330
 4357SOL    HW224534   4.613   0.405  15.357 -1.1585  0.3192  0.1347
 4358SOL     OW24535   1.209   0.332   5.546 -0.0558 -0.3416  0.0460
 4358SOL    HW124536   1.228   0.383   5.625 -1.2685  1.9469 -1.1614
 4358SOL    HW224537   1.135   0.374   5.503  0.6255 -1.3089 -2.0444
 4359SOL     OW24538   1.781   4.361   2.664  0.3183  0.6519 -0.8594
 4359SOL    HW124539   1.813   4.446   2.633 -0.5694  0.7497 -1.5089
 4359SOL    HW224540   1.713   4.344   2.598  1.4806 -2.0941 -1.3431
 4360SOL     OW24541   3.382   1.931   8.143  0.2540  0.1580 -0.0989
 4360SOL    HW124542   3.314   1.960   8.083 -0.5827  1.8790  1.6865
 4360SOL    HW224543   3.429   2.013   8.154  0.8103 -0.5639  3.0621
 4361SOL     OW24544   3.977   3.845   4.030  0.2067  0.1118  0.4574
 4361SOL    HW124545   4.064   3.829   4.068 -0.0650 -0.0263  1.0174
 4361SOL    HW224546   4.010   3.931   4.005  1.0646 -1.1160 -2.7078
 4362SOL     OW24547   1.982   2.132   5.361  0.2525  0.2212  0.7090
 4362SOL    HW124548   1.989   2.227   5.354 -0.4656  0.0413 -2.2998
 4362SOL    HW224549   2.072   2.101   5.346 -1.0714 -2.7757 -1.1586
 4363SOL     OW24550   3.760   3.160   4.127 -0.0129 -0.0477  0.2407
 4363SOL    HW124551   3.778   3.183   4.218  1.5396 -0.2816 -0.0034
 4363SOL    HW224552   3.740   3.244   4.085 -0.2726  0.8750  2.2243
 4364SOL     OW24553   0.608   0.621  17.578  0.0762  0.1795 -0.6241
 4364SOL    HW124554   0.523   0.659  17.600  0.9085  1.3339  0.6026
 4364SOL    HW224555   0.638   0.597  17.666  0.5625  0.7698 -0.6238
 4365SOL     OW24556   0.428   1.657  10.438  0.1662  0.4873 -0.7101
 4365SOL    HW124557   0.504   1.713  10.419  0.3409  0.8868  1.1650
 4365SOL    HW224558   0.413   1.675  10.531  1.1446 -1.8058 -0.0925
 4366SOL     OW24559   0.352   2.416   8.824  0.5875  0.2289 -0.3213
 4366SOL    HW124560   0.392   2.476   8.888  0.2399  0.2282 -0.1016
 4366SOL    HW224561   0.371   2.330   8.861  2.1374 -0.0212 -1.7302
 4367SOL     OW24562   0.715   3.843   0.051 -0.0820 -0.2157  0.2556
 4367SOL    HW124563   0.672   3.826   0.134  2.1163 -0.0576  1.4205
 4367SOL    HW224564   0.803   3.863   0.084 -0.5990 -0.1450  1.5833
 4368SOL     OW24565   2.904   2.339   4.593 -0.4450  0.0575 -0.1304
 4368SOL    HW124566   2.911   2.434   4.594 -2.0309  0.1472  0.9289
 4368SOL    HW224567   2.824   2.332   4.644 -0.2975  0.1967  0.1227
 4369SOL     OW24568   3.812   1.789   0.307 -0.0732  0.5134  0.0198
 4369SOL    HW124569   3.873   1.726   0.270 -0.5901  0.1007 -0.1273
 4369SOL    HW224570   3.830   1.867   0.255  0.4109 -0.5744 -1.4053
 4370SOL     OW24571   4.140   1.164   3.972 -0.0356 -0.4982  0.7267
 4370SOL    HW124572   4.053   1.199   3.992 -0.1852  0.3353 -1.3429
 4370SOL    HW224573   4.113   1.078   3.939 -2.7600  0.6282  0.0230
 4371SOL     OW24574   4.198   2.358   9.535 -0.1007 -0.4854  0.2303
 4371SOL    HW124575   4.139   2.402   9.474  0.3196 -0.4811 -0.1815
 4371SOL    HW224576   4.144   2.301   9.589  1.1221 -2.3086 -0.4448
 4372SOL     OW24577   4.453   3.204   9.488  0.1078 -0.3179  0.2343
 4372SOL    HW124578   4.404   3.250   9.557  2.2891  2.9665 -0.4004
 4372SOL    HW224579   4.537   3.248   9.479  0.2476 -0.9880 -1.6911
 4373SOL     OW24580   4.159   4.627   2.334 -0.0754  0.1852  0.0663
 4373SOL    HW124581   4.254   4.631   2.346  0.0144 -0.7164 -0.3800
 4373SOL    HW224582   4.152   4.538   2.300 -0.9026  0.6311 -0.9239
 4374SOL     OW24583   2.171   4.047   5.757  0.2170 -0.1096 -0.5101
 4374SOL    HW124584   2.103   4.045   5.825 -0.0151 -0.8787 -0.7633
 4374SOL    HW224585   2.126   3.984   5.700 -0.2775  0.3738 -0.6595
 4375SOL     OW24586   1.373   3.672   7.492  0.2392  0.2277  0.1345
 4375SOL    HW124587   1.462   3.679   7.526  1.2046  0.1579 -2.4302
 4375SOL    HW224588   1.358   3.600   7.431  1.2319  1.4029 -1.4762
 4376SOL     OW24589   0.982   1.531   5.734  0.6954 -0.6977 -0.1900
 4376SOL    HW124590   1.018   1.588   5.666  0.8129  0.6070  0.9526
 4376SOL    HW224591   0.952   1.454   5.686 -2.4641  1.4728 -1.6764
 4377SOL     OW24592   2.592   4.085  10.544 -0.0498 -1.1775 -0.0940
 4377SOL    HW124593   2.671   4.078  10.490 -0.9738  0.6439 -1.6681
 4377SOL    HW224594   2.575   4.179  10.534 -1.6554 -1.4828 -0.1104
 4378SOL     OW24595   4.189   0.639   1.646  0.6447  0.3438 -0.0472
 4378SOL    HW124596   4.127   0.705   1.616 -1.3206 -1.2310  0.5046
 4378SOL    HW224597   4.153   0.619   1.732 -0.8804 -1.1642 -1.0461
 4379SOL     OW24598   3.115   3.829   5.210 -0.4262  0.7400  0.3549
 4379SOL    HW124599   3.135   3.920   5.192 -2.5379  0.7187 -1.9719
 4379SOL    HW224600   3.020   3.828   5.206 -0.3314 -0.7037 -1.1898
 4380SOL     OW24601   3.552   0.727  11.678  0.6236  0.4614  0.2434
 4380SOL    HW124602   3.463   0.760  11.666  1.3917  2.2093 -0.6390
 4380SOL    HW224603   3.553   0.653  11.616 -0.4558  0.2566  0.4821
 4381SOL     OW24604   0.498   0.864   5.914 -0.4097  0.5341 -0.1794
 4381SOL    HW124605   0.438   0.929   5.950  0.9387  2.4644 -1.3980
 4381SOL    HW224606   0.455   0.787   5.952 -0.7840  1.2570  0.8682
 4382SOL     OW24607   0.260   2.237   9.111 -0.5626  0.0565 -0.3494
 4382SOL    HW124608   0.336   2.199   9.067 -1.5672 -0.3142 -1.7882
 4382SOL    HW224609   0.228   2.158   9.155  0.1473  0.6869  1.2977
 4383SOL     OW24610   2.497   2.303   1.956 -0.1169  0.1993  0.2036
 4383SOL    HW124611   2.437   2.263   1.893  0.8447 -1.5077  0.3638
 4383SOL    HW224612   2.479   2.259   2.040  0.3584 -1.9061 -0.7873
 4384SOL     OW24613   0.896   4.137   9.422  0.4524  0.3645 -0.2659
 4384SOL    HW124614   0.982   4.139   9.381  0.7477 -1.8812  0.2905
 4384SOL    HW224615   0.921   4.174   9.506 -2.7117  0.2458  0.7293
 4385SOL     OW24616   3.536   3.311   7.611 -0.4890 -0.2684  0.1671
 4385SOL    HW124617   3.482   3.380   7.649  1.3290  0.1780  1.9268
 4385SOL    HW224618   3.581   3.277   7.688 -0.2830 -0.0433  0.1466
 4386SOL     OW24619   1.242   1.095   8.182 -0.3799  0.4071 -0.0400
 4386SOL    HW124620   1.242   1.039   8.260  0.5996  0.6486  0.1387
 4386SOL    HW224621   1.150   1.119   8.182 -0.5538 -0.2441 -1.3220
 4387SOL     OW24622   0.642   3.771   5.285  0.3300 -0.1385  0.3844
 4387SOL    HW124623   0.725   3.794   5.244  0.5386  0.0179  0.8874
 4387SOL    HW224624   0.594   3.854   5.283 -2.5839 -1.8540 -0.6945
 4388SOL     OW24625   0.442   0.962  10.315  0.0660  0.4158  0.3810
 4388SOL    HW124626   0.511   0.948  10.379 -0.1583  1.9863  0.9531
 4388SOL    HW224627   0.411   1.047  10.347  1.2940 -0.1076  2.9198
 4389SOL     OW24628   1.869   3.709   8.389 -0.4513 -0.0981  0.3698
 4389SOL    HW124629   1.795   3.767   8.374  0.5523  0.6271 -1.6441
 4389SOL    HW224630   1.942   3.747   8.341  0.4537 -1.3481  0.7399
 4390SOL     OW24631   2.098   4.033  11.173 -0.5829  0.7890 -0.9023
 4390SOL    HW124632   2.074   3.959  11.117 -0.0098  1.4405 -2.0017
 4390SOL    HW224633   2.146   3.979  11.236 -1.0563 -0.3867 -1.5436
 4391SOL     OW24634   4.408   2.281  16.605  0.1416  0.5125  0.2026
 4391SOL    HW124635   4.399   2.188  16.626  2.3238  0.1197 -0.5197
 4391SOL    HW224636   4.495   2.305  16.638 -0.0901  0.4815  0.8330
 4392SOL     OW24637   2.838   3.614  10.940  0.4216 -0.5358 -0.5346
 4392SOL    HW124638   2.893   3.632  10.864  0.3887 -2.6482 -1.0705
 4392SOL    HW224639   2.877   3.678  10.999 -1.5150  1.6940 -1.6734
 4393SOL     OW24640   1.228   3.271   1.520  0.2985 -0.4547  0.7363
 4393SOL    HW124641   1.173   3.302   1.448  2.6213  0.3196 -0.6997
 4393SOL    HW224642   1.217   3.342   1.583  1.1333  0.8357 -0.5675
 4394SOL     OW24643   0.842   0.186   1.563 -0.3230 -0.2982  0.0796
 4394SOL    HW124644   0.805   0.245   1.499  0.1940  0.7391  0.7428
 4394SOL    HW224645   0.938   0.189   1.556 -0.2961  0.7207  0.9327
 4395SOL     OW24646   1.574   2.752   9.394 -0.2591 -0.4979 -0.3228
 4395SOL    HW124647   1.518   2.773   9.320  2.0401  3.5918 -0.9728
 4395SOL    HW224648   1.510   2.705   9.447  0.3036 -0.5190  0.3504
 4396SOL     OW24649   1.295   2.041   1.860  0.9890  1.1087 -0.3978
 4396SOL    HW124650   1.268   2.098   1.788 -1.0965  0.0171 -0.4852
 4396SOL    HW224651   1.295   1.958   1.812  0.4111  1.4389 -0.9691
 4397SOL     OW24652   4.715   0.751  15.224 -0.0889 -0.8084  0.0466
 4397SOL    HW124653   4.660   0.681  15.261  0.2682 -0.4247  1.3210
 4397SOL    HW224654   4.679   0.832  15.260 -2.1183 -1.1263 -1.2598
 4398SOL     OW24655   0.072   1.296   3.557  0.2950 -0.0941 -0.2220
 4398SOL    HW124656   0.055   1.369   3.617  1.1833 -0.5724  0.6184
 4398SOL    HW224657   0.137   1.257   3.615 -0.6700  1.4581  1.9399
 4399SOL     OW24658   3.412   2.455  17.507  0.1515  0.0235 -0.1199
 4399SOL    HW124659   3.455   2.369  17.512 -0.8600 -0.4876 -0.1926
 4399SOL    HW224660   3.404   2.461  17.412  0.9370 -3.4432 -0.4307
 4400SOL     OW24661   3.135   3.996   4.207  0.1316 -0.3256  0.3022
 4400SOL    HW124662   3.044   3.989   4.179  0.8935 -0.7942 -2.0501
 4400SOL    HW224663   3.175   3.937   4.143  1.0678  2.2439 -1.5000
 4401SOL     OW24664   4.036   2.326   8.598 -0.1198 -0.1578  0.6620
 4401SOL    HW124665   4.121   2.363   8.577 -0.4613  0.0474 -0.4063
 4401SOL    HW224666   3.997   2.328   8.510  1.1441  1.3075  0.1475
 4402SOL     OW24667   2.684   3.124   7.830 -0.5008  0.2096 -0.6956
 4402SOL    HW124668   2.631   3.100   7.755  0.4902 -0.0693 -1.3095
 4402SOL    HW224669   2.618   3.121   7.899 -0.0822 -0.3642 -0.3158
 4403SOL     OW24670   0.619   2.695   2.530  0.3573  0.3887  0.5591
 4403SOL    HW124671   0.712   2.718   2.526 -0.0952  2.1139 -0.2301
 4403SOL    HW224672   0.618   2.642   2.610  2.8309  0.4293  0.6369
 4404SOL     OW24673   3.821   1.078   0.182  0.0868 -0.8670 -0.2229
 4404SOL    HW124674   3.903   1.113   0.146  0.6321 -0.1481  1.6877
 4404SOL    HW224675   3.852   1.044   0.267  1.3443 -1.6930 -1.0075
 4405SOL     OW24676   1.988   4.614  17.517  0.2846 -0.5042 -0.2992
 4405SOL    HW124677   1.967   4.706  17.531  2.1126 -0.0594 -0.4220
 4405SOL    HW224678   2.025   4.600  17.604 -0.4721 -0.8948 -0.0414
 4406SOL     OW24679   0.881   2.052   4.343  0.2745 -0.5859 -0.0294
 4406SOL    HW124680   0.892   1.977   4.286  3.0209  0.2224 -0.5931
 4406SOL    HW224681   0.966   2.096   4.352 -1.9256  3.2773  2.2572
 4407SOL     OW24682   3.541   4.274  10.236  0.1678  0.5714 -0.1864
 4407SOL    HW124683   3.573   4.261  10.147  1.2897 -0.6305  0.3959
 4407SOL    HW224684   3.450   4.291  10.212  0.0820 -0.8369 -0.8667
 4408SOL     OW24685   0.416   4.084  11.328 -0.0017  0.1079  0.3902
 4408SOL    HW124686   0.502   4.049  11.353  0.2975  0.4699 -0.1467
 4408SOL    HW224687   0.424   4.171  11.367 -0.0550  0.1377  0.3335
 4409SOL     OW24688   0.462   2.925   2.857 -0.3212  0.0887  0.2790
 4409SOL    HW124689   0.557   2.927   2.856 -0.3661  1.6359 -0.2531
 4409SOL    HW224690   0.451   3.016   2.830 -1.2768 -0.4403 -1.0891
 4410SOL     OW24691   3.717   4.369   2.700 -0.1063  0.4254 -0.5724
 4410SOL    HW124692   3.704   4.350   2.607 -0.8033 -0.3461 -0.3145
 4410SOL    HW224693   3.632   4.335   2.726  0.3783 -0.8878 -0.6959
 4411SOL     OW24694   3.076   1.745  13.456 -0.6909 -0.2768  0.4240
 4411SOL    HW124695   3.022   1.770  13.381  1.1927  0.4926 -0.6851
 4411SOL    HW224696   3.121   1.825  13.480 -0.9041 -0.1445  0.3770
 4412SOL     OW24697   1.419   1.415   6.991  0.1565  0.0789 -0.0370
 4412SOL    HW124698   1.461   1.353   7.051 -2.6108 -0.9959  0.7769
 4412SOL    HW224699   1.470   1.400   6.911  3.2219 -2.2811  2.3741
 4413SOL     OW24700   3.872   0.272  11.909 -0.8764 -0.0034  0.6305
 4413SOL    HW124701   3.906   0.353  11.872 -0.7323 -0.5145 -0.3743
 4413SOL    HW224702   3.793   0.306  11.951 -1.9962 -0.0477 -1.3992
 4414SOL     OW24703   0.485   3.773   8.176  0.4967  0.3594  0.1104
 4414SOL    HW124704   0.542   3.837   8.219  1.6804 -0.4382 -0.2743
 4414SOL    HW224705   0.460   3.817   8.095 -2.8187  0.1556  1.0227
 4415SOL     OW24706   0.597   0.091   0.945 -0.0914 -0.0722  0.1876
 4415SOL    HW124707   0.556   0.128   1.022 -2.9175  1.8605 -2.2632
 4415SOL    HW224708   0.560   0.152   0.881  2.0802  1.4513  0.3762
 4416SOL     OW24709   3.984   1.976  12.889  0.1540 -0.4064 -0.4546
 4416SOL    HW124710   3.982   1.903  12.951 -0.1071  1.8783  2.2783
 4416SOL    HW224711   4.055   2.025  12.931  2.3686 -3.2155 -1.0027
 4417SOL     OW24712   4.548   0.434   1.730 -0.1323  0.1147  0.1584
 4417SOL    HW124713   4.508   0.496   1.792  0.1872 -0.7654  1.2475
 4417SOL    HW224714   4.476   0.414   1.670 -0.1783  0.3008  0.1522
 4418SOL     OW24715   0.800   4.244   0.851 -0.6168  0.2344  0.5304
 4418SOL    HW124716   0.845   4.203   0.777 -0.7073 -0.9900  1.1391
 4418SOL    HW224717   0.878   4.294   0.873 -0.0897  0.1627 -1.2077
 4419SOL     OW24718   2.616   4.108   2.858  0.5072  0.5466  0.0614
 4419SOL    HW124719   2.663   4.191   2.855  0.8792  0.3398  0.1441
 4419SOL    HW224720   2.683   4.048   2.891  0.6834  1.4141  1.2557
 4420SOL     OW24721   3.316   1.284  16.473 -0.4137 -0.2252 -0.1511
 4420SOL    HW124722   3.361   1.210  16.513 -0.1120 -0.0275 -0.1207
 4420SOL    HW224723   3.223   1.264  16.472 -0.3627 -0.4320 -0.7617
 4421SOL     OW24724   2.336   2.213   0.808 -0.6216  0.1097  0.1310
 4421SOL    HW124725   2.282   2.291   0.793  0.0950  0.6085  0.1216
 4421SOL    HW224726   2.276   2.141   0.790 -0.3659 -0.0489 -0.0954
 4422SOL     OW24727   0.254   1.660   7.377  0.8047 -0.0100 -0.0069
 4422SOL    HW124728   0.318   1.723   7.411  1.7514 -1.0202  0.1047
 4422SOL    HW224729   0.293   1.576   7.401  1.8167  0.7480  1.0227
 4423SOL     OW24730   1.853   0.696   7.247  0.0916  0.0377 -0.6145
 4423SOL    HW124731   1.938   0.658   7.271 -0.7295 -0.8810  0.8446
 4423SOL    HW224732   1.880   0.776   7.202 -0.2497 -0.0720 -1.0118
 4424SOL     OW24733   3.269   1.070   5.514  0.6875  0.8049  0.4138
 4424SOL    HW124734   3.267   0.986   5.558  0.2732 -0.7944 -2.6837
 4424SOL    HW224735   3.182   1.108   5.524  0.0352 -0.7656  0.6111
 4425SOL     OW24736   1.524   3.228   8.988 -0.2653 -0.1689  0.1320
 4425SOL    HW124737   1.488   3.313   9.014 -0.8382 -0.2461 -0.4017
 4425SOL    HW224738   1.466   3.159   9.019  0.8353 -0.3302  1.8176
 4426SOL     OW24739   1.002   3.816  12.610 -0.3587 -0.0129  0.4103
 4426SOL    HW124740   1.049   3.898  12.624 -2.0008  1.1253 -0.7128
 4426SOL    HW224741   0.951   3.836  12.531 -0.5194  2.4779  1.1766
 4427SOL     OW24742   1.075   1.648   5.527  0.0982  0.5855  0.0073
 4427SOL    HW124743   1.024   1.674   5.450  2.2701  2.4278 -0.8233
 4427SOL    HW224744   1.163   1.681   5.507 -1.4422  2.9953 -2.8964
 4428SOL     OW24745   4.519   4.248   3.694 -0.2694  0.0325  0.0831
 4428SOL    HW124746   4.611   4.269   3.677 -0.3672  0.5036  0.1228
 4428SOL    HW224747   4.521   4.165   3.647  0.3424  0.9093 -1.4604
 4429SOL     OW24748   2.384   0.754   6.009 -0.5214  0.4436  0.2476
 4429SOL    HW124749   2.362   0.824   6.070 -0.2827 -0.5979  1.5275
 4429SOL    HW224750   2.468   0.726   6.045 -0.3207  2.0768  1.0695
 4430SOL     OW24751   0.218   4.352   4.517 -0.0694  0.4744  0.4472
 4430SOL    HW124752   0.303   4.363   4.560 -1.1621  0.6387  2.5382
 4430SOL    HW224753   0.245   4.369   4.427  0.5462  0.3181  0.6031
 4431SOL     OW24754   1.606   2.856   4.255 -0.2745  0.6454  0.3019
 4431SOL    HW124755   1.645   2.875   4.170  1.2694  2.4494  1.4027
 4431SOL    HW224756   1.512   2.864   4.239 -0.0536  1.9989 -0.3004
 4432SOL     OW24757   1.136   1.073   4.940  0.9062 -0.2563  0.1069
 4432SOL    HW124758   1.082   1.016   4.994  1.1527  1.6851  2.3737
 4432SOL    HW224759   1.117   1.156   4.984  0.9977  0.3698 -1.0250
 4433SOL     OW24760   4.465   3.890  13.583 -0.3721  0.5139  0.7287
 4433SOL    HW124761   4.421   3.905  13.667 -1.0509 -1.9717  0.8041
 4433SOL    HW224762   4.397   3.915  13.520 -1.0382 -2.0846  0.4139
 4434SOL     OW24763   0.005   1.213   2.425 -0.4321  0.2674  0.1240
 4434SOL    HW124764   0.040   1.235   2.511  0.2878  0.1371 -0.1390
 4434SOL    HW224765   0.020   1.119   2.436 -0.7641  0.1883 -0.0789
 4435SOL     OW24766   0.371   1.022   9.122 -0.1933  0.2011 -0.1741
 4435SOL    HW124767   0.298   1.084   9.119 -1.0454 -0.6753  2.9292
 4435SOL    HW224768   0.327   0.951   9.167  0.3311 -1.9016 -2.9363
 4436SOL     OW24769   0.236   4.027   3.054  0.0127 -0.1808 -0.1189
 4436SOL    HW124770   0.330   4.027   3.037  0.3264 -0.4259  1.6195
 4436SOL    HW224771   0.211   4.105   3.003 -0.3315  0.0462  0.4002
 4437SOL     OW24772   1.746   3.078   7.539  0.5465 -0.4377 -0.3268
 4437SOL    HW124773   1.746   3.089   7.634  1.1818 -0.7551 -0.2888
 4437SOL    HW224774   1.654   3.083   7.514  0.2077  3.3510  1.8097
 4438SOL     OW24775   0.088   0.274  12.993 -0.5210  0.4503  0.3877
 4438SOL    HW124776   0.101   0.330  12.916 -0.0179  0.0426  0.1757
 4438SOL    HW224777   0.064   0.337  13.061 -1.1452 -0.0640  0.6423
 4439SOL     OW24778   4.253   3.445  12.761 -0.0227 -0.0329  0.0850
 4439SOL    HW124779   4.340   3.482  12.747 -0.2324  0.3452 -0.2190
 4439SOL    HW224780   4.199   3.523  12.752  1.5018  1.0418  0.2905
 4440SOL     OW24781   2.202   0.939   8.243  0.3618 -0.2903 -0.2512
 4440SOL    HW124782   2.166   0.891   8.168 -0.9781 -0.4819  0.5070
 4440SOL    HW224783   2.148   1.018   8.235 -0.2151 -0.6756 -0.1844
 4441SOL     OW24784   2.693   4.168   9.443 -0.0610 -0.2648 -0.1068
 4441SOL    HW124785   2.715   4.261   9.443  2.9601 -0.9754  0.5917
 4441SOL    HW224786   2.604   4.172   9.408  0.3454 -1.8489 -1.3319
 4442SOL     OW24787   3.345   1.179   5.278 -0.0121 -0.5433  0.1905
 4442SOL    HW124788   3.335   1.148   5.368  1.4614  0.5031  0.7319
 4442SOL    HW224789   3.344   1.273   5.292 -0.3854 -0.6807  1.0807
 4443SOL     OW24790   4.160   3.395   1.784  1.0660  0.1996  0.3844
 4443SOL    HW124791   4.064   3.398   1.778  1.3464  2.0300 -2.8619
 4443SOL    HW224792   4.169   3.447   1.705 -2.1512 -0.3491 -0.3689
 4444SOL     OW24793   1.546   1.908   2.071  0.5050  0.2102 -0.5004
 4444SOL    HW124794   1.587   1.863   2.145 -1.1969 -0.9393 -0.2718
 4444SOL    HW224795   1.594   1.889   1.990 -0.3653 -3.5997 -0.1271
 4445SOL     OW24796   1.303   3.458  13.496  1.0712  0.8574 -0.3090
 4445SOL    HW124797   1.262   3.377  13.525 -1.2147  1.3744 -2.0851
 4445SOL    HW224798   1.231   3.519  13.510  2.0881  1.4200  2.3558
 4446SOL     OW24799   0.597   0.862   1.195 -0.3610  0.2620 -0.3173
 4446SOL    HW124800   0.579   0.778   1.237  1.1783 -0.4749 -1.0966
 4446SOL    HW224801   0.606   0.907   1.279  0.3422  2.6908 -1.7055
 4447SOL     OW24802   4.047   2.585   7.635  0.3500  0.7421  0.5406
 4447SOL    HW124803   4.012   2.499   7.656 -1.6394  1.0041 -1.7688
 4447SOL    HW224804   4.084   2.580   7.547  2.3614 -1.2232  1.5069
 4448SOL     OW24805   2.349   1.339   3.501 -0.3454  0.3583 -0.0012
 4448SOL    HW124806   2.306   1.423   3.482  0.7170  0.6626 -1.0875
 4448SOL    HW224807   2.414   1.367   3.565 -0.7222  0.6682  0.2451
 4449SOL     OW24808   3.512   0.574   2.480  0.6067 -0.2387  0.2341
 4449SOL    HW124809   3.528   0.480   2.482  4.5757  0.4836  1.8041
 4449SOL    HW224810   3.591   0.621   2.506  0.6692  0.8152 -1.9119
 4450SOL     OW24811   2.249   2.120  12.605  0.4240 -0.4995  0.1756
 4450SOL    HW124812   2.228   2.027  12.595  2.4776 -0.5603 -3.4080
 4450SOL    HW224813   2.157   2.144  12.606  0.9686  1.6027  0.8828
 4451SOL     OW24814   4.439   3.123   5.189 -0.1125 -0.0545 -0.0411
 4451SOL    HW124815   4.522   3.170   5.189 -0.6649  0.9177  3.1679
 4451SOL    HW224816   4.449   3.070   5.110 -0.6034  0.7596 -0.6503
 4452SOL     OW24817   1.092   0.886   9.807  0.4539  0.4941 -0.2654
 4452SOL    HW124818   1.030   0.830   9.854  0.4443  0.7496  0.0261
 4452SOL    HW224819   1.037   0.892   9.729 -1.7493 -0.0505  1.2248
 4453SOL     OW24820   3.565   4.567  11.156  0.0401  0.8369  0.0244
 4453SOL    HW124821   3.546   4.590  11.247  0.8597  2.4856 -0.2245
 4453SOL    HW224822   3.638   4.506  11.169  1.5915  2.2201 -2.2200
 4454SOL     OW24823   3.482   2.836  12.026 -0.0354  0.2714  0.1614
 4454SOL    HW124824   3.401   2.885  12.040 -0.0665  0.7126 -1.4902
 4454SOL    HW224825   3.536   2.905  11.986  0.3197 -0.0350  0.1141
 4455SOL     OW24826   0.691   2.791   4.889  0.1283  0.0387  0.4319
 4455SOL    HW124827   0.603   2.801   4.851  0.0269 -0.0458  0.6483
 4455SOL    HW224828   0.739   2.873   4.875 -0.4295  0.1760 -0.7126
 4456SOL     OW24829   0.429   1.216   7.068  0.0867 -0.3141  0.0414
 4456SOL    HW124830   0.456   1.304   7.042  2.5121 -1.9911 -3.1308
 4456SOL    HW224831   0.510   1.175   7.037  0.7987  1.0268  0.1090
 4457SOL     OW24832   4.519   0.549   6.159 -0.5164 -0.3360 -0.1051
 4457SOL    HW124833   4.561   0.623   6.202 -1.1415 -0.2668  0.3746
 4457SOL    HW224834   4.443   0.526   6.212 -0.9426 -3.1560 -1.9387
 4458SOL     OW24835   0.216   4.533   1.273 -0.0325  0.4189  0.9462
 4458SOL    HW124836   0.286   4.588   1.238 -0.4061  0.0824 -0.3483
 4458SOL    HW224837   0.177   4.496   1.194 -1.2904  0.9167  1.3250
 4459SOL     OW24838   2.314   4.598  11.758  0.4420 -0.2584 -0.3957
 4459SOL    HW124839   2.332   4.612  11.851  1.2984  0.8800 -0.7283
 4459SOL    HW224840   2.338   4.508  11.737 -0.3888 -0.8152  1.0571
 4460SOL     OW24841   1.103   0.175   5.780  0.5536  0.3638 -0.5697
 4460SOL    HW124842   1.022   0.206   5.821  3.0248  0.2238  4.3754
 4460SOL    HW224843   1.134   0.255   5.738  1.6795 -0.7660 -1.8977
 4461SOL     OW24844   4.346   2.974   4.523  0.2266 -0.0996 -0.7646
 4461SOL    HW124845   4.341   3.056   4.572 -2.2905 -0.4836 -0.4014
 4461SOL    HW224846   4.439   2.958   4.508  0.0682 -1.1529 -0.5949
 4462SOL     OW24847   2.181   2.727   7.582  0.4446 -0.8811  0.5435
 4462SOL    HW124848   2.230   2.795   7.535 -0.1831 -0.6495  0.2276
 4462SOL    HW224849   2.173   2.661   7.513  1.2199  0.0206 -0.4114
 4463SOL     OW24850   0.403   2.347   3.582 -0.1142 -0.2720  0.0685
 4463SOL    HW124851   0.329   2.408   3.582  0.3022  0.2309  0.2430
 4463SOL    HW224852   0.393   2.294   3.503  0.7534 -0.0442 -0.2002
 4464SOL     OW24853   1.881   2.597   5.717 -0.7233  0.4626  0.0203
 4464SOL    HW124854   1.805   2.649   5.742 -1.2537 -0.1982 -0.2082
 4464SOL    HW224855   1.951   2.654   5.686 -0.7661  1.1667  1.2365
 4465SOL     OW24856   2.774   3.307  10.384 -0.3130 -0.0617 -0.1084
 4465SOL    HW124857   2.820   3.223  10.386  0.9892  0.6208 -0.8188
 4465SOL    HW224858   2.710   3.295  10.314 -1.5851 -1.2308  1.2598
 4466SOL     OW24859   0.768   1.649   2.805  0.3448  0.3080 -0.2623
 4466SOL    HW124860   0.752   1.586   2.735  3.2360 -0.9749  0.2094
 4466SOL    HW224861   0.691   1.704   2.818 -0.9365 -1.2189 -1.4035
 4467SOL     OW24862   2.154   3.622   4.277  0.1770  0.4014 -0.3654
 4467SOL    HW124863   2.111   3.548   4.319 -0.9441  0.1454 -1.9550
 4467SOL    HW224864   2.246   3.595   4.281  0.0020  0.2853  2.9366
 4468SOL     OW24865   0.267   3.518  12.224 -0.0144  0.0280  0.1107
 4468SOL    HW124866   0.325   3.511  12.299  0.0530  2.0685  0.2613
 4468SOL    HW224867   0.204   3.453  12.257  1.9546 -2.3888 -0.9064
 4469SOL     OW24868   0.994   4.380   2.935  0.4366  0.1039  0.1913
 4469SOL    HW124869   0.911   4.368   2.889  0.3146  1.2058  0.1366
 4469SOL    HW224870   1.017   4.287   2.935  0.2404  0.0561  0.0136
 4470SOL     OW24871   2.874   3.322  13.320 -0.1357 -0.3548 -0.8266
 4470SOL    HW124872   2.925   3.270  13.382 -0.5256  1.2341  0.8270
 4470SOL    HW224873   2.817   3.368  13.381  0.6950  0.3984 -0.6163
 4471SOL     OW24874   2.933   4.610   9.609 -0.0015 -0.2695  0.4866
 4471SOL    HW124875   2.936   4.631   9.702  0.9226 -1.6909  0.7869
 4471SOL    HW224876   2.873   4.681   9.587 -0.5734 -0.3492  1.8213
 4472SOL     OW24877   3.026   1.973  16.910 -0.1306  0.4013  0.4322
 4472SOL    HW124878   2.998   2.063  16.890  2.2322  0.8965 -0.7064
 4472SOL    HW224879   3.054   1.943  16.823 -0.0452 -1.0867  0.9734
 4473SOL     OW24880   1.607   1.264   4.333 -0.1164  0.7037 -0.1278
 4473SOL    HW124881   1.597   1.183   4.284 -0.6377  0.3847  0.5064
 4473SOL    HW224882   1.692   1.251   4.375 -2.2995  0.2359  4.2321
 4474SOL     OW24883   1.537   0.704   4.161 -0.0934  0.2290  0.2444
 4474SOL    HW124884   1.595   0.738   4.093 -2.0435  0.7186 -1.1972
 4474SOL    HW224885   1.592   0.634   4.195 -0.6007  0.5005  1.6086
 4475SOL     OW24886   3.276   4.036  11.234  0.1928 -0.3610 -0.2324
 4475SOL    HW124887   3.292   3.986  11.154  0.1399 -1.0519  0.1825
 4475SOL    HW224888   3.329   3.987  11.297  0.9614  2.0473  0.9882
 4476SOL     OW24889   3.611   2.544   3.904 -0.7207  0.5732  0.0501
 4476SOL    HW124890   3.579   2.484   3.837 -0.0062  0.7917 -0.4873
 4476SOL    HW224891   3.706   2.533   3.898 -0.8161 -0.0816 -0.1917
 4477SOL     OW24892   0.293   2.844   8.753 -0.2122 -0.2919  0.0226
 4477SOL    HW124893   0.333   2.813   8.834  2.6429 -0.3699 -1.4242
 4477SOL    HW224894   0.348   2.799   8.689 -0.2438 -0.0966 -0.1415
 4478SOL     OW24895   0.256   4.085   7.416 -0.7846 -0.0387 -0.1502
 4478SOL    HW124896   0.339   4.057   7.377 -1.2347 -1.5152 -0.0635
 4478SOL    HW224897   0.276   4.172   7.450  0.7087 -0.7220  0.7101
 4479SOL     OW24898   3.035   0.986   5.641  0.2669  0.2871 -0.0575
 4479SOL    HW124899   2.982   0.925   5.590 -0.4107 -1.7737  3.1597
 4479SOL    HW224900   3.114   0.941   5.671 -0.0431 -0.9230 -1.0568
 4480SOL     OW24901   3.847   2.494   8.138  0.3137 -0.1434  0.3563
 4480SOL    HW124902   3.754   2.514   8.143  0.0912 -0.5598 -2.0425
 4480SOL    HW224903   3.861   2.459   8.050 -2.4696 -0.3024 -0.0196
 4481SOL     OW24904   1.267   2.601   2.014  0.0411  0.1191 -0.0012
 4481SOL    HW124905   1.275   2.673   1.952 -1.5598  0.6320  0.3763
 4481SOL    HW224906   1.222   2.535   1.963 -0.5595 -0.9521  1.9049
 4482SOL     OW24907   2.430   4.167   4.716 -0.1677 -0.4848 -1.1541
 4482SOL    HW124908   2.438   4.082   4.758 -3.0491 -0.8344 -1.3049
 4482SOL    HW224909   2.510   4.171   4.663  0.3128  0.1973 -0.3809
 4483SOL     OW24910   3.335   3.521  15.767  0.1536 -0.1288 -0.3914
 4483SOL    HW124911   3.270   3.463  15.725 -1.4207  0.9750  0.5368
 4483SOL    HW224912   3.417   3.477  15.746  0.1395 -1.0876  1.6211
 4484SOL     OW24913   1.135   0.036  15.430  0.1959  0.0118 -0.0142
 4484SOL    HW124914   1.207   0.095  15.408  1.0444 -1.1303 -0.2998
 4484SOL    HW224915   1.058   0.093  15.438 -2.1665 -3.4115  1.7424
 4485SOL     OW24916   2.190   3.808   7.638 -0.0122 -0.3541  0.0313
 4485SOL    HW124917   2.123   3.742   7.654  0.0420 -0.2503  0.6641
 4485SOL    HW224918   2.133   3.863   7.584  0.9773  0.8653  0.2504
 4486SOL     OW24919   3.891   3.450   7.071  0.2911  0.3825  0.0557
 4486SOL    HW124920   3.972   3.472   7.116  1.2956  1.6145 -2.3702
 4486SOL    HW224921   3.848   3.390   7.133 -0.7350 -1.8035 -2.7788
 4487SOL     OW24922   3.116   0.833   6.493  0.4945 -0.1091  0.1124
 4487SOL    HW124923   3.095   0.911   6.441  1.4486 -1.1912 -1.9340
 4487SOL    HW224924   3.194   0.865   6.538 -0.5018 -0.4049  2.0440
 4488SOL     OW24925   2.274   1.861  12.337  0.4855  0.7439  0.3664
 4488SOL    HW124926   2.310   1.805  12.405 -0.5712 -0.0282  0.2844
 4488SOL    HW224927   2.192   1.890  12.375  0.6649  0.4788  0.9539
 4489SOL     OW24928   4.017   0.686   4.834  0.0550  0.0152  0.0396
 4489SOL    HW124929   4.109   0.708   4.850  0.6227 -1.0976 -1.6361
 4489SOL    HW224930   3.978   0.764   4.874  0.7039  0.2218  0.2632
 4490SOL     OW24931   0.234   3.116  12.633  0.0190  0.7670  0.3972
 4490SOL    HW124932   0.190   3.031  12.643 -2.0460  1.9403  1.1967
 4490SOL    HW224933   0.258   3.128  12.725  0.5432  2.7787 -0.0028
 4491SOL     OW24934   0.662   2.823  14.485  0.4978 -0.0983  0.4443
 4491SOL    HW124935   0.643   2.753  14.422  0.2296 -1.7403  2.3309
 4491SOL    HW224936   0.722   2.787  14.549 -0.2356  0.5761  1.5146
 4492SOL     OW24937   2.489   1.544   4.745  0.6404 -0.5950  0.2355
 4492SOL    HW124938   2.532   1.513   4.825 -0.1432 -1.3600  0.3569
 4492SOL    HW224939   2.497   1.636   4.772  1.8058 -0.6483  0.0798
 4493SOL     OW24940   1.009   2.021  16.465  0.2937 -0.5131 -0.3640
 4493SOL    HW124941   1.043   2.049  16.550  0.3669  1.6751 -1.1155
 4493SOL    HW224942   0.957   2.099  16.444  1.5785  0.4158 -0.1259
 4494SOL     OW24943   1.002   0.579   7.034 -0.1921 -0.1698  0.0277
 4494SOL    HW124944   1.084   0.601   7.078  0.2584  1.9374 -1.8483
 4494SOL    HW224945   0.996   0.484   7.046 -0.2236 -0.1356  0.2873
 4495SOL     OW24946   3.728   0.344   5.666  0.9394 -0.3371  0.2108
 4495SOL    HW124947   3.682   0.397   5.601  0.7746  2.8095  2.9075
 4495SOL    HW224948   3.760   0.415   5.721 -2.7256  1.3403  0.2003
 4496SOL     OW24949   1.879   2.095   7.999 -0.7241  0.3810  0.2405
 4496SOL    HW124950   1.950   2.068   8.057  0.4877 -0.8180 -1.8187
 4496SOL    HW224951   1.890   2.188   8.020  0.8322 -0.0833  1.4791
 4497SOL     OW24952   4.150   1.168   6.930  0.1617 -0.3777 -0.2952
 4497SOL    HW124953   4.066   1.157   6.886  1.0600 -3.9753 -1.0969
 4497SOL    HW224954   4.216   1.175   6.860 -0.4632 -3.4413 -1.1965
 4498SOL     OW24955   0.375   3.984   9.006 -0.4029  0.3243 -0.4527
 4498SOL    HW124956   0.319   3.998   8.930 -2.4418 -0.5120  0.8895
 4498SOL    HW224957   0.302   3.961   9.064 -0.3526 -0.2881 -0.6312
 4499SOL     OW24958   1.484   0.591  13.914 -0.1084  0.3688 -0.3456
 4499SOL    HW124959   1.496   0.546  13.997 -1.7950  1.2498  0.3846
 4499SOL    HW224960   1.491   0.683  13.940  0.2764  0.5864 -1.2259
 4500SOL     OW24961   4.302   2.393   4.215 -0.2204  0.3573  0.3348
 4500SOL    HW124962   4.311   2.391   4.311  0.9373  1.8417  0.2624
 4500SOL    HW224963   4.394   2.404   4.189 -0.1092 -1.6219 -0.1123
 4501SOL     OW24964   2.573   3.349  16.881 -0.5155  0.1127 -0.4994
 4501SOL    HW124965   2.659   3.337  16.840 -0.7203 -0.4178 -0.7834
 4501SOL    HW224966   2.551   3.256  16.887  1.3205 -0.0693  3.6373
 4502SOL     OW24967   1.930   0.194   7.699  0.0835  0.1640 -0.2492
 4502SOL    HW124968   1.993   0.141   7.650 -1.7020 -0.1517 -2.1760
 4502SOL    HW224969   1.872   0.126   7.734 -1.9810  2.1276  0.1054
 4503SOL     OW24970   0.324   0.607   6.231  0.2494  0.1240  0.4731
 4503SOL    HW124971   0.284   0.635   6.149 -1.3830 -0.9219  0.9290
 4503SOL    HW224972   0.414   0.640   6.233  0.3481 -0.1354  0.2398
 4504SOL     OW24973   3.671   4.640  16.349  0.5753  0.7187  0.0313
 4504SOL    HW124974   3.753   4.631  16.301  1.5494  2.1916  1.4047
 4504SOL    HW224975   3.700   4.619  16.438  3.3423 -1.6494 -1.4171
 4505SOL     OW24976   0.367   0.414   2.747 -0.4453  0.2198 -0.0222
 4505SOL    HW124977   0.430   0.463   2.800 -0.6025  1.8073 -1.3011
 4505SOL    HW224978   0.435   0.360   2.707  0.1216  0.8285  0.1226
 4506SOL     OW24979   4.112   3.384   2.341  0.4283  0.2950  0.1953
 4506SOL    HW124980   4.036   3.325   2.346 -1.4824  2.7003 -0.4867
 4506SOL    HW224981   4.118   3.384   2.245  0.2810 -1.2834  0.1750
 4507SOL     OW24982   3.656   0.737   0.052 -0.3348 -0.0967  0.6918
 4507SOL    HW124983   3.636   0.783   0.133 -0.7479 -0.4053  0.7641
 4507SOL    HW224984   3.715   0.667   0.080  0.9094  0.2802 -0.9355
 4508SOL     OW24985   2.854   2.926   2.376 -0.0502  0.2169  0.1700
 4508SOL    HW124986   2.906   2.994   2.333 -0.7847  0.6169 -0.0970
 4508SOL    HW224987   2.789   2.904   2.309  0.5874  0.7630 -0.6260
 4509SOL     OW24988   0.299   1.272   8.186 -0.1331  0.3426  0.2149
 4509SOL    HW124989   0.293   1.361   8.150 -0.1492  0.0757 -0.4323
 4509SOL    HW224990   0.309   1.292   8.279 -0.5886 -0.8880  0.5305
 4510SOL     OW24991   2.044   4.668   7.995  0.1922 -0.2446 -0.0498
 4510SOL    HW124992   1.949   4.678   8.003  0.2222 -1.0549  1.3334
 4510SOL    HW224993   2.070   4.645   8.085  2.1574 -0.9207 -0.7911
 4511SOL     OW24994   1.445   1.900   7.693 -0.1618 -0.5391  0.0384
 4511SOL    HW124995   1.444   1.854   7.776 -0.3412  1.9481  1.4220
 4511SOL    HW224996   1.353   1.909   7.670 -0.2572  0.1962  0.7217
 4512SOL     OW24997   3.341   2.924   7.534 -0.3607 -0.1534  0.4667
 4512SOL    HW124998   3.363   2.877   7.615  1.0690  1.8562  1.2452
 4512SOL    HW224999   3.335   2.857   7.466 -1.0109 -1.1768  1.5398
 4513SOL     OW25000   0.801   2.848  11.465  0.2008  0.0238 -0.7143
 4513SOL    HW125001   0.831   2.761  11.439  1.2395 -0.2675  1.3905
 4513SOL    HW225002   0.706   2.847  11.456  0.1905 -2.1354 -0.2647
 4514SOL     OW25003   0.725   3.866   6.275 -0.2793  0.0804  0.2200
 4514SOL    HW125004   0.658   3.875   6.208  0.4958  0.7690 -0.4670
 4514SOL    HW225005   0.775   3.795   6.235  1.9777  1.7833  0.0248
 4515SOL     OW25006   1.590   4.082   7.986  0.9091 -0.5313  0.1916
 4515SOL    HW125007   1.576   4.174   8.005  0.4179 -0.3710 -0.9593
 4515SOL    HW225008   1.637   4.091   7.903  3.0188 -0.3938  1.4094
 4516SOL     OW25009   3.790   0.935   4.166 -0.3299 -0.1020 -0.3585
 4516SOL    HW125010   3.709   0.986   4.168 -0.0394  0.2282  1.9858
 4516SOL    HW225011   3.806   0.894   4.251  3.6414 -0.6437 -1.3311
 4517SOL     OW25012   4.356   0.293   7.595  0.3688  0.1470  0.3600
 4517SOL    HW125013   4.442   0.263   7.566  0.2668  1.8990 -1.7223
 4517SOL    HW225014   4.328   0.326   7.510 -2.0291 -0.8273  0.7727
 4518SOL     OW25015   3.801   3.574   7.411  0.1274  0.3854 -0.1860
 4518SOL    HW125016   3.886   3.586   7.454 -1.1764 -0.2185  2.5404
 4518SOL    HW225017   3.806   3.643   7.345 -2.7492  1.0485  0.3285
 4519SOL     OW25018   3.479   4.284  15.183  0.5910 -0.0241 -0.1720
 4519SOL    HW125019   3.409   4.253  15.240  0.6470 -0.7422 -0.4932
 4519SOL    HW225020   3.437   4.304  15.099 -0.9843  0.8222  0.8111
 4520SOL     OW25021   0.910   2.418  11.537  0.2320 -0.5979  0.0310
 4520SOL    HW125022   0.930   2.412  11.631 -0.0081 -0.7552  0.0731
 4520SOL    HW225023   0.946   2.502  11.511 -0.9477  0.2574  1.1525
 4521SOL     OW25024   3.872   2.439   5.131  0.0495  0.2843  0.7279
 4521SOL    HW125025   3.934   2.512   5.132  0.2904  0.0877 -0.3895
 4521SOL    HW225026   3.816   2.458   5.056  0.4343 -0.7694  0.1791
 4522SOL     OW25027   0.873   3.601   7.168  0.0621  0.3400  0.7625
 4522SOL    HW125028   0.930   3.660   7.216  0.0328  1.4316 -0.5544
 4522SOL    HW225029   0.858   3.640   7.082  0.7841 -0.1583  0.4027
 4523SOL     OW25030   3.948   2.070   2.257 -0.3127  0.2568 -0.2696
 4523SOL    HW125031   3.911   2.021   2.184 -2.6103  0.9570  0.4087
 4523SOL    HW225032   4.038   2.057   2.230 -0.2816 -1.9440  0.8650
 4524SOL     OW25033   1.512   1.210   3.589 -0.1109  0.6303 -0.1521
 4524SOL    HW125034   1.518   1.159   3.669 -0.7228 -0.9707 -1.1389
 4524SOL    HW225035   1.532   1.298   3.623  1.8310  0.2880 -0.3813
 4525SOL     OW25036   0.550   1.510   7.312  0.0152  0.4394  0.2199
 4525SOL    HW125037   0.545   1.423   7.352  0.9562 -1.0469 -2.8873
 4525SOL    HW225038   0.535   1.568   7.387  2.2193  1.3695 -0.0864
 4526SOL     OW25039   0.107   0.141   1.148  0.9087  0.9216  0.3340
 4526SOL    HW125040   0.112   0.104   1.060  0.7742 -0.5333  0.9232
 4526SOL    HW225041   0.052   0.218   1.136 -0.5251 -0.6864 -3.3069
 4527SOL     OW25042   2.470   1.000   9.549  0.6752 -0.2622  0.3739
 4527SOL    HW125043   2.452   0.912   9.515  0.8659  0.1212 -0.7052
 4527SOL    HW225044   2.413   1.000   9.625 -1.1023  3.0347 -0.9648
 4528SOL     OW25045   4.704   3.241  15.625 -0.1566 -0.4380 -0.2851
 4528SOL    HW125046   4.632   3.222  15.686  0.9648  1.8142  1.7575
 4528SOL    HW225047   0.051   3.289  15.677  0.5617 -1.1824 -0.4865
 4529SOL     OW25048   1.650   3.385   8.247  0.3183  0.4380  0.0864
 4529SOL    HW125049   1.584   3.411   8.312  0.2824  1.0166 -0.1749
 4529SOL    HW225050   1.715   3.444   8.284 -2.1111  3.6003 -0.6812
 4530SOL     OW25051   2.949   2.681   2.525 -0.1313  0.1492  0.0626
 4530SOL    HW125052   2.949   2.770   2.488 -0.4120 -0.5200 -1.5305
 4530SOL    HW225053   2.892   2.644   2.457 -0.0409  1.0146 -0.4917
 4531SOL     OW25054   0.219   0.541   6.701 -0.1340  0.0009 -0.4137
 4531SOL    HW125055   0.205   0.532   6.607  0.8099 -4.4887 -0.1264
 4531SOL    HW225056   0.301   0.493   6.709  0.8510  1.2790 -3.1349
 4532SOL     OW25057   2.038   0.721  14.632 -0.7569 -0.2388 -0.4767
 4532SOL    HW125058   2.118   0.772  14.647  0.1817 -2.0912  0.9266
 4532SOL    HW225059   2.076   0.654  14.575 -1.0281 -1.6378  0.9806
 4533SOL     OW25060   4.215   2.669   3.189 -0.2613 -0.4935  0.2779
 4533SOL    HW125061   4.273   2.744   3.201 -2.0170  1.0088 -0.6309
 4533SOL    HW225062   4.192   2.664   3.097  2.0993  1.3700 -0.4265
 4534SOL     OW25063   2.836   1.073   6.635 -0.3300  0.2752  0.2888
 4534SOL    HW125064   2.861   1.037   6.550  0.9538 -2.3886  1.7799
 4534SOL    HW225065   2.921   1.101   6.670 -0.6668  0.0466  1.3087
 4535SOL     OW25066   2.618   3.558   4.884  0.3024  0.0685  0.2579
 4535SOL    HW125067   2.530   3.542   4.849  0.1831  0.3055  0.4408
 4535SOL    HW225068   2.623   3.513   4.969 -0.3669 -3.2770 -1.5002
 4536SOL     OW25069   3.737   2.601   4.578  0.4266 -0.5656 -0.3588
 4536SOL    HW125070   3.802   2.547   4.624 -0.8509 -0.7208  1.2619
 4536SOL    HW225071   3.739   2.677   4.638 -0.4630 -1.6502  1.0375
 4537SOL     OW25072   4.046   2.679  13.151 -1.0449 -0.2880  0.0248
 4537SOL    HW125073   3.975   2.666  13.213 -2.2662  0.5724 -1.1866
 4537SOL    HW225074   4.005   2.618  13.090  0.4340 -1.3919  0.1248
 4538SOL     OW25075   0.149   1.220   4.432 -0.1529 -0.3378 -0.0828
 4538SOL    HW125076   0.137   1.134   4.475 -1.4443  0.1210  0.4875
 4538SOL    HW225077   0.057   1.225   4.406 -0.2695 -1.6497  0.0505
 4539SOL     OW25078   0.373   0.976   2.409  0.0564  0.4346 -0.4299
 4539SOL    HW125079   0.312   0.957   2.338  0.1356  1.2659 -0.7283
 4539SOL    HW225080   0.432   0.901   2.408 -1.7355 -0.9771 -0.8546
 4540SOL     OW25081   0.840   1.127   9.294  0.3134  0.0038 -0.3680
 4540SOL    HW125082   0.842   1.083   9.209  2.6063 -2.2229  0.8332
 4540SOL    HW225083   0.898   1.200   9.274 -0.7286  0.5366 -1.4307
 4541SOL     OW25084   1.354   4.462  16.271  0.1901  0.4889 -0.4589
 4541SOL    HW125085   1.426   4.508  16.228  0.4439  0.7849  0.2795
 4541SOL    HW225086   1.312   4.535  16.317 -0.0481 -1.5748  2.5715
 4542SOL     OW25087   2.432   3.893   4.799 -0.2718  0.2568 -0.0258
 4542SOL    HW125088   2.497   3.838   4.843  0.0183  1.9598  1.6716
 4542SOL    HW225089   2.372   3.827   4.763  0.7310  0.2188 -1.6236
 4543SOL     OW25090   0.800   2.027   2.837  0.0336  0.4460 -0.2202
 4543SOL    HW125091   0.776   2.018   2.929  1.0866  2.7972  0.2894
 4543SOL    HW225092   0.719   2.064   2.803 -0.1564  1.6052  1.4926
 4544SOL     OW25093   2.786   4.696   7.220  0.4495 -0.1805 -0.6267
 4544SOL    HW125094   2.869   0.013   7.187  1.1804 -0.5899  0.7619
 4544SOL    HW225095   2.744   0.061   7.244  1.8031 -0.3484  2.4117
 4545SOL     OW25096   1.958   4.076   4.486  0.2166 -0.1249 -0.3925
 4545SOL    HW125097   2.011   3.997   4.491 -1.9417 -1.6552 -1.8820
 4545SOL    HW225098   1.910   4.064   4.405 -0.5855  0.2614  0.0242
 4546SOL     OW25099   0.778   2.337   8.084 -0.1046 -0.7401  0.5282
 4546SOL    HW125100   0.867   2.373   8.092 -0.1768 -0.1499 -1.3950
 4546SOL    HW225101   0.746   2.381   8.163  1.6364  0.5532  0.5331
 4547SOL     OW25102   3.826   0.453   6.942 -0.4962  0.1520 -0.4793
 4547SOL    HW125103   3.835   0.359   6.956  0.9899  0.1703 -1.3358
 4547SOL    HW225104   3.792   0.452   6.852  2.5639  2.0675 -1.6470
 4548SOL     OW25105   2.442   0.953   7.851 -0.2293  0.0028  0.5280
 4548SOL    HW125106   2.416   1.007   7.776  0.0030 -0.2493  0.2667
 4548SOL    HW225107   2.365   0.897   7.846 -0.5011  0.4340 -0.1880
 4549SOL     OW25108   1.516   4.501   3.702  0.2774 -0.9279 -0.3514
 4549SOL    HW125109   1.515   4.543   3.788  0.9218 -0.7443 -0.4308
 4549SOL    HW225110   1.422   4.502   3.681  0.5491  0.3164 -1.4930
 4550SOL     OW25111   2.751   4.246   3.199  0.4802 -0.0343  0.5990
 4550SOL    HW125112   2.705   4.164   3.219  0.5176 -0.0643  0.5603
 4550SOL    HW225113   2.714   4.283   3.119  0.5635 -2.6685 -0.6707
 4551SOL     OW25114   1.463   1.139   3.852 -0.3117 -0.2127  0.8462
 4551SOL    HW125115   1.399   1.088   3.901 -0.5100 -0.5141  0.2649
 4551SOL    HW225116   1.486   1.205   3.918  1.1367 -0.7461  0.8898
 4552SOL     OW25117   0.088   0.243   6.613 -0.2457 -0.0900  0.0324
 4552SOL    HW125118   0.106   0.327   6.570  1.4684 -0.3447  0.2576
 4552SOL    HW225119   0.172   0.236   6.658  0.5708 -0.3827 -1.5413
 4553SOL     OW25120   0.613   3.413   4.849  0.0577  0.1487  0.0115
 4553SOL    HW125121   0.683   3.478   4.848  0.6874 -0.4807  4.5103
 4553SOL    HW225122   0.536   3.467   4.860  0.2626 -0.0008  2.2774
 4554SOL     OW25123   0.196   1.440  16.373 -0.7338 -0.1875 -0.0104
 4554SOL    HW125124   0.284   1.469  16.349 -0.9429 -0.2211 -0.8006
 4554SOL    HW225125   0.182   1.360  16.321 -2.3813  0.4631 -0.5692
 4555SOL     OW25126   0.250   2.824   8.361  0.0336 -0.0798  0.7692
 4555SOL    HW125127   0.203   2.876   8.296  4.1681  1.8132 -0.7335
 4555SOL    HW225128   0.315   2.885   8.395  2.2496 -0.9923 -1.8376
 4556SOL     OW25129   4.603   2.031   8.634  0.2315 -0.1003  0.0513
 4556SOL    HW125130   4.670   1.962   8.631 -1.0388 -1.2779 -1.3439
 4556SOL    HW225131   4.551   2.031   8.553 -1.3001  0.0974  1.0381
 4557SOL     OW25132   1.436   3.941   6.794 -0.0019  0.7839 -0.6574
 4557SOL    HW125133   1.500   4.011   6.801  0.8344  0.0658 -1.1450
 4557SOL    HW225134   1.450   3.900   6.708  0.1411 -0.0889 -0.2146
 4558SOL     OW25135   4.586   1.820  14.051  0.0678  0.4046 -0.4628
 4558SOL    HW125136   4.496   1.788  14.053  0.1211  0.1943 -1.4176
 4558SOL    HW225137   4.566   1.909  14.023  0.3851  1.3872  2.4111
 4559SOL     OW25138   4.232   0.907   3.632 -0.1382 -0.1588 -0.3306
 4559SOL    HW125139   4.162   0.888   3.569  0.0063  1.4914 -0.9929
 4559SOL    HW225140   4.183   0.966   3.690 -0.9167 -1.0877 -0.0481
 4560SOL     OW25141   4.616   0.614   2.869  0.5462 -0.1314  0.6957
 4560SOL    HW125142   4.537   0.665   2.849  1.7115  1.2752 -0.3164
 4560SOL    HW225143   4.591   0.524   2.850  0.0514  0.6190 -2.2362
 4561SOL     OW25144   4.253   1.545   6.898  0.0081  0.7228  0.5968
 4561SOL    HW125145   4.267   1.625   6.949 -1.8898  0.8353  0.9352
 4561SOL    HW225146   4.191   1.576   6.832  0.8413  2.4122  0.6065
 4562SOL     OW25147   3.042   4.032  12.147 -0.5904  0.0509 -0.1330
 4562SOL    HW125148   3.027   4.092  12.074  3.0571  0.4375 -0.5791
 4562SOL    HW225149   3.100   4.088  12.199  0.8566 -1.6959  0.1343
 4563SOL     OW25150   1.086   2.801   4.008 -0.7463 -0.0080 -0.2420
 4563SOL    HW125151   1.161   2.745   3.988 -1.1775 -1.7960  3.0736
 4563SOL    HW225152   1.051   2.830   3.924 -2.1071 -1.6859 -0.2592
 4564SOL     OW25153   0.555   1.078   5.197 -0.2674 -0.1815 -0.2744
 4564SOL    HW125154   0.489   1.008   5.191 -1.6526  1.0452  0.6915
 4564SOL    HW225155   0.617   1.041   5.259  0.5678 -0.0808 -1.0530
 4565SOL     OW25156   4.574   1.673  15.959  0.3548  0.1201  0.1955
 4565SOL    HW125157   4.560   1.598  15.901  2.0273  0.3236 -0.4711
 4565SOL    HW225158   4.635   1.642  16.026 -0.4365 -2.0747 -0.1083
 4566SOL     OW25159   1.570   2.863   2.935 -0.3864 -1.0687  0.1307
 4566SOL    HW125160   1.567   2.959   2.938  0.3021 -1.0345 -0.1260
 4566SOL    HW225161   1.491   2.845   2.984 -0.1238 -0.9649  0.5927
 4567SOL     OW25162   1.878   1.240   7.829 -0.3105  0.1886  0.2246
 4567SOL    HW125163   1.924   1.173   7.880 -1.4851 -0.7079  0.1136
 4567SOL    HW225164   1.788   1.210   7.848 -0.5876  0.6728 -0.3585
 4568SOL     OW25165   4.262   3.843   5.113  0.2282  0.6451 -0.2385
 4568SOL    HW125166   4.181   3.882   5.146 -0.1308  0.1693 -0.5561
 4568SOL    HW225167   4.318   3.850   5.191  0.7321  3.7289 -0.9104
 4569SOL     OW25168   4.435   1.438   8.440 -0.0311 -0.0459 -0.0886
 4569SOL    HW125169   4.520   1.408   8.410  0.3014 -2.1530  2.9780
 4569SOL    HW225170   4.420   1.368   8.503 -0.3617 -0.3445 -0.4930
 4570SOL     OW25171   1.010   2.755   7.401  0.1109  0.3581  0.0245
 4570SOL    HW125172   1.071   2.763   7.474 -0.6222 -0.0580  0.6952
 4570SOL    HW225173   1.015   2.659   7.392  0.5777  0.5833 -1.9519
 4571SOL     OW25174   0.035   3.123   1.149  0.4054 -0.0463 -0.0287
 4571SOL    HW125175   4.670   3.170   1.157  1.6098  2.0316  0.2762
 4571SOL    HW225176   0.078   3.152   1.230 -2.1634 -0.3206  1.4290
 4572SOL     OW25177   1.675   2.898   3.972  0.1208 -0.7947  0.1256
 4572SOL    HW125178   1.671   2.993   3.983  4.1959 -0.5318 -0.5511
 4572SOL    HW225179   1.597   2.877   3.921  0.7511  0.4775 -1.3599
 4573SOL     OW25180   1.521   0.175   7.865  0.0495  1.0428  0.9832
 4573SOL    HW125181   1.457   0.120   7.910 -0.3389  1.4999  0.9847
 4573SOL    HW225182   1.488   0.187   7.776  0.5757 -0.3890  0.6027
 4574SOL     OW25183   0.156   0.501  13.452 -0.0115  0.2489  0.2166
 4574SOL    HW125184   0.250   0.500  13.436  0.3029  0.7306  2.0682
 4574SOL    HW225185   0.143   0.460  13.538 -0.2225 -2.3175 -1.0298
 4575SOL     OW25186   0.430   3.336  12.084  0.4058 -0.4398 -0.1881
 4575SOL    HW125187   0.365   3.399  12.115  1.4651  0.5432  0.0377
 4575SOL    HW225188   0.509   3.366  12.130  0.0825  0.4597 -0.2354
 4576SOL     OW25189   1.033   1.168   1.680 -0.0912  0.1333  0.7075
 4576SOL    HW125190   1.111   1.216   1.706  1.7944 -2.0385 -0.9913
 4576SOL    HW225191   1.002   1.231   1.615  1.6061  1.4366  1.1630
 4577SOL     OW25192   1.162   4.532   7.430  0.2880  0.5860 -0.1064
 4577SOL    HW125193   1.180   4.439   7.421 -1.9682  0.1201 -0.0061
 4577SOL    HW225194   1.224   4.561   7.497 -0.6496  0.6667  0.7309
 4578SOL     OW25195   4.681   2.086  10.648 -0.2439  0.0366 -0.9306
 4578SOL    HW125196   4.630   2.147  10.701 -0.0844 -0.8815  0.3032
 4578SOL    HW225197   4.626   2.069  10.572 -0.0699 -1.3006 -0.7615
 4579SOL     OW25198   2.019   0.613  12.858  0.1210 -0.0840  0.3107
 4579SOL    HW125199   1.935   0.573  12.879 -0.0863  0.7569  1.0848
 4579SOL    HW225200   2.010   0.709  12.863 -1.9495 -0.2851  0.3426
 4580SOL     OW25201   2.920   2.698   1.608  1.0487  0.0968 -0.4045
 4580SOL    HW125202   2.933   2.699   1.514 -0.5180  1.0779 -0.6067
 4580SOL    HW225203   2.830   2.665   1.606  1.4938 -1.2911  1.9544
 4581SOL     OW25204   3.669   4.319  13.685  0.2552  0.2951 -0.0685
 4581SOL    HW125205   3.706   4.340  13.599 -0.0585 -0.1915 -0.3202
 4581SOL    HW225206   3.657   4.225  13.676  1.3838  0.1227  0.1964
 4582SOL     OW25207   1.290   2.543   0.256 -0.0309 -0.6793 -0.0249
 4582SOL    HW125208   1.240   2.620   0.228 -0.1676 -0.8506 -0.2512
 4582SOL    HW225209   1.377   2.578   0.239  0.7186 -1.6249  1.8189
 4583SOL     OW25210   1.122   4.455  10.335  0.6440  0.0495 -0.2205
 4583SOL    HW125211   1.204   4.493  10.301 -1.1878  2.4758 -1.9116
 4583SOL    HW225212   1.058   4.501  10.281 -1.3791 -0.4091  1.8037
 4584SOL     OW25213   2.560   1.899   7.692  0.5438 -0.1683  0.0297
 4584SOL    HW125214   2.619   1.824   7.682  1.8438  0.5991  1.9449
 4584SOL    HW225215   2.477   1.861   7.722  0.6235 -0.2334  0.1680
 4585SOL     OW25216   0.343   3.802   4.660 -0.4078 -0.3485 -0.1397
 4585SOL    HW125217   0.438   3.818   4.665 -0.6125  2.2013 -4.0545
 4585SOL    HW225218   0.329   3.820   4.567 -2.3157 -1.7813 -0.1143
 4586SOL     OW25219   4.382   3.232   4.144  0.2733  0.2831  0.0180
 4586SOL    HW125220   4.295   3.238   4.185 -0.7041  1.5605 -2.2727
 4586SOL    HW225221   4.378   3.303   4.081  1.5629  1.1494  0.9068
 4587SOL     OW25222   1.042   1.074   8.746 -0.2390  0.4435  0.4744
 4587SOL    HW125223   1.090   0.999   8.712  1.7748  2.2176 -0.6143
 4587SOL    HW225224   1.074   1.131   8.676 -1.5707 -1.4996 -1.7417
 4588SOL     OW25225   1.212   1.508   6.445  0.2898 -0.2311 -0.2607
 4588SOL    HW125226   1.188   1.474   6.358  0.9414  1.9510 -1.2898
 4588SOL    HW225227   1.250   1.426   6.477  1.1230  0.2551 -0.0330
 4589SOL     OW25228   0.735   2.309   3.155 -0.1423  0.1382  0.3380
 4589SOL    HW125229   0.701   2.271   3.236 -2.6718  3.1255  0.6635
 4589SOL    HW225230   0.660   2.291   3.099  1.6507 -0.9776 -1.6830
 4590SOL     OW25231   1.818   2.392   7.652  0.1167  0.2020  0.5903
 4590SOL    HW125232   1.751   2.373   7.587  2.1380 -2.3459 -0.6923
 4590SOL    HW225233   1.832   2.303   7.683 -0.6214  0.3616  1.3982
 4591SOL     OW25234   1.874   1.016   9.184 -0.1874  0.2155  0.1533
 4591SOL    HW125235   1.947   1.067   9.218 -0.8149  0.7010  0.7490
 4591SOL    HW225236   1.827   1.079   9.129 -1.4010 -1.8214 -1.1463
 4592SOL     OW25237   0.374   3.189   3.684 -0.4796  0.2531  1.0099
 4592SOL    HW125238   0.398   3.181   3.777 -0.0068  1.4253  0.9856
 4592SOL    HW225239   0.407   3.108   3.646 -0.3936  1.3467 -1.2320
 4593SOL     OW25240   2.105   4.210   3.458  0.2689  0.5079  0.1266
 4593SOL    HW125241   2.150   4.186   3.540  1.4731  1.3686 -0.2703
 4593SOL    HW225242   2.052   4.132   3.441  0.9801  0.1922 -0.6362
 4594SOL     OW25243   2.622   0.507   4.634  0.1806  0.4356  0.2282
 4594SOL    HW125244   2.571   0.427   4.635 -1.9510  1.7711 -1.7244
 4594SOL    HW225245   2.565   0.563   4.582 -2.6159 -2.4407  0.1863
 4595SOL     OW25246   4.373   2.400   8.614  0.6153  0.5194  0.0663
 4595SOL    HW125247   4.357   2.334   8.681  0.9509 -0.8526 -1.2010
 4595SOL    HW225248   4.458   2.378   8.574 -0.1153 -1.0170 -0.6591
 4596SOL     OW25249   3.900   2.263   7.134 -0.3331 -0.0557  0.0111
 4596SOL    HW125250   3.849   2.343   7.121 -0.6949 -0.2657  0.1251
 4596SOL    HW225251   3.841   2.195   7.103 -1.7375  1.3320 -0.3435
 4597SOL     OW25252   0.374   1.939   2.999 -0.1113 -0.1275  0.1692
 4597SOL    HW125253   0.423   1.916   3.078 -1.8856 -0.9102  1.0520
 4597SOL    HW225254   0.425   1.893   2.932  0.9286 -0.0151  0.8886
 4598SOL     OW25255   2.302   2.936   4.880 -1.0390  0.2751  0.1004
 4598SOL    HW125256   2.235   2.890   4.931  1.2345 -0.4098  2.4386
 4598SOL    HW225257   2.325   2.875   4.810  0.9135  1.0787  0.0372
 4599SOL     OW25258   0.482   0.510   6.949  0.1816 -0.3538  1.0154
 4599SOL    HW125259   0.387   0.502   6.963 -0.0184  1.2000  0.5187
 4599SOL    HW225260   0.507   0.536   7.037  0.4285  2.8112  0.0193
 4600SOL     OW25261   3.195   2.280  11.581 -0.3288 -0.5933 -0.3884
 4600SOL    HW125262   3.243   2.358  11.554  1.1207 -1.3457  0.0532
 4600SOL    HW225263   3.131   2.325  11.637  0.6035  1.9264 -1.3315
 4601SOL     OW25264   2.388   3.452   3.237 -0.0432  0.0981  0.7554
 4601SOL    HW125265   2.348   3.474   3.153  1.1349 -1.2021 -0.1337
 4601SOL    HW225266   2.465   3.399   3.218  1.7259  3.0631 -0.3178
 4602SOL     OW25267   1.991   1.739   6.069  0.1515 -0.2207  0.5259
 4602SOL    HW125268   2.036   1.698   5.995  0.2553  1.8452 -0.5825
 4602SOL    HW225269   1.988   1.829   6.037 -2.6433 -1.0039 -1.3909
 4603SOL     OW25270   3.160   3.637   6.794 -0.0746  0.6039 -0.4995
 4603SOL    HW125271   3.148   3.598   6.881  1.7818  2.7682  0.7479
 4603SOL    HW225272   3.248   3.672   6.808 -0.1681  0.8220 -0.4564
 4604SOL     OW25273   1.929   3.756  17.189 -0.0972  0.0560 -0.0298
 4604SOL    HW125274   1.882   3.682  17.151 -0.0990 -1.3655  2.7743
 4604SOL    HW225275   1.969   3.801  17.114  1.1817  0.0005  0.6248
 4605SOL     OW25276   0.683   2.533   6.237  0.3641  0.8537  0.1817
 4605SOL    HW125277   0.728   2.609   6.275 -1.7084  1.7989  0.7450
 4605SOL    HW225278   0.737   2.458   6.259  1.4997  1.4062 -0.7418
 4606SOL     OW25279   4.119   0.668   2.357 -0.3720 -0.6065 -0.1286
 4606SOL    HW125280   4.207   0.631   2.353  0.1883  0.6228  0.6357
 4606SOL    HW225281   4.120   0.716   2.274  2.4491  1.5601  1.1534
 4607SOL     OW25282   0.417   2.476   6.233  0.1482  0.1014  0.1282
 4607SOL    HW125283   0.425   2.398   6.289 -0.8062  0.0067  0.1335
 4607SOL    HW225284   0.507   2.507   6.233  1.2834 -3.1696 -1.3951
 4608SOL     OW25285   2.586   4.327  15.492  0.6269  0.4924  0.1672
 4608SOL    HW125286   2.625   4.411  15.466 -1.1125  0.9342 -1.0080
 4608SOL    HW225287   2.668   4.278  15.492  0.2798 -0.0613  2.0730
 4609SOL     OW25288   0.087   2.556  11.319  0.2179 -0.4467  0.4817
 4609SOL    HW125289   0.025   2.573  11.389 -0.5546  0.4969 -0.4356
 4609SOL    HW225290   0.120   2.642  11.293  1.4776 -0.8237  0.7904
 4610SOL     OW25291   3.334   1.762  13.698  0.1259  0.1914 -0.4919
 4610SOL    HW125292   3.301   1.822  13.632  3.2996 -0.4446 -2.6705
 4610SOL    HW225293   3.428   1.751  13.681  0.0244  2.5209 -2.4260
 4611SOL     OW25294   2.514   4.619   2.935 -0.3395  0.2127  0.2121
 4611SOL    HW125295   2.431   4.577   2.957 -0.8629  1.8998  1.4291
 4611SOL    HW225296   2.530   4.604   2.842 -0.2573 -0.1683  0.2867
 4612SOL     OW25297   1.147   0.624   6.598  0.0025 -0.0898  0.0475
 4612SOL    HW125298   1.203   0.661   6.666 -1.0225  1.8984 -0.1917
 4612SOL    HW225299   1.057   0.636   6.628 -0.3298  2.5540 -2.0204
 4613SOL     OW25300   1.554   3.320   4.613  0.4532 -0.0855  0.0073
 4613SOL    HW125301   1.623   3.269   4.654  0.2567  0.3776  0.9101
 4613SOL    HW225302   1.481   3.258   4.617 -0.5431  1.0019 -1.0086
 4614SOL     OW25303   3.784   0.916  16.445 -0.0695  0.3301  0.3694
 4614SOL    HW125304   3.873   0.883  16.436 -0.0893  0.1231  0.9456
 4614SOL    HW225305   3.762   0.925  16.353 -1.6682  0.5065  0.7531
 4615SOL     OW25306   0.185   2.882   9.392 -0.7678  0.1395 -0.1517
 4615SOL    HW125307   0.146   2.969   9.379 -1.7114 -0.3412 -0.4902
 4615SOL    HW225308   0.129   2.849   9.462  0.3392 -1.9934 -0.2877
 4616SOL     OW25309   1.971   1.539   3.187 -0.1137 -0.8761 -0.1117
 4616SOL    HW125310   1.913   1.479   3.139 -0.2109  0.2356 -1.3967
 4616SOL    HW225311   1.950   1.513   3.277  1.1731 -0.4805  0.3002
 4617SOL     OW25312   1.243   4.085   3.705  0.1895  0.9294 -0.4170
 4617SOL    HW125313   1.336   4.098   3.688  0.4437 -1.1909 -0.6451
 4617SOL    HW225314   1.244   4.125   3.792 -0.2550 -1.7878  0.8316
 4618SOL     OW25315   0.891   4.628  10.268  0.7992  0.3316 -0.1804
 4618SOL    HW125316   0.849   4.547  10.241  1.3358  0.3781 -1.1603
 4618SOL    HW225317   0.822   4.694  10.263 -0.0488 -0.5448 -0.0108
 4619SOL     OW25318   3.891   1.106   3.589  0.0914  0.6208  0.3364
 4619SOL    HW125319   3.874   1.161   3.513  0.6508  1.8601  1.1107
 4619SOL    HW225320   3.807   1.117   3.633 -0.2149 -2.7079  0.5532
 4620SOL     OW25321   3.686   2.321  12.003 -0.3523 -0.1632 -0.1444
 4620SOL    HW125322   3.690   2.415  12.018 -1.1934 -0.0649 -0.5393
 4620SOL    HW225323   3.743   2.323  11.925  0.2296 -1.0078  0.2597
 4621SOL     OW25324   0.685   4.449   0.687 -0.3584  0.4154  0.1229
 4621SOL    HW125325   0.764   4.466   0.635  0.5084  1.1001  1.6632
 4621SOL    HW225326   0.714   4.376   0.741  0.4477 -0.9639 -2.1560
 4622SOL     OW25327   4.487   4.280  16.169 -0.1087 -0.1921  0.6069
 4622SOL    HW125328   4.408   4.227  16.168  0.1941 -0.6904  2.1301
 4622SOL    HW225329   4.456   4.367  16.195  0.3807  0.2486 -0.2723
 4623SOL     OW25330   2.693   1.552  16.095  0.1278 -0.4044  0.4425
 4623SOL    HW125331   2.719   1.616  16.161 -1.0804  0.5107  0.0385
 4623SOL    HW225332   2.607   1.581  16.064  0.6468 -0.5691 -1.1529
 4624SOL     OW25333   0.914   3.802   0.492 -0.1705  0.1229  0.2062
 4624SOL    HW125334   0.921   3.802   0.397  0.1328 -1.7029  0.2323
 4624SOL    HW225335   0.910   3.897   0.502  0.5468  0.3588 -1.7895
 4625SOL     OW25336   2.273   2.445  16.084 -0.1711  0.2614 -0.2774
 4625SOL    HW125337   2.283   2.369  16.141  0.3827  0.3210 -0.2961
 4625SOL    HW225338   2.319   2.510  16.137  0.2905  0.6344 -1.1223
 4626SOL     OW25339   1.884   1.357  15.151 -0.1960  0.2117 -0.0447
 4626SOL    HW125340   1.864   1.314  15.234  0.1774  1.0659  0.4941
 4626SOL    HW225341   1.899   1.447  15.181 -1.1923  0.0999  0.7958
 4627SOL     OW25342   3.252   4.655   7.325  0.0203  0.1466 -0.5080
 4627SOL    HW125343   3.275   4.639   7.233  1.2894 -0.7504 -0.0429
 4627SOL    HW225344   3.270   0.030   7.311  0.8897  0.2888  1.5530
 4628SOL     OW25345   2.845   0.099  12.683 -0.0382 -0.0796  0.1073
 4628SOL    HW125346   2.840   0.010  12.719  0.0002 -0.0783  0.1156
 4628SOL    HW225347   2.783   0.139  12.744  2.0702 -1.0357  2.8887
 4629SOL     OW25348   2.893   4.350   8.406 -0.4571 -0.0486  0.4871
 4629SOL    HW125349   2.808   4.311   8.427 -0.5528 -0.1923 -0.1937
 4629SOL    HW225350   2.888   4.404   8.327  0.2277  0.9422  1.1137
 4630SOL     OW25351   1.641   3.027   6.517  0.4293  0.1774  0.3441
 4630SOL    HW125352   1.553   3.059   6.537  0.0409  0.5684 -1.9716
 4630SOL    HW225353   1.643   2.944   6.565  1.7988  0.0410  0.0675
 4631SOL     OW25354   0.126   3.998  10.718 -0.3524 -0.1710  0.4073
 4631SOL    HW125355   0.139   3.940  10.793  0.0556 -0.5635  0.0299
 4631SOL    HW225356   0.185   3.966  10.650 -1.4859 -0.8479 -0.2526
 4632SOL     OW25357   1.478   4.541   0.985  0.4351 -0.2355  0.3406
 4632SOL    HW125358   1.463   4.622   1.034  1.5368 -0.1095  0.4611
 4632SOL    HW225359   1.567   4.553   0.952  0.5154  0.0345  0.6527
 4633SOL     OW25360   3.546   1.797   5.113  0.2102  0.2655  0.2496
 4633SOL    HW125361   3.589   1.825   5.194  0.4912  0.5824 -0.0108
 4633SOL    HW225362   3.467   1.851   5.119  0.3572  0.5125 -0.0467
 4634SOL     OW25363   2.047   2.825   9.951 -0.6061 -0.4149 -0.1407
 4634SOL    HW125364   2.054   2.891  10.020 -0.7358 -1.3695  0.7953
 4634SOL    HW225365   2.009   2.880   9.883 -0.5915 -1.0581 -0.6688
 4635SOL     OW25366   1.596   1.422   3.714  0.1441 -0.5296 -0.0899
 4635SOL    HW125367   1.624   1.466   3.795 -2.3366 -0.3727  0.6826
 4635SOL    HW225368   1.625   1.489   3.652  0.5917 -0.6005  0.0421
 4636SOL     OW25369   1.415   3.758   9.513  0.3700 -0.0916 -0.1777
 4636SOL    HW125370   1.402   3.850   9.536  1.2732  0.5999 -2.4335
 4636SOL    HW225371   1.351   3.754   9.441 -1.0341  0.3332  1.0413
 4637SOL     OW25372   3.481   1.007   8.537  0.1370  0.1190  0.0584
 4637SOL    HW125373   3.461   1.059   8.460  1.1963 -0.6739 -0.7584
 4637SOL    HW225374   3.565   1.046   8.562  0.1854 -1.3115  2.1227
 4638SOL     OW25375   4.023   0.293   1.158 -0.2892 -0.3507 -0.4168
 4638SOL    HW125376   3.931   0.280   1.179 -0.4792 -0.0685 -1.0822
 4638SOL    HW225377   4.027   0.329   1.070 -0.4813  1.2017  0.2178
 4639SOL     OW25378   2.780   0.509   2.658 -0.2239  0.3408  0.7563
 4639SOL    HW125379   2.827   0.493   2.739 -1.0920 -1.5585  0.8948
 4639SOL    HW225380   2.718   0.438   2.673 -1.4157  1.4022  0.8668
 4640SOL     OW25381   3.331   4.323   5.063  0.3467 -0.3680 -0.2908
 4640SOL    HW125382   3.263   4.350   5.125  1.5483  2.8455 -0.3422
 4640SOL    HW225383   3.319   4.228   5.060  1.4489 -0.4897 -0.9958
 4641SOL     OW25384   1.826   1.745  15.731 -0.9226  0.0370  0.3549
 4641SOL    HW125385   1.803   1.671  15.675 -1.2393 -0.3920  1.0491
 4641SOL    HW225386   1.771   1.817  15.699 -3.7702 -1.6427  1.4194
 4642SOL     OW25387   0.116   2.444   9.165  0.1021  0.0443  0.1126
 4642SOL    HW125388   0.148   2.506   9.100 -1.1107 -0.5494 -1.0736
 4642SOL    HW225389   0.157   2.363   9.135 -1.0504 -0.3751 -0.3696
 4643SOL     OW25390   4.587   1.775   8.934  0.7796  0.1782 -0.6432
 4643SOL    HW125391   4.527   1.737   8.999  0.6926 -1.5619 -1.7632
 4643SOL    HW225392   4.544   1.860   8.923  0.1835  0.1641  1.4296
 4644SOL     OW25393   0.796   0.041   1.964 -0.1597 -0.2236  0.1799
 4644SOL    HW125394   0.819   0.132   1.983  3.2074 -0.7889 -1.2535
 4644SOL    HW225395   0.864   4.715   2.015 -0.0872 -0.2397  0.0701
 4645SOL     OW25396   3.809   1.801   3.608 -0.5423  0.0358 -0.5481
 4645SOL    HW125397   3.872   1.795   3.537 -2.6053  1.5033 -2.5071
 4645SOL    HW225398   3.766   1.883   3.585 -0.7620  0.4189  1.2258
 4646SOL     OW25399   4.102   1.709   4.436  0.1432  0.3278 -0.1518
 4646SOL    HW125400   4.163   1.641   4.409  1.5911  0.7069  2.2595
 4646SOL    HW225401   4.078   1.747   4.351 -1.5300  1.6001  0.8680
 4647SOL     OW25402   1.552   1.570   6.581  0.4612 -0.1954 -0.2158
 4647SOL    HW125403   1.549   1.602   6.672  2.5093  0.0456 -0.2399
 4647SOL    HW225404   1.471   1.611   6.549  0.0361 -0.9024 -0.0595
 4648SOL     OW25405   1.797   0.403  11.143 -0.5463 -0.1465 -0.5038
 4648SOL    HW125406   1.778   0.343  11.070  0.7721  1.6679 -2.3577
 4648SOL    HW225407   1.808   0.340  11.214  2.8890 -0.7780 -1.6119
 4649SOL     OW25408   3.065   1.459   4.541 -0.4261  0.0945  0.1316
 4649SOL    HW125409   3.151   1.498   4.553  0.7224 -2.2859 -0.3310
 4649SOL    HW225410   3.039   1.476   4.451  0.0678 -1.4816 -0.3066
 4650SOL     OW25411   2.971   0.163   7.153 -0.3813  0.0823 -0.8052
 4650SOL    HW125412   2.950   0.172   7.246  1.4057 -0.8421 -0.3092
 4650SOL    HW225413   3.048   0.218   7.143  1.7876 -2.3122  2.5550
 4651SOL     OW25414   4.381   1.071  16.282 -0.3517  0.1231  0.7759
 4651SOL    HW125415   4.329   1.084  16.203 -0.3370 -1.4410  0.5111
 4651SOL    HW225416   4.443   1.006  16.249 -1.2366 -0.5248  0.3792
 4652SOL     OW25417   3.178   2.568  13.092  0.0647 -0.7144  0.2583
 4652SOL    HW125418   3.138   2.511  13.027  2.1832  0.3322 -1.9474
 4652SOL    HW225419   3.105   2.603  13.143 -1.5165 -1.1649 -1.7107
 4653SOL     OW25420   3.143   0.576   4.157 -0.0690 -0.2459 -0.3387
 4653SOL    HW125421   3.210   0.519   4.118  2.8919  1.5995  2.0633
 4653SOL    HW225422   3.068   0.518   4.145 -0.1798 -0.1941  0.1311
 4654SOL     OW25423   2.160   2.293   3.781  0.2663 -0.5076 -0.2140
 4654SOL    HW125424   2.071   2.328   3.779  1.0604  1.5212 -0.3134
 4654SOL    HW225425   2.198   2.344   3.852 -2.4720  0.9834  0.1606
 4655SOL     OW25426   3.928   4.382  17.246 -0.0986  0.2085 -0.1603
 4655SOL    HW125427   3.943   4.290  17.271  0.8184  0.9826  2.2067
 4655SOL    HW225428   3.976   4.389  17.163  0.5793 -2.5243  0.0031
 4656SOL     OW25429   3.321   0.027   3.261  0.3812  0.0909 -0.1541
 4656SOL    HW125430   3.374   0.093   3.307 -0.2626 -1.0804  2.2866
 4656SOL    HW225431   3.392   4.681   3.246 -0.5956 -1.0986  0.2792
 4657SOL     OW25432   1.322   3.285   7.372  0.0521 -0.0943  0.1474
 4657SOL    HW125433   1.356   3.365   7.331 -2.3772  0.9302  0.1463
 4657SOL    HW225434   1.277   3.320   7.450  0.2681 -1.1488  0.7419
 4658SOL     OW25435   3.499   0.522   1.710 -0.3542  0.0939 -0.1350
 4658SOL    HW125436   3.575   0.485   1.755 -1.8881 -0.9167  1.6286
 4658SOL    HW225437   3.432   0.511   1.777 -1.5172  0.5421 -1.2258
 4659SOL     OW25438   1.697   1.095  11.098 -0.5899 -0.2929 -0.3153
 4659SOL    HW125439   1.686   1.109  11.192  2.9556 -0.3901  0.0829
 4659SOL    HW225440   1.698   1.000  11.090  0.9081 -0.4172  1.5593
 4660SOL     OW25441   3.069   3.470   4.594  0.7179 -0.1204 -0.6577
 4660SOL    HW125442   2.977   3.445   4.606  0.9355 -0.8597 -0.4908
 4660SOL    HW225443   3.058   3.528   4.519 -0.4063 -1.4798 -1.5505
 4661SOL     OW25444   4.018   3.063   4.075  0.4771  0.7590  0.2346
 4661SOL    HW125445   3.928   3.084   4.097 -0.0829 -0.8943 -0.5125
 4661SOL    HW225446   4.014   3.067   3.979 -1.3739  0.8334  0.3183
 4662SOL     OW25447   0.103   0.233  15.955  0.1151  0.3012  0.0197
 4662SOL    HW125448   0.169   0.179  15.911  0.1956  0.2841  0.1644
 4662SOL    HW225449   0.037   0.172  15.987  0.8207  0.7705  2.3692
 4663SOL     OW25450   4.128   3.713   4.891  0.1015  0.0383 -0.1782
 4663SOL    HW125451   4.183   3.705   4.813  0.7686  1.2803  0.1536
 4663SOL    HW225452   4.185   3.727   4.966 -2.7076  4.1359  1.2056
 4664SOL     OW25453   4.539   4.028   2.036 -0.2469  0.4223  0.7489
 4664SOL    HW125454   4.448   4.011   2.015  0.8385 -1.9996 -1.9652
 4664SOL    HW225455   4.543   4.054   2.128 -0.8131  0.4451  0.7657
 4665SOL     OW25456   2.452   1.432   7.429  0.2509  0.3301  0.1611
 4665SOL    HW125457   2.489   1.511   7.467  0.1663 -0.0203  0.9754
 4665SOL    HW225458   2.399   1.458   7.354 -0.8844  1.8277  1.5112
 4666SOL     OW25459   2.410   3.093   3.990 -0.1825 -0.3303 -0.1965
 4666SOL    HW125460   2.329   3.081   4.040  0.8720  0.8269  1.7826
 4666SOL    HW225461   2.473   3.091   4.062  0.6432 -1.4215 -0.9439
 4667SOL     OW25462   2.369   3.014   8.550 -0.4495  0.5116  0.1277
 4667SOL    HW125463   2.463   3.030   8.555 -0.5772  1.2678  0.0730
 4667SOL    HW225464   2.340   3.032   8.460  1.5239  0.4555 -0.5206
 4668SOL     OW25465   3.027   0.151  13.024  0.2910 -0.2751 -0.3596
 4668SOL    HW125466   2.977   0.188  12.951  0.1329 -0.5256 -0.3776
 4668SOL    HW225467   2.974   0.073  13.037 -3.4217  2.6022  1.6238
 4669SOL     OW25468   2.416   1.983  13.181  0.2926 -0.0885  0.0786
 4669SOL    HW125469   2.499   1.947  13.211  0.6235  1.4455  1.0248
 4669SOL    HW225470   2.457   2.059  13.140  1.1523 -0.2852  0.5796
 4670SOL     OW25471   2.372   1.933   5.631 -0.6270 -1.4527  0.1744
 4670SOL    HW125472   2.335   2.016   5.661  1.0507 -0.1144 -1.4949
 4670SOL    HW225473   2.372   1.886   5.715  0.7488  0.5290  1.2895
 4671SOL     OW25474   3.692   4.288   2.456  0.1939 -0.5070 -0.5339
 4671SOL    HW125475   3.607   4.266   2.416 -0.2202 -1.0145  0.6316
 4671SOL    HW225476   3.737   4.338   2.388  0.0320 -1.2493 -1.1961
 4672SOL     OW25477   3.245   4.506   3.368  0.5869  0.3374 -0.3090
 4672SOL    HW125478   3.326   4.505   3.418  1.8287 -2.3403 -2.3989
 4672SOL    HW225479   3.241   4.599   3.344  0.4481  0.8077  1.5455
 4673SOL     OW25480   4.215   0.358   6.180 -0.1322  0.1328  0.2378
 4673SOL    HW125481   4.255   0.310   6.108  3.2266  1.7852  1.0131
 4673SOL    HW225482   4.121   0.350   6.161 -0.0320  0.0249 -0.2155
 4674SOL     OW25483   2.992   2.092  14.348 -0.5969 -0.0675  0.4254
 4674SOL    HW125484   2.924   2.154  14.321  0.4279  0.7108 -0.3447
 4674SOL    HW225485   2.996   2.040  14.268  1.2410  1.3491 -0.3959
 4675SOL     OW25486   2.071   2.099  14.697 -0.4124 -0.1841 -0.0669
 4675SOL    HW125487   2.016   2.097  14.618 -0.6393  2.6603 -0.0054
 4675SOL    HW225488   2.085   2.009  14.726  0.2325  0.4022  1.4071
 4676SOL     OW25489   1.633   2.291   2.931  0.1441 -0.2696 -0.1117
 4676SOL    HW125490   1.580   2.249   2.998  1.8017 -4.3333 -1.3389
 4676SOL    HW225491   1.606   2.383   2.939  1.3665  0.0558  0.2152
 4677SOL     OW25492   2.348   1.188   7.313 -0.1415  0.0449 -0.0472
 4677SOL    HW125493   2.378   1.275   7.340  0.9617 -0.3275 -0.1026
 4677SOL    HW225494   2.341   1.199   7.219  1.4196  0.4335 -0.1050
 4678SOL     OW25495   3.161   1.320   5.773  0.0862 -0.1482 -0.8339
 4678SOL    HW125496   3.132   1.245   5.824  0.4700  0.5803  0.4739
 4678SOL    HW225497   3.242   1.337   5.821 -0.4917 -0.7046  0.3367
 4679SOL     OW25498   1.936   3.925  15.989  0.8753 -0.5929 -0.5021
 4679SOL    HW125499   1.950   3.894  16.079 -0.5812  0.4149  0.0679
 4679SOL    HW225500   1.871   3.857  15.969  1.5893 -1.1156 -1.0494
 4680SOL     OW25501   4.286   3.631   6.726  0.1931  0.3958  0.0699
 4680SOL    HW125502   4.264   3.640   6.819 -1.0070 -0.1404 -0.1530
 4680SOL    HW225503   4.306   3.721   6.700  0.2939  0.2081 -0.4966
 4681SOL     OW25504   2.532   0.483  15.944  0.1010 -0.1081  0.4152
 4681SOL    HW125505   2.604   0.455  15.887 -0.2113 -1.1977  0.5496
 4681SOL    HW225506   2.476   0.531  15.883  2.5748  0.0228 -1.7525
 4682SOL     OW25507   0.531   2.918  11.756  0.7219  0.6941 -0.5541
 4682SOL    HW125508   0.519   2.880  11.669 -0.0696 -2.6141  1.0016
 4682SOL    HW225509   0.587   2.851  11.794  0.1877  0.5364 -0.0498
 4683SOL     OW25510   4.063   2.092   4.083 -0.3883 -0.1647  0.0171
 4683SOL    HW125511   4.065   2.181   4.118  0.8197 -0.1436 -0.1190
 4683SOL    HW225512   4.151   2.087   4.046 -0.5275  0.9921 -0.4763
 4684SOL     OW25513   1.825   1.828   7.257 -0.0601  0.2419  0.1175
 4684SOL    HW125514   1.779   1.744   7.249  0.4921 -0.0018 -0.5061
 4684SOL    HW225515   1.890   1.831   7.187 -0.9957  0.4672 -0.7553
 4685SOL     OW25516   3.074   4.615  13.229 -0.3314 -0.1415  0.6777
 4685SOL    HW125517   2.992   4.581  13.265  0.8373 -1.2135  2.3559
 4685SOL    HW225518   3.050   4.637  13.139 -2.6241  1.5055  1.6674
 4686SOL     OW25519   3.050   2.740   0.393 -0.1829  0.2958 -0.2282
 4686SOL    HW125520   3.043   2.691   0.475  2.1169 -1.0474 -0.8556
 4686SOL    HW225521   3.129   2.791   0.409 -0.0017 -0.2394  0.6231
 4687SOL     OW25522   2.914   2.950   0.318 -0.1615  0.5540  0.1985
 4687SOL    HW125523   2.872   2.918   0.238 -0.0675 -3.1643  1.6597
 4687SOL    HW225524   2.969   2.876   0.343 -2.3881 -0.7425  1.2988
 4688SOL     OW25525   1.149   0.255   9.924 -0.4079  0.5347 -0.1390
 4688SOL    HW125526   1.069   0.280   9.877  0.6660  0.2727 -2.1017
 4688SOL    HW225527   1.114   0.248  10.013  2.1338  1.8738  0.9634
 4689SOL     OW25528   3.896   2.505   3.831  0.0169  0.3349  0.3567
 4689SOL    HW125529   3.860   2.420   3.806 -0.2498  0.6396 -0.2984
 4689SOL    HW225530   3.955   2.478   3.902 -0.0653 -1.2878 -0.1854
 4690SOL     OW25531   0.395   2.707  12.057 -0.4195 -0.0742  0.1657
 4690SOL    HW125532   0.388   2.630  12.114 -0.7485 -0.2522 -0.1134
 4690SOL    HW225533   0.431   2.776  12.113  0.3709 -0.8406  0.6040
 4691SOL     OW25534   0.891   3.952   6.797 -0.0417 -0.2462 -1.0329
 4691SOL    HW125535   0.975   3.935   6.838  0.3847 -0.6485 -2.0838
 4691SOL    HW225536   0.923   4.000   6.721  1.8144 -2.1026 -1.4302
 4692SOL     OW25537   1.364   4.710   0.407 -0.2721 -0.2131  0.5107
 4692SOL    HW125538   1.336   4.667   0.326  3.3802 -2.1077  0.2627
 4692SOL    HW225539   1.319   4.653   0.470  0.2574 -2.3696 -1.0431
 4693SOL     OW25540   3.398   0.938  17.106  0.4136 -0.0369  0.3414
 4693SOL    HW125541   3.404   0.853  17.149  1.5069  0.7034  1.6235
 4693SOL    HW225542   3.469   0.983  17.152 -1.6888  1.3445  2.2403
 4694SOL     OW25543   3.611   4.660   0.483 -0.0440 -0.2900  0.3290
 4694SOL    HW125544   3.546   4.598   0.515 -0.3563 -0.2252 -0.1840
 4694SOL    HW225545   3.648   4.699   0.562  0.6400 -0.8391  0.2812
 4695SOL     OW25546   4.558   1.448   3.954  0.2084  0.1031 -0.0197
 4695SOL    HW125547   4.565   1.359   3.918  0.5595  0.0295  0.2259
 4695SOL    HW225548   4.549   1.508   3.880  3.0764 -0.4870 -0.8589
 4696SOL     OW25549   2.376   0.457   3.238 -0.4604 -0.0588  0.2564
 4696SOL    HW125550   2.422   0.373   3.245 -0.0922  0.4299  3.7044
 4696SOL    HW225551   2.377   0.463   3.333 -1.6435  0.8940  0.2124
 4697SOL     OW25552   4.275   0.169   3.171  0.1502  0.1309 -0.2470
 4697SOL    HW125553   4.216   0.141   3.241 -1.4897  0.8621 -1.3160
 4697SOL    HW225554   4.225   0.135   3.096 -1.5958  0.0476  0.9530
 4698SOL     OW25555   2.303   4.177  15.719  0.4002 -0.0603 -0.2215
 4698SOL    HW125556   2.265   4.110  15.776 -2.4590  0.1227 -1.9106
 4698SOL    HW225557   2.395   4.152  15.713  0.3177 -0.7538  1.5037
 4699SOL     OW25558   0.204   2.678   2.367  0.3656 -0.3728  0.1681
 4699SOL    HW125559   0.280   2.735   2.383 -1.6715  2.0309  1.4469
 4699SOL    HW225560   0.252   2.596   2.360 -1.2765 -1.2397 -0.7585
 4700SOL     OW25561   2.434   3.800   1.033  0.8423 -0.1164 -0.4679
 4700SOL    HW125562   2.470   3.715   1.058  0.5909 -0.8781 -2.7072
 4700SOL    HW225563   2.385   3.771   0.956  0.1296 -0.2593  0.0453
 4701SOL     OW25564   0.599   1.177   2.219  0.8311  0.1137  0.0593
 4701SOL    HW125565   0.550   1.098   2.243 -0.2926  0.5343 -0.8628
 4701SOL    HW225566   0.647   1.158   2.139  0.4351  2.7387 -0.7888
 4702SOL     OW25567   2.885   3.577   9.197 -0.6676  0.5763  0.0106
 4702SOL    HW125568   2.969   3.533   9.186 -1.4725 -0.8933 -0.1464
 4702SOL    HW225569   2.839   3.534   9.125 -0.6271  0.2852  0.1600
 4703SOL     OW25570   3.785   0.512   3.843 -0.2269 -0.6992  0.1445
 4703SOL    HW125571   3.760   0.575   3.911 -0.5239  0.2493 -0.8404
 4703SOL    HW225572   3.719   0.443   3.840 -0.2412 -0.7022  0.5520
 4704SOL     OW25573   0.087   4.627   1.687 -0.3173  0.5500 -0.2399
 4704SOL    HW125574   0.061   4.689   1.755 -0.8697  1.0484 -0.9044
 4704SOL    HW225575   0.000   4.595   1.660 -0.1213  1.2811 -1.7352
 4705SOL     OW25576   2.059   4.109   5.108  0.5962  0.2201  0.3772
 4705SOL    HW125577   1.988   4.106   5.172  3.2204  0.2576  3.2964
 4705SOL    HW225578   2.012   4.088   5.028  1.0134  0.1427  0.1541
 4706SOL     OW25579   3.703   4.363  12.813 -0.1778  0.2827  0.1516
 4706SOL    HW125580   3.746   4.448  12.816  0.9134 -0.2985  1.0409
 4706SOL    HW225581   3.678   4.363  12.720 -1.4903 -1.4603  0.4835
 4707SOL     OW25582   2.319   2.072  11.060  0.3309  0.1920  0.6273
 4707SOL    HW125583   2.301   2.139  10.994 -0.9525  0.6691  1.4539
 4707SOL    HW225584   2.348   1.998  11.007 -0.8205 -2.1187  3.1952
 4708SOL     OW25585   3.286   1.356   9.473  0.0028  0.0168  0.2848
 4708SOL    HW125586   3.199   1.393   9.457  0.9621  2.1233 -0.1047
 4708SOL    HW225587   3.340   1.397   9.405 -1.4256 -1.3582 -1.6600
 4709SOL     OW25588   1.845   4.197   6.233  0.0405 -0.3303  0.1462
 4709SOL    HW125589   1.790   4.270   6.207 -1.0890 -1.0633  0.4538
 4709SOL    HW225590   1.929   4.239   6.249  1.3278 -2.9738  0.4783
 4710SOL     OW25591   3.585   3.001   7.016 -0.1561  0.5685  0.2881
 4710SOL    HW125592   3.634   2.999   7.098  1.8420  1.5077 -0.8915
 4710SOL    HW225593   3.612   3.088   6.986 -1.4675  0.2205 -1.9800
 4711SOL     OW25594   3.175   0.258  10.641 -0.3726  0.3892  0.0465
 4711SOL    HW125595   3.251   0.204  10.661  1.5460  2.4528 -1.7446
 4711SOL    HW225596   3.176   0.327  10.707  0.8584  1.1989 -0.8179
 4712SOL     OW25597   3.576   1.942   2.568 -0.3480 -0.0878  0.5619
 4712SOL    HW125598   3.660   1.989   2.569  0.4836 -1.4934 -0.9003
 4712SOL    HW225599   3.527   1.990   2.633  0.0549 -0.4269  1.1192
 4713SOL     OW25600   1.848   2.810  16.535 -0.3547  0.7437  0.1169
 4713SOL    HW125601   1.931   2.801  16.582 -1.0885 -1.0251  1.0786
 4713SOL    HW225602   1.785   2.803  16.607  2.2926 -0.4319  2.3124
 4714SOL     OW25603   3.721   1.579  11.368  0.0377 -0.2294 -0.9211
 4714SOL    HW125604   3.813   1.582  11.396  0.0993  0.8467 -1.2283
 4714SOL    HW225605   3.683   1.568  11.455 -0.3814  1.5670 -0.8656
 4715SOL     OW25606   3.277   3.822   3.578  0.5045 -0.3614 -0.0121
 4715SOL    HW125607   3.240   3.746   3.623 -1.5318 -1.0568 -2.8752
 4715SOL    HW225608   3.342   3.774   3.529 -0.8456 -1.0251 -1.1508
 4716SOL     OW25609   2.778   0.371  12.477 -0.0881 -0.1521 -0.3653
 4716SOL    HW125610   2.715   0.442  12.483 -0.9850 -0.8224 -1.9618
 4716SOL    HW225611   2.806   0.395  12.389 -0.5169  2.5060  0.2305
 4717SOL     OW25612   4.578   4.440   4.020  0.1325 -0.4601 -0.0467
 4717SOL    HW125613   4.511   4.384   3.981 -0.1750 -0.9864  1.2594
 4717SOL    HW225614   4.592   4.388   4.099  1.3613 -0.6658 -0.3949
 4718SOL     OW25615   2.238   3.318   6.602 -0.7993 -0.6015  0.3469
 4718SOL    HW125616   2.328   3.320   6.571 -0.7206 -1.9173  0.5071
 4718SOL    HW225617   2.242   3.366   6.684 -0.2211  0.1963 -0.1472
 4719SOL     OW25618   1.313   4.309   9.189 -0.4215 -0.2698 -0.2037
 4719SOL    HW125619   1.267   4.393   9.196  0.2551  0.1488 -0.7598
 4719SOL    HW225620   1.402   4.345   9.189 -0.4821 -0.1621 -2.4271
 4720SOL     OW25621   4.113   2.555   9.389  0.3156  0.2050  0.3061
 4720SOL    HW125622   4.060   2.610   9.331  3.0051 -0.6029 -2.9175
 4720SOL    HW225623   4.125   2.611   9.466  1.2296 -0.8688  0.9440
 4721SOL     OW25624   2.112   0.460   0.372 -0.0872  0.2831  0.1119
 4721SOL    HW125625   2.146   0.537   0.327 -2.6638  0.8739 -0.8461
 4721SOL    HW225626   2.148   0.388   0.320 -0.5586  0.4012 -0.3801
 4722SOL     OW25627   2.725   4.244   2.611 -0.2479 -0.5153  0.0735
 4722SOL    HW125628   2.738   4.151   2.630  0.0874 -0.3472  0.6803
 4722SOL    HW225629   2.705   4.230   2.519 -1.9773  3.9370 -0.1992
 4723SOL     OW25630   1.170   3.590   5.099 -0.0838  0.1759 -0.0783
 4723SOL    HW125631   1.105   3.523   5.077  0.2926  0.5063 -2.2362
 4723SOL    HW225632   1.208   3.555   5.179  1.5028 -0.7003 -1.2160
 4724SOL     OW25633   4.384   3.678  12.938 -0.4075 -0.1114 -0.0701
 4724SOL    HW125634   4.438   3.757  12.927  0.6150 -1.0157 -1.5319
 4724SOL    HW225635   4.298   3.704  12.969 -0.6767 -1.5981  0.4183
 4725SOL     OW25636   2.261   1.909   9.048 -0.0132 -0.0831  0.5511
 4725SOL    HW125637   2.354   1.913   9.025 -0.2235 -0.2284 -0.3235
 4725SOL    HW225638   2.228   1.993   9.017  1.0024  0.2594  0.3923
 4726SOL     OW25639   3.785   1.790   8.648  0.3244  0.2975 -0.6496
 4726SOL    HW125640   3.698   1.801   8.609  0.5789 -3.3173 -2.2192
 4726SOL    HW225641   3.759   1.746   8.729  0.3463 -1.8943 -1.8261
 4727SOL     OW25642   4.679   4.277   2.002 -0.1528 -0.3249 -0.0104
 4727SOL    HW125643   4.636   4.330   1.935 -1.7231  0.4907  1.6561
 4727SOL    HW225644   4.608   4.213   2.005  0.0800 -0.5729  0.2002
 4728SOL     OW25645   2.338   4.514   9.535 -0.8405  0.4118 -0.1066
 4728SOL    HW125646   2.314   4.602   9.564 -0.8582  1.3978 -3.1084
 4728SOL    HW225647   2.385   4.477   9.610  0.3266  0.6247 -0.7328
 4729SOL     OW25648   1.886   3.057   8.678  0.1739 -0.0706 -0.7669
 4729SOL    HW125649   1.937   2.976   8.670  2.3581  0.9774  2.2743
 4729SOL    HW225650   1.940   3.117   8.626  2.3166 -0.8142  0.5801
 4730SOL     OW25651   1.975   3.086  10.709  0.0833 -0.2106  0.0060
 4730SOL    HW125652   1.912   3.153  10.735 -2.0044 -2.3043  0.3730
 4730SOL    HW225653   2.055   3.131  10.682  0.1552  0.2181  0.9591
 4731SOL     OW25654   2.320   1.067   3.171  0.1553  0.0608  0.8854
 4731SOL    HW125655   2.228   1.065   3.145  0.5504  2.2829 -0.7188
 4731SOL    HW225656   2.337   0.974   3.162  3.4669  0.7858 -0.4118
 4732SOL     OW25657   3.720   0.907   5.340 -0.6803 -0.1348  0.4129
 4732SOL    HW125658   3.630   0.909   5.306 -0.9352  0.5124  1.1254
 4732SOL    HW225659   3.715   0.957   5.421 -3.1949  3.5354 -2.0427
 4733SOL     OW25660   2.724   0.384   5.043 -0.1663 -0.0020 -0.1455
 4733SOL    HW125661   2.658   0.446   5.075  0.0219  0.4421 -0.6095
 4733SOL    HW225662   2.803   0.429   5.072 -0.3361  0.6064 -0.6216
 4734SOL     OW25663   1.868   4.125   5.304 -0.1193 -0.1457 -0.4475
 4734SOL    HW125664   1.848   4.150   5.394  1.8087  1.2432 -0.4132
 4734SOL    HW225665   1.780   4.121   5.267 -0.6887 -1.6766  1.0673
 4735SOL     OW25666   3.306   2.967   1.958  0.0873  0.1983  0.5309
 4735SOL    HW125667   3.295   2.926   2.044 -2.0483  2.3008  1.2373
 4735SOL    HW225668   3.253   2.911   1.902 -0.8348  0.7659  0.8432
 4736SOL     OW25669   0.807   3.730   6.932 -0.5139 -0.1587 -0.3652
 4736SOL    HW125670   0.802   3.811   6.881 -6.0762 -0.6295 -0.5619
 4736SOL    HW225671   0.720   3.705   6.902  0.9785 -2.4525 -2.8191
 4737SOL     OW25672   2.754   2.292   8.686  0.0356  0.0034 -0.3529
 4737SOL    HW125673   2.690   2.244   8.738 -1.2272  2.0845 -0.0154
 4737SOL    HW225674   2.839   2.270   8.724 -0.3920  1.6396  1.5359
 4738SOL     OW25675   0.489   1.180  15.526 -0.8930 -0.2691  0.0015
 4738SOL    HW125676   0.557   1.113  15.523 -0.6650  0.0035 -0.9298
 4738SOL    HW225677   0.424   1.147  15.464 -0.1211 -4.0716  1.2215
 4739SOL     OW25678   2.518   0.622  11.334  0.3005  0.8080  0.5408
 4739SOL    HW125679   2.588   0.573  11.376 -1.0490 -1.4773  0.1335
 4739SOL    HW225680   2.480   0.671  11.408 -0.5448  0.0540  0.6096
 4740SOL     OW25681   2.950   1.496   5.801  0.2476 -0.1679  0.6390
 4740SOL    HW125682   2.954   1.530   5.890  1.7523 -1.5823  1.1263
 4740SOL    HW225683   3.021   1.432   5.788  0.4179  0.5237 -1.8927
 4741SOL     OW25684   3.334   4.101   0.096  0.3475  0.7806  0.7114
 4741SOL    HW125685   3.371   4.020   0.131 -3.4742  0.5304  4.1548
 4741SOL    HW225686   3.378   4.113   0.012  1.6530  1.0600  1.4338
 4742SOL     OW25687   3.980   4.551   3.650 -0.3322  0.0967  0.3211
 4742SOL    HW125688   3.932   4.561   3.568 -0.8282  0.5342  0.6647
 4742SOL    HW225689   4.062   4.595   3.629  0.8218 -2.9775 -1.5499
 4743SOL     OW25690   3.185   0.643   9.961  0.6306 -0.5471  0.2436
 4743SOL    HW125691   3.209   0.734   9.979  0.1018 -0.4778  0.6112
 4743SOL    HW225692   3.099   0.649   9.920 -0.5283 -1.3858  2.5453
 4744SOL     OW25693   0.387   1.404   5.463  0.1258 -0.1444 -0.4564
 4744SOL    HW125694   0.322   1.434   5.526 -0.5561 -1.4790 -0.5265
 4744SOL    HW225695   0.321   1.389   5.395 -2.4014 -1.5582  2.3368
 4745SOL     OW25696   1.521   1.585   0.831 -0.2532 -0.6462 -0.4622
 4745SOL    HW125697   1.613   1.592   0.856  0.2104 -1.9627 -1.7768
 4745SOL    HW225698   1.521   1.512   0.769  2.8020  0.3374 -1.6544
 4746SOL     OW25699   3.465   2.978   3.656 -0.2038  0.0532  0.1045
 4746SOL    HW125700   3.489   2.903   3.711  1.9011 -0.3309 -1.3593
 4746SOL    HW225701   3.531   2.972   3.588 -0.5810 -1.7074 -0.1070
 4747SOL     OW25702   0.053   4.406   1.085 -0.0734  0.0781 -0.1896
 4747SOL    HW125703   0.101   4.336   1.129 -0.2071  0.4392  0.5321
 4747SOL    HW225704   4.692   4.422   1.137 -0.1729 -0.3545 -0.2109
 4748SOL     OW25705   4.066   1.237   9.487 -0.0926 -0.0876  0.1683
 4748SOL    HW125706   3.983   1.252   9.532 -0.4286 -0.0594 -0.4671
 4748SOL    HW225707   4.101   1.326   9.490 -0.7080  0.0488  3.5702
 4749SOL     OW25708   4.505   2.111   0.072 -0.5205  0.1969  0.2619
 4749SOL    HW125709   4.479   2.123   0.163 -3.0643  2.0327 -0.7072
 4749SOL    HW225710   4.517   2.202   0.045  0.8266  0.0159  0.2750
 4750SOL     OW25711   2.754   4.323  13.138 -0.0584  0.2616 -0.0260
 4750SOL    HW125712   2.766   4.399  13.195  0.6929  0.4621 -0.4565
 4750SOL    HW225713   2.688   4.349  13.074  0.2152 -1.6531 -1.0815
 4751SOL     OW25714   0.094   3.398   9.324  0.5817 -0.2296  0.0744
 4751SOL    HW125715   0.122   3.410   9.233  1.5076 -1.0093  0.2517
 4751SOL    HW225716   0.084   3.490   9.348 -0.3027  0.5733 -3.4065
 4752SOL     OW25717   4.692   1.396   4.189 -0.3412  0.4519 -0.1477
 4752SOL    HW125718   4.651   1.436   4.266  0.0057 -0.5429  0.5664
 4752SOL    HW225719   4.631   1.413   4.118 -0.0002  1.1783 -0.2633
 4753SOL     OW25720   4.298   1.343  10.512 -0.6744 -0.5187 -0.3573
 4753SOL    HW125721   4.249   1.337  10.594 -0.1780 -1.0217 -0.1025
 4753SOL    HW225722   4.338   1.257  10.506  0.7248  0.0003  1.3321
 4754SOL     OW25723   1.933   0.017  14.169 -0.2260  0.0313 -0.0393
 4754SOL    HW125724   1.935   4.682  14.090 -0.6143  0.3352 -0.2545
 4754SOL    HW225725   1.918   0.103  14.129 -1.5680 -0.8978 -1.5179
 4755SOL     OW25726   1.545   0.065   6.822  0.4633 -0.0762 -0.3089
 4755SOL    HW125727   1.558   0.048   6.915 -0.4004 -0.9205 -0.3505
 4755SOL    HW225728   1.580   0.153   6.807  1.9759 -0.8163 -1.1379
 4756SOL     OW25729   2.844   0.431  16.684  1.0589 -0.4685  0.6639
 4756SOL    HW125730   2.798   0.514  16.674 -0.1536 -0.9485  2.3826
 4756SOL    HW225731   2.926   0.440  16.636  0.2417  0.0638 -0.6200
 4757SOL     OW25732   1.852   0.213   6.978 -0.2458 -0.5493  0.1685
 4757SOL    HW125733   1.789   0.226   6.907 -0.9772  1.5274  1.2290
 4757SOL    HW225734   1.830   0.288   7.032 -0.5504  1.0212 -2.1411
 4758SOL     OW25735   0.214   4.309   1.674 -0.1666  0.2585  0.3641
 4758SOL    HW125736   0.219   4.374   1.744 -0.3192  1.0253 -0.3356
 4758SOL    HW225737   0.221   4.370   1.602  0.2993  0.9435  0.9896
 4759SOL     OW25738   3.891   3.946   2.173 -0.4484  0.1625 -0.3764
 4759SOL    HW125739   3.797   3.951   2.190 -0.6130  0.4966 -1.3898
 4759SOL    HW225740   3.920   3.859   2.200  2.1069  0.8451 -0.9607
 4760SOL     OW25741   1.466   0.381   2.009  1.1877  0.6552  0.8185
 4760SOL    HW125742   1.464   0.474   1.990 -1.6476  0.5362  0.5557
 4760SOL    HW225743   1.491   0.342   1.926  0.9945 -1.9422  1.9626
 4761SOL     OW25744   4.239   0.534   2.695 -0.3930  0.4542  0.3120
 4761SOL    HW125745   4.153   0.567   2.723  0.3853  0.3519  2.8625
 4761SOL    HW225746   4.302   0.602   2.720  0.4041 -0.7538  1.5969
 4762SOL     OW25747   4.578   3.861  10.230 -0.1842  0.5427  0.2241
 4762SOL    HW125748   4.521   3.797  10.273 -0.5815  1.8156  1.6112
 4762SOL    HW225749   4.516   3.911  10.177 -0.9715  1.0288  1.5935
 4763SOL     OW25750   4.467   2.315   9.741  0.3522  0.1515  0.1368
 4763SOL    HW125751   4.446   2.226   9.711  1.4850  0.7245 -2.3578
 4763SOL    HW225752   4.510   2.301   9.825 -3.2043  0.4971  1.9929
 4764SOL     OW25753   2.787   0.746   8.571  0.5301  0.2629 -0.0224
 4764SOL    HW125754   2.814   0.660   8.537  0.3581 -0.3175  1.2971
 4764SOL    HW225755   2.850   0.748   8.643  0.8917 -1.2445 -0.2912
 4765SOL     OW25756   2.814   2.811   6.746  0.6917  0.0887  0.8276
 4765SOL    HW125757   2.902   2.849   6.745  1.3459 -1.4353 -0.7690
 4765SOL    HW225758   2.754   2.877   6.712 -1.5427 -2.4806 -0.2889
 4766SOL     OW25759   4.459   0.606   1.920  0.0360  0.3248 -0.2187
 4766SOL    HW125760   4.438   0.670   1.988 -2.3646 -0.8078  0.1033
 4766SOL    HW225761   4.378   0.612   1.869 -0.0864  0.0470 -0.0598
 4767SOL     OW25762   1.046   1.242  17.324 -1.0274  0.0249 -0.4031
 4767SOL    HW125763   1.057   1.272  17.414  1.9707 -0.1157 -0.7094
 4767SOL    HW225764   1.047   1.325  17.277 -2.0146  1.1239  1.5320
 4768SOL     OW25765   3.983   3.112   7.701  0.5602  0.1384  0.0450
 4768SOL    HW125766   4.038   3.184   7.671 -0.9168  0.8757 -0.8986
 4768SOL    HW225767   3.949   3.142   7.785 -1.2375  1.4291 -1.1383
 4769SOL     OW25768   3.348   3.898  14.343 -0.6121 -0.1531 -0.0038
 4769SOL    HW125769   3.444   3.899  14.346 -0.6729  1.9596  0.8310
 4769SOL    HW225770   3.339   3.881  14.437  2.0618 -1.2396  0.0775
 4770SOL     OW25771   3.678   3.845   4.382  0.5346  0.2267 -0.2557
 4770SOL    HW125772   3.697   3.832   4.289 -1.3334  1.0741 -0.7648
 4770SOL    HW225773   3.767   3.833   4.416 -0.0610 -2.1577  0.3979
 4771SOL     OW25774   3.963   1.851  13.802 -0.1127  0.4643 -0.1641
 4771SOL    HW125775   3.911   1.832  13.724  0.1428  0.0512 -0.2324
 4771SOL    HW225776   4.036   1.903  13.768  0.7143 -0.0457  0.8458
 4772SOL     OW25777   3.148   4.192  14.797  0.4492  0.7119  0.4234
 4772SOL    HW125778   3.153   4.103  14.761 -0.2474  0.9748 -0.3052
 4772SOL    HW225779   3.112   4.244  14.726  1.1959 -2.3749 -2.1844
 4773SOL     OW25780   4.266   3.916   6.971 -0.0248 -0.4125 -0.0470
 4773SOL    HW125781   4.282   3.939   6.880  1.9347  0.9415  0.6396
 4773SOL    HW225782   4.351   3.875   6.986  0.8191  0.3943 -2.5258
 4774SOL     OW25783   4.612   4.577   8.456 -0.4667 -0.1718 -1.0106
 4774SOL    HW125784   4.531   4.529   8.441  0.0650 -1.2026 -0.5539
 4774SOL    HW225785   4.650   4.526   8.527 -1.2990  2.0392  1.0541
 4775SOL     OW25786   1.873   0.905   5.910 -0.1254 -0.0323  0.0961
 4775SOL    HW125787   1.954   0.932   5.867  0.5958  0.0568  1.5088
 4775SOL    HW225788   1.839   0.821   5.878  0.1831 -0.4206  0.7965
 4776SOL     OW25789   1.313   4.531   4.259 -0.0966 -0.5666 -0.0264
 4776SOL    HW125790   1.306   4.452   4.205 -0.2880 -1.6014  1.5359
 4776SOL    HW225791   1.259   4.525   4.337 -0.0518 -1.4577 -0.0628
 4777SOL     OW25792   0.610   0.351   4.878  0.0113 -0.2250 -0.2172
 4777SOL    HW125793   0.659   0.338   4.959  0.9045 -0.8304 -0.8532
 4777SOL    HW225794   0.640   0.284   4.816  0.5761 -3.0120  3.0856
 4778SOL     OW25795   1.718   3.613  17.065 -0.7432  0.1077 -0.3144
 4778SOL    HW125796   1.673   3.691  17.099  0.7578  0.4541  0.8639
 4778SOL    HW225797   1.710   3.549  17.136  2.0179 -1.0351 -1.0616
 4779SOL     OW25798   2.615   1.055   7.018 -0.6851  0.3096 -0.1496
 4779SOL    HW125799   2.692   0.999   7.022  0.3760  1.9233  2.3950
 4779SOL    HW225800   2.640   1.123   7.080  0.8824 -1.2404  0.9205
 4780SOL     OW25801   0.566   4.008  15.463  0.0622 -0.2151  0.2666
 4780SOL    HW125802   0.661   4.010  15.446 -0.0831  0.4759 -0.4329
 4780SOL    HW225803   0.547   3.939  15.398  0.9766 -0.9065  0.7196
 4781SOL     OW25804   3.494   2.363   4.798  0.0444 -0.0452  0.4388
 4781SOL    HW125805   3.522   2.307   4.725 -0.0896  0.9492 -0.3694
 4781SOL    HW225806   3.416   2.399   4.756  0.8505  0.2712 -0.7905
 4782SOL     OW25807   3.552   1.808   8.503  0.0475 -0.3395  0.1167
 4782SOL    HW125808   3.469   1.800   8.550  1.3953  2.1317  2.8909
 4782SOL    HW225809   3.546   1.901   8.479 -1.1544 -0.0810  1.4212
 4783SOL     OW25810   2.537   4.266   8.120 -0.0428  0.1216 -0.4811
 4783SOL    HW125811   2.630   4.245   8.120 -0.6504 -2.6094 -2.4600
 4783SOL    HW225812   2.499   4.210   8.188  0.9927 -1.7674 -1.4731
 4784SOL     OW25813   3.245   3.832  15.604 -0.7443 -0.0817  0.6965
 4784SOL    HW125814   3.186   3.775  15.555 -2.1309  0.4381  1.7379
 4784SOL    HW225815   3.254   3.902  15.540  2.5833 -1.3381 -0.2262
 4785SOL     OW25816   0.997   2.460   8.138  0.1232  0.1821  0.2945
 4785SOL    HW125817   1.078   2.426   8.174 -1.5727 -2.0532  1.9891
 4785SOL    HW225818   1.006   2.555   8.150  1.0488  0.2196 -0.6963
 4786SOL     OW25819   1.490   0.560   6.434  0.5262 -0.0491  0.3836
 4786SOL    HW125820   1.437   0.608   6.498  0.4621  3.0213 -1.9748
 4786SOL    HW225821   1.569   0.612   6.453 -0.0132  0.0616  2.3177
 4787SOL     OW25822   4.218   3.390   6.200 -0.1745 -0.3747  0.0647
 4787SOL    HW125823   4.171   3.463   6.161  0.1467 -1.1739 -1.7917
 4787SOL    HW225824   4.200   3.393   6.294 -1.4881  1.0937 -0.2461
 4788SOL     OW25825   1.358   0.737   5.454 -0.3697  0.4720  0.7863
 4788SOL    HW125826   1.337   0.795   5.381 -1.2751 -0.9300 -0.0871
 4788SOL    HW225827   1.276   0.688   5.465 -0.8467  1.1277  0.0731
 4789SOL     OW25828   2.920   2.329   0.135 -0.6291 -0.0295 -0.4657
 4789SOL    HW125829   2.897   2.409   0.181  1.2106 -0.5734  1.3653
 4789SOL    HW225830   2.987   2.353   0.072  1.4565 -1.2950  1.2965
 4790SOL     OW25831   3.305   2.504  15.520  0.2226  0.4753  0.0134
 4790SOL    HW125832   3.379   2.470  15.470 -1.7221 -1.1617 -1.7848
 4790SOL    HW225833   3.335   2.594  15.528 -4.2414  1.9600 -0.2098
 4791SOL     OW25834   0.603   3.680   9.105  0.5391 -0.6787 -0.1600
 4791SOL    HW125835   0.613   3.767   9.144  1.4107 -0.8381 -0.0112
 4791SOL    HW225836   0.509   3.672   9.095  0.4020 -0.1506  0.7145
 4792SOL     OW25837   4.232   1.151   6.255 -0.1643  0.0372 -0.7962
 4792SOL    HW125838   4.298   1.083   6.269  0.7697  1.1409  0.1455
 4792SOL    HW225839   4.254   1.220   6.317 -0.3300  0.3329 -1.0687
 4793SOL     OW25840   2.518   1.040   3.800  0.4244 -0.0836 -0.1117
 4793SOL    HW125841   2.613   1.035   3.808  0.2108  1.9073  3.6354
 4793SOL    HW225842   2.483   1.028   3.888 -0.7495 -0.3988 -0.6126
 4794SOL     OW25843   1.540   3.007  12.608 -0.9098 -0.5518 -0.0472
 4794SOL    HW125844   1.474   2.988  12.542 -1.6787 -0.4006  0.6833
 4794SOL    HW225845   1.604   3.033  12.542 -0.7989  0.4988  0.4628
 4795SOL     OW25846   4.080   0.181  11.386  0.4076 -0.0958 -0.7501
 4795SOL    HW125847   4.053   0.156  11.475 -0.3214 -1.3858 -1.3410
 4795SOL    HW225848   4.007   0.242  11.371 -0.2100 -0.9579 -1.2400
 4796SOL     OW25849   1.868   2.670   7.667 -0.2639  0.3631  0.3933
 4796SOL    HW125850   1.832   2.581   7.667  0.0137  0.2494  0.0877
 4796SOL    HW225851   1.940   2.652   7.606  1.0634  0.3067  1.9675
 4797SOL     OW25852   3.372   2.014   2.719 -0.7779  0.3289 -0.1896
 4797SOL    HW125853   3.346   2.073   2.789 -0.0952 -0.4487  0.7145
 4797SOL    HW225854   3.308   1.945   2.732 -1.5921  1.0483 -0.4072
 4798SOL     OW25855   1.079   1.911   6.090  0.1046 -0.1643 -0.2995
 4798SOL    HW125856   1.121   1.847   6.147 -0.3217  1.0223  1.3434
 4798SOL    HW225857   1.034   1.854   6.028 -0.1541  0.2932 -0.5382
 4799SOL     OW25858   2.816   2.067   6.179  0.2964  0.7545 -0.8324
 4799SOL    HW125859   2.733   2.115   6.182  0.6797  1.3100  1.0369
 4799SOL    HW225860   2.879   2.135   6.204  0.3993  0.1692  0.4955
 4800SOL     OW25861   0.584   3.231  12.489  0.0150 -0.1377  0.2683
 4800SOL    HW125862   0.616   3.252  12.577  1.7029  1.7472 -0.7840
 4800SOL    HW225863   0.666   3.240  12.440 -0.4366 -1.1281 -0.6646
 4801SOL     OW25864   2.355   1.051   6.419 -0.5651 -0.2616 -0.6331
 4801SOL    HW125865   2.363   0.983   6.486  0.3248  1.7857  1.3446
 4801SOL    HW225866   2.380   1.130   6.467  1.0373 -0.7677 -0.6488
 4802SOL     OW25867   3.984   0.763   0.161  0.0445  0.1023  0.0477
 4802SOL    HW125868   3.924   0.694   0.188 -1.5929  0.9844 -1.3574
 4802SOL    HW225869   3.979   0.816   0.241 -0.7809 -0.3812  0.3118
 4803SOL     OW25870   1.773   0.579   6.952 -0.0081  0.6850 -0.8859
 4803SOL    HW125871   1.777   0.550   6.861  0.1524 -0.5267 -0.4842
 4803SOL    HW225872   1.778   0.674   6.937 -3.0368  0.7738 -1.3415
 4804SOL     OW25873   2.933   0.305   7.407  0.4977 -0.8247 -0.5469
 4804SOL    HW125874   2.871   0.375   7.430 -0.1687 -1.5561 -0.1234
 4804SOL    HW225875   3.001   0.350   7.358 -0.1146  0.7760  0.0672
 4805SOL     OW25876   3.409   0.895   8.772 -0.1564  0.0791  0.5212
 4805SOL    HW125877   3.431   0.921   8.683  3.3898 -2.6225  0.5996
 4805SOL    HW225878   3.443   0.968   8.823 -1.0617 -1.8392  3.8939
 4806SOL     OW25879   1.214   2.799   8.077  0.4614 -0.1370  0.0383
 4806SOL    HW125880   1.239   2.711   8.106 -1.8507 -0.2556  1.7262
 4806SOL    HW225881   1.280   2.808   8.009 -0.5019 -2.4984 -1.2041
 4807SOL     OW25882   0.887   1.822  12.746  0.6040  0.1550 -0.0073
 4807SOL    HW125883   0.964   1.847  12.695  0.3027 -0.4671 -0.7797
 4807SOL    HW225884   0.873   1.739  12.700 -0.5225 -0.4687  1.4613
 4808SOL     OW25885   3.498   4.509  10.887 -0.4192 -0.7803 -0.2427
 4808SOL    HW125886   3.570   4.538  10.833  1.1148  1.0651  2.7754
 4808SOL    HW225887   3.520   4.540  10.975 -2.1678 -2.6051  0.8535
 4809SOL     OW25888   0.838   0.580   7.711 -0.3520  0.4330 -0.4686
 4809SOL    HW125889   0.871   0.522   7.780 -1.0019  1.0054  0.3155
 4809SOL    HW225890   0.745   0.591   7.732 -0.6444 -2.5445 -0.1898
 4810SOL     OW25891   2.391   1.183   8.949 -0.0435  0.1921 -0.2723
 4810SOL    HW125892   2.487   1.182   8.950 -0.0296  1.8615 -0.1113
 4810SOL    HW225893   2.375   1.273   8.922  0.1986  0.6667  1.1893
 4811SOL     OW25894   2.639   2.218  12.747  0.0124 -0.5081  0.8076
 4811SOL    HW125895   2.702   2.152  12.776  0.3581  0.3524  1.9837
 4811SOL    HW225896   2.687   2.263  12.677 -0.8872 -0.1006  0.4540
 4812SOL     OW25897   3.782   4.277   6.465  0.5106  0.0230 -0.0583
 4812SOL    HW125898   3.786   4.307   6.556 -3.0155  1.7159 -0.4794
 4812SOL    HW225899   3.716   4.333   6.425 -0.6787 -1.9676 -0.8752
 4813SOL     OW25900   1.217   1.169   4.233  0.3903 -0.4854  0.1480
 4813SOL    HW125901   1.243   1.102   4.296  2.4556 -1.0908 -1.3190
 4813SOL    HW225902   1.141   1.207   4.276  1.3940  0.3866  1.1462
 4814SOL     OW25903   0.344   2.174   4.882  0.0097  0.5824  0.2975
 4814SOL    HW125904   0.357   2.252   4.936  1.3549  1.6058 -1.5350
 4814SOL    HW225905   0.432   2.136   4.885  0.2262  1.1915  2.1838
 4815SOL     OW25906   1.183   4.284  12.758  0.8280  0.0114  0.1377
 4815SOL    HW125907   1.259   4.260  12.811  1.9490  0.4248 -1.2828
 4815SOL    HW225908   1.134   4.344  12.814  1.6877  2.2549 -1.5008
 4816SOL     OW25909   4.062   3.853   7.345 -0.0050 -0.1380 -0.9543
 4816SOL    HW125910   4.148   3.891   7.362  1.3759 -2.7295 -2.1977
 4816SOL    HW225911   4.045   3.809   7.429 -1.6416  1.9185 -0.1994
 4817SOL     OW25912   2.878   1.181   4.384 -0.0689  0.3123 -0.1126
 4817SOL    HW125913   2.881   1.098   4.335 -0.9430 -0.3144  0.9037
 4817SOL    HW225914   2.788   1.180   4.417 -0.3300  1.0974 -0.8234
 4818SOL     OW25915   1.854   0.919   2.282  0.2427  0.5328 -0.1574
 4818SOL    HW125916   1.837   0.830   2.253  1.5056  0.5786 -1.0562
 4818SOL    HW225917   1.885   0.905   2.372 -1.1382  0.3981  0.2921
 4819SOL     OW25918   0.065   1.434  10.635 -0.4231  0.3525  0.0455
 4819SOL    HW125919   0.140   1.376  10.634 -0.7626 -0.0576 -1.5044
 4819SOL    HW225920   0.044   1.444  10.728 -0.8578  0.9728 -0.1185
 4820SOL     OW25921   4.234   4.477   4.614  0.3604 -0.4305  0.3099
 4820SOL    HW125922   4.306   4.516   4.565  0.0130  1.1684  1.0775
 4820SOL    HW225923   4.238   4.515   4.702  0.3229 -0.6410  0.4048
 4821SOL     OW25924   3.617   0.711   6.897 -0.4230  0.8159 -0.1997
 4821SOL    HW125925   3.604   0.792   6.947 -1.1831 -1.5319  3.4327
 4821SOL    HW225926   3.577   0.741   6.816 -0.9307  2.0060  0.4993
 4822SOL     OW25927   1.306   1.086   3.445 -0.1656  0.8848 -0.0438
 4822SOL    HW125928   1.371   1.015   3.446 -1.1329  0.0385  1.8586
 4822SOL    HW225929   1.329   1.125   3.529  1.7371 -1.4247  0.5324
 4823SOL     OW25930   0.127   2.778   5.363 -0.4151 -0.2571  0.1687
 4823SOL    HW125931   0.094   2.852   5.313 -1.7009 -0.9676 -0.0270
 4823SOL    HW225932   0.091   2.790   5.451 -0.8826  0.9639 -0.1982
 4824SOL     OW25933   0.811   3.263   5.457  0.2755 -0.6705 -0.2130
 4824SOL    HW125934   0.763   3.180   5.462 -0.9219  0.0047 -0.4065
 4824SOL    HW225935   0.766   3.297   5.380 -1.2186 -0.7688  0.6269
 4825SOL     OW25936   1.819   2.801   3.048  0.6333  0.3514 -0.1483
 4825SOL    HW125937   1.906   2.839   3.061  2.8348 -4.7532  0.0998
 4825SOL    HW225938   1.772   2.861   2.989  0.3514  0.5553  0.2818
 4826SOL     OW25939   0.985   1.747   4.740 -0.0259  0.1204 -0.7038
 4826SOL    HW125940   0.937   1.770   4.660 -3.1371  0.0001  1.1093
 4826SOL    HW225941   0.986   1.651   4.740 -0.3864  0.1166  1.4071
 4827SOL     OW25942   0.053   2.131   4.435 -0.2195 -0.8009  0.5575
 4827SOL    HW125943   0.115   2.196   4.467 -1.0351 -0.0971  0.6905
 4827SOL    HW225944   0.041   2.162   4.345 -2.6800  2.2854  1.9578
 4828SOL     OW25945   2.687   4.081  17.007  0.2370 -0.5302  0.3245
 4828SOL    HW125946   2.702   4.122  17.092 -2.5862  1.7895 -0.2938
 4828SOL    HW225947   2.748   4.128  16.951  1.4272  0.4727  2.4489
 4829SOL     OW25948   3.408   4.006  10.038  0.4516  0.2392  0.2367
 4829SOL    HW125949   3.456   3.926  10.059 -0.1056 -0.2640 -0.3913
 4829SOL    HW225950   3.343   3.971   9.976 -0.7939 -1.0564  2.2773
 4830SOL     OW25951   2.776   0.031   4.959 -0.0568  0.2021 -0.2676
 4830SOL    HW125952   2.775   0.101   4.894  0.8370  0.2595 -0.2291
 4830SOL    HW225953   2.691   4.706   4.954  0.6321 -1.4488  2.3270
 4831SOL     OW25954   4.171   2.247  14.887  0.9376 -0.1342 -0.5996
 4831SOL    HW125955   4.236   2.203  14.833  0.0765 -1.1272 -0.8354
 4831SOL    HW225956   4.225   2.257  14.966 -0.8890  1.1609  0.4885
 4832SOL     OW25957   2.140   2.311   8.664 -0.2775  0.0729  0.1172
 4832SOL    HW125958   2.190   2.253   8.607 -1.5254 -1.2506  0.3826
 4832SOL    HW225959   2.205   2.366   8.709  0.1215  0.4014 -0.8768
 4833SOL     OW25960   0.180   1.241   4.124  0.0524 -0.2184 -0.3581
 4833SOL    HW125961   0.210   1.202   4.207  0.5003  0.9504  0.0262
 4833SOL    HW225962   0.111   1.299   4.156  0.5809  0.1171  0.1708
 4834SOL     OW25963   2.017   3.743  13.256 -0.2132 -0.5976  0.2140
 4834SOL    HW125964   2.014   3.839  13.249 -0.3170 -0.5397  1.1179
 4834SOL    HW225965   2.003   3.723  13.163  0.3044 -2.8825  0.6301
 4835SOL     OW25966   1.834   4.054   4.261  0.4989 -0.5630  0.0849
 4835SOL    HW125967   1.913   4.084   4.216  0.2432 -0.2678 -0.1665
 4835SOL    HW225968   1.767   4.067   4.194 -0.0772 -0.4960  0.6768
 4836SOL     OW25969   3.535   0.761   4.415  0.0879 -0.4363  0.2511
 4836SOL    HW125970   3.522   0.742   4.508  0.9958  3.4379  1.1506
 4836SOL    HW225971   3.519   0.855   4.422 -1.2019 -0.4683 -2.1232
 4837SOL     OW25972   2.720   0.014   6.833 -0.6019  0.0054 -0.5430
 4837SOL    HW125973   2.711   0.100   6.874 -1.5800 -1.1438  1.6942
 4837SOL    HW225974   2.676   4.673   6.895 -0.2006  0.7937  0.4962
 4838SOL     OW25975   3.297   4.096  16.025 -0.2916 -0.0227  0.4674
 4838SOL    HW125976   3.286   4.135  15.938 -0.5172  1.0172  0.9500
 4838SOL    HW225977   3.326   4.007  16.008  1.0950  1.0976 -3.1268
 4839SOL     OW25978   3.829   0.311   0.401  0.0028  0.1013 -0.2884
 4839SOL    HW125979   3.796   0.374   0.466  2.3383  0.1874  0.8041
 4839SOL    HW225980   3.919   0.314   0.434  0.0766 -2.0444 -0.3074
 4840SOL     OW25981   2.095   3.870   6.735  0.5249  0.0763 -0.4118
 4840SOL    HW125982   2.011   3.843   6.773  0.1197  2.2941  0.2606
 4840SOL    HW225983   2.074   3.899   6.646 -0.0627  4.2111  1.1014
 4841SOL     OW25984   0.682   3.289   5.214 -0.3437  0.4161 -0.7490
 4841SOL    HW125985   0.656   3.231   5.143 -0.0200 -1.0891  0.3667
 4841SOL    HW225986   0.652   3.375   5.183 -1.4951 -0.5297 -2.2504
 4842SOL     OW25987   3.920   1.517   9.234  0.2964  0.6263 -0.2972
 4842SOL    HW125988   3.975   1.536   9.311  0.8085  4.5308 -1.6119
 4842SOL    HW225989   3.845   1.569   9.262 -0.5348  0.0226 -1.4108
 4843SOL     OW25990   2.557   2.292   2.512  0.3102 -0.3148  0.8932
 4843SOL    HW125991   2.580   2.199   2.513  0.2273 -0.3562 -1.3115
 4843SOL    HW225992   2.464   2.292   2.488  0.2865 -0.8896  0.9652
 4844SOL     OW25993   1.937   1.698   5.449 -0.5241  0.5330 -0.1735
 4844SOL    HW125994   1.875   1.628   5.471 -0.4586  1.2097  2.1815
 4844SOL    HW225995   1.923   1.756   5.524  3.0226 -1.0776  1.7811
 4845SOL     OW25996   4.241   3.988   3.657  0.4133 -0.6056  0.3949
 4845SOL    HW125997   4.214   3.976   3.566 -1.5165 -0.9697  1.0227
 4845SOL    HW225998   4.309   3.921   3.662  0.6598 -0.4168 -0.5086
 4846SOL     OW25999   3.588   2.223   5.106 -0.0622 -0.1249 -0.7958
 4846SOL    HW126000   3.528   2.149   5.099  0.0866 -0.3922  0.9157
 4846SOL    HW226001   3.640   2.212   5.026  0.0638  2.6852 -1.0945
 4847SOL     OW26002   0.121   4.708   2.948  0.1939 -0.3098  0.1865
 4847SOL    HW126003   0.084   0.048   3.014  0.5325  0.8380 -0.6328
 4847SOL    HW226004   0.070   4.628   2.963 -0.4836  0.3633  1.4334
 4848SOL     OW26005   1.861   1.862   1.943  0.0891 -0.0907  0.5101
 4848SOL    HW126006   1.811   1.781   1.958 -0.4732  0.4085  1.3276
 4848SOL    HW226007   1.921   1.830   1.875 -1.7492  0.4655 -1.3684
 4849SOL     OW26008   0.701   1.237   7.005 -0.0890 -0.1921 -0.3914
 4849SOL    HW126009   0.719   1.330   6.991 -3.3970  0.6822  1.1056
 4849SOL    HW226010   0.784   1.203   6.972 -0.0534  0.7593 -1.2684
 4850SOL     OW26011   2.704   2.304   2.884 -0.6656  0.1032  0.0232
 4850SOL    HW126012   2.675   2.234   2.825 -0.5095 -0.2618  0.3792
 4850SOL    HW226013   2.722   2.374   2.821  1.7692  0.1789  0.8257
 4851SOL     OW26014   0.839   0.064   9.972 -0.3466  0.3299  0.0708
 4851SOL    HW126015   0.874   0.013   9.900  0.6557  0.9894  0.0917
 4851SOL    HW226016   0.746   0.041   9.966 -0.5283  0.4202  2.5497
 4852SOL     OW26017   2.017   0.699   3.795 -0.7223  0.0974 -0.0889
 4852SOL    HW126018   2.025   0.709   3.700  1.6939  1.3179  0.2351
 4852SOL    HW226019   1.988   0.787   3.816  1.4189  0.3659  1.7636
 4853SOL     OW26020   0.229   2.999  16.372  0.0202  0.4180  0.1887
 4853SOL    HW126021   0.179   2.948  16.436 -0.3323  0.7278  0.1637
 4853SOL    HW226022   0.175   3.077  16.359  0.7782  0.6666 -1.4016
 4854SOL     OW26023   3.318   3.162  11.534 -0.0809 -0.1744  0.0679
 4854SOL    HW126024   3.312   3.257  11.522 -2.8215 -0.3626 -0.1531
 4854SOL    HW226025   3.300   3.154  11.628  0.0488  0.7540  0.1764
 4855SOL     OW26026   2.905   0.248   9.086 -0.4769 -0.6061  0.5179
 4855SOL    HW126027   2.835   0.263   9.022  0.2874 -1.0349 -0.4149
 4855SOL    HW226028   2.898   0.157   9.116  2.3046 -1.3703 -1.1400
 4856SOL     OW26029   4.394   2.639   8.422  0.3069  0.0835  0.6702
 4856SOL    HW126030   4.377   2.657   8.514  2.0823  0.5643  0.9132
 4856SOL    HW226031   4.339   2.561   8.414  0.6158 -0.2232  1.5923
 4857SOL     OW26032   0.734   3.445   4.543 -0.2912 -1.1590  0.2105
 4857SOL    HW126033   0.773   3.532   4.550 -0.5686 -1.0063 -0.1532
 4857SOL    HW226034   0.642   3.466   4.529  0.3667  0.2489 -2.1178
 4858SOL     OW26035   2.504   3.065   8.025  0.0730  0.1013 -0.5579
 4858SOL    HW126036   2.422   3.116   8.026  0.0575  0.0693 -0.2898
 4858SOL    HW226037   2.475   2.985   7.981  2.1949  0.2154 -2.1451
 4859SOL     OW26038   2.761   1.999   2.036  0.3679  0.0222  0.0105
 4859SOL    HW126039   2.843   1.950   2.039  0.3792 -0.0575 -1.4953
 4859SOL    HW226040   2.729   1.990   1.946  0.5689  0.3778 -0.0949
 4860SOL     OW26041   0.897   0.826   7.129 -0.0936 -0.0030 -0.3572
 4860SOL    HW126042   0.805   0.805   7.113 -0.3253 -0.2568  1.2613
 4860SOL    HW226043   0.942   0.744   7.110  0.4885 -0.3304  2.3774
 4861SOL     OW26044   4.135   3.228  12.768  0.2970  0.0943  0.3263
 4861SOL    HW126045   4.200   3.298  12.772 -0.6579  0.8636  1.9798
 4861SOL    HW226046   4.148   3.191  12.855  0.7429 -0.7949 -0.1147
 4862SOL     OW26047   2.659   3.592   3.652 -0.0949  0.4742 -0.4315
 4862SOL    HW126048   2.683   3.523   3.591  2.4830 -0.2526  1.4412
 4862SOL    HW226049   2.582   3.565   3.702  0.1104  1.4821  0.4213
 4863SOL     OW26050   3.207   4.644   7.638 -0.0876 -0.6813  0.1721
 4863SOL    HW126051   3.160   4.693   7.570  0.1206  2.1194  2.0248
 4863SOL    HW226052   3.174   4.700   7.709  0.3841 -1.9771  1.4123
 4864SOL     OW26053   4.253   0.046   1.044 -0.3422  0.1826  0.0026
 4864SOL    HW126054   4.336   0.083   1.074 -0.1270  0.1505 -0.5494
 4864SOL    HW226055   4.199   0.111   1.000  0.2329  2.0701  2.1209
 4865SOL     OW26056   2.984   0.925  15.958  0.1776  0.3241 -0.0414
 4865SOL    HW126057   3.052   0.857  15.960  2.0161  2.1204 -0.8531
 4865SOL    HW226058   2.902   0.889  15.989  0.6016 -0.0520  0.6315
 4866SOL     OW26059   0.887   3.617  16.321  0.6374  0.0719 -0.1997
 4866SOL    HW126060   0.914   3.581  16.236  1.5023 -2.5980  1.1839
 4866SOL    HW226061   0.824   3.549  16.346 -0.6540  1.0343 -0.8625
 4867SOL     OW26062   3.851   2.489   6.034  0.9584  0.1414 -0.1663
 4867SOL    HW126063   3.824   2.485   5.942  3.1228  0.5136 -0.7992
 4867SOL    HW226064   3.945   2.479   6.025  0.5013 -2.0252 -2.5111
 4868SOL     OW26065   0.395   2.394  16.700 -0.1167  0.2396  0.0854
 4868SOL    HW126066   0.330   2.463  16.692  1.2635  1.4782 -0.6673
 4868SOL    HW226067   0.468   2.430  16.649  0.9944 -1.6162  0.3401
 4869SOL     OW26068   0.062   4.629   3.538  0.8241  0.0740  0.6120
 4869SOL    HW126069   0.021   4.564   3.595 -0.2970 -0.6049 -0.9878
 4869SOL    HW226070   0.145   4.584   3.518 -0.0382 -0.9188 -0.7199
 4870SOL     OW26071   2.113   3.082   6.444 -0.2376  0.6679 -0.1794
 4870SOL    HW126072   2.144   3.137   6.516 -0.3655  0.2691  0.1815
 4870SOL    HW226073   2.186   3.107   6.387  0.6006 -1.4606 -0.0445
 4871SOL     OW26074   0.995   4.716   7.347 -0.2240  0.0684  0.1220
 4871SOL    HW126075   1.059   4.647   7.365  0.5141  0.9491  0.9413
 4871SOL    HW226076   0.988   0.041   7.432  0.1578 -1.4806  0.9301
 4872SOL     OW26077   3.638   0.512   9.062  0.3210  0.1812  0.6636
 4872SOL    HW126078   3.630   0.507   9.157 -0.8150 -0.8204  0.5102
 4872SOL    HW226079   3.552   0.485   9.029  0.2400 -0.1908  1.1802
 4873SOL     OW26080   0.126   0.828   3.820  0.2258  0.3859 -0.1738
 4873SOL    HW126081   0.156   0.834   3.729 -0.7471 -0.9629 -0.5951
 4873SOL    HW226082   0.080   0.912   3.825  0.8861  0.8487 -1.9727
 4874SOL     OW26083   4.130   1.286   3.626 -0.0785  0.3991 -0.1924
 4874SOL    HW126084   4.114   1.193   3.638  1.7091  0.1372 -0.0082
 4874SOL    HW226085   4.224   1.293   3.641 -0.0587 -0.1155 -0.0855
 4875SOL     OW26086   0.612   0.246   9.507 -0.0980 -0.7111 -0.6093
 4875SOL    HW126087   0.599   0.212   9.596 -2.9299 -0.0133 -0.7835
 4875SOL    HW226088   0.695   0.291   9.525  0.1575 -0.2792 -2.9235
 4876SOL     OW26089   4.223   4.642   7.177  0.5195 -0.4048  0.0199
 4876SOL    HW126090   4.257   4.588   7.105 -2.2273 -1.4685 -0.4775
 4876SOL    HW226091   4.246   4.595   7.257  0.4298 -1.6473 -0.6786
 4877SOL     OW26092   0.026   0.502  17.336 -0.2418  0.4440 -0.1183
 4877SOL    HW126093   0.090   0.496  17.407 -1.5376 -0.0659  1.0013
 4877SOL    HW226094   4.673   0.543  17.386  1.0890  0.2857  1.9041
 4878SOL     OW26095   2.614   3.571   0.842 -0.7047  0.2850  0.2137
 4878SOL    HW126096   2.525   3.604   0.848 -0.9500 -0.3920  0.3294
 4878SOL    HW226097   2.667   3.628   0.898  2.2196 -2.7508  0.5291
 4879SOL     OW26098   1.688   0.623  11.897 -0.1092  0.3676 -0.3839
 4879SOL    HW126099   1.630   0.584  11.831  1.5840 -0.7701 -1.2044
 4879SOL    HW226100   1.732   0.687  11.842 -0.9533  0.5025 -0.8909
 4880SOL     OW26101   3.815   0.123   4.419 -0.2685 -0.2585 -0.6583
 4880SOL    HW126102   3.742   0.082   4.374 -1.6691  0.7701  0.6701
 4880SOL    HW226103   3.763   0.195   4.455  0.7679  0.1355  0.0564
 4881SOL     OW26104   4.137   4.667  11.243 -0.1124  0.6005 -0.5144
 4881SOL    HW126105   4.063   4.686  11.184 -0.6450 -2.1993 -0.7344
 4881SOL    HW226106   4.143   0.031  11.292 -0.9789  0.4545 -0.1640
 4882SOL     OW26107   3.773   3.402   0.621 -0.0660 -0.0225  0.8117
 4882SOL    HW126108   3.741   3.421   0.710  0.2651  0.2868  0.8682
 4882SOL    HW226109   3.852   3.351   0.638  0.7054  0.3627 -1.7524
 4883SOL     OW26110   4.682   3.728  14.125 -0.2791  0.4576 -0.2265
 4883SOL    HW126111   4.611   3.785  14.155 -0.6333 -0.5155  0.7935
 4883SOL    HW226112   0.025   3.782  14.073  0.7511  0.8779  1.4189
 4884SOL     OW26113   2.783   1.012   5.398 -0.1262  0.6596  0.2351
 4884SOL    HW126114   2.797   0.990   5.306 -0.9698 -0.1828  0.3147
 4884SOL    HW226115   2.760   0.929   5.439  2.1708 -0.9741 -1.7464
 4885SOL     OW26116   3.108   4.477   6.412 -0.1204 -0.3683 -0.7091
 4885SOL    HW126117   3.177   4.422   6.448  1.4544  1.7337 -0.5114
 4885SOL    HW226118   3.124   4.555   6.464  0.1461  0.0734 -1.4454
 4886SOL     OW26119   0.899   0.651   5.097 -0.1714  0.6547  0.3160
 4886SOL    HW126120   0.956   0.604   5.159  0.2043  0.0952 -0.4642
 4886SOL    HW226121   0.824   0.683   5.146 -1.9129 -0.9826 -1.3159
 4887SOL     OW26122   3.464   2.881  17.383 -0.1611 -0.7120  0.1774
 4887SOL    HW126123   3.412   2.905  17.459  1.8591  0.5156  1.1619
 4887SOL    HW226124   3.504   2.802  17.421  0.3708 -0.9482 -0.8394
 4888SOL     OW26125   0.481   4.638   1.234 -0.1431 -0.3578 -0.2559
 4888SOL    HW126126   0.552   4.615   1.294 -0.4203 -0.2348  0.1194
 4888SOL    HW226127   0.514   0.008   1.218 -1.0999  0.3354  1.5484
 4889SOL     OW26128   3.752   0.647   7.120 -0.4205  0.1397 -0.1076
 4889SOL    HW126129   3.718   0.650   7.031 -1.2373  1.0602  0.2233
 4889SOL    HW226130   3.817   0.579   7.107 -2.1394 -1.3794 -0.7151
 4890SOL     OW26131   1.261   2.413   9.841 -0.1359 -0.5537 -0.1752
 4890SOL    HW126132   1.176   2.414   9.795 -0.7649 -0.2915  1.0067
 4890SOL    HW226133   1.316   2.386   9.767  0.7397 -0.8657  0.5948
 4891SOL     OW26134   4.684   0.030   6.504 -0.3036  0.3958  0.1701
 4891SOL    HW126135   4.713   4.664   6.539  0.4258  1.2072  1.5063
 4891SOL    HW226136   0.025   0.087   6.553 -0.0276  0.9757 -0.8242
 4892SOL     OW26137   4.377   2.153   5.688  0.4420 -0.1583  0.0754
 4892SOL    HW126138   4.306   2.197   5.641  0.4754 -0.9877 -0.7389
 4892SOL    HW226139   4.434   2.227   5.711  0.7722 -0.3905  0.0004
 4893SOL     OW26140   2.239   3.583  15.272 -0.0969 -0.5165  0.4937
 4893SOL    HW126141   2.149   3.571  15.300 -0.6409 -0.0621 -1.0557
 4893SOL    HW226142   2.257   3.491  15.250  2.1719  0.0276  0.0273
 4894SOL     OW26143   0.854   3.703   4.655  0.3173  0.0338  0.2821
 4894SOL    HW126144   0.944   3.735   4.646 -0.2588  1.1948 -1.5034
 4894SOL    HW226145   0.864   3.666   4.743  0.2332 -3.1588 -1.0568
 4895SOL     OW26146   4.400   3.596   7.558  0.4188  0.4412 -0.0893
 4895SOL    HW126147   4.417   3.689   7.546 -1.9008  1.0833  1.4669
 4895SOL    HW226148   4.314   3.585   7.599 -0.7990  1.1720 -2.5190
 4896SOL     OW26149   0.528   0.961   6.258  0.1472  0.2723  0.8332
 4896SOL    HW126150   0.586   0.949   6.333  0.4337 -2.2249  0.1984
 4896SOL    HW226151   0.594   0.970   6.189  0.2321 -0.6729  0.7859
 4897SOL     OW26152   2.500   0.162   6.121 -0.2270  0.0364 -0.5929
 4897SOL    HW126153   2.406   0.178   6.121  0.3833  3.5499  1.6506
 4897SOL    HW226154   2.498   0.067   6.106  2.5517 -0.0568 -0.2825
 4898SOL     OW26155   3.045   2.534   6.284  0.0795 -0.3852 -0.3395
 4898SOL    HW126156   2.964   2.568   6.245  0.2964 -1.6346 -1.8941
 4898SOL    HW226157   3.014   2.531   6.374 -0.6278  0.0926 -0.5650
 4899SOL     OW26158   3.788   4.290   8.539  0.2995 -0.0970  0.2818
 4899SOL    HW126159   3.871   4.253   8.508  0.1479  0.6365 -0.9963
 4899SOL    HW226160   3.795   4.370   8.488  1.1195  0.3933  1.1708
 4900SOL     OW26161   3.701   2.290   4.283  0.4372  0.3427 -0.6411
 4900SOL    HW126162   3.797   2.287   4.279  0.4040 -0.5090 -0.8148
 4900SOL    HW226163   3.678   2.259   4.195  0.7181 -1.3418 -0.1099
 4901SOL     OW26164   4.663   2.180   8.998  0.4117  0.3878  0.1764
 4901SOL    HW126165   0.033   2.144   8.987  0.2573  0.5200 -1.5576
 4901SOL    HW226166   4.608   2.133   8.935  0.1235  0.2130  0.5642
 4902SOL     OW26167   1.860   1.582   0.214  0.5782 -1.0066  0.7247
 4902SOL    HW126168   1.833   1.673   0.219  2.1215 -0.5901  1.4880
 4902SOL    HW226169   1.903   1.561   0.297  1.3501 -0.9194  0.3443
 4903SOL     OW26170   3.821   0.231   9.303  0.0099 -0.2413  0.3860
 4903SOL    HW126171   3.749   0.185   9.261 -1.4638  2.0473  0.4038
 4903SOL    HW226172   3.777   0.301   9.352  2.8927  0.8936  1.3624
 4904SOL     OW26173   4.552   3.476  12.760  0.6342 -0.0449 -0.1417
 4904SOL    HW126174   4.532   3.566  12.785  0.2554 -0.4063  0.8758
 4904SOL    HW226175   4.636   3.490  12.718  1.0921  0.0132  0.7925
 4905SOL     OW26176   4.250   2.086   8.680  0.0985 -0.1048 -0.2017
 4905SOL    HW126177   4.307   2.098   8.604  0.1366 -3.5251 -0.7304
 4905SOL    HW226178   4.184   2.026   8.644 -0.2595  1.0543 -1.5075
 4906SOL     OW26179   2.743   0.243  13.030 -0.2371 -0.0923 -0.0835
 4906SOL    HW126180   2.651   0.252  13.055 -0.3995  0.6953 -0.9588
 4906SOL    HW226181   2.719   0.250  12.937  0.5702  0.7520 -0.2205
 4907SOL     OW26182   3.862   1.494  12.780 -0.8709  0.0606 -0.5057
 4907SOL    HW126183   3.901   1.414  12.816  0.1436 -0.2515 -2.2665
 4907SOL    HW226184   3.770   1.474  12.794 -0.3604 -0.7507  1.7226
 4908SOL     OW26185   4.340   0.093   4.576 -0.0354  0.1527 -0.4254
 4908SOL    HW126186   4.421   0.105   4.527 -0.4065  1.3225 -0.7535
 4908SOL    HW226187   4.291   0.165   4.536  0.3866  0.6819  0.0119
 4909SOL     OW26188   0.328   1.807   5.269  0.1713 -0.9296 -0.1929
 4909SOL    HW126189   0.421   1.819   5.286  0.0151  1.6588 -1.0561
 4909SOL    HW226190   0.326   1.773   5.180 -0.7904 -0.1515 -0.4659
 4910SOL     OW26191   2.021   0.291   0.004  0.4361  0.2724  0.1384
 4910SOL    HW126192   1.985   0.236   0.073  0.2657  1.5900  1.0900
 4910SOL    HW226193   2.099   0.243  17.650  0.3505 -0.6369  1.4480
 4911SOL     OW26194   1.958   2.987   9.753  0.3776  0.3741 -0.2941
 4911SOL    HW126195   1.967   3.082   9.750  0.3307  0.3001 -3.2677
 4911SOL    HW226196   1.866   2.978   9.727  0.2329  1.6546 -0.2414
 4912SOL     OW26197   1.263   4.510   3.606  0.0948  0.2767 -0.3932
 4912SOL    HW126198   1.253   4.418   3.582  0.2920 -0.4160  2.1759
 4912SOL    HW226199   1.177   4.537   3.639  0.8685  2.3692 -0.0808
 4913SOL     OW26200   4.440   2.740  10.105 -0.3699  0.0020 -0.3688
 4913SOL    HW126201   4.391   2.658  10.111  0.3636 -0.3732  0.4573
 4913SOL    HW226202   4.449   2.758  10.199 -2.4680  0.3600 -0.2252
 4914SOL     OW26203   3.488   1.744   2.360  0.4107 -0.7481 -0.0021
 4914SOL    HW126204   3.525   1.803   2.425  2.1009 -1.9602  0.1475
 4914SOL    HW226205   3.541   1.667   2.383  0.3969 -0.7036  0.1821
 4915SOL     OW26206   4.108   2.562   5.179  0.8036  0.7357 -0.6083
 4915SOL    HW126207   4.174   2.507   5.222 -0.8545 -0.2530  0.6424
 4915SOL    HW226208   4.136   2.649   5.208  0.8379  0.1781  1.0364
 4916SOL     OW26209   4.342   3.044   5.853  0.0454  0.1049  0.5253
 4916SOL    HW126210   4.367   2.977   5.917  1.7303 -0.6368 -0.9098
 4916SOL    HW226211   4.368   3.010   5.768  2.0044  0.8520  0.8291
 4917SOL     OW26212   0.887   0.076   4.069 -0.0862 -0.8924  0.1187
 4917SOL    HW126213   0.957   0.013   4.054  0.3663 -0.4075  0.2096
 4917SOL    HW226214   0.822   0.046   4.005 -0.6749  0.6853 -0.0273
 4918SOL     OW26215   2.877   1.833   0.229 -0.3561 -0.0457 -0.3055
 4918SOL    HW126216   2.870   1.817   0.323 -0.3587 -1.6267 -0.5755
 4918SOL    HW226217   2.839   1.921   0.234 -0.7285 -0.2515  0.4019
 4919SOL     OW26218   2.952   4.135   3.055  0.6583 -0.4896 -0.5790
 4919SOL    HW126219   3.025   4.162   3.111  1.1636 -0.1487 -1.3837
 4919SOL    HW226220   2.873   4.135   3.108 -1.0846  0.3831 -3.1452
 4920SOL     OW26221   2.048   1.925   0.301  0.2481 -0.1836 -0.3046
 4920SOL    HW126222   2.107   1.854   0.275  0.6538 -1.2326  3.4049
 4920SOL    HW226223   2.034   1.967   0.216 -1.1975 -1.6974 -0.8036
 4921SOL     OW26224   2.720   2.664  12.470 -0.6078 -0.4609 -0.0783
 4921SOL    HW126225   2.774   2.664  12.391 -0.5244 -2.8450 -0.0237
 4921SOL    HW226226   2.712   2.758  12.486 -1.8189 -0.7254  0.8772
 4922SOL     OW26227   1.189   4.504   1.427  0.4263 -0.4126 -0.4455
 4922SOL    HW126228   1.159   4.474   1.342  0.0228  4.6976 -2.1437
 4922SOL    HW226229   1.257   4.567   1.401  0.2555 -0.4150 -0.9006
 4923SOL     OW26230   2.840   1.891   5.472 -0.6870 -0.2720  0.0724
 4923SOL    HW126231   2.746   1.885   5.457 -0.3746 -0.1424 -1.8592
 4923SOL    HW226232   2.845   1.819   5.535 -1.3990 -0.2837  0.1164
 4924SOL     OW26233   2.963   1.454   3.350 -0.6488  0.0056  0.2953
 4924SOL    HW126234   2.938   1.524   3.410 -0.8416  0.2876 -0.1118
 4924SOL    HW226235   2.915   1.478   3.271 -0.2193  3.4576  1.1068
 4925SOL     OW26236   1.532   3.169  14.761 -0.6165  0.0876  0.4163
 4925SOL    HW126237   1.548   3.075  14.747  1.8648  0.2501  2.1779
 4925SOL    HW226238   1.536   3.201  14.670 -4.4042  3.6872  1.5533
 4926SOL     OW26239   0.801   4.590   3.606  0.7223 -0.3386  0.1320
 4926SOL    HW126240   0.741   4.661   3.627 -1.0335 -1.4263 -1.1639
 4926SOL    HW226241   0.736   4.523   3.586  2.0923 -1.1002 -1.8228
 4927SOL     OW26242   2.418   1.017   8.623 -0.5347  0.5252 -0.0327
 4927SOL    HW126243   2.347   1.014   8.687 -0.7216  0.0098 -0.2673
 4927SOL    HW226244   2.387   0.980   8.540 -1.4636 -0.9191  0.9678
 4928SOL     OW26245   3.776   0.824   0.525 -0.4113  0.5612  0.2146
 4928SOL    HW126246   3.707   0.827   0.458  0.3310 -0.0182 -0.5812
 4928SOL    HW226247   3.721   0.783   0.592 -1.5448  1.5266 -0.1107
 4929SOL     OW26248   0.520   4.689   2.640  0.6884  0.0325  0.2118
 4929SOL    HW126249   0.597   4.647   2.677  0.8652  0.2142  0.0496
 4929SOL    HW226250   0.463   4.677   2.717  1.1649 -0.7067  0.4420
 4930SOL     OW26251   0.557   0.558   5.931  0.1334  0.2041 -0.3887
 4930SOL    HW126252   0.500   0.518   5.998  3.0172 -2.0309  0.7400
 4930SOL    HW226253   0.514   0.522   5.854 -0.8543 -0.1600  0.3188
 4931SOL     OW26254   3.833   3.250   4.379 -0.1800  0.3866 -0.1439
 4931SOL    HW126255   3.822   3.190   4.452 -0.7017  0.1112 -0.4413
 4931SOL    HW226256   3.790   3.326   4.419  0.0033  0.9392 -0.9768
 4932SOL     OW26257   1.054   0.126  15.730  0.2809 -0.0879 -0.1412
 4932SOL    HW126258   1.084   0.136  15.820 -0.8546 -2.5165  0.5024
 4932SOL    HW226259   1.095   0.044  15.703  1.4513  0.6630 -0.6487
 4933SOL     OW26260   4.102   4.417  14.668  0.0680  0.2631 -0.0769
 4933SOL    HW126261   4.128   4.432  14.577 -0.3729  0.5574 -0.1538
 4933SOL    HW226262   4.177   4.387  14.720  0.3972  3.3055  1.1628
 4934SOL     OW26263   4.170   3.076   8.495 -0.1304  0.0148  0.4347
 4934SOL    HW126264   4.128   3.010   8.441 -2.5925  1.3299  0.7293
 4934SOL    HW226265   4.118   3.149   8.462 -1.1980 -0.2362  1.5785
 4935SOL     OW26266   1.411   0.155   3.750 -0.0167 -0.5974 -0.3228
 4935SOL    HW126267   1.476   0.209   3.796  0.0011 -0.7008 -0.2254
 4935SOL    HW226268   1.390   0.088   3.816  0.1968  1.1781  1.5602
 4936SOL     OW26269   2.586   2.173  13.074 -1.0365 -0.4537 -0.2268
 4936SOL    HW126270   2.558   2.211  12.990  1.7328  1.0522 -0.4647
 4936SOL    HW226271   2.664   2.128  13.042 -0.9380 -0.4877  0.0657
 4937SOL     OW26272   1.880   2.451  17.602  0.2407  0.1233  0.0165
 4937SOL    HW126273   1.815   2.412  17.660  1.1060 -1.9014 -0.3587
 4937SOL    HW226274   1.942   2.378  17.595 -1.0258 -0.9552  0.0228
 4938SOL     OW26275   4.180   0.791   5.692 -0.5840 -0.1407 -0.3767
 4938SOL    HW126276   4.203   0.726   5.759 -0.3566  0.0750 -0.2481
 4938SOL    HW226277   4.139   0.735   5.626 -0.4068 -0.5657 -0.1285
 4939SOL     OW26278   2.962   4.564   5.711  0.7168 -0.0694  0.1187
 4939SOL    HW126279   2.929   4.581   5.799  1.1992 -0.6524  0.4128
 4939SOL    HW226280   2.884   4.522   5.674  0.7892  1.1807 -1.4290
 4940SOL     OW26281   2.098   4.002   2.297 -0.3433 -0.1844  0.2556
 4940SOL    HW126282   2.023   3.942   2.291  0.3604 -0.8352 -1.9843
 4940SOL    HW226283   2.063   4.078   2.250  0.1711 -1.4360 -2.1746
 4941SOL     OW26284   2.809   0.320   5.462  0.5620  0.2511  0.0866
 4941SOL    HW126285   2.793   0.283   5.375  1.1320  0.8332 -0.2602
 4941SOL    HW226286   2.718   0.337   5.487  0.2878  1.0931 -1.4466
 4942SOL     OW26287   2.882   1.006   6.384  0.3693  0.1590 -0.0419
 4942SOL    HW126288   2.880   1.086   6.332  1.9938  0.0458 -0.2769
 4942SOL    HW226289   2.913   0.953   6.311  1.2411  0.9039 -0.2082
 4943SOL     OW26290   1.908   0.815   4.695 -0.5912 -0.3060 -0.2324
 4943SOL    HW126291   1.822   0.794   4.658 -1.5710  0.9636  1.3053
 4943SOL    HW226292   1.912   0.751   4.767 -0.6736  0.1324  0.1570
 4944SOL     OW26293   4.002   0.058   2.672  0.0765  0.2512 -0.0566
 4944SOL    HW126294   3.979   0.048   2.580 -1.1624  0.7977  0.1802
 4944SOL    HW226295   4.017   4.687   2.706 -0.1548 -0.2766 -1.3414
 4945SOL     OW26296   1.899   0.368   6.123 -0.4215 -1.3594  0.8736
 4945SOL    HW126297   1.956   0.358   6.047 -3.1227 -1.8745 -1.1231
 4945SOL    HW226298   1.915   0.450   6.169  0.6180 -0.0681 -1.7642
 4946SOL     OW26299   3.342   3.067  10.273 -0.6600 -0.6763 -0.0965
 4946SOL    HW126300   3.394   3.146  10.266  0.6144 -1.6429 -1.5655
 4946SOL    HW226301   3.253   3.103  10.268 -0.6886 -0.8942 -1.2240
 4947SOL     OW26302   3.162   3.405  12.168 -0.4514 -0.4539  0.0413
 4947SOL    HW126303   3.230   3.339  12.180  0.3222  0.2335 -0.5500
 4947SOL    HW226304   3.196   3.478  12.219 -1.3343  0.9025 -1.3184
 4948SOL     OW26305   4.317   3.963   7.385 -0.1035 -0.0265  0.3271
 4948SOL    HW126306   4.398   3.976   7.334  0.1362  2.7729  1.4113
 4948SOL    HW226307   4.342   3.908   7.459 -0.2571 -0.9331 -0.2864
 4949SOL     OW26308   2.653   0.457   5.698 -0.3241 -0.4251 -0.3313
 4949SOL    HW126309   2.668   0.393   5.767  1.9416 -0.4815 -0.8618
 4949SOL    HW226310   2.610   0.525   5.750  0.1016 -1.1199  0.9241
 4950SOL     OW26311   4.266   0.059   4.267 -1.0147  0.1736  0.2574
 4950SOL    HW126312   4.354   0.098   4.270 -1.1903  0.5977 -0.3252
 4950SOL    HW226313   4.292   4.696   4.312 -0.5395 -0.4075 -1.0633
 4951SOL     OW26314   3.643   2.293   6.067 -0.0640  0.2722 -0.0551
 4951SOL    HW126315   3.675   2.351   5.998  1.5383 -0.8119 -0.2442
 4951SOL    HW226316   3.701   2.314   6.141  0.0264 -1.1509  0.2804
 4952SOL     OW26317   0.036   0.168   3.129 -0.6270  0.0398  0.1465
 4952SOL    HW126318   0.023   0.168   3.223 -2.2501 -2.0944 -0.0718
 4952SOL    HW226319   4.672   0.207   3.097 -0.5397 -1.5973 -2.0818
 4953SOL     OW26320   4.555   0.044   2.165 -0.2016  0.1650  0.0696
 4953SOL    HW126321   4.564   0.042   2.261  1.9812  1.1879 -0.1126
 4953SOL    HW226322   4.624   4.699   2.143  0.7333  1.0409  0.5272
 4954SOL     OW26323   0.946   4.500   5.655 -0.5504 -0.1920  0.3476
 4954SOL    HW126324   0.851   4.506   5.651 -0.6009 -2.6241 -2.2315
 4954SOL    HW226325   0.962   4.590   5.682 -0.5184 -0.0792 -0.0443
 4955SOL     OW26326   0.922   2.821  16.440 -0.5849  0.0004  0.9674
 4955SOL    HW126327   0.853   2.815  16.374  1.6879 -0.4485 -1.3832
 4955SOL    HW226328   0.926   2.917  16.446  0.4243 -0.0743  1.5235
 4956SOL     OW26329   2.043   3.227   8.533  0.0203  0.2117 -0.0304
 4956SOL    HW126330   2.067   3.232   8.441 -0.3395  0.9173 -0.0805
 4956SOL    HW226331   2.130   3.214   8.571 -0.0921 -0.7978 -0.1117
 4957SOL     OW26332   3.322   4.102   1.257 -0.3077  0.4708 -0.1697
 4957SOL    HW126333   3.327   4.009   1.235 -0.6551  0.3308  0.3445
 4957SOL    HW226334   3.271   4.132   1.181  1.1903  1.1149 -0.9077
 4958SOL     OW26335   3.718   2.682  15.788  0.3365 -0.7240  0.0881
 4958SOL    HW126336   3.796   2.630  15.770  1.5471  1.6767 -1.5452
 4958SOL    HW226337   3.753   2.768  15.810 -0.0783 -0.2166 -1.2187
 4959SOL     OW26338   0.199   2.206  10.536 -0.2647  0.1319  0.2817
 4959SOL    HW126339   0.123   2.151  10.556 -1.6280  1.2611 -1.7993
 4959SOL    HW226340   0.172   2.236  10.449 -2.2885  0.2773  0.9464
 4960SOL     OW26341   1.799   1.741  10.593 -0.1710  0.2077  0.1359
 4960SOL    HW126342   1.785   1.650  10.567  0.8426  0.5025 -1.4323
 4960SOL    HW226343   1.800   1.724  10.687  1.7253  0.3797  0.1631
 4961SOL     OW26344   4.324   1.892   8.432  0.0994 -0.4145  0.4522
 4961SOL    HW126345   4.329   1.820   8.494 -2.0180 -0.1680  0.9155
 4961SOL    HW226346   4.416   1.899   8.406  0.1905 -1.5747  0.4678
 4962SOL     OW26347   1.371   2.626   9.535 -0.0471 -0.5495 -0.5198
 4962SOL    HW126348   1.311   2.653   9.465 -0.7475 -1.6314 -0.3425
 4962SOL    HW226349   1.364   2.530   9.532  0.2242 -0.5877  0.0556
 4963SOL     OW26350   1.970   3.969   5.978 -0.4841  0.2046 -0.0123
 4963SOL    HW126351   1.995   3.879   5.997  0.8745  0.6075  0.0747
 4963SOL    HW226352   1.882   3.955   5.942 -0.1996 -0.2449 -0.5121
 4964SOL     OW26353   3.097   4.095   7.958  0.1342 -0.2462 -0.3793
 4964SOL    HW126354   3.013   4.112   8.000  0.9723  2.3934  0.2001
 4964SOL    HW226355   3.059   4.052   7.882 -1.0162  0.5725 -0.2627
 4965SOL     OW26356   0.309   0.639  11.497  0.3253  0.0567  0.2044
 4965SOL    HW126357   0.225   0.598  11.476  1.1021 -0.7657 -1.2422
 4965SOL    HW226358   0.301   0.724  11.453 -0.6467 -0.7978 -1.2506
 4966SOL     OW26359   0.427   0.506   8.586 -0.6284  0.1472 -0.7336
 4966SOL    HW126360   0.384   0.491   8.671 -1.7662  2.3102 -0.9186
 4966SOL    HW226361   0.505   0.458   8.612 -1.1135 -0.8410 -1.0839
 4967SOL     OW26362   1.720   0.994   7.644 -0.5304  0.0656 -1.0959
 4967SOL    HW126363   1.741   1.034   7.728 -0.4988  0.0596 -1.1007
 4967SOL    HW226364   1.637   0.953   7.668  0.9317 -1.9132  0.5813
 4968SOL     OW26365   0.273   1.080   5.709  0.3584 -0.4574 -0.2789
 4968SOL    HW126366   0.296   1.105   5.798  0.0312  0.3656 -0.4261
 4968SOL    HW226367   0.234   0.993   5.716  0.3904 -0.5631 -1.2824
 4969SOL     OW26368   4.637   1.030   8.837 -0.0488 -0.2650 -0.3513
 4969SOL    HW126369   4.631   1.118   8.873  0.1072  0.1184 -1.2502
 4969SOL    HW226370   4.544   1.010   8.845 -0.4304  2.1622  1.4057
 4970SOL     OW26371   4.275   1.923   1.274 -0.0324  0.4110  0.2184
 4970SOL    HW126372   4.188   1.914   1.234 -0.1928  0.5349  0.5423
 4970SOL    HW226373   4.296   2.014   1.253 -0.8761  0.3219 -1.0246
 4971SOL     OW26374   3.641   0.438   9.338  0.5722  0.2780  0.0995
 4971SOL    HW126375   3.553   0.439   9.376  0.4258  1.4447 -0.2578
 4971SOL    HW226376   3.673   0.528   9.352 -1.4883  0.9852  0.2209
 4972SOL     OW26377   1.534   0.537   3.144  0.7169  0.1866  0.2539
 4972SOL    HW126378   1.587   0.592   3.203  1.1942  0.9552 -0.8895
 4972SOL    HW226379   1.530   0.455   3.193  0.6126 -0.3466 -0.6510
 4973SOL     OW26380   2.204   1.974   3.496 -0.3099 -0.6396  0.0240
 4973SOL    HW126381   2.148   1.899   3.477  0.5982 -1.9385  2.5470
 4973SOL    HW226382   2.198   1.985   3.591  0.5700  1.7232 -0.1908
 4974SOL     OW26383   3.403   1.931   7.502  0.1886  0.2423  0.4663
 4974SOL    HW126384   3.325   1.942   7.448  0.9236 -2.4450 -1.1717
 4974SOL    HW226385   3.436   1.850   7.462 -1.9207  0.1510 -1.1018
 4975SOL     OW26386   0.542   3.150   1.091 -0.0699  0.1979  0.4098
 4975SOL    HW126387   0.530   3.104   1.008  2.8636  1.7925 -0.8827
 4975SOL    HW226388   0.561   3.078   1.151 -2.0474  0.0355  0.8598
 4976SOL     OW26389   2.932   2.190  10.955  0.1545 -0.2413 -0.1723
 4976SOL    HW126390   2.981   2.262  10.994  0.4382  0.2736 -1.4778
 4976SOL    HW226391   2.993   2.158  10.888  0.6281  1.2408 -0.4575
 4977SOL     OW26392   4.395   0.059  13.127  0.6268 -0.0726 -0.4370
 4977SOL    HW126393   4.343   0.018  13.058 -0.1366  0.2228 -0.0421
 4977SOL    HW226394   4.362   0.014  13.205  0.2668  0.7984 -0.0819
 4978SOL     OW26395   0.127   4.344  12.159  0.5095  0.2228 -0.1789
 4978SOL    HW126396   0.215   4.309  12.143  1.5548  2.6149  0.3858
 4978SOL    HW226397   0.131   4.437  12.141  1.3294  0.2915  0.3799
 4979SOL     OW26398   3.683   2.177   5.359 -0.6124 -0.0976  0.2143
 4979SOL    HW126399   3.646   2.221   5.283 -1.1252  1.9861  1.6776
 4979SOL    HW226400   3.749   2.133   5.306  0.4897 -0.4892  1.9076
 4980SOL     OW26401   3.583   0.023   4.963 -0.3949  0.2306 -0.0280
 4980SOL    HW126402   3.488   0.033   4.954 -0.5744 -1.1791  0.3853
 4980SOL    HW226403   3.603   0.004   4.871 -0.8860 -0.7614  0.0693
 4981SOL     OW26404   4.520   4.478   6.775 -0.3732  0.1938 -0.6075
 4981SOL    HW126405   4.589   4.448   6.834 -1.2460 -0.9780 -0.1641
 4981SOL    HW226406   4.504   4.399   6.722 -1.5090  0.2995 -0.4272
 4982SOL     OW26407   4.304   1.273  14.048 -0.9354  0.0354 -0.2301
 4982SOL    HW126408   4.296   1.187  14.089 -1.2594 -0.8304 -2.1112
 4982SOL    HW226409   4.310   1.245  13.957 -1.7390  1.8945 -0.8439
 4983SOL     OW26410   0.891   3.101  16.405 -0.4139 -0.3397 -0.2825
 4983SOL    HW126411   0.954   3.159  16.362 -1.5645  0.1547 -1.3158
 4983SOL    HW226412   0.810   3.101  16.353  0.2866  1.0346 -1.3884
 4984SOL     OW26413   0.352   1.320   2.129 -0.7036  0.3214 -0.1350
 4984SOL    HW126414   0.261   1.291   2.137 -0.1385 -1.1979  0.7718
 4984SOL    HW226415   0.399   1.239   2.111  0.7612  0.8867  1.0876
 4985SOL     OW26416   0.100   2.401  11.889  0.6252 -0.4550  0.0758
 4985SOL    HW126417   0.127   2.477  11.941 -0.9762  0.0518  0.1786
 4985SOL    HW226418   0.005   2.409  11.903  0.3783 -1.7744 -0.8360
 4986SOL     OW26419   2.460   1.788   4.313  0.2988 -0.3747  0.4476
 4986SOL    HW126420   2.549   1.821   4.325  0.6211 -0.6297 -1.3246
 4986SOL    HW226421   2.429   1.805   4.402 -0.3549  0.2742  0.0961
 4987SOL     OW26422   0.363   1.929   7.881 -0.0947  0.3770 -0.7937
 4987SOL    HW126423   0.293   1.939   7.945  1.8556  0.0425  1.3480
 4987SOL    HW226424   0.438   1.909   7.936 -0.9590 -2.0530 -0.5090
 4988SOL     OW26425   2.924   4.028   7.744  0.3590 -0.4733  0.7394
 4988SOL    HW126426   2.894   4.068   7.663 -1.5233 -2.2511  0.5790
 4988SOL    HW226427   2.838   4.006   7.781 -0.1409  1.1476  0.5528
 4989SOL     OW26428   2.540   3.785  14.512  0.4714  0.0150  0.5545
 4989SOL    HW126429   2.545   3.861  14.570 -1.2265 -0.2280  1.0197
 4989SOL    HW226430   2.632   3.772  14.488 -0.5209 -1.8710 -2.2844
 4990SOL     OW26431   0.969   3.820   5.603  0.4238  0.6134  0.4704
 4990SOL    HW126432   1.018   3.881   5.546 -0.1387 -0.7179 -1.4535
 4990SOL    HW226433   1.033   3.811   5.673  0.3097  3.7285  0.9853
 4991SOL     OW26434   4.169   1.122  12.402 -0.2722 -0.0284 -0.0705
 4991SOL    HW126435   4.101   1.183  12.430 -0.4372  1.3522 -3.4493
 4991SOL    HW226436   4.251   1.171  12.413 -0.4229  0.1808  0.1175
 4992SOL     OW26437   1.030   3.807   7.257  0.1794  0.0714  0.0762
 4992SOL    HW126438   0.997   3.817   7.347 -1.8852  1.6087 -0.8575
 4992SOL    HW226439   1.123   3.831   7.258 -0.2053  1.4336  2.5169
 4993SOL     OW26440   3.427   3.161   5.008  0.1798 -0.1752  0.1128
 4993SOL    HW126441   3.373   3.232   5.040 -2.7981 -1.4190 -2.1726
 4993SOL    HW226442   3.487   3.150   5.082 -1.4797  1.3257  1.6531
 4994SOL     OW26443   3.890   2.023   5.265 -0.4345 -0.4668 -0.2291
 4994SOL    HW126444   3.924   1.938   5.294  0.8089  0.4547  0.9936
 4994SOL    HW226445   3.881   2.010   5.171 -0.0686  1.6832 -0.5573
 4995SOL     OW26446   1.852   0.351   9.643 -0.0246  0.3996 -0.1881
 4995SOL    HW126447   1.789   0.370   9.574  1.6065 -0.2762 -1.8686
 4995SOL    HW226448   1.925   0.411   9.626 -2.0585  2.7835 -0.3297
 4996SOL     OW26449   2.401   2.605   3.531 -0.5851  0.3479 -0.1847
 4996SOL    HW126450   2.444   2.623   3.448 -1.5089 -0.5756 -0.8647
 4996SOL    HW226451   2.453   2.659   3.591 -0.3539 -0.1932  0.1063
 4997SOL     OW26452   0.627   3.494   2.921  0.0758  0.5732 -0.2057
 4997SOL    HW126453   0.675   3.542   2.854  0.1725  0.0861 -0.4800
 4997SOL    HW226454   0.560   3.457   2.864  1.0829 -1.0397 -0.3386
 4998SOL     OW26455   2.283   1.619  16.451  0.3401 -0.3788  0.2310
 4998SOL    HW126456   2.265   1.525  16.449 -0.0273 -0.3178  0.6625
 4998SOL    HW226457   2.197   1.659  16.460  0.4514 -0.3037  1.0012
 4999SOL     OW26458   3.652   3.458   5.468 -0.2663  0.4390  0.2345
 4999SOL    HW126459   3.593   3.406   5.522  0.7227 -0.5013  0.4118
 4999SOL    HW226460   3.592   3.505   5.409  1.2012 -1.9197 -3.1730
 5000SOL     OW26461   0.610   0.236   6.970  0.5470  0.0326  0.0023
 5000SOL    HW126462   0.585   0.222   6.878 -0.4461 -0.0484  0.2846
 5000SOL    HW226463   0.571   0.322   6.988 -0.1728  0.1262 -1.9477
 5001SOL     OW26464   2.789   2.711   6.155  0.4414 -0.2617 -0.6299
 5001SOL    HW126465   2.782   2.734   6.248  0.8940 -0.3490 -0.5771
 5001SOL    HW226466   2.750   2.792   6.121  1.2765  1.3427  2.2416
 5002SOL     OW26467   1.646   1.981  10.496  0.6215 -0.1434  0.0647
 5002SOL    HW126468   1.732   1.938  10.503  0.4398  0.0853  4.0255
 5002SOL    HW226469   1.626   1.980  10.403 -0.5986 -0.2085  0.3310
 5003SOL     OW26470   0.138   3.689   1.156 -0.1166  0.3293  0.1670
 5003SOL    HW126471   0.230   3.669   1.136 -0.6046 -0.6080 -1.1726
 5003SOL    HW226472   0.102   3.601   1.145 -0.1481  0.1410  1.8726
 5004SOL     OW26473   0.234   3.196   2.244 -0.0483  0.2759 -0.3973
 5004SOL    HW126474   0.157   3.139   2.239  0.6805 -0.8654  1.4612
 5004SOL    HW226475   0.265   3.171   2.331  0.5032  1.6317 -0.2087
 5005SOL     OW26476   1.648   3.895   5.503 -0.3196 -0.4580 -0.3309
 5005SOL    HW126477   1.732   3.873   5.462  0.4388  2.0156 -0.1615
 5005SOL    HW226478   1.669   3.887   5.596 -1.4146 -0.8387 -0.1237
 5006SOL     OW26479   2.608   4.474   8.348 -0.3073  0.4195 -0.3286
 5006SOL    HW126480   2.677   4.526   8.307  0.4575 -0.3256  0.0268
 5006SOL    HW226481   2.535   4.537   8.342 -1.3996 -0.9268 -1.3202
 5007SOL     OW26482   3.545   3.110   8.263  1.0294 -1.4242  0.1244
 5007SOL    HW126483   3.453   3.087   8.270  0.7519 -0.5396 -0.8449
 5007SOL    HW226484   3.577   3.026   8.228 -1.2951 -1.1460 -2.6156
 5008SOL     OW26485   0.137   3.676   4.906 -0.2420 -0.5135  0.7577
 5008SOL    HW126486   0.185   3.698   4.986  0.4295 -0.5671  0.3724
 5008SOL    HW226487   0.073   3.614   4.941  0.1625 -0.0706  2.3074
 5009SOL     OW26488   2.188   2.640  14.150 -0.4901  0.3492 -0.3457
 5009SOL    HW126489   2.109   2.587  14.161 -0.5210  0.6967  1.1055
 5009SOL    HW226490   2.157   2.714  14.201  2.8193  1.4543  0.0127
 5010SOL     OW26491   0.176   0.696   1.421  0.2114 -0.0073 -0.2875
 5010SOL    HW126492   0.119   0.619   1.434  0.3373  0.1375  1.1410
 5010SOL    HW226493   0.224   0.688   1.503 -4.1071  0.9172  2.3673
 5011SOL     OW26494   1.762   0.026   7.853  0.6664  0.0899  0.4257
 5011SOL    HW126495   1.685   0.082   7.846  0.9018  0.2061 -1.1953
 5011SOL    HW226496   1.720   4.658   7.852  0.1949  0.3398 -2.4377
 5012SOL     OW26497   1.188   4.567  12.723  0.0684 -0.2485  0.4471
 5012SOL    HW126498   1.186   4.660  12.746  2.3947 -0.0381 -0.1909
 5012SOL    HW226499   1.263   4.562  12.664  0.5077 -1.7776  1.1500
 5013SOL     OW26500   4.125   2.560   3.665 -0.2754 -0.1243  0.3207
 5013SOL    HW126501   4.163   2.644   3.693  0.3021 -0.5784  0.8766
 5013SOL    HW226502   4.032   2.575   3.686 -0.0367 -0.5202  1.6222
 5014SOL     OW26503   2.887   0.838   0.954 -0.9114  0.0835 -0.3274
 5014SOL    HW126504   2.835   0.839   0.874 -2.8829 -0.0291  0.9407
 5014SOL    HW226505   2.834   0.878   1.023 -1.4354  0.3132 -0.8643
 5015SOL     OW26506   3.342   2.433   4.305  0.0377  0.2932 -0.1989
 5015SOL    HW126507   3.421   2.487   4.304 -0.1181  0.4985 -1.5129
 5015SOL    HW226508   3.290   2.470   4.376 -0.8818 -1.8818  0.2779
 5016SOL     OW26509   2.123   1.009   5.756 -0.4104  0.0111 -0.2396
 5016SOL    HW126510   2.178   0.994   5.680 -4.2335 -2.3397 -2.5630
 5016SOL    HW226511   2.085   1.097   5.746 -0.2884 -0.0689 -1.3584
 5017SOL     OW26512   3.688   0.893  17.516  0.1614  0.3117  0.2354
 5017SOL    HW126513   3.771   0.886  17.470 -0.3990 -4.6180 -0.0357
 5017SOL    HW226514   3.702   0.824  17.581  2.7236  0.1611 -0.4627
 5018SOL     OW26515   2.535   2.031   2.451 -0.5401  0.3255  0.1461
 5018SOL    HW126516   2.563   1.961   2.510  1.6570  1.5259  0.5349
 5018SOL    HW226517   2.549   1.985   2.368 -0.1482 -2.0571  1.5407
 5019SOL     OW26518   0.436   2.991   8.484 -0.4733  0.7411  0.4187
 5019SOL    HW126519   0.417   3.035   8.567 -0.0348  0.6220  0.5845
 5019SOL    HW226520   0.508   3.044   8.450  1.9281 -0.7714  3.1675
 5020SOL     OW26521   0.619   0.952   9.055  0.3586 -0.0759 -0.3908
 5020SOL    HW126522   0.545   1.010   9.072  1.6720  1.2259  0.8747
 5020SOL    HW226523   0.580   0.869   9.081  0.0950  0.4769  1.0148
 5021SOL     OW26524   4.430   2.119  14.744 -0.0651  0.0171 -0.5196
 5021SOL    HW126525   4.522   2.094  14.741 -0.6326 -1.8517 -2.7445
 5021SOL    HW226526   4.426   2.213  14.726 -2.1249  0.2033  0.8710
 5022SOL     OW26527   0.192   3.594   8.306  0.3119  0.0009 -0.3517
 5022SOL    HW126528   0.216   3.513   8.351 -0.3717  0.1762  0.3207
 5022SOL    HW226529   0.250   3.577   8.231  0.9833 -0.8434  0.3557
 5023SOL     OW26530   0.614   3.608   1.206  0.1832 -0.0772  0.1845
 5023SOL    HW126531   0.680   3.638   1.144  2.1869 -1.0656  1.8150
 5023SOL    HW226532   0.637   3.515   1.216 -1.5933 -0.6161 -0.8624
 5024SOL     OW26533   1.465   1.965  15.260 -0.2790  0.5569 -0.3913
 5024SOL    HW126534   1.405   2.035  15.287 -0.3456  0.2476  0.2688
 5024SOL    HW226535   1.403   1.895  15.240  0.1182  0.3742 -0.9770
 5025SOL     OW26536   0.477   3.531   4.563 -0.4394  0.3520 -0.3505
 5025SOL    HW126537   0.402   3.477   4.586 -0.3342  0.2054 -0.3519
 5025SOL    HW226538   0.462   3.603   4.624 -0.2790 -0.8601  1.1229
 5026SOL     OW26539   0.218   4.494   7.617 -0.4655  0.5255 -0.1859
 5026SOL    HW126540   0.260   4.444   7.547 -2.4145  0.5062 -1.3710
 5026SOL    HW226541   0.232   4.585   7.593  1.5453  0.6388  1.4627
 5027SOL     OW26542   3.702   4.136   9.550 -0.2639 -0.1883 -0.5970
 5027SOL    HW126543   3.743   4.181   9.625  0.6141 -0.7069 -0.7655
 5027SOL    HW226544   3.620   4.109   9.590 -0.9063  0.4722 -1.4779
 5028SOL     OW26545   4.316   1.024   3.363 -0.2193  0.3298 -0.3682
 5028SOL    HW126546   4.361   1.107   3.379 -1.6297  1.7521 -3.8356
 5028SOL    HW226547   4.300   0.997   3.453  2.4207 -0.7635 -0.2320
 5029SOL     OW26548   1.095   0.384   1.625 -0.0794 -0.5017 -0.2899
 5029SOL    HW126549   1.151   0.460   1.609 -1.2444  0.5912  0.8103
 5029SOL    HW226550   1.149   0.330   1.684  2.0251  0.5738 -1.2373
 5030SOL     OW26551   0.883   3.995   1.201 -0.0407 -0.4327  0.1423
 5030SOL    HW126552   0.950   4.056   1.171  1.9196 -1.3796  2.6078
 5030SOL    HW226553   0.823   3.988   1.127  1.1764  0.8810 -0.9722
 5031SOL     OW26554   3.551   0.830  16.558 -0.0306  0.1842  0.2622
 5031SOL    HW126555   3.639   0.859  16.537  0.0514 -0.7474 -0.6656
 5031SOL    HW226556   3.551   0.808  16.651 -0.9454 -0.5505  0.0984
 5032SOL     OW26557   1.284   0.687   1.286 -0.1563 -0.1987 -0.7011
 5032SOL    HW126558   1.373   0.675   1.318  0.2265  1.7493 -1.0137
 5032SOL    HW226559   1.235   0.706   1.366 -0.4059  0.6239 -1.0385
 5033SOL     OW26560   2.965   4.577   1.350  0.2535 -0.2233 -0.1957
 5033SOL    HW126561   2.999   4.647   1.296  1.4648  0.0119  0.8796
 5033SOL    HW226562   2.912   4.626   1.413  1.6145  1.2699 -0.2142
 5034SOL     OW26563   3.539   3.727   2.683 -0.2402  0.0274 -0.4788
 5034SOL    HW126564   3.484   3.724   2.605 -0.6384  2.1590 -0.2607
 5034SOL    HW226565   3.618   3.674   2.670 -0.6534 -0.1657 -2.1390
 5035SOL     OW26566   0.583   1.299   5.009  0.1562 -0.4665  0.6035
 5035SOL    HW126567   0.494   1.303   4.974  0.3027  0.8509  0.3850
 5035SOL    HW226568   0.571   1.243   5.086  0.9628 -2.0500 -0.4178
 5036SOL     OW26569   1.593   2.034   8.004  0.2420 -0.2244  0.5014
 5036SOL    HW126570   1.664   1.992   7.956 -0.7017 -2.0585  0.7305
 5036SOL    HW226571   1.642   2.077   8.075 -0.5423  2.8752 -0.8405
 5037SOL     OW26572   0.158   1.688   2.762 -0.0644 -0.4594 -0.2600
 5037SOL    HW126573   0.228   1.725   2.708 -0.5111  0.7413 -0.0212
 5037SOL    HW226574   0.101   1.680   2.686 -2.0279 -1.6922  1.3371
 5038SOL     OW26575   0.318   3.536  11.682  0.2136 -0.1886  0.0433
 5038SOL    HW126576   0.371   3.457  11.679  0.2626 -0.1713  0.4753
 5038SOL    HW226577   0.350   3.574  11.600  2.1745  2.1685  1.9146
 5039SOL     OW26578   0.408   4.279   3.866 -0.1011 -0.4032 -0.0316
 5039SOL    HW126579   0.481   4.243   3.815 -1.7929 -2.3237 -1.1370
 5039SOL    HW226580   0.383   4.201   3.916  0.8544 -0.3874  0.4626
 5040SOL     OW26581   3.392   3.034   2.809  0.4519 -0.5687  0.2850
 5040SOL    HW126582   3.400   3.096   2.736 -1.4439 -0.4135  0.2123
 5040SOL    HW226583   3.352   2.956   2.771 -0.7032  0.4978 -0.6932
 5041SOL     OW26584   4.269   3.927  12.536  1.0567 -0.0775 -0.0099
 5041SOL    HW126585   4.332   3.957  12.602  2.3330 -1.1868 -0.7279
 5041SOL    HW226586   4.200   3.885  12.587 -1.6501  2.3817 -1.6809
 5042SOL     OW26587   0.162   3.160  13.244  0.1286 -0.1807  0.7450
 5042SOL    HW126588   0.186   3.080  13.290  1.1965  0.4460  1.2939
 5042SOL    HW226589   0.245   3.194  13.210  1.3498 -1.1929  2.7244
 5043SOL     OW26590   2.487   3.127   0.632 -0.5705  0.0419 -0.9467
 5043SOL    HW126591   2.440   3.053   0.593 -1.3691 -0.6541  1.3637
 5043SOL    HW226592   2.574   3.089   0.639  0.6615  2.2753 -4.0906
 5044SOL     OW26593   1.441   0.032   7.267  0.7700 -0.2605 -0.1718
 5044SOL    HW126594   1.471   0.057   7.354 -1.7584 -0.5922  0.7951
 5044SOL    HW226595   1.521   4.716   7.226  0.8966 -0.3204  0.1270
 5045SOL     OW26596   1.302   4.001   6.467  0.2078 -0.1585  0.1498
 5045SOL    HW126597   1.397   3.992   6.479  0.4815  2.4346 -0.2252
 5045SOL    HW226598   1.294   4.093   6.444  1.3368 -0.3894 -1.1656
 5046SOL     OW26599   2.782   4.610   4.245 -0.6403 -0.4821  0.3717
 5046SOL    HW126600   2.875   4.631   4.253 -0.8208 -0.2429  2.0203
 5046SOL    HW226601   2.798   4.530   4.195 -0.2006 -1.1413  1.5672
 5047SOL     OW26602   1.494   2.575   4.019  0.2483  0.1689  0.0682
 5047SOL    HW126603   1.555   2.560   3.947 -1.2766  1.5023 -1.4977
 5047SOL    HW226604   1.547   2.535   4.088 -1.3625 -0.8114  0.7446
 5048SOL     OW26605   1.283   1.511   2.499 -0.2933 -0.6023 -0.0595
 5048SOL    HW126606   1.355   1.573   2.492 -0.8021  0.3481  3.1599
 5048SOL    HW226607   1.269   1.514   2.593  0.8576  1.0560  0.0556
 5049SOL     OW26608   0.369   0.080   8.879  0.4106 -0.1524  0.2716
 5049SOL    HW126609   0.350   0.029   8.957  1.9718  0.1098  0.8176
 5049SOL    HW226610   0.377   0.166   8.920  1.6626  0.1367 -0.5632
 5050SOL     OW26611   3.090   0.679  12.149  0.1807  0.1773  0.2813
 5050SOL    HW126612   3.102   0.723  12.065  3.0131 -0.1210  0.5082
 5050SOL    HW226613   3.106   0.589  12.121 -1.4236 -0.5667  1.7544
 5051SOL     OW26614   3.125   1.173   9.244  0.6417 -0.2315 -0.1517
 5051SOL    HW126615   3.161   1.085   9.259 -0.8581 -1.0865 -1.5664
 5051SOL    HW226616   3.051   1.177   9.305 -0.0071 -0.2600 -0.9415
 5052SOL     OW26617   0.323   4.072   1.812  0.1367  0.0460  0.0667
 5052SOL    HW126618   0.306   4.019   1.734 -0.1730 -0.7329  0.6663
 5052SOL    HW226619   0.285   4.158   1.793  0.0963 -0.0931 -0.4636
 5053SOL     OW26620   3.924   1.212   4.928  0.9294 -0.1062 -0.1592
 5053SOL    HW126621   3.888   1.282   4.982  0.6622 -2.5728  2.8352
 5053SOL    HW226622   4.005   1.225   4.976  1.2318 -0.2715 -0.6164
 5054SOL     OW26623   2.939   0.960  10.791  0.0739  0.4765 -0.0318
 5054SOL    HW126624   2.982   0.912  10.721  0.2206 -0.4374  0.6974
 5054SOL    HW226625   2.982   0.924  10.868  1.8144  0.8978 -0.8105
 5055SOL     OW26626   1.495   0.918  12.987 -0.3135 -0.3575 -0.0572
 5055SOL    HW126627   1.549   0.924  12.909  1.1911  0.3385  1.0296
 5055SOL    HW226628   1.541   0.984  13.041  1.4474 -0.4308 -1.4660
 5056SOL     OW26629   2.786   2.979   7.099  0.0059  0.2759  0.0901
 5056SOL    HW126630   2.842   2.970   7.176  1.4294  2.8081 -0.6497
 5056SOL    HW226631   2.699   2.984   7.138  0.3876 -1.8301  1.2445
 5057SOL     OW26632   2.493   1.623   8.246  0.3795 -0.3254  0.8403
 5057SOL    HW126633   2.506   1.714   8.273  1.6030 -0.3870  0.4601
 5057SOL    HW226634   2.574   1.610   8.197  0.5631 -0.8006  1.2705
 5058SOL     OW26635   1.940   1.132  17.557  0.1879 -0.0709  0.6302
 5058SOL    HW126636   1.952   1.204  17.619  1.3893  0.1045  0.1934
 5058SOL    HW226637   1.847   1.109  17.553 -0.0920  1.3355 -0.7672
 5059SOL     OW26638   4.362   0.210   2.299 -0.2733  0.0829 -0.0540
 5059SOL    HW126639   4.306   0.287   2.295 -0.6802 -0.1083  2.3973
 5059SOL    HW226640   4.399   0.215   2.387 -0.7006 -0.9543  0.1793
 5060SOL     OW26641   3.398   4.370   9.464 -0.0277  0.0665 -0.1234
 5060SOL    HW126642   3.332   4.319   9.511  0.7278 -0.6806  0.1368
 5060SOL    HW226643   3.479   4.363   9.515 -0.0844 -2.2135 -0.3517
 5061SOL     OW26644   2.398   0.137   5.752  0.8557 -0.0190 -0.0031
 5061SOL    HW126645   2.465   0.204   5.770  0.2857 -0.3136  3.1929
 5061SOL    HW226646   2.437   0.071   5.696 -0.1170 -0.6197  0.0237
 5062SOL     OW26647   2.658   4.057   4.029 -0.4097  0.4887 -0.4742
 5062SOL    HW126648   2.639   4.115   3.955 -0.0472  0.5069 -0.5526
 5062SOL    HW226649   2.579   4.050   4.082  0.4883 -0.0816  0.7958
 5063SOL     OW26650   1.776   1.090   1.493  0.4301  0.3990  0.5731
 5063SOL    HW126651   1.750   1.077   1.402  0.4259  2.7232  0.2624
 5063SOL    HW226652   1.778   1.185   1.493  0.3461  0.4078 -3.3616
 5064SOL     OW26653   1.267   4.046   8.192  0.0013  0.0794 -0.0644
 5064SOL    HW126654   1.313   3.972   8.230 -2.1052 -0.1399  2.0639
 5064SOL    HW226655   1.233   4.008   8.111  1.4970  0.4790 -0.8805
 5065SOL     OW26656   2.257   1.623  15.550  0.0962  0.7927 -0.4501
 5065SOL    HW126657   2.181   1.563  15.549  1.1555 -0.5655 -0.1515
 5065SOL    HW226658   2.234   1.671  15.630  0.3390  0.8942 -0.4419
 5066SOL     OW26659   1.429   1.746   0.452  0.5394  0.9055  0.2111
 5066SOL    HW126660   1.366   1.782   0.390 -0.9167 -2.7581 -0.4611
 5066SOL    HW226661   1.383   1.678   0.501  1.7731  0.3047  0.5425
 5067SOL     OW26662   0.276   3.855   9.578  0.6847 -0.6427  0.0946
 5067SOL    HW126663   0.268   3.944   9.543  1.5561 -0.2649  0.8243
 5067SOL    HW226664   0.255   3.871   9.670 -2.2831  1.0015 -0.9012
 5068SOL     OW26665   0.837   1.227   5.604 -0.1434  0.3152  0.2256
 5068SOL    HW126666   0.845   1.140   5.643  0.2672 -0.1050 -0.7877
 5068SOL    HW226667   0.742   1.241   5.598 -0.4282 -1.4622  0.5853
 5069SOL     OW26668   1.157   0.764   4.341 -0.1799  0.1185 -0.0588
 5069SOL    HW126669   1.081   0.821   4.342 -1.5077 -1.7030  1.1292
 5069SOL    HW226670   1.225   0.832   4.346  3.6073 -3.5078 -1.6591
 5070SOL     OW26671   4.001   0.959   6.185 -0.0800 -0.5050 -0.1742
 5070SOL    HW126672   4.052   1.037   6.205  0.2818 -1.3526  2.1923
 5070SOL    HW226673   4.030   0.940   6.096  1.7058  0.6378  0.1684
 5071SOL     OW26674   4.716   4.671  11.450  0.1863  0.0598  0.3992
 5071SOL    HW126675   4.686   0.005  11.375 -0.6615  1.7650  1.9182
 5071SOL    HW226676   0.081   4.712  11.475  0.9033 -0.3485 -1.3200
 5072SOL     OW26677   3.300   1.985   8.505 -0.1873  0.2975 -0.0919
 5072SOL    HW126678   3.245   2.062   8.523  0.6537  0.2846  2.4614
 5072SOL    HW226679   3.383   2.031   8.491  0.1377 -0.7136 -1.4186
 5073SOL     OW26680   0.843   3.776  12.354 -0.1372  0.2813 -0.1810
 5073SOL    HW126681   0.802   3.714  12.294 -0.1003  0.4163 -0.3466
 5073SOL    HW226682   0.773   3.839  12.370 -1.3999 -1.0567 -0.4646
 5074SOL     OW26683   0.998   0.328   8.796  0.1563 -0.6178 -0.1704
 5074SOL    HW126684   1.072   0.311   8.854 -1.0394  0.4104  1.6253
 5074SOL    HW226685   1.024   0.272   8.722 -2.6505 -1.8303 -0.2560
 5075SOL     OW26686   3.937   1.115   8.225 -0.5990  0.2147 -0.4206
 5075SOL    HW126687   4.030   1.138   8.226 -0.1701 -1.4746 -0.7345
 5075SOL    HW226688   3.922   1.073   8.310 -0.1384 -0.7502 -0.8092
 5076SOL     OW26689   1.571   3.187   4.963  0.2723  0.1950  0.4512
 5076SOL    HW126690   1.645   3.176   4.904 -0.9814 -0.6835 -0.9543
 5076SOL    HW226691   1.502   3.175   4.898 -0.2372  0.4296  0.9435
 5077SOL     OW26692   1.420   0.904   7.474  0.1601 -0.2162 -0.0574
 5077SOL    HW126693   1.342   0.913   7.529  0.3179  0.5855  0.0362
 5077SOL    HW226694   1.423   0.992   7.437 -3.8584  0.7051  1.8612
 5078SOL     OW26695   3.975   3.834   4.404 -0.4285 -0.3605  0.0524
 5078SOL    HW126696   3.968   3.904   4.469  0.6527 -0.9599  0.8131
 5078SOL    HW226697   4.070   3.819   4.400 -0.4209 -0.2086 -0.3612
 5079SOL     OW26698   3.583   1.494   2.499 -0.5591  0.6441  0.3388
 5079SOL    HW126699   3.657   1.433   2.508 -0.0304  1.5559  2.2044
 5079SOL    HW226700   3.520   1.455   2.559 -0.2361 -0.0370  0.2353
 5080SOL     OW26701   4.358   0.973   5.573 -0.0209  0.7044  0.0269
 5080SOL    HW126702   4.324   1.063   5.575 -0.5476  0.5855 -2.6940
 5080SOL    HW226703   4.286   0.918   5.604 -0.1969  0.2364 -1.1969
 5081SOL     OW26704   3.742   2.738   0.520 -0.0474  0.2245  0.2298
 5081SOL    HW126705   3.764   2.830   0.508 -0.9308  0.6293  1.7992
 5081SOL    HW226706   3.746   2.741   0.615  1.1028 -0.0308  0.1907
 5082SOL     OW26707   4.709   3.962   9.503  0.6098 -0.0732 -0.5737
 5082SOL    HW126708   4.699   4.006   9.587  0.9549 -1.3986  0.1565
 5082SOL    HW226709   4.714   4.040   9.447  2.5538  0.5132  0.4405
 5083SOL     OW26710   1.516   0.346   4.657 -0.5801  0.5797 -0.2022
 5083SOL    HW126711   1.536   0.292   4.581  0.5069  1.5546 -0.6126
 5083SOL    HW226712   1.494   0.427   4.610 -2.1904  1.1495  1.5386
 5084SOL     OW26713   3.329   2.921   8.603 -0.3486  0.0646 -0.0802
 5084SOL    HW126714   3.318   3.016   8.609 -0.4956 -0.0654  1.7861
 5084SOL    HW226715   3.312   2.900   8.511 -1.3535  1.2650 -0.1803
 5085SOL     OW26716   2.760   2.461   5.823  0.3485 -0.2109 -0.1105
 5085SOL    HW126717   2.819   2.520   5.778 -0.9879 -1.0917 -3.0209
 5085SOL    HW226718   2.812   2.382   5.840  0.4491  0.1420  1.2069
 5086SOL     OW26719   2.405   0.473   3.511  0.2763  0.0906  0.0195
 5086SOL    HW126720   2.500   0.471   3.523  0.8000 -1.1439 -4.3075
 5086SOL    HW226721   2.396   0.568   3.506  0.5650  0.1148 -0.0362
 5087SOL     OW26722   2.834   0.245   6.128  0.1477 -0.7058 -0.0107
 5087SOL    HW126723   2.835   0.159   6.170  0.2060  0.1600  1.7417
 5087SOL    HW226724   2.916   0.285   6.158 -0.1244 -2.3897  2.9240
 5088SOL     OW26725   2.184   2.249  10.133 -0.5897  0.3469  0.4206
 5088SOL    HW126726   2.164   2.314  10.201 -0.2888  2.4966 -1.5316
 5088SOL    HW226727   2.119   2.181  10.151 -1.0246  0.6110 -0.1481
 5089SOL     OW26728   2.612   3.356   2.543  0.1229 -0.0269 -0.5864
 5089SOL    HW126729   2.667   3.292   2.588 -1.1788  0.6180  1.9654
 5089SOL    HW226730   2.656   3.439   2.562  0.2338 -0.5818  1.6858
 5090SOL     OW26731   1.737   3.103  15.392 -0.1671  0.5141  0.3106
 5090SOL    HW126732   1.774   3.083  15.306 -1.3987  2.6499 -0.6984
 5090SOL    HW226733   1.764   3.194  15.403  1.7017 -0.3031  2.4178
 5091SOL     OW26734   0.091   3.995  11.135  0.1082 -0.5575 -0.3442
 5091SOL    HW126735   0.162   3.950  11.180  1.3211  0.0935 -1.6219
 5091SOL    HW226736   0.081   4.073  11.189 -1.4314 -0.1675 -1.1959
 5092SOL     OW26737   3.457   4.691  14.686 -0.4656 -0.4254  0.3801
 5092SOL    HW126738   3.484   4.708  14.776  0.2176  0.3369  0.0301
 5092SOL    HW226739   3.496   0.050  14.645 -0.3525 -1.3230 -1.2169
 5093SOL     OW26740   0.061   1.899   0.793 -0.5001  0.1218 -0.4407
 5093SOL    HW126741   0.125   1.852   0.846  0.7376 -0.5776 -2.5544
 5093SOL    HW226742   0.110   1.919   0.713  1.1894 -2.7701 -0.1280
 5094SOL     OW26743   0.129   1.028  11.478 -0.4374  0.4573  0.5720
 5094SOL    HW126744   0.211   1.013  11.432 -0.7453  1.4921 -0.3085
 5094SOL    HW226745   0.086   0.953  11.438  0.0544  1.3253 -1.5890
 5095SOL     OW26746   3.717   0.446   1.854 -0.1217  0.1989  0.6047
 5095SOL    HW126747   3.760   0.361   1.849  1.4763  1.0865 -0.5022
 5095SOL    HW226748   3.709   0.452   1.949 -0.2578 -1.8015  0.7174
 5096SOL     OW26749   1.589   2.900   8.344 -0.0330 -0.2972  0.1630
 5096SOL    HW126750   1.535   2.941   8.277 -1.0011 -2.3101 -0.2997
 5096SOL    HW226751   1.634   2.966   8.398  1.4864 -2.1200  1.1446
 5097SOL     OW26752   1.500   1.842   3.786 -0.3890 -0.1382  0.0100
 5097SOL    HW126753   1.501   1.772   3.851  1.4134  1.0145  1.2050
 5097SOL    HW226754   1.408   1.863   3.767 -0.4668  0.0725  0.6169
 5098SOL     OW26755   4.109   4.617   7.689 -0.1091 -0.4737  0.2278
 5098SOL    HW126756   4.101   4.564   7.610  0.2901  1.3778 -1.0651
 5098SOL    HW226757   4.058   4.691   7.657  1.1318  0.0307 -0.5867
 5099SOL     OW26758   3.734   4.249   7.231 -0.5547 -0.0765  0.2394
 5099SOL    HW126759   3.759   4.341   7.242  1.8236 -0.6874 -0.0192
 5099SOL    HW226760   3.639   4.260   7.219 -0.6889 -1.7570 -0.2383
 5100SOL     OW26761   0.156   1.114   6.866  0.0900 -0.0204 -0.2054
 5100SOL    HW126762   0.143   1.111   6.961  2.7109  1.8888  0.2242
 5100SOL    HW226763   0.252   1.118   6.863  0.0530  0.2192 -1.1298
 5101SOL     OW26764   2.981   2.211   7.872  0.2458 -0.1303 -0.2774
 5101SOL    HW126765   2.899   2.171   7.845 -0.6151  0.7057  1.1207
 5101SOL    HW226766   3.036   2.143   7.912 -0.6555 -0.7666 -0.1259
 5102SOL     OW26767   3.579   1.791   3.997  0.1042  0.2220  0.0428
 5102SOL    HW126768   3.655   1.846   3.978  1.0181 -1.0787 -0.0602
 5102SOL    HW226769   3.512   1.836   3.945 -0.5706 -1.6207 -0.6502
 5103SOL     OW26770   1.784   0.409   7.164 -0.7234 -0.1757  0.2498
 5103SOL    HW126771   1.866   0.441   7.202 -0.2200 -1.0365 -0.1252
 5103SOL    HW226772   1.760   0.489   7.116  0.6803 -0.7262 -1.3849
 5104SOL     OW26773   4.258   1.978   3.093  0.1179 -0.3921 -0.5907
 5104SOL    HW126774   4.320   1.908   3.114  1.9967  1.2875 -0.5122
 5104SOL    HW226775   4.289   2.025   3.016  0.6847 -1.4248 -0.9881
 5105SOL     OW26776   4.174   3.555   1.582 -0.0281  0.5280  0.4106
 5105SOL    HW126777   4.084   3.577   1.561 -0.3732 -2.5371 -1.2967
 5105SOL    HW226778   4.217   3.641   1.581  1.4671 -0.2039  2.1822
 5106SOL     OW26779   4.037   2.130   0.294 -0.4922  0.3707  0.2359
 5106SOL    HW126780   3.948   2.095   0.281 -1.5449  3.0220  0.3656
 5106SOL    HW226781   4.084   2.064   0.346 -0.0807  2.4771  2.5421
 5107SOL     OW26782   4.450   0.522   6.485 -0.0921 -0.4393  0.5333
 5107SOL    HW126783   4.506   0.558   6.554 -0.2269  1.3491 -0.2918
 5107SOL    HW226784   4.484   0.437   6.457 -0.3004 -1.0021  1.9873
 5108SOL     OW26785   3.817   1.766  13.585 -0.2906  0.8632 -0.4872
 5108SOL    HW126786   3.752   1.836  13.592  1.0028  2.0813 -0.6274
 5108SOL    HW226787   3.766   1.696  13.546  1.4313  0.6772 -2.3881
 5109SOL     OW26788   3.955   0.044   6.012 -0.5029 -0.1397  0.3915
 5109SOL    HW126789   3.989   0.025   6.099 -0.3032 -1.8062 -0.0428
 5109SOL    HW226790   3.866   0.007   6.012 -0.7117  0.3604 -1.0084
 5110SOL     OW26791   2.416   3.360   6.051  0.4341 -0.4345  0.1498
 5110SOL    HW126792   2.462   3.362   5.967 -1.9719  0.5174 -1.1561
 5110SOL    HW226793   2.444   3.270   6.069  0.4841 -0.0516  1.9659
 5111SOL     OW26794   4.646   4.048  13.131  0.0208 -0.6792  0.0072
 5111SOL    HW126795   4.607   4.123  13.085 -4.1909 -1.8438  1.6021
 5111SOL    HW226796   4.648   4.101  13.211 -0.4971  0.4686 -0.7299
 5112SOL     OW26797   1.313   1.008   4.038 -0.1734  0.6941 -0.1699
 5112SOL    HW126798   1.379   1.015   4.107 -1.3269  0.1946  0.9991
 5112SOL    HW226799   1.242   1.053   4.084  1.1850  1.2982  1.3244
 5113SOL     OW26800   1.580   0.750  10.750  0.3404  0.3166 -0.5375
 5113SOL    HW126801   1.528   0.670  10.753  0.5223  0.1529 -2.0388
 5113SOL    HW226802   1.629   0.736  10.831 -0.5593 -2.6631 -0.5303
 5114SOL     OW26803   2.846   1.763  15.820 -0.4624 -0.2123 -0.2746
 5114SOL    HW126804   2.910   1.834  15.819  0.7806 -1.3456 -0.4919
 5114SOL    HW226805   2.853   1.731  15.910  0.0221  1.2090  0.2006
 5115SOL     OW26806   0.060   0.078   5.468 -0.9860  0.3135  0.0674
 5115SOL    HW126807   4.717   0.038   5.531  0.5735  1.6453  2.4409
 5115SOL    HW226808   0.014   0.056   5.387  0.0875  0.5190 -0.5971
 5116SOL     OW26809   0.068   0.873  15.735 -0.8555 -0.2791  0.3179
 5116SOL    HW126810   0.124   0.857  15.659 -2.5281  1.4402 -1.2579
 5116SOL    HW226811   0.109   0.815  15.800  0.9411 -1.6846 -2.0291
 5117SOL     OW26812   1.020   1.277   4.428 -0.1203  0.2891  0.3763
 5117SOL    HW126813   1.047   1.303   4.516 -0.7375 -0.1295  0.6898
 5117SOL    HW226814   1.007   1.363   4.388 -1.2123 -0.2747 -0.4750
 5118SOL     OW26815   3.493   3.167   6.082  0.0586 -0.1257  1.0336
 5118SOL    HW126816   3.523   3.255   6.059  0.3226  0.1292  2.3841
 5118SOL    HW226817   3.454   3.124   6.005  3.1981 -1.0564 -0.0501
 5119SOL     OW26818   2.097   4.336   4.435  0.3491  0.7155  0.2959
 5119SOL    HW126819   2.034   4.265   4.444  1.8063 -0.7407 -1.1110
 5119SOL    HW226820   2.183   4.295   4.441 -0.6352 -1.0540  2.1110
 5120SOL     OW26821   4.419   0.732   1.531  0.0906  0.2305 -0.1005
 5120SOL    HW126822   4.494   0.675   1.552  0.3247  0.7423  0.4858
 5120SOL    HW226823   4.348   0.696   1.583 -1.4224 -0.7913 -2.9099
 5121SOL     OW26824   3.237   1.708   8.507 -0.4890 -0.1387  0.1110
 5121SOL    HW126825   3.251   1.665   8.422  0.0790  1.4000 -0.5599
 5121SOL    HW226826   3.273   1.792   8.479 -0.7449  0.5581  1.9321
 5122SOL     OW26827   0.781   0.875   9.370 -0.1976 -0.1991 -0.5200
 5122SOL    HW126828   0.733   0.902   9.292 -2.1797  1.3630  1.2183
 5122SOL    HW226829   0.828   0.958   9.381 -0.0470 -0.4700  0.9533
 5123SOL     OW26830   2.327   2.816   8.106 -0.6662 -0.0620 -0.3652
 5123SOL    HW126831   2.258   2.753   8.126 -1.1640 -0.0380 -1.9528
 5123SOL    HW226832   2.338   2.829   8.011 -4.1453  1.1612 -0.5979
 5124SOL     OW26833   2.683   3.790  17.034 -0.0532 -0.4355 -0.1894
 5124SOL    HW126834   2.648   3.879  17.042  0.2326 -0.5108  1.8634
 5124SOL    HW226835   2.602   3.752  16.999 -1.2302  2.9452 -1.1277
 5125SOL     OW26836   3.942   4.264  12.391  0.2312  0.3578 -0.3872
 5125SOL    HW126837   3.957   4.190  12.450  0.2189  3.8696  3.9368
 5125SOL    HW226838   4.030   4.270  12.354  0.6535 -0.5962  0.4521
 5126SOL     OW26839   4.166   1.356  10.769 -0.0679  0.0175 -0.3674
 5126SOL    HW126840   4.077   1.385  10.786  0.0895 -1.9998  3.6949
 5126SOL    HW226841   4.180   1.295  10.841  2.0094  0.3496 -0.4703
 5127SOL     OW26842   3.536   3.315   0.182  0.3359 -0.1829  0.2665
 5127SOL    HW126843   3.577   3.348   0.262 -2.6730  0.1810  1.6656
 5127SOL    HW226844   3.449   3.290   0.215  0.4217 -1.2599 -0.3033
 5128SOL     OW26845   1.786   4.402  13.253 -0.1469 -0.1146 -0.0330
 5128SOL    HW126846   1.750   4.401  13.164 -2.8884  0.0266  1.0541
 5128SOL    HW226847   1.732   4.340  13.301  0.3574 -0.3975  0.1652
 5129SOL     OW26848   2.060   4.105  10.073 -0.0950  0.8844 -0.3084
 5129SOL    HW126849   2.042   4.194  10.104 -0.4481  1.1524 -1.2846
 5129SOL    HW226850   2.067   4.053  10.153  0.4607  0.6249 -0.5256
 5130SOL     OW26851   0.979   2.834  16.086  0.2087 -0.4410  0.5305
 5130SOL    HW126852   0.990   2.740  16.102 -1.0216 -0.7296 -0.3768
 5130SOL    HW226853   0.890   2.843  16.120 -0.6780 -0.9295 -1.6735
 5131SOL     OW26854   0.647   1.806  10.396 -0.4541 -0.6392  0.8499
 5131SOL    HW126855   0.716   1.748  10.428  1.1759  0.7837 -0.1298
 5131SOL    HW226856   0.642   1.868  10.469 -4.2857  0.1657 -0.0930
 5132SOL     OW26857   1.659   4.060  12.978 -0.2089 -0.2059 -0.0802
 5132SOL    HW126858   1.567   4.084  12.975  0.2174  1.4650  0.3667
 5132SOL    HW226859   1.662   4.022  13.066  0.8073  1.2145  0.5033
 5133SOL     OW26860   2.271   4.455   2.736  0.5068 -0.6798  0.2121
 5133SOL    HW126861   2.299   4.363   2.734  3.1667  0.1018  1.4548
 5133SOL    HW226862   2.266   4.468   2.831  0.4632 -1.2084  0.2812
 5134SOL     OW26863   0.519   0.459   1.214  0.4421  0.1462  0.5774
 5134SOL    HW126864   0.482   0.542   1.184 -2.3629 -1.0064  0.8470
 5134SOL    HW226865   0.571   0.491   1.288  0.8267  1.1535 -0.1412
 5135SOL     OW26866   0.243   0.799   5.437  0.3201 -0.2514 -0.3147
 5135SOL    HW126867   0.210   0.842   5.358  3.1082  0.8622 -0.8924
 5135SOL    HW226868   0.263   0.711   5.403 -0.1909  0.0476 -1.4090
 5136SOL     OW26869   4.447   1.540   5.142 -0.2162  0.6362 -0.4954
 5136SOL    HW126870   4.507   1.527   5.216 -0.2969 -0.4514 -0.6307
 5136SOL    HW226871   4.494   1.606   5.091  1.4569  0.3922  0.7127
 5137SOL     OW26872   2.195   1.268  12.305  0.0424  0.4497 -0.5421
 5137SOL    HW126873   2.135   1.324  12.355 -1.9744 -2.0166 -0.2456
 5137SOL    HW226874   2.165   1.289  12.217  0.2323  2.8049 -0.0637
 5138SOL     OW26875   3.110   2.933   5.956  0.2562 -0.2704 -0.2980
 5138SOL    HW126876   3.134   2.933   6.049 -1.2096  1.3780  0.0719
 5138SOL    HW226877   3.016   2.916   5.959  0.3077 -0.3377  0.9811
 5139SOL     OW26878   1.666   0.133   2.574 -0.0417 -1.3325  0.1868
 5139SOL    HW126879   1.613   0.201   2.532 -0.9239 -0.9601  1.8874
 5139SOL    HW226880   1.606   0.101   2.641  0.2803  0.9268  1.5813
 5140SOL     OW26881   2.297   3.566  16.727 -0.2070 -0.2379  0.5486
 5140SOL    HW126882   2.268   3.636  16.786 -0.9326 -1.2321  1.3738
 5140SOL    HW226883   2.225   3.576  16.665  2.5609  0.4860 -2.5664
 5141SOL     OW26884   2.875   3.397   5.499 -0.4135 -0.4842 -0.8797
 5141SOL    HW126885   2.798   3.375   5.447 -2.2991 -1.5198  2.2969
 5141SOL    HW226886   2.917   3.312   5.485  0.1586 -0.7098  2.1435
 5142SOL     OW26887   1.072   3.212  12.978 -0.0530 -0.3467 -0.5951
 5142SOL    HW126888   1.021   3.131  12.971  0.7833 -0.9098 -0.1006
 5142SOL    HW226889   1.161   3.184  12.958 -0.7573 -2.0301 -1.3744
 5143SOL     OW26890   2.219   0.276   9.819 -0.0418  0.5509  0.1466
 5143SOL    HW126891   2.144   0.288   9.762  0.4943  1.4445 -0.3562
 5143SOL    HW226892   2.265   0.358   9.802 -1.0172  1.1409  0.4176
 5144SOL     OW26893   2.141   1.479   5.053  0.0927 -0.5065 -0.6132
 5144SOL    HW126894   2.059   1.526   5.066  0.5199  0.9476 -3.0763
 5144SOL    HW226895   2.119   1.389   5.032 -0.4045 -0.7591  0.9838
 5145SOL     OW26896   3.598   3.180  17.014 -0.0582  0.1699  0.3907
 5145SOL    HW126897   3.557   3.134  17.087  1.6974  0.7450  1.7116
 5145SOL    HW226898   3.527   3.236  16.980  1.1677  1.5093  0.0673
 5146SOL     OW26899   0.098   4.469   6.593  0.4163  0.4568  0.8789
 5146SOL    HW126900   0.046   4.392   6.569  0.3135  0.7433  0.1718
 5146SOL    HW226901   0.163   4.434   6.653 -2.0101 -2.2239  1.9559
 5147SOL     OW26902   3.770   1.110  10.126  0.1734 -0.0462  0.4034
 5147SOL    HW126903   3.824   1.088  10.202  4.3555 -0.3484 -2.6049
 5147SOL    HW226904   3.692   1.071  10.165  1.1129 -0.7341  1.6246
 5148SOL     OW26905   1.869   1.361   5.037 -0.4128 -0.1299 -0.0530
 5148SOL    HW126906   1.835   1.322   5.117  0.6566 -2.6632 -0.8378
 5148SOL    HW226907   1.900   1.285   4.988 -1.7006 -0.7369  0.0702
 5149SOL     OW26908   3.070   3.503   0.180  0.4162  0.1615  0.4324
 5149SOL    HW126909   3.088   3.594   0.204  0.5569  0.1511  0.3664
 5149SOL    HW226910   3.072   3.502   0.085 -0.0003 -0.9333  0.4286
 5150SOL     OW26911   3.911   4.222   7.818 -0.2021 -0.2650 -0.5861
 5150SOL    HW126912   3.884   4.156   7.754 -0.9397  1.5497 -2.1341
 5150SOL    HW226913   3.838   4.282   7.828  0.7522  0.4845  1.8837
 5151SOL     OW26914   3.057   4.043  13.285 -0.0766 -0.1911  0.0776
 5151SOL    HW126915   2.967   4.031  13.316  0.3974 -0.8430  1.1908
 5151SOL    HW226916   3.083   4.133  13.300  0.5700 -0.0389 -1.9989
 5152SOL     OW26917   2.200   4.285  13.664 -1.0114 -0.1608 -0.0286
 5152SOL    HW126918   2.190   4.213  13.727  0.1508 -1.8170 -1.7147
 5152SOL    HW226919   2.295   4.285  13.648 -0.9498  0.7967  0.3608
 5153SOL     OW26920   2.047   0.243  11.017  0.6173  0.0761 -0.3242
 5153SOL    HW126921   2.082   0.288  11.094  0.4073 -1.4194  0.6294
 5153SOL    HW226922   2.045   0.154  11.051  2.0548  0.5457  0.9753
 5154SOL     OW26923   2.641   1.678   5.219  0.0291  0.5398  0.2301
 5154SOL    HW126924   2.633   1.600   5.274  0.1960  1.7438  1.9534
 5154SOL    HW226925   2.630   1.742   5.289  1.0001  1.1742 -0.2100
 5155SOL     OW26926   1.129   4.067   4.720 -0.7833  0.0467 -0.1420
 5155SOL    HW126927   1.052   4.085   4.774 -0.8909  0.3247 -0.3900
 5155SOL    HW226928   1.120   3.971   4.717 -1.0511  0.0624  0.2409
 5156SOL     OW26929   2.317   3.726   6.533  0.4874 -0.0650 -0.6235
 5156SOL    HW126930   2.224   3.720   6.553  0.4329 -1.3929 -1.2346
 5156SOL    HW226931   2.353   3.690   6.614 -1.4106 -1.6047 -0.4567
 5157SOL     OW26932   1.977   2.577   3.292 -0.0434  1.2514 -0.4096
 5157SOL    HW126933   1.998   2.523   3.216 -1.7145  0.6617 -0.4489
 5157SOL    HW226934   2.049   2.572   3.355  0.2016  1.8980 -0.6383
 5158SOL     OW26935   4.059   0.343   7.702 -0.3363 -0.5378 -0.8666
 5158SOL    HW126936   4.037   0.434   7.722  0.2700  0.2990 -3.9781
 5158SOL    HW226937   4.151   0.350   7.676  0.0802 -0.5397  0.6010
 5159SOL     OW26938   3.693   0.964   2.274 -0.6715 -0.0180  0.1852
 5159SOL    HW126939   3.708   1.000   2.362  0.0805 -0.7733  0.3644
 5159SOL    HW226940   3.747   1.022   2.221  0.5614 -0.9012  0.4713
 5160SOL     OW26941   3.124   2.583   9.374  0.6052 -0.0397  0.2198
 5160SOL    HW126942   3.165   2.621   9.297  1.0017 -0.9109 -0.0010
 5160SOL    HW226943   3.071   2.658   9.400  0.1420 -0.1891 -0.2906
 5161SOL     OW26944   3.859   1.657  17.304  0.1173  0.3174 -0.5664
 5161SOL    HW126945   3.852   1.705  17.387  1.5741 -0.0674 -0.2294
 5161SOL    HW226946   3.895   1.726  17.248  1.0102  1.1580  1.0200
 5162SOL     OW26947   1.022   4.209  10.298 -0.6373 -0.0976 -0.0083
 5162SOL    HW126948   1.082   4.280  10.322  1.3637 -1.2503 -1.6357
 5162SOL    HW226949   0.954   4.258  10.253 -1.0488  0.4980  1.2714
 5163SOL     OW26950   4.098   2.075  12.353 -0.3831 -0.5403 -0.1238
 5163SOL    HW126951   4.058   2.082  12.266 -0.0270  0.2645 -0.2201
 5163SOL    HW226952   4.153   1.997  12.341  0.1112 -0.7115  3.4580
 5164SOL     OW26953   3.235   2.534   3.134 -0.5644  0.2804  0.0131
 5164SOL    HW126954   3.262   2.615   3.093  1.0627  0.2146  0.9514
 5164SOL    HW226955   3.239   2.560   3.226  2.0856  0.6239 -0.2244
 5165SOL     OW26956   2.066   4.275   2.636  0.1593  0.4986 -0.2843
 5165SOL    HW126957   2.133   4.337   2.666 -0.4074  0.7780  0.4192
 5165SOL    HW226958   1.996   4.329   2.673 -0.4445 -0.1445 -0.5187
 5166SOL     OW26959   4.355   0.025   0.753  0.0483 -0.1993  0.1411
 5166SOL    HW126960   4.368   0.046   0.846 -1.3906 -0.8033  0.4824
 5166SOL    HW226961   4.423   4.676   0.739 -0.0174 -0.0073 -1.0575
 5167SOL     OW26962   2.693   1.112   3.503  0.5703 -0.3628  0.2348
 5167SOL    HW126963   2.716   1.167   3.577 -1.4809 -0.5777  1.0262
 5167SOL    HW226964   2.650   1.178   3.448 -2.3844 -0.8960  1.8849
 5168SOL     OW26965   3.436   3.102   3.927  0.2817  0.1981  0.3188
 5168SOL    HW126966   3.472   3.045   3.996 -2.0908 -1.9481 -0.1879
 5168SOL    HW226967   3.437   3.035   3.858 -1.5209  0.8937 -0.3711
 5169SOL     OW26968   4.376   4.402   8.407  0.4227  0.2502 -0.2553
 5169SOL    HW126969   4.312   4.473   8.415 -1.2568 -1.2642 -0.4987
 5169SOL    HW226970   4.329   4.331   8.451  0.8664  0.3904  0.4411
 5170SOL     OW26971   3.828   3.952   5.911 -0.1686 -0.3564 -0.1392
 5170SOL    HW126972   3.849   4.041   5.882 -0.2909  0.2032  1.5028
 5170SOL    HW226973   3.793   3.926   5.826 -0.5010  1.7493 -0.6460
 5171SOL     OW26974   2.588   1.522   1.102 -0.5568 -0.0764 -0.2076
 5171SOL    HW126975   2.497   1.538   1.123 -0.4458  0.0235  0.1807
 5171SOL    HW226976   2.581   1.449   1.040 -0.5078 -0.7717  0.6090
 5172SOL     OW26977   0.911   3.573  12.596 -0.0278 -0.9986  0.2171
 5172SOL    HW126978   0.935   3.562  12.504 -1.4617  0.9780 -0.3953
 5172SOL    HW226979   0.940   3.664  12.607 -0.1947 -1.0464  1.0771
 5173SOL     OW26980   2.821   3.394   6.288  0.1384  0.4556 -0.0784
 5173SOL    HW126981   2.856   3.369   6.373 -2.1160 -2.6695 -0.0542
 5173SOL    HW226982   2.809   3.488   6.300  2.9404  0.9665 -1.1514
 5174SOL     OW26983   4.583   3.245   8.720  0.0813 -0.1436  0.0904
 5174SOL    HW126984   4.529   3.195   8.658 -1.4659 -0.2865  1.5246
 5174SOL    HW226985   4.504   3.256   8.774 -0.0365  0.7567 -0.2830
 5175SOL     OW26986   1.325   1.743   4.170  0.7486 -0.1094  0.6076
 5175SOL    HW126987   1.273   1.698   4.237  2.2125 -0.1641  1.7298
 5175SOL    HW226988   1.333   1.831   4.207 -1.2541 -0.3903  1.7476
 5176SOL     OW26989   3.932   3.656  14.391 -0.0348  0.4928 -0.5272
 5176SOL    HW126990   3.981   3.629  14.314 -0.0074 -0.1327 -0.2936
 5176SOL    HW226991   4.003   3.687  14.447  0.6564 -0.7383 -0.7111
 5177SOL     OW26992   0.395   3.536   4.841  1.3623  0.1507  0.8255
 5177SOL    HW126993   0.347   3.465   4.883 -1.3948  1.4494 -0.0595
 5177SOL    HW226994   0.328   3.603   4.827  0.5934 -1.0926 -1.3584
 5178SOL     OW26995   2.619   1.713   3.215  0.0568  0.2371 -0.1368
 5178SOL    HW126996   2.539   1.747   3.177  0.1962 -0.3420 -0.9308
 5178SOL    HW226997   2.583   1.681   3.298 -0.7649 -0.1191 -0.6457
 5179SOL     OW26998   0.007   4.400   8.635  0.1707 -0.4375  0.2163
 5179SOL    HW126999   0.071   4.471   8.644  1.2013 -1.4021  0.5298
 5179SOL    HW227000   0.030   4.363   8.720  0.6048 -0.4369  0.0964
 5180SOL     OW27001   0.237   0.145   6.319  0.3753 -0.0011  0.1358
 5180SOL    HW127002   0.162   0.203   6.305  0.2375 -0.8986 -2.7494
 5180SOL    HW227003   0.294   0.191   6.381  1.0195 -1.1194  0.3672
 5181SOL     OW27004   0.284   2.257   2.393  0.1414 -0.2586 -0.1440
 5181SOL    HW127005   0.346   2.317   2.353  2.0286 -1.5273  0.8143
 5181SOL    HW227006   0.310   2.252   2.486 -1.2228 -1.8208  0.1525
 5182SOL     OW27007   3.043   0.610   6.631  0.4810 -0.5133  0.2635
 5182SOL    HW127008   3.062   0.695   6.590 -1.1223 -0.3845 -0.1973
 5182SOL    HW227009   3.092   0.549   6.575  2.0153 -1.2011  2.3604
 5183SOL     OW27010   0.385   1.048   2.706  0.4014  0.1690  0.5845
 5183SOL    HW127011   0.360   1.064   2.614 -2.1478 -2.3147  0.8292
 5183SOL    HW227012   0.421   0.962   2.684  1.4601  0.2942  1.9220
 5184SOL     OW27013   2.646   3.798   7.452  0.0961 -0.1847 -0.1639
 5184SOL    HW127014   2.578   3.741   7.416  0.1376 -0.3143 -0.0405
 5184SOL    HW227015   2.602   3.872   7.493  0.0075  0.9932 -2.4101
 5185SOL     OW27016   3.172   3.686   8.655 -0.2974  0.2568 -0.1246
 5185SOL    HW127017   3.178   3.782   8.649  1.0388  0.0780 -1.7282
 5185SOL    HW227018   3.158   3.667   8.562 -0.6029 -2.7215  0.5511
 5186SOL     OW27019   3.616   2.791   3.807 -0.7441 -0.3965  0.0024
 5186SOL    HW127020   3.606   2.706   3.851 -0.6185 -1.2105 -1.5294
 5186SOL    HW227021   3.634   2.841   3.886 -0.9938 -1.3509  0.6685
 5187SOL     OW27022   4.138   2.350  12.734 -0.6807  0.4510  0.1599
 5187SOL    HW127023   4.104   2.406  12.664  0.2893  1.4474  0.4844
 5187SOL    HW227024   4.187   2.417  12.781  1.1002 -0.4204 -0.4909
 5188SOL     OW27025   1.078   0.258   2.617  0.3818  0.3407 -0.1206
 5188SOL    HW127026   1.003   0.248   2.675 -1.0097  0.4186 -1.8775
 5188SOL    HW227027   1.143   0.264   2.686  0.7551 -2.5297 -0.2262
 5189SOL     OW27028   2.767   4.258   7.930 -0.4053 -0.0765  0.0982
 5189SOL    HW127029   2.828   4.329   7.952  2.0244 -1.4061 -2.3727
 5189SOL    HW227030   2.767   4.213   8.015  0.6817 -2.0007 -0.9305
 5190SOL     OW27031   0.874   0.630  13.533 -0.2356  0.2346 -0.4305
 5190SOL    HW127032   0.936   0.617  13.604  0.4496  2.4668 -0.6050
 5190SOL    HW227033   0.800   0.668  13.581 -1.8071 -1.4067 -1.5396
 5191SOL     OW27034   0.192   4.200   0.546 -0.5644  0.2496 -0.1550
 5191SOL    HW127035   0.172   4.237   0.632  1.5421  2.8248 -0.7457
 5191SOL    HW227036   0.131   4.127   0.546 -0.8192  0.4605 -0.5473
 5192SOL     OW27037   2.733   1.842  14.945  0.0956  0.7087  0.7295
 5192SOL    HW127038   2.664   1.775  14.943  2.4608 -1.6889 -0.5015
 5192SOL    HW227039   2.784   1.815  14.869 -2.4690 -2.0302 -0.0104
 5193SOL     OW27040   3.358   0.697   5.938  0.3456 -0.2798  0.7954
 5193SOL    HW127041   3.433   0.715   5.995  0.8212  0.3537 -0.0347
 5193SOL    HW227042   3.335   0.607   5.960  1.3208 -0.1080  2.5326
 5194SOL     OW27043   4.487   2.752  16.049  0.0511 -0.0570 -0.7332
 5194SOL    HW127044   4.439   2.817  16.100  0.9706 -1.2658  1.6763
 5194SOL    HW227045   4.450   2.674  16.089  1.1058 -0.2028 -0.0431
 5195SOL     OW27046   0.267   3.836   1.984 -0.1086  0.3307  0.2047
 5195SOL    HW127047   0.321   3.760   2.004 -1.6839 -0.6119  0.9404
 5195SOL    HW227048   0.198   3.801   1.927  0.3356 -1.2955  0.6901
 5196SOL     OW27049   2.225   1.265  13.856 -0.2040  0.4894  0.3504
 5196SOL    HW127050   2.171   1.253  13.778 -0.7828 -1.0136  0.9778
 5196SOL    HW227051   2.237   1.175  13.888 -3.2738 -1.4610 -4.1091
 5197SOL     OW27052   1.827   3.119   5.416  0.1336  0.3119  0.5386
 5197SOL    HW127053   1.901   3.174   5.445  0.1428  0.1749  0.7763
 5197SOL    HW227054   1.789   3.185   5.358 -0.6702 -0.1964  0.4941
 5198SOL     OW27055   3.438   3.774   5.671 -0.2561  0.3999  0.0878
 5198SOL    HW127056   3.378   3.779   5.596  1.8055  1.9552 -1.4717
 5198SOL    HW227057   3.400   3.710   5.731  2.2173  0.6375  1.9265
 5199SOL     OW27058   1.350   4.683   7.598  0.1478  0.0781  0.3487
 5199SOL    HW127059   1.369   0.057   7.575  0.4336 -0.2960 -0.9103
 5199SOL    HW227060   1.442   4.658   7.585  0.6703  1.5618  1.0960
 5200SOL     OW27061   2.404   0.213   7.827 -0.1299  0.3245 -0.6883
 5200SOL    HW127062   2.421   0.245   7.738 -2.1568 -1.1230 -1.6058
 5200SOL    HW227063   2.343   0.141   7.812 -0.6544  1.0684 -2.1198
 5201SOL     OW27064   0.874   3.420  16.121  0.2392  0.2167  0.2568
 5201SOL    HW127065   0.967   3.399  16.115  0.6141  1.6307  0.9188
 5201SOL    HW227066   0.839   3.332  16.108  1.0218 -0.3293  1.8138
 5202SOL     OW27067   4.129   0.544  11.545  0.1066  0.0203 -0.0833
 5202SOL    HW127068   4.159   0.593  11.468  1.2505 -0.3190  0.1425
 5202SOL    HW227069   4.201   0.480  11.543  1.2433  1.2659  0.4656
 5203SOL     OW27070   0.511   3.903   6.477 -0.9061  0.4323  0.5606
 5203SOL    HW127071   0.579   3.884   6.412  0.5611 -0.8967  2.4665
 5203SOL    HW227072   0.528   3.992   6.509  1.0350 -0.4938  2.0724
 5204SOL     OW27073   0.096   0.025   7.954  0.2030  0.1589 -0.1387
 5204SOL    HW127074   0.150   4.689   7.895  2.9952  0.2864  2.2920
 5204SOL    HW227075   0.052   4.666   7.988 -0.1942  0.9778  1.1727
 5205SOL     OW27076   3.862   3.232   2.335 -0.1527  0.4543  0.3494
 5205SOL    HW127077   3.834   3.141   2.338  0.5819  0.1806 -1.4389
 5205SOL    HW227078   3.775   3.272   2.331  0.3073  1.7580  3.0407
 5206SOL     OW27079   4.262   1.027   0.254 -0.2433 -0.4611 -0.1126
 5206SOL    HW127080   4.216   1.017   0.337 -3.0164  0.1755 -1.5622
 5206SOL    HW227081   4.202   1.090   0.213  3.0647  2.5790 -0.3631
 5207SOL     OW27082   3.921   3.114   6.002  0.5176 -0.1305  0.1639
 5207SOL    HW127083   3.998   3.057   6.000  1.4393  1.1179  0.2519
 5207SOL    HW227084   3.961   3.200   5.990  0.1154 -0.2415 -1.9195
 5208SOL     OW27085   4.698   3.897   3.660  0.0240  0.4558 -0.3258
 5208SOL    HW127086   4.674   3.955   3.588 -2.3561 -1.0137 -0.7134
 5208SOL    HW227087   0.035   3.831   3.617 -0.7378  1.5908 -3.0310
 5209SOL     OW27088   1.530   4.274  14.941 -0.3975  0.2336 -0.2895
 5209SOL    HW127089   1.457   4.212  14.949 -1.7851  1.6410 -2.0842
 5209SOL    HW227090   1.487   4.341  14.888  0.2500 -0.3369 -1.5391
 5210SOL     OW27091   1.970   2.718  12.169  0.8520  0.4463 -0.1550
 5210SOL    HW127092   2.054   2.709  12.126  0.7487 -0.3083 -0.2001
 5210SOL    HW227093   1.936   2.797  12.127  0.5596  0.4958  0.1669
 5211SOL     OW27094   0.236   3.352   4.983  0.4392  0.5690 -0.0159
 5211SOL    HW127095   0.257   3.260   4.967  1.0671  1.0742 -2.1028
 5211SOL    HW227096   0.256   3.356   5.077  1.0556  0.9152 -0.1637
 5212SOL     OW27097   1.909   2.300   8.193  0.1691 -0.3103 -0.2313
 5212SOL    HW127098   1.912   2.370   8.257 -2.6318 -0.3943 -0.0228
 5212SOL    HW227099   1.937   2.353   8.118  2.0163 -0.7050  0.1670
 5213SOL     OW27100   0.153   2.268   6.248 -0.2677 -0.4536  0.2793
 5213SOL    HW127101   0.089   2.236   6.185  1.8505 -2.4979 -0.8343
 5213SOL    HW227102   0.158   2.360   6.222 -1.0551 -0.4276  0.2089
 5214SOL     OW27103   4.373   3.026   8.091  0.1816  0.2766  0.3203
 5214SOL    HW127104   4.372   2.947   8.146  0.7066 -0.7852 -1.1852
 5214SOL    HW227105   4.368   2.991   8.002 -0.7498 -0.5580  0.7004
 5215SOL     OW27106   0.695   3.054   5.745 -0.2352 -0.9042  0.0022
 5215SOL    HW127107   0.775   3.019   5.705 -0.2786  0.0997 -0.9685
 5215SOL    HW227108   0.704   3.001   5.824  0.4141 -2.7696 -1.3148
 5216SOL     OW27109   0.521   3.137   3.231  0.3152  0.2545 -0.3026
 5216SOL    HW127110   0.447   3.175   3.182  0.2562  2.8223  1.8140
 5216SOL    HW227111   0.594   3.187   3.195 -1.7486  0.7397 -3.8704
 5217SOL     OW27112   3.069   4.415   5.509  0.0552  0.3959  0.2602
 5217SOL    HW127113   3.054   4.480   5.578 -1.2124  0.1225  0.2409
 5217SOL    HW227114   2.984   4.414   5.465 -0.4399 -1.6422  1.2604
 5218SOL     OW27115   0.961   0.978   7.889  0.1664  0.5954 -0.1731
 5218SOL    HW127116   1.039   0.981   7.946 -0.2006  0.6411  0.3251
 5218SOL    HW227117   0.900   0.918   7.932 -0.6949  1.2974 -0.4195
 5219SOL     OW27118   0.753   3.841   7.834  0.5711  0.2368  0.0697
 5219SOL    HW127119   0.797   3.865   7.915  0.7240  0.8948 -0.2102
 5219SOL    HW227120   0.666   3.879   7.848  0.0009 -1.6034  1.6622
 5220SOL     OW27121   3.036   1.564  17.499 -0.0116  0.3443 -0.2805
 5220SOL    HW127122   2.958   1.546  17.447  0.8875 -0.7006 -1.2587
 5220SOL    HW227123   3.008   1.588  17.587 -0.8543 -0.6390 -0.2871
 5221SOL     OW27124   2.313   0.497   7.337  0.2098 -0.1999 -0.5141
 5221SOL    HW127125   2.408   0.501   7.333  0.1476 -0.2592 -1.8574
 5221SOL    HW227126   2.301   0.502   7.432  0.9477 -0.0389 -0.4262
 5222SOL     OW27127   0.941   1.816   4.171  0.0677  0.2653 -0.2529
 5222SOL    HW127128   1.015   1.877   4.168  0.4594 -0.2817 -1.7730
 5222SOL    HW227129   0.929   1.802   4.077  1.2203  0.8844 -0.4910
 5223SOL     OW27130   1.137   2.104   8.193  0.4101  0.1068  0.3998
 5223SOL    HW127131   1.158   2.065   8.278 -1.3086  1.1399  1.3133
 5223SOL    HW227132   1.191   2.057   8.129 -1.1747 -1.4784  0.1997
 5224SOL     OW27133   4.407   0.087   5.006 -0.2667 -0.2864 -0.2928
 5224SOL    HW127134   4.368   0.003   4.983 -1.0239 -0.1880  0.6378
 5224SOL    HW227135   4.393   0.136   4.924  0.9857 -2.9830 -2.1226
 5225SOL     OW27136   0.788   3.331  11.999  0.6285  0.6063  0.3792
 5225SOL    HW127137   0.767   3.419  11.969  0.7055  0.3203 -0.5065
 5225SOL    HW227138   0.709   3.290  11.962  0.0776  1.7091  0.3477
 5226SOL     OW27139   3.173   2.617  11.290  0.0787  0.0196  0.1197
 5226SOL    HW127140   3.098   2.666  11.325  1.6137  0.5620  2.7265
 5226SOL    HW227141   3.218   2.595  11.372  1.5555  1.0372 -0.4100
 5227SOL     OW27142   2.095   1.873   7.484  0.2790  0.3427  0.1669
 5227SOL    HW127143   2.099   1.872   7.579  1.1189  1.6244  0.1548
 5227SOL    HW227144   2.072   1.784   7.459 -2.0914  0.5406  1.6166
 5228SOL     OW27145   0.869   2.559   7.878 -0.3899 -0.8073  0.2749
 5228SOL    HW127146   0.815   2.484   7.904 -0.1442 -1.7209 -1.9177
 5228SOL    HW227147   0.896   2.588   7.965  0.0019  0.0032 -0.1197
 5229SOL     OW27148   1.790   2.030  10.008  0.4091 -0.0511  0.5351
 5229SOL    HW127149   1.695   2.017  10.010  0.6341 -1.4751  1.1728
 5229SOL    HW227150   1.798   2.113   9.960 -2.3177  0.1804  0.4693
 5230SOL     OW27151   0.234   3.028   7.053 -0.7765 -0.6514  0.0814
 5230SOL    HW127152   0.224   2.980   7.135  0.7188 -1.8846 -0.4502
 5230SOL    HW227153   0.310   2.977   7.025 -0.1137  0.8436 -0.8576
 5231SOL     OW27154   3.650   4.145   6.224 -0.0714 -0.0624 -0.0628
 5231SOL    HW127155   3.596   4.066   6.232 -2.1052  1.5349  1.8330
 5231SOL    HW227156   3.648   4.179   6.313 -3.3810  1.5278 -0.7276
 5232SOL     OW27157   2.374   3.646   6.144 -0.3826  0.1768 -0.7742
 5232SOL    HW127158   2.389   3.552   6.145  0.1999  0.2717 -0.4801
 5232SOL    HW227159   2.280   3.653   6.161 -0.9033 -1.5254 -3.0783
 5233SOL     OW27160   0.814   4.624   8.424  0.6850 -0.4589 -0.3136
 5233SOL    HW127161   0.748   4.678   8.381  1.4646  0.1998 -0.6889
 5233SOL    HW227162   0.835   4.553   8.364  1.6493 -0.3495 -0.0968
 5234SOL     OW27163   2.451   1.650   2.765 -0.5629  0.1843 -0.1623
 5234SOL    HW127164   2.356   1.646   2.771 -0.5270  1.3716  1.4778
 5234SOL    HW227165   2.474   1.630   2.856  0.2989 -2.5558 -1.0058
 5235SOL     OW27166   1.064   3.901   6.985 -0.0744 -0.7500  0.0112
 5235SOL    HW127167   1.095   3.967   7.047  1.0775 -0.8089 -0.5155
 5235SOL    HW227168   0.993   3.862   7.036  0.3683  0.1106  1.2726
 5236SOL     OW27169   3.243   1.661   3.617 -0.2399  0.5944  0.3277
 5236SOL    HW127170   3.238   1.752   3.587  2.2238 -0.1519 -2.3577
 5236SOL    HW227171   3.161   1.655   3.666 -0.4329  0.3604 -0.0209
 5237SOL     OW27172   3.299   0.737   9.096 -0.3615  0.0577 -0.3600
 5237SOL    HW127173   3.262   0.824   9.083 -0.3394 -0.3751 -3.1919
 5237SOL    HW227174   3.302   0.747   9.191  1.2600  0.4364 -0.4597
 5238SOL     OW27175   0.967   1.951   5.532 -0.3224  0.2863 -0.1061
 5238SOL    HW127176   0.913   2.007   5.476  0.7026  1.5944  0.2138
 5238SOL    HW227177   1.031   1.928   5.465  0.3070 -0.1700  0.6523
 5239SOL     OW27178   2.686   2.779   3.908 -0.6021 -0.2829  0.6221
 5239SOL    HW127179   2.767   2.824   3.932 -1.0127  1.6943 -1.6306
 5239SOL    HW227180   2.667   2.797   3.816 -1.2902 -2.9035  0.2500
 5240SOL     OW27181   0.369   1.180   8.571 -0.1997  0.0079  0.1469
 5240SOL    HW127182   0.288   1.144   8.607  1.3415 -2.7894  0.8032
 5240SOL    HW227183   0.429   1.122   8.617  1.5142  0.9258 -0.8914
 5241SOL     OW27184   1.331   1.365  11.383  0.3975  0.4057  0.4659
 5241SOL    HW127185   1.331   1.459  11.399 -2.4924  0.4455  0.1894
 5241SOL    HW227186   1.402   1.338  11.442  0.7736 -1.1210 -0.6708
 5242SOL     OW27187   3.220   1.545   2.076  0.4470  0.5999 -0.2575
 5242SOL    HW127188   3.237   1.623   2.129  1.1985  0.0875  0.2457
 5242SOL    HW227189   3.269   1.479   2.125  0.3691 -0.0956 -1.1087
 5243SOL     OW27190   2.863   3.482   3.148 -0.6813  0.1662  0.0128
 5243SOL    HW127191   2.940   3.510   3.099 -1.1439 -0.7739 -1.2531
 5243SOL    HW227192   2.900   3.490   3.236 -1.8295  0.7409  0.4416
 5244SOL     OW27193   1.297   2.077   3.684 -0.3423 -0.2383 -0.0533
 5244SOL    HW127194   1.272   1.985   3.698  1.3359 -0.2845  2.7341
 5244SOL    HW227195   1.379   2.061   3.636  0.7958  1.9318  1.1512
 5245SOL     OW27196   2.798   4.106   8.149  0.2197  0.0112 -0.1846
 5245SOL    HW127197   2.766   4.097   8.239  0.4159 -1.4331 -0.2513
 5245SOL    HW227198   2.817   4.015   8.127  0.2284 -0.0817  0.1991
 5246SOL     OW27199   1.820   0.049   9.711  0.5260  0.0722 -0.4399
 5246SOL    HW127200   1.871   0.083   9.784 -1.5663 -1.1388  1.5587
 5246SOL    HW227201   1.824   0.130   9.660 -1.0731 -0.5981 -1.6428
 5247SOL     OW27202   4.106   1.797  13.247  0.4129  0.5089 -0.0677
 5247SOL    HW127203   4.076   1.767  13.161  0.7072  1.7100 -0.5896
 5247SOL    HW227204   4.049   1.874  13.256  0.5364  0.6863 -0.7754
 5248SOL     OW27205   3.015   3.694   6.049  0.0063  0.0427 -0.2119
 5248SOL    HW127206   2.949   3.764   6.044  0.1194  0.3212  2.2095
 5248SOL    HW227207   3.054   3.701   6.136  0.4348  1.8038 -0.5385
 5249SOL     OW27208   0.584   4.018   1.442 -0.2524  0.0345 -0.5870
 5249SOL    HW127209   0.546   4.095   1.399 -1.4115  0.7803  1.7687
 5249SOL    HW227210   0.600   4.061   1.527 -1.3196  1.3579 -1.0444
 5250SOL     OW27211   3.300   1.600  14.182 -0.0878  0.3708  0.1866
 5250SOL    HW127212   3.281   1.687  14.217 -1.9667 -0.4293  1.1439
 5250SOL    HW227213   3.342   1.551  14.252 -2.3948 -0.8993  0.6598
 5251SOL     OW27214   1.779   3.796   4.805  0.6484  0.7430  0.1945
 5251SOL    HW127215   1.729   3.848   4.742  2.3709  2.4541  0.2628
 5251SOL    HW227216   1.788   3.715   4.754  0.1546  1.2961 -0.7766
 5252SOL     OW27217   2.671   1.653   3.779 -0.1637  0.0062  0.5674
 5252SOL    HW127218   2.700   1.740   3.750 -0.3284  0.5859  2.1250
 5252SOL    HW227219   2.713   1.650   3.865  0.9230 -2.4862 -0.0593
 5253SOL     OW27220   1.947   2.345  10.279  0.1419  0.3567  0.1329
 5253SOL    HW127221   2.018   2.340  10.343 -0.2651  0.4158  0.5913
 5253SOL    HW227222   1.866   2.306  10.313 -0.6401  1.5592 -0.3455
 5254SOL     OW27223   0.252   1.456   6.414 -0.3564 -0.1381  0.1578
 5254SOL    HW127224   0.286   1.378   6.459 -0.7590 -0.5113 -0.1951
 5254SOL    HW227225   0.274   1.437   6.323 -1.1763  0.2194 -0.1151
 5255SOL     OW27226   1.268   3.124   4.333  0.0033 -0.0066 -0.3034
 5255SOL    HW127227   1.297   3.215   4.330 -3.9558  1.2563  0.8488
 5255SOL    HW227228   1.334   3.085   4.391 -0.1445 -2.4818 -1.8263
 5256SOL     OW27229   0.507   2.076   6.885 -0.4126 -0.2458  0.6454
 5256SOL    HW127230   0.600   2.094   6.869  0.0359 -2.4592  0.8007
 5256SOL    HW227231   0.466   2.060   6.800  2.4653  1.2517 -1.0505
 5257SOL     OW27232   3.633   3.611   1.622 -0.8563 -0.1027  0.1306
 5257SOL    HW127233   3.636   3.567   1.707 -2.3349 -1.2121 -0.3784
 5257SOL    HW227234   3.537   3.615   1.614 -0.7256  0.0103 -1.3760
 5258SOL     OW27235   1.511   4.258   1.014  0.5093 -0.1641 -0.1121
 5258SOL    HW127236   1.600   4.223   1.013  1.5420  2.4485 -0.2059
 5258SOL    HW227237   1.522   4.354   1.012  1.3434 -0.2480  0.2608
 5259SOL     OW27238   0.544   0.665   1.407  0.5180 -0.6921  0.1453
 5259SOL    HW127239   0.482   0.618   1.463 -1.6039  4.0227  1.7132
 5259SOL    HW227240   0.623   0.675   1.462  0.1335 -2.6564  1.0846
 5260SOL     OW27241   2.315   1.333   1.073  0.6184 -0.0839  0.1347
 5260SOL    HW127242   2.337   1.259   1.130  0.4355  0.2702  0.6623
 5260SOL    HW227243   2.345   1.298   0.989  0.0337 -0.7836  0.2127
 5261SOL     OW27244   4.209   4.192   7.077  0.1678 -0.5813 -0.1553
 5261SOL    HW127245   4.185   4.216   6.987 -1.2222 -1.4591 -0.0045
 5261SOL    HW227246   4.213   4.096   7.078 -0.5340 -0.5907  1.8323
 5262SOL     OW27247   0.767   0.894   9.934 -0.1674 -0.5008 -0.3436
 5262SOL    HW127248   0.821   0.969   9.959 -0.6278 -0.2378 -0.1140
 5262SOL    HW227249   0.775   0.850  10.019  1.4343  2.7770  1.2057
 5263SOL     OW27250   1.965   0.505   1.768 -0.5691 -0.0218  0.2601
 5263SOL    HW127251   2.029   0.433   1.772 -0.8262 -0.2526  0.2536
 5263SOL    HW227252   1.905   0.471   1.834  1.0893  0.8313  2.1959
 5264SOL     OW27253   2.135   0.759   1.402 -0.3570  0.4131 -0.2604
 5264SOL    HW127254   2.129   0.842   1.449 -0.3269 -0.0801  0.6141
 5264SOL    HW227255   2.071   0.706   1.450 -0.2822  0.9686  0.4520
 5265SOL     OW27256   2.850   4.680   2.475  0.2439  0.4251 -0.3335
 5265SOL    HW127257   2.841   4.622   2.399  2.1989  1.3067 -1.2376
 5265SOL    HW227258   2.761   4.683   2.509  0.7506 -0.6952  1.1203
 5266SOL     OW27259   2.064   2.905   3.060  0.6215 -0.0240 -1.0472
 5266SOL    HW127260   2.082   2.997   3.041  1.2735 -0.5743 -3.0958
 5266SOL    HW227261   2.148   2.873   3.091  0.5048 -0.6255 -1.3475
 5267SOL     OW27262   1.536   4.331   4.757 -0.1809 -0.3698  0.7727
 5267SOL    HW127263   1.475   4.260   4.778 -2.6232  1.1082 -1.2701
 5267SOL    HW227264   1.498   4.375   4.681  2.1778 -1.3949 -0.9836
 5268SOL     OW27265   2.434   2.641   4.815  0.0398 -0.0667 -0.1735
 5268SOL    HW127266   2.341   2.662   4.812 -0.5182 -2.3176  1.3141
 5268SOL    HW227267   2.441   2.568   4.877  1.1961  1.4634  1.5042
 5269SOL     OW27268   1.976   1.777   6.363  0.5796 -0.2484 -0.3768
 5269SOL    HW127269   1.894   1.762   6.411  1.3940  2.7224  1.9256
 5269SOL    HW227270   1.950   1.744   6.277  1.8461 -3.0341  0.3322
 5270SOL     OW27271   2.387   4.461   7.155  0.3471 -0.5841  0.0677
 5270SOL    HW127272   2.461   4.431   7.208  0.1002 -0.1440  0.6581
 5270SOL    HW227273   2.353   4.538   7.200  1.1155  0.2804 -0.8278
 5271SOL     OW27274   1.291   2.300   8.971  0.1204  0.5378  0.0066
 5271SOL    HW127275   1.337   2.218   8.987 -1.1508 -0.6982 -2.6725
 5271SOL    HW227276   1.201   2.268   8.977  0.3638  0.4100  2.6624
 5272SOL     OW27277   3.602   4.379   5.126 -0.0586 -0.5719 -0.1718
 5272SOL    HW127278   3.630   4.374   5.034  3.1663 -2.3401  0.9156
 5272SOL    HW227279   3.508   4.370   5.116 -0.0079 -2.4499  1.1272
 5273SOL     OW27280   4.276   1.147  15.727 -0.0007 -0.2652  0.2093
 5273SOL    HW127281   4.231   1.069  15.696  0.3811 -0.3715 -0.0744
 5273SOL    HW227282   4.265   1.200  15.648  1.7041  0.5424  0.5106
 5274SOL     OW27283   2.940   1.818  14.437  0.0947 -0.2469  0.3659
 5274SOL    HW127284   2.901   1.905  14.452 -0.5046 -0.8563  2.2299
 5274SOL    HW227285   3.031   1.839  14.417  1.2029 -3.9469  1.6189
 5275SOL     OW27286   2.416   0.907   4.425  0.4661 -0.4321 -0.0481
 5275SOL    HW127287   2.397   0.997   4.397 -0.0152 -0.1824  1.0819
 5275SOL    HW227288   2.473   0.922   4.501 -0.9471  1.2308  0.6820
 5276SOL     OW27289   0.713   2.079   0.124 -0.0968  0.0051  0.4014
 5276SOL    HW127290   0.781   2.136   0.161  0.0665  0.1404 -0.0952
 5276SOL    HW227291   0.635   2.129   0.100 -0.4770 -0.2505  1.1259
 5277SOL     OW27292   3.816   4.231   1.791  0.4204  0.1371 -0.1160
 5277SOL    HW127293   3.816   4.301   1.725  0.1011  1.6253  1.4521
 5277SOL    HW227294   3.901   4.229   1.835 -0.2606  2.9034  1.3461
 5278SOL     OW27295   0.759   4.306   2.784  0.2298 -0.3494 -0.0860
 5278SOL    HW127296   0.671   4.308   2.820  0.2178 -1.2451 -0.0868
 5278SOL    HW227297   0.768   4.211   2.779  0.6849 -0.2188 -1.6097
 5279SOL     OW27298   1.052   3.375   1.332  0.1470 -0.6886  0.0691
 5279SOL    HW127299   1.130   3.425   1.307  0.5799 -1.9078 -1.0416
 5279SOL    HW227300   0.994   3.384   1.256  4.3799  2.7071 -2.7469
 5280SOL     OW27301   0.762   0.881   6.153 -0.1471  0.6450  0.1372
 5280SOL    HW127302   0.830   0.904   6.089  1.3626 -1.1034  1.1374
 5280SOL    HW227303   0.770   0.789   6.177  0.2802  0.7269  0.3142
 5281SOL     OW27304   4.517   2.113   7.518 -0.7868 -0.2008  0.1201
 5281SOL    HW127305   4.486   2.137   7.431 -1.1356 -2.4118 -0.3506
 5281SOL    HW227306   4.606   2.149   7.525 -0.8711  0.3751 -1.9267
 5282SOL     OW27307   1.746   1.263  15.374  0.1768 -0.5182  0.6222
 5282SOL    HW127308   1.700   1.267  15.458 -0.0968  1.3808  0.3901
 5282SOL    HW227309   1.677   1.224  15.320 -1.0434  0.2768  1.5870
 5283SOL     OW27310   2.942   4.483   8.017 -0.2402 -0.1988  0.3711
 5283SOL    HW127311   2.971   4.467   7.927 -1.1393  0.3973 -0.0186
 5283SOL    HW227312   3.019   4.511   8.066  0.0806  0.0575 -0.2828
 5284SOL     OW27313   3.338   4.108   5.370 -0.1283 -0.3486  0.7163
 5284SOL    HW127314   3.412   4.070   5.418 -0.1520 -1.2523  0.0463
 5284SOL    HW227315   3.267   4.113   5.433 -1.1716  0.1218 -0.4923
 5285SOL     OW27316   2.100   2.234  14.925 -0.0404 -0.1727  0.1831
 5285SOL    HW127317   2.078   2.167  14.991  0.1262 -1.4344 -1.0442
 5285SOL    HW227318   2.092   2.188  14.842  3.7332 -4.6506  2.2658
 5286SOL     OW27319   1.554   0.355   3.392  0.6052  0.9376 -0.2334
 5286SOL    HW127320   1.465   0.322   3.377  0.3942  0.9648  0.9134
 5286SOL    HW227321   1.539   0.406   3.472 -1.8971  0.6599 -0.5397
 5287SOL     OW27322   0.616   0.541  17.053  0.0641  0.4214  0.1234
 5287SOL    HW127323   0.675   0.615  17.043 -2.4666  2.3468 -0.4536
 5287SOL    HW227324   0.618   0.536  17.149 -0.2699  1.5705  0.1859
 5288SOL     OW27325   3.043   4.613   3.613 -0.2310 -0.5599  0.7513
 5288SOL    HW127326   3.137   4.631   3.615 -0.2138 -0.6104  0.3566
 5288SOL    HW227327   3.014   4.677   3.547  2.2227 -0.2707 -0.0621
 5289SOL     OW27328   2.253   4.492   9.933  0.2508 -0.1858  0.3125
 5289SOL    HW127329   2.209   4.524  10.012  2.9314 -0.3903  1.8703
 5289SOL    HW227330   2.185   4.498   9.866  2.1115 -0.1503 -1.5769
 5290SOL     OW27331   4.376   1.183   2.834  0.1625 -0.4536 -0.3651
 5290SOL    HW127332   4.462   1.219   2.814  0.4371 -0.2747  1.1207
 5290SOL    HW227333   4.320   1.223   2.767 -0.9009  0.3219  0.9833
 5291SOL     OW27334   3.994   3.808   2.617  0.6897 -0.3085 -0.4740
 5291SOL    HW127335   3.939   3.730   2.627  2.3208 -1.2899  0.8277
 5291SOL    HW227336   3.931   3.864   2.572 -1.2013 -2.5228 -0.5955
 5292SOL     OW27337   2.725   1.008   5.858  0.7575 -0.0979  0.4057
 5292SOL    HW127338   2.811   1.047   5.841  0.0921  0.1523 -2.4029
 5292SOL    HW227339   2.686   1.073   5.916 -0.6337 -0.4272 -0.1516
 5293SOL     OW27340   1.486   4.642   1.699  0.2199  0.2673 -0.3524
 5293SOL    HW127341   1.521   4.553   1.695 -1.0487 -0.1310 -3.0699
 5293SOL    HW227342   1.460   4.658   1.789  1.7788 -3.0208  0.7052
 5294SOL     OW27343   3.031   4.331   3.623 -0.4729  0.0694 -0.6670
 5294SOL    HW127344   3.022   4.426   3.614 -0.0679  0.1556 -0.1654
 5294SOL    HW227345   2.979   4.315   3.544  0.9695 -0.9141 -1.4167
 5295SOL     OW27346   1.746   3.851   6.778 -0.1128 -0.0609 -0.0145
 5295SOL    HW127347   1.721   3.862   6.870  2.2038 -0.6887  0.6779
 5295SOL    HW227348   1.806   3.777   6.789 -0.1574  0.7109  5.2369
 5296SOL     OW27349   3.994   1.040   2.554 -0.0768 -0.1050 -0.1115
 5296SOL    HW127350   3.899   1.046   2.542  0.1104  1.2739 -0.9444
 5296SOL    HW227351   4.016   1.042   2.461  1.4840 -1.2297  0.2528
 5297SOL     OW27352   1.810   0.818   7.921 -0.9295  0.0158  0.6625
 5297SOL    HW127353   1.828   0.763   7.845 -0.7989  1.4011 -0.3004
 5297SOL    HW227354   1.745   0.761   7.963  0.6894 -1.6323  0.9195
 5298SOL     OW27355   0.957   1.749   5.902  0.4873  0.1233 -0.3758
 5298SOL    HW127356   0.902   1.791   5.835  0.7895  0.6596 -0.2935
 5298SOL    HW227357   0.996   1.677   5.853  1.0112 -0.3820  0.8067
 5299SOL     OW27358   2.742   1.712   1.429  0.5789 -0.6263 -0.3938
 5299SOL    HW127359   2.678   1.660   1.478 -1.4681  1.2915 -1.0221
 5299SOL    HW227360   2.691   1.748   1.356  0.3838 -0.4839 -0.1855
 5300SOL     OW27361   1.685   0.595  10.976  0.1394  0.7456  0.3871
 5300SOL    HW127362   1.732   0.557  10.902 -0.1070 -0.0077  0.6189
 5300SOL    HW227363   1.717   0.537  11.045 -0.3703  1.6353  1.3723
 5301SOL     OW27364   4.083   4.704   5.115  0.1294  0.1650  0.2872
 5301SOL    HW127365   4.003   4.701   5.064 -0.2973  2.0971  0.8604
 5301SOL    HW227366   4.072   0.077   5.145  2.2565  0.4401  0.2596
 5302SOL     OW27367   4.018   0.404   2.458 -0.2335  0.0993 -0.2010
 5302SOL    HW127368   3.947   0.438   2.404 -1.6867 -0.8550  1.0963
 5302SOL    HW227369   3.971   0.371   2.534  0.7967  0.4649  0.5989
 5303SOL     OW27370   2.151   3.228   3.563 -0.0133 -0.2918  0.2310
 5303SOL    HW127371   2.102   3.150   3.589 -2.0416  0.4852 -1.3225
 5303SOL    HW227372   2.219   3.238   3.630  0.0300 -0.1765  0.1700
 5304SOL     OW27373   0.640   3.792  11.523 -0.6541  0.0520  0.0370
 5304SOL    HW127374   0.642   3.859  11.455 -0.5603  0.5506  0.5353
 5304SOL    HW227375   0.549   3.763  11.515  0.0679 -2.0379 -0.7186
 5305SOL     OW27376   1.214   1.393   2.866 -1.0851  0.7286  0.0762
 5305SOL    HW127377   1.144   1.457   2.872 -0.6240  1.1757  0.7041
 5305SOL    HW227378   1.275   1.424   2.933 -0.8745 -2.8031  1.5223
 5306SOL     OW27379   3.762   2.069  12.300 -0.1924 -0.1875 -0.5745
 5306SOL    HW127380   3.716   2.014  12.237 -2.3359 -0.3914  1.1600
 5306SOL    HW227381   3.847   2.085  12.258 -0.0589  0.8503  0.0819
 5307SOL     OW27382   0.631   3.828   3.185 -0.1274  0.6811  0.6906
 5307SOL    HW127383   0.583   3.752   3.152  0.4460  0.6285 -0.0416
 5307SOL    HW227384   0.719   3.793   3.172  1.0580  3.0309  2.4558
 5308SOL     OW27385   2.423   1.859   1.163  0.4002 -0.1865 -0.1331
 5308SOL    HW127386   2.389   1.844   1.075  2.4786 -0.7099 -0.8469
 5308SOL    HW227387   2.431   1.954   1.157 -1.0303 -0.1353 -1.3562
 5309SOL     OW27388   3.250   3.352   6.032 -0.5311  0.0798 -0.0405
 5309SOL    HW127389   3.168   3.310   6.009 -1.3642  2.5320 -1.5854
 5309SOL    HW227390   3.304   3.279   6.063 -0.8339 -0.1366 -0.0363
 5310SOL     OW27391   1.485   0.918   2.628  0.6046 -0.3289 -0.0017
 5310SOL    HW127392   1.440   0.977   2.568 -0.2333  0.0082  0.9535
 5310SOL    HW227393   1.416   0.900   2.693  1.8868 -0.7430  1.2536
 5311SOL     OW27394   1.478   0.663   2.016  0.0121 -0.2161 -0.0846
 5311SOL    HW127395   1.514   0.750   1.998  1.2594 -1.0648 -1.6954
 5311SOL    HW227396   1.530   0.640   2.093  0.6215 -2.0147 -1.0453
 5312SOL     OW27397   4.491   4.010   8.656 -0.0560  0.3570 -0.4319
 5312SOL    HW127398   4.564   4.053   8.612 -0.6650  1.6715 -0.1597
 5312SOL    HW227399   4.537   3.986   8.736  0.6446  0.5169 -0.7923
 5313SOL     OW27400   1.038   3.324   5.101 -0.2136 -0.4092 -0.5291
 5313SOL    HW127401   1.040   3.228   5.105 -3.1145 -0.4432 -0.1050
 5313SOL    HW227402   1.132   3.338   5.108 -0.3251 -0.1146  0.3705
 5314SOL     OW27403   2.527   2.462  12.449  0.1367 -0.4339  0.2200
 5314SOL    HW127404   2.606   2.424  12.488 -0.5121 -1.0908  0.8883
 5314SOL    HW227405   2.547   2.556  12.440 -1.2598 -0.3038 -1.4523
 5315SOL     OW27406   2.329   3.322   2.210  0.2008 -0.3429 -0.1466
 5315SOL    HW127407   2.412   3.282   2.236 -0.3685 -0.8645  0.8636
 5315SOL    HW227408   2.308   3.249   2.152  0.7131  0.0999 -0.8936
 5316SOL     OW27409   3.686   1.388  10.218 -0.4107 -0.4299 -0.1317
 5316SOL    HW127410   3.691   1.293  10.209  0.3764 -0.6908  2.9643
 5316SOL    HW227411   3.659   1.397  10.310  2.0303  3.5177  0.2351
 5317SOL     OW27412   1.397   3.700   3.338  0.8081 -0.0091  0.0701
 5317SOL    HW127413   1.378   3.782   3.291 -1.0808 -1.4957 -1.7317
 5317SOL    HW227414   1.490   3.713   3.356  0.9030 -1.5956  0.6795
 5318SOL     OW27415   4.183   4.511   1.859 -0.2603 -0.4502 -0.1627
 5318SOL    HW127416   4.180   4.507   1.763  0.9128  0.0351 -0.2180
 5318SOL    HW227417   4.169   4.419   1.880 -0.8993 -0.5099 -0.8234
 5319SOL     OW27418   3.528   2.690   7.229  0.3675 -0.4975 -0.4898
 5319SOL    HW127419   3.541   2.657   7.318  0.6494 -1.1042 -0.7546
 5319SOL    HW227420   3.451   2.746   7.236 -0.6402 -1.9743  0.3080
 5320SOL     OW27421   1.199   1.797   8.684 -0.1747 -0.0370 -0.1815
 5320SOL    HW127422   1.209   1.702   8.684  0.1158 -0.0102 -1.5024
 5320SOL    HW227423   1.252   1.834   8.755 -0.6520  1.4737 -0.5975
 5321SOL     OW27424   1.324   4.357   0.423  0.2565 -0.5950 -0.1517
 5321SOL    HW127425   1.286   4.418   0.487  0.2493 -0.6096 -0.1421
 5321SOL    HW227426   1.306   4.414   0.349 -1.6296 -1.5895 -0.4494
 5322SOL     OW27427   1.692   3.774   0.145  0.4799 -0.1386 -0.5855
 5322SOL    HW127428   1.607   3.818   0.153  0.0246 -1.3178  1.1245
 5322SOL    HW227429   1.671   3.687   0.111 -0.6268  0.2246 -0.8412
 5323SOL     OW27430   2.043   2.618  16.406  0.0033  0.2503 -0.2953
 5323SOL    HW127431   2.120   2.676  16.411 -0.6666  1.2067 -0.9767
 5323SOL    HW227432   1.999   2.650  16.327  0.9910  1.0023 -0.5379
 5324SOL     OW27433   3.977   2.250   1.453  0.3867  0.3666  0.2959
 5324SOL    HW127434   3.985   2.180   1.388  2.2447  0.8528 -0.0088
 5324SOL    HW227435   4.001   2.205   1.534 -0.5230  0.2122  0.4831
 5325SOL     OW27436   2.034   2.076   1.679  0.3941 -0.1258  0.1240
 5325SOL    HW127437   1.992   2.128   1.747  0.4388 -0.5326  0.4633
 5325SOL    HW227438   2.065   2.148   1.624  0.6187  0.1641  0.6325
 5326SOL     OW27439   0.476   2.145   8.255  0.1039  0.2134  0.0406
 5326SOL    HW127440   0.427   2.224   8.279 -0.9486  0.3868 -2.6217
 5326SOL    HW227441   0.411   2.076   8.271 -1.0354  1.4376  0.6982
 5327SOL     OW27442   2.504   4.367  14.578  0.0578  0.4791  0.6855
 5327SOL    HW127443   2.462   4.318  14.507 -2.1016  1.2819  1.3898
 5327SOL    HW227444   2.464   4.453  14.565 -2.2203 -0.6331  0.3025
 5328SOL     OW27445   3.735   1.787  11.200 -0.2755  0.6011  0.1964
 5328SOL    HW127446   3.755   1.731  11.275  0.5835 -2.9447 -2.6794
 5328SOL    HW227447   3.659   1.735  11.172  0.8904 -1.7548  1.4144
 5329SOL     OW27448   3.364   0.995   0.681 -0.7086 -0.3169 -0.2777
 5329SOL    HW127449   3.349   0.951   0.597 -0.1322  3.1553 -2.1941
 5329SOL    HW227450   3.297   0.952   0.734 -1.0397 -0.1716 -0.5775
 5330SOL     OW27451   0.627   0.625   2.052  0.1770  0.1552  0.4191
 5330SOL    HW127452   0.704   0.654   2.102 -0.5237  1.9802  0.4156
 5330SOL    HW227453   0.653   0.535   2.032 -0.2027  0.0170  0.5559
 5331SOL     OW27454   2.125   0.202   0.288  0.2822  0.5560  0.1369
 5331SOL    HW127455   2.176   0.136   0.242 -0.3827  1.0638 -1.3118
 5331SOL    HW227456   2.036   0.181   0.261 -0.0019  0.9292  0.7800
 5332SOL     OW27457   1.070   2.980   8.717 -0.1334 -0.2607 -0.6357
 5332SOL    HW127458   1.097   3.038   8.645 -0.3706  1.2143  0.4548
 5332SOL    HW227459   1.053   2.900   8.668  0.2962 -1.2028  0.7746
 5333SOL     OW27460   3.430   2.718   2.143 -0.4409  0.0791  0.3214
 5333SOL    HW127461   3.420   2.624   2.134 -2.4176  0.3485 -0.2637
 5333SOL    HW227462   3.492   2.737   2.072  0.1144 -1.6680  0.3501
 5334SOL     OW27463   2.011   0.301   5.721 -0.0123  0.1584  0.2497
 5334SOL    HW127464   1.996   0.344   5.637  1.0230  1.4660  0.7258
 5334SOL    HW227465   2.009   0.207   5.705  3.1715  0.0199  0.5652
 5335SOL     OW27466   2.587   4.257  14.030  0.4107  0.1662 -0.6816
 5335SOL    HW127467   2.626   4.171  14.012  1.5859  0.5537 -0.0419
 5335SOL    HW227468   2.575   4.294  13.942 -2.7557  0.0208 -0.3079
 5336SOL     OW27469   1.329   4.284   9.666  0.2902 -0.0239  0.2241
 5336SOL    HW127470   1.360   4.251   9.750 -0.8311 -0.0203  0.6412
 5336SOL    HW227471   1.409   4.331   9.643 -2.4139  3.3184 -2.4645
 5337SOL     OW27472   4.206   3.786   5.975  0.4918 -0.0270  0.4179
 5337SOL    HW127473   4.282   3.825   6.019 -0.1236  0.4907  1.0188
 5337SOL    HW227474   4.237   3.700   5.947  0.4215  0.0429  0.1245
 5338SOL     OW27475   4.593   4.512  13.994 -0.5398 -0.0181  0.3339
 5338SOL    HW127476   4.505   4.530  14.027 -0.3663  2.3934 -0.5215
 5338SOL    HW227477   4.574   4.508  13.900 -0.7033 -0.3028  0.3799
 5339SOL     OW27478   2.644   4.598  12.432  0.5681 -0.3224  0.2737
 5339SOL    HW127479   2.649   4.693  12.431  1.5580 -0.3845 -0.1666
 5339SOL    HW227480   2.571   4.581  12.492  1.7789  3.1748  2.7247
 5340SOL     OW27481   4.102   2.420   3.992 -0.0380 -0.3870 -0.0265
 5340SOL    HW127482   4.174   2.373   3.949 -1.1312 -0.8517 -1.3356
 5340SOL    HW227483   4.143   2.430   4.078 -1.8370 -0.5225  0.8305
 5341SOL     OW27484   1.793   2.743  12.879  0.4551 -0.5771 -0.0125
 5341SOL    HW127485   1.795   2.648  12.890 -1.8437 -0.5273  0.8074
 5341SOL    HW227486   1.707   2.763  12.842  0.3480  0.7558  0.9495
 5342SOL     OW27487   1.462   0.490   7.820 -0.3357  0.8987  0.3225
 5342SOL    HW127488   1.387   0.466   7.765  0.0560 -3.0961  1.5021
 5342SOL    HW227489   1.499   0.565   7.774 -0.1153  1.5641  1.5845
 5343SOL     OW27490   2.402   0.341   7.103 -0.3102  0.2014 -0.1619
 5343SOL    HW127491   2.348   0.385   7.169 -0.8289  0.6808 -0.9093
 5343SOL    HW227492   2.384   0.391   7.023 -0.8641  0.4737  0.1294
 5344SOL     OW27493   1.428   2.983  16.019 -0.5490 -0.1113 -0.1858
 5344SOL    HW127494   1.451   3.052  15.956 -0.9732 -0.9162 -1.2172
 5344SOL    HW227495   1.349   2.954  15.973 -2.2449  2.3276  1.1574
 5345SOL     OW27496   3.272   4.348  16.414  0.0692 -0.3058 -0.1729
 5345SOL    HW127497   3.255   4.316  16.326 -0.0084 -1.5238  0.2804
 5345SOL    HW227498   3.183   4.336  16.448  0.3677  2.4167  1.5458
 5346SOL     OW27499   3.858   1.583   7.090 -0.0973 -0.6918 -0.0849
 5346SOL    HW127500   3.918   1.517   7.125  0.3907  0.8526  2.0019
 5346SOL    HW227501   3.832   1.630   7.169  0.8243 -2.6052  1.3395
 5347SOL     OW27502   3.462   1.521  11.234  0.5504  0.7667 -0.5614
 5347SOL    HW127503   3.487   1.517  11.141 -0.7119 -1.3610 -0.8047
 5347SOL    HW227504   3.552   1.521  11.265  0.8390  1.5071 -1.4018
 5348SOL     OW27505   0.997   0.952   5.597 -0.2885 -0.0514  0.4619
 5348SOL    HW127506   0.901   0.955   5.597 -0.3160 -0.8514 -0.5318
 5348SOL    HW227507   1.021   0.970   5.505  0.8029  2.0476  1.1538
 5349SOL     OW27508   1.568   2.508   5.139  0.2669 -0.0914 -0.1358
 5349SOL    HW127509   1.497   2.508   5.075  1.1605 -0.8523 -1.1328
 5349SOL    HW227510   1.590   2.416   5.124  0.4312 -0.3481  1.6863
 5350SOL     OW27511   2.136   3.745   9.665 -0.0060  0.4237 -0.6935
 5350SOL    HW127512   2.190   3.810   9.709  1.2315  0.3081 -2.0470
 5350SOL    HW227513   2.077   3.809   9.624  1.2169  1.5892 -0.6422
 5351SOL     OW27514   2.835   1.879   6.395  0.2386  0.1337  0.1321
 5351SOL    HW127515   2.831   1.954   6.336  1.7102  1.1896  1.3328
 5351SOL    HW227516   2.872   1.920   6.474  0.7709  0.1409 -0.1253
 5352SOL     OW27517   2.632   3.205   3.783  0.0442  0.2225  0.5712
 5352SOL    HW127518   2.595   3.130   3.830 -0.3719  0.2961  0.3605
 5352SOL    HW227519   2.708   3.227   3.837 -0.4133 -0.4099  1.4881
 5353SOL     OW27520   1.550   2.007   7.480  0.3994 -0.1386 -0.2771
 5353SOL    HW127521   1.634   1.965   7.497  0.9640  0.8304 -0.6639
 5353SOL    HW227522   1.511   1.967   7.557 -0.4474 -1.3187 -1.3084
 5354SOL     OW27523   0.474   1.292   7.740  0.1746 -0.0883 -0.1440
 5354SOL    HW127524   0.474   1.197   7.749 -1.3737 -0.0315  0.5702
 5354SOL    HW227525   0.406   1.319   7.803  0.9041  1.0784  0.1611
 5355SOL     OW27526   3.073   1.156   3.037  0.5328  0.2102  0.0715
 5355SOL    HW127527   3.006   1.090   3.021 -0.7540  2.0727 -2.2522
 5355SOL    HW227528   3.046   1.190   3.122 -1.8219  2.1152 -1.4368
 5356SOL     OW27529   2.826   3.909   8.766  0.1704 -0.1560  0.5118
 5356SOL    HW127530   2.853   3.945   8.850  2.0903  0.5079 -0.3708
 5356SOL    HW227531   2.851   3.982   8.709 -2.2651  0.4869  0.2767
 5357SOL     OW27532   3.109   3.228   9.052  0.1437  0.8236  0.4732
 5357SOL    HW127533   3.120   3.323   9.042 -2.4366  1.1843  0.9977
 5357SOL    HW227534   3.027   3.219   9.003  0.2213  1.9181  0.1495
 5358SOL     OW27535   0.080   0.556   3.887  0.0636 -0.5860 -0.3246
 5358SOL    HW127536   0.139   0.481   3.879 -1.4969 -1.9624  1.1187
 5358SOL    HW227537   0.126   0.628   3.843 -2.2727  2.0323  1.5454
 5359SOL     OW27538   1.492   3.303   7.085  0.2454 -0.2981 -0.6765
 5359SOL    HW127539   1.576   3.279   7.126  0.4255  0.1562 -0.7732
 5359SOL    HW227540   1.507   3.272   6.996 -1.4969 -0.1037 -1.0209
 5360SOL     OW27541   2.759   0.711  16.402  0.0660  0.0117  0.1763
 5360SOL    HW127542   2.716   0.781  16.353 -1.2417 -0.1133  1.1494
 5360SOL    HW227543   2.843   0.707  16.356 -0.9936 -0.1989 -1.7179
 5361SOL     OW27544   2.299   4.372  12.727  0.2482 -0.2298  0.3640
 5361SOL    HW127545   2.253   4.389  12.809  0.7232  0.4372  0.4900
 5361SOL    HW227546   2.369   4.311  12.751  0.6735  0.6884  1.4555
 5362SOL     OW27547   1.510   1.962   9.984  0.2139  0.0089  0.2132
 5362SOL    HW127548   1.483   2.050   9.959  3.2719  1.0685  0.5745
 5362SOL    HW227549   1.428   1.916   9.969  1.3774 -1.9144 -0.1790
 5363SOL     OW27550   4.484   4.266   5.329  0.2812  0.1938 -0.4042
 5363SOL    HW127551   4.441   4.182   5.316 -0.5067  0.4505  0.4897
 5363SOL    HW227552   4.536   4.264   5.410  0.8438 -1.1479 -0.8035
 5364SOL     OW27553   1.946   2.913   4.069  0.6383  0.2857 -0.1811
 5364SOL    HW127554   1.866   2.870   4.039  1.0717 -0.0807 -0.8211
 5364SOL    HW227555   1.965   2.958   3.986  3.0143 -0.1546  0.1143
 5365SOL     OW27556   3.995   0.383  13.284  0.1569  0.0210 -0.7680
 5365SOL    HW127557   3.914   0.356  13.241 -1.1893 -0.0087  1.7786
 5365SOL    HW227558   4.041   0.394  13.201 -1.7744  0.8641 -1.7135
 5366SOL     OW27559   3.302   4.173   2.926  0.5009 -0.4927  0.2463
 5366SOL    HW127560   3.233   4.239   2.915 -1.3197 -2.4528 -0.2266
 5366SOL    HW227561   3.247   4.098   2.948 -0.7109  1.0321  2.4631
 5367SOL     OW27562   4.048   3.649   0.008  0.8010  0.0318  0.5069
 5367SOL    HW127563   4.115   3.591  17.645  1.2270  0.3635  0.7606
 5367SOL    HW227564   4.009   3.693  17.607  1.4244 -0.5350 -0.1503
 5368SOL     OW27565   1.891   1.859   1.658 -0.0252  0.4862 -0.6554
 5368SOL    HW127566   1.822   1.874   1.594 -0.7929 -1.5110 -0.2808
 5368SOL    HW227567   1.958   1.926   1.645 -2.6367  3.1261 -0.3927
 5369SOL     OW27568   4.652   3.497   7.173 -0.4675  0.3983 -0.3126
 5369SOL    HW127569   4.599   3.570   7.206 -3.4171 -0.9857 -1.9543
 5369SOL    HW227570   4.606   3.474   7.092 -2.1181  0.5395  0.5698
 5370SOL     OW27571   2.803   4.089  10.396 -1.0315  0.1425  0.1804
 5370SOL    HW127572   2.870   4.059  10.334 -2.1269  0.1596 -1.0307
 5370SOL    HW227573   2.846   4.132  10.470  0.9281 -0.5690 -0.5385
 5371SOL     OW27574   0.098   2.567   3.565 -0.2598  0.3369  0.0850
 5371SOL    HW127575   0.138   2.646   3.529 -0.6789 -0.0910 -1.3208
 5371SOL    HW227576   0.022   2.608   3.605 -1.0772 -0.7376 -0.3609
 5372SOL     OW27577   3.097   4.115  10.533  0.1907  0.4827 -0.6313
 5372SOL    HW127578   3.141   4.093  10.451 -1.3413 -2.1890 -0.7018
 5372SOL    HW227579   3.129   4.205  10.545  0.1699  0.8232 -3.1071
 5373SOL     OW27580   4.672   4.437   2.356 -0.1923  0.0345  0.5666
 5373SOL    HW127581   4.604   4.476   2.412  0.6417  1.2410  0.7509
 5373SOL    HW227582   4.620   4.360   2.333  0.2942 -0.5835  1.5225
 5374SOL     OW27583   1.105   1.841   5.279 -0.3309 -0.0835 -0.2388
 5374SOL    HW127584   1.036   1.777   5.261  1.7727 -2.0252 -1.4481
 5374SOL    HW227585   1.168   1.843   5.207  0.8265  1.5931  0.8257
 5375SOL     OW27586   3.081   3.881   2.622 -0.4993  0.2489  0.1951
 5375SOL    HW127587   3.153   3.820   2.607  1.2709  2.4672 -0.3136
 5375SOL    HW227588   3.136   3.959   2.621  0.5652 -0.5196 -0.3864
 5376SOL     OW27589   4.541   4.224  12.963  0.0519  0.3441  0.1740
 5376SOL    HW127590   4.498   4.186  12.886 -0.2476 -0.9743  0.9887
 5376SOL    HW227591   4.593   4.297  12.929 -1.2875  0.5701 -1.4203
 5377SOL     OW27592   4.435   0.911  14.482 -0.0560 -0.3412 -0.1347
 5377SOL    HW127593   4.511   0.890  14.536  2.0269  1.2959 -2.4356
 5377SOL    HW227594   4.437   0.843  14.414  0.0847 -0.5031  0.0282
 5378SOL     OW27595   2.328   0.574   4.542 -0.2958  0.2705 -0.6474
 5378SOL    HW127596   2.269   0.500   4.528 -1.9715  1.3382  0.7637
 5378SOL    HW227597   2.317   0.634   4.468 -1.3899  1.1676  0.2474
 5379SOL     OW27598   2.583   1.316   1.350  0.3831  0.1697  0.2667
 5379SOL    HW127599   2.590   1.388   1.412  2.9996  0.5624 -0.4754
 5379SOL    HW227600   2.582   1.364   1.267 -0.1919  1.7138  1.1699
 5380SOL     OW27601   1.336   2.204  13.101  0.5107  0.2011  0.4060
 5380SOL    HW127602   1.294   2.290  13.106  1.2263  0.6350 -0.9747
 5380SOL    HW227603   1.297   2.163  13.177  0.2019  1.7232  1.0786
 5381SOL     OW27604   4.633   3.145  12.744 -0.7905 -0.2632  0.5870
 5381SOL    HW127605   4.593   3.229  12.768 -2.2270 -1.1599  1.3006
 5381SOL    HW227606   4.680   3.122  12.823  1.0091  0.1289 -0.3708
 5382SOL     OW27607   4.416   0.545   3.176  0.3393  0.0755 -0.2849
 5382SOL    HW127608   4.502   0.588   3.171  0.2868  0.2270  0.1313
 5382SOL    HW227609   4.439   0.452   3.176  0.7890  0.1857 -0.6593
 5383SOL     OW27610   3.544   2.832   9.730 -0.0230 -0.7135  0.1850
 5383SOL    HW127611   3.571   2.885   9.655 -0.1255 -0.3197  0.4251
 5383SOL    HW227612   3.450   2.850   9.723 -0.1457 -2.7950 -3.1554
 5384SOL     OW27613   0.190   2.411   7.102 -0.3533 -0.3821 -0.1908
 5384SOL    HW127614   0.240   2.348   7.153 -0.5340  0.0855  0.5608
 5384SOL    HW227615   0.214   2.496   7.139 -0.5430 -0.7559  0.7950
 5385SOL     OW27616   3.913   2.765   0.923  0.5679  0.3388  0.3628
 5385SOL    HW127617   3.921   2.804   0.837 -1.3529 -1.2018 -0.5199
 5385SOL    HW227618   3.823   2.731   0.919  0.5780  0.5766 -1.6876
 5386SOL     OW27619   0.311   4.144   8.273 -0.9272 -0.1416  0.6438
 5386SOL    HW127620   0.310   4.239   8.278 -2.9756 -0.0128 -2.5095
 5386SOL    HW227621   0.359   4.132   8.355  0.7511 -2.3814 -0.6427
 5387SOL     OW27622   4.252   0.778   0.111 -0.3205 -0.2206 -0.2856
 5387SOL    HW127623   4.269   0.860   0.158 -1.9885 -0.1723  0.2399
 5387SOL    HW227624   4.157   0.774   0.113 -0.2829 -0.7376  0.7401
 5388SOL     OW27625   1.087   2.469   7.391  0.0652 -0.0100 -0.2541
 5388SOL    HW127626   1.089   2.424   7.475  3.2955 -0.6310 -0.6616
 5388SOL    HW227627   1.065   2.392   7.338 -0.2132  0.4504 -0.8018
 5389SOL     OW27628   4.360   2.395  14.623  0.4283  0.3055  0.0516
 5389SOL    HW127629   4.446   2.391  14.665 -1.0117 -0.5504  2.9308
 5389SOL    HW227630   4.312   2.462  14.672 -1.1132  1.5797 -3.1920
 5390SOL     OW27631   0.462   3.471  11.185 -0.0520  0.6976  0.4061
 5390SOL    HW127632   0.533   3.501  11.128  1.9718 -1.4892  1.7827
 5390SOL    HW227633   0.511   3.421  11.250 -0.5317 -1.4323 -0.9025
 5391SOL     OW27634   1.745   4.688   3.747  0.1368 -0.1629  0.1366
 5391SOL    HW127635   1.727   4.632   3.671 -0.1534 -0.2392  0.2577
 5391SOL    HW227636   1.761   0.054   3.703 -2.6439  0.8747  1.0955
 5392SOL     OW27637   4.397   2.774   8.186 -0.2808 -0.7459 -0.7715
 5392SOL    HW127638   4.433   2.702   8.134 -0.2516 -2.3011  1.3920
 5392SOL    HW227639   4.361   2.720   8.257  0.0679  0.7844  0.5618
 5393SOL     OW27640   0.775   4.391  14.928 -0.0390 -0.4460 -0.1849
 5393SOL    HW127641   0.781   4.312  14.873 -3.0264 -1.8320  1.4857
 5393SOL    HW227642   0.805   4.365  15.015  1.5092  1.0044 -0.2865
 5394SOL     OW27643   3.117   1.244   1.361 -0.2274 -0.2966 -0.5138
 5394SOL    HW127644   3.044   1.227   1.302 -0.1317  1.0316 -1.0031
 5394SOL    HW227645   3.073   1.272   1.441 -0.7502  0.2716 -1.0013
 5395SOL     OW27646   0.496   3.834   2.362 -0.1638  0.7039 -0.4763
 5395SOL    HW127647   0.438   3.910   2.362  1.9161  2.2711 -0.4788
 5395SOL    HW227648   0.504   3.814   2.269  0.3846 -1.6139  0.0544
 5396SOL     OW27649   0.931   4.462   8.209 -0.0763  0.6459  0.0419
 5396SOL    HW127650   1.005   4.412   8.245  0.4009  0.0905 -1.6749
 5396SOL    HW227651   0.955   4.455   8.116 -1.7884  2.3164 -0.5121
 5397SOL     OW27652   0.558   0.484  16.303  0.0041  0.3486  0.6895
 5397SOL    HW127653   0.512   0.561  16.270 -0.6138 -0.1762  0.3183
 5397SOL    HW227654   0.523   0.482  16.392 -0.2175 -0.6569  0.5754
 5398SOL     OW27655   2.192   0.011   4.891 -0.0584 -0.0245 -0.1625
 5398SOL    HW127656   2.194   4.646   4.844  0.7074 -0.9042  1.4274
 5398SOL    HW227657   2.168   0.068   4.818  0.6947  1.9587  1.1192
 5399SOL     OW27658   3.591   1.508   5.737 -0.3646  0.0831  0.4094
 5399SOL    HW127659   3.647   1.553   5.800  1.9977 -0.9222 -0.9866
 5399SOL    HW227660   3.510   1.547   5.770 -0.8502 -1.7049  1.3286
 5400SOL     OW27661   1.077   1.409   6.228 -0.4510 -0.5551 -0.0778
 5400SOL    HW127662   1.052   1.373   6.143 -2.1530  1.0891 -0.2615
 5400SOL    HW227663   1.073   1.333   6.286  0.9651  0.3735  1.2596
 5401SOL     OW27664   0.235   2.928  13.382  0.4874 -0.3464  0.0181
 5401SOL    HW127665   0.238   2.906  13.475  0.4763  0.9474  0.3288
 5401SOL    HW227666   0.177   2.865  13.341 -0.7988  0.1465  1.0684
 5402SOL     OW27667   2.866   2.204  16.771  0.1771 -0.3662 -0.1048
 5402SOL    HW127668   2.796   2.203  16.706 -0.5261  0.2998  0.6523
 5402SOL    HW227669   2.934   2.170  16.713 -0.1921 -3.4034  1.2563
 5403SOL     OW27670   0.791   3.484   1.805 -0.3034  0.8020 -0.0743
 5403SOL    HW127671   0.851   3.530   1.747 -1.0986 -1.1112 -2.4639
 5403SOL    HW227672   0.741   3.428   1.746  0.4666  0.2774 -0.2393
 5404SOL     OW27673   2.326   0.137   1.082  0.0795 -0.4500  0.6299
 5404SOL    HW127674   2.380   0.082   1.139  1.8491  3.2087  2.5030
 5404SOL    HW227675   2.273   0.179   1.150 -2.1897 -0.3070 -1.2073
 5405SOL     OW27676   0.556   3.722   7.591  0.6967 -0.4580  0.5369
 5405SOL    HW127677   0.489   3.780   7.628 -0.2371 -1.0133 -0.2578
 5405SOL    HW227678   0.500   3.694   7.518 -1.4378 -0.3499  2.1397
 5406SOL     OW27679   3.896   2.666   1.603 -0.4321 -0.2414 -0.1008
 5406SOL    HW127680   3.859   2.581   1.628  0.2725 -0.5247 -0.0234
 5406SOL    HW227681   3.986   2.654   1.573 -1.2738 -0.9918 -2.3625
 5407SOL     OW27682   1.027   4.150  13.530 -0.4161 -0.0156  0.4702
 5407SOL    HW127683   1.078   4.089  13.478  1.8662  1.9612  0.3817
 5407SOL    HW227684   1.086   4.221  13.555 -2.0706  1.4778  0.1674
 5408SOL     OW27685   1.033   1.578  17.415 -0.3299  0.6052 -0.0911
 5408SOL    HW127686   0.992   1.509  17.362 -2.3880  2.6117 -1.1234
 5408SOL    HW227687   0.985   1.581  17.497 -1.8159  2.9390 -1.0238
 5409SOL     OW27688   3.493   2.256   8.954 -0.4832  0.4633 -0.2402
 5409SOL    HW127689   3.585   2.284   8.959 -0.3594 -0.1661  0.9775
 5409SOL    HW227690   3.456   2.290   9.035 -0.0596  2.0676 -0.7284
 5410SOL     OW27691   3.303   3.847   1.150  0.1972  0.1483  0.1175
 5410SOL    HW127692   3.302   3.752   1.160  0.6844  0.0324 -0.8685
 5410SOL    HW227693   3.374   3.853   1.086  1.1493  0.9266  1.2377
 5411SOL     OW27694   0.317   2.171   1.880  0.2827  0.0359 -0.0253
 5411SOL    HW127695   0.255   2.239   1.906  0.1573  0.5500 -1.6971
 5411SOL    HW227696   0.395   2.203   1.926 -0.5074  2.3948 -0.2966
 5412SOL     OW27697   1.898   3.981   1.504  0.0541  0.0134  0.0362
 5412SOL    HW127698   1.930   4.058   1.551  2.0578 -0.5703 -0.3659
 5412SOL    HW227699   1.808   3.959   1.528 -0.4033  0.7490 -0.9606
 5413SOL     OW27700   1.428   2.192   6.991 -0.0332  0.2915  0.0821
 5413SOL    HW127701   1.378   2.273   6.987 -0.9843 -0.2250  1.5907
 5413SOL    HW227702   1.471   2.202   7.076  1.3648 -1.6504 -0.4057
 5414SOL     OW27703   3.835   0.146   3.725 -0.5857 -0.3722 -0.3327
 5414SOL    HW127704   3.887   0.194   3.661 -1.9202  0.9106 -0.4700
 5414SOL    HW227705   3.902   0.091   3.765  1.2391  1.2557 -1.1699
 5415SOL     OW27706   1.410   3.312   5.832 -0.2810  0.2731  0.0651
 5415SOL    HW127707   1.392   3.385   5.773 -0.4562  2.0634  2.3355
 5415SOL    HW227708   1.484   3.268   5.790  0.6722  1.1288  0.8528
 5416SOL     OW27709   3.622   4.360   3.040 -0.5034 -0.1649 -0.3132
 5416SOL    HW127710   3.715   4.366   3.022  0.1585 -0.7558  2.8139
 5416SOL    HW227711   3.597   4.272   3.011 -3.7001  1.1524 -1.5292
 5417SOL     OW27712   3.415   1.551  12.192 -0.1195 -0.4352  0.1972
 5417SOL    HW127713   3.407   1.597  12.276 -1.6480  2.0602 -1.3247
 5417SOL    HW227714   3.378   1.611  12.127 -0.0492  0.0227  0.5752
 5418SOL     OW27715   4.288   4.665  16.217 -0.2460  0.4430  0.0960
 5418SOL    HW127716   4.301   4.667  16.311 -0.6152  0.7752  0.1391
 5418SOL    HW227717   4.240   4.582  16.218 -0.1096  0.4260  4.7791
 5419SOL     OW27718   4.094   1.801  12.496 -0.0836 -0.3973  0.1546
 5419SOL    HW127719   4.085   1.825  12.404 -1.0949 -1.8416 -0.1242
 5419SOL    HW227720   4.136   1.717  12.477  1.7720  0.8861 -1.4221
 5420SOL     OW27721   2.163   1.429   2.895 -0.3241 -0.7182  0.2022
 5420SOL    HW127722   2.185   1.482   2.971 -0.2224 -0.4975  0.0221
 5420SOL    HW227723   2.146   1.501   2.834 -0.7186  0.5270  1.7918
 5421SOL     OW27724   1.661   1.734   5.418 -0.5588  0.1223 -1.0782
 5421SOL    HW127725   1.679   1.769   5.331 -1.1716  0.6106 -1.0066
 5421SOL    HW227726   1.690   1.643   5.432 -0.8133  0.2420  0.2240
 5422SOL     OW27727   3.067   3.710   4.092 -0.5976 -0.5002 -0.1023
 5422SOL    HW127728   2.996   3.761   4.055 -1.4294  0.2850  2.5774
 5422SOL    HW227729   3.104   3.674   4.011 -0.1738 -1.7780  0.6673
 5423SOL     OW27730   1.530   2.308   9.250  0.1916  0.2473  0.1974
 5423SOL    HW127731   1.570   2.228   9.216 -1.4646  0.6437 -2.6519
 5423SOL    HW227732   1.539   2.284   9.342  0.9972 -0.1784  0.0014
 5424SOL     OW27733   2.770   1.288  16.161  0.1091  0.2697  0.6186
 5424SOL    HW127734   2.753   1.380  16.140 -1.2076 -0.0166  0.4745
 5424SOL    HW227735   2.745   1.304  16.252  0.6488 -3.1548  1.3978
 5425SOL     OW27736   3.325   0.656  10.801  0.4924  0.0425  0.3322
 5425SOL    HW127737   3.393   0.617  10.856 -0.2540 -0.4788  0.8824
 5425SOL    HW227738   3.323   0.600  10.724 -1.3858 -1.6118  1.6078
 5426SOL     OW27739   0.355   4.514   3.075  0.7750  0.3098  0.2040
 5426SOL    HW127740   0.426   4.450   3.063  0.7171  0.4165 -0.7054
 5426SOL    HW227741   0.387   4.588   3.023  0.2787 -0.8381 -1.7413
 5427SOL     OW27742   0.247   0.838  15.541  0.0632 -0.2971 -0.1102
 5427SOL    HW127743   0.343   0.836  15.545  0.0961  0.4894 -0.7518
 5427SOL    HW227744   0.227   0.845  15.448 -2.2815 -2.0302  0.2682
 5428SOL     OW27745   1.000   0.843   2.063 -0.3570 -0.0090 -0.0622
 5428SOL    HW127746   1.030   0.922   2.109  2.0536  0.9391 -3.3161
 5428SOL    HW227747   1.083   0.805   2.034  0.1769  0.6975  0.5282
 5429SOL     OW27748   3.041   4.327   1.411 -0.0739  0.5212  0.1733
 5429SOL    HW127749   3.124   4.329   1.364 -1.2504 -0.6288 -1.9733
 5429SOL    HW227750   3.012   4.416   1.388  1.1033  0.5407 -1.2481
 5430SOL     OW27751   3.543   1.533   3.436  0.2188  0.4390 -0.0081
 5430SOL    HW127752   3.610   1.535   3.504  0.9418  0.3754 -0.7160
 5430SOL    HW227753   3.574   1.465   3.376  1.2970 -0.4146  1.5114
 5431SOL     OW27754   1.032   2.662   2.243 -0.1084  0.0758 -0.2510
 5431SOL    HW127755   1.043   2.571   2.215 -0.7799  0.3267 -1.3079
 5431SOL    HW227756   1.122   2.678   2.270 -0.0538 -0.3877 -0.1540
 5432SOL     OW27757   0.344   4.604   4.480  0.4030  0.1325  0.6220
 5432SOL    HW127758   0.341   4.631   4.388  1.2357 -0.1858  0.5028
 5432SOL    HW227759   0.385   4.671   4.534  0.1615  2.2546 -1.8599
 5433SOL     OW27760   3.031   1.782  16.440  0.2015 -0.5901  0.4410
 5433SOL    HW127761   3.006   1.700  16.397 -0.6515  0.3349 -0.8134
 5433SOL    HW227762   3.025   1.841  16.365 -0.2456 -1.3206 -0.0909
 5434SOL     OW27763   1.402   1.221   5.738  0.3330 -0.0734 -0.0833
 5434SOL    HW127764   1.389   1.218   5.643 -1.1931  0.1906  0.1092
 5434SOL    HW227765   1.498   1.218   5.737  0.3158 -0.7940  0.3653
 5435SOL     OW27766   2.740   1.694   2.785  0.1158  0.3766  0.1304
 5435SOL    HW127767   2.774   1.607   2.762  0.0922  0.7872 -1.4157
 5435SOL    HW227768   2.648   1.671   2.778  0.3560 -0.5974  0.0659
 5436SOL     OW27769   4.540   2.369  15.776 -0.6333 -0.4698  0.4347
 5436SOL    HW127770   4.538   2.343  15.868  2.0649  0.4944  0.7589
 5436SOL    HW227771   4.580   2.455  15.785 -1.8564 -0.0241  1.5380
 5437SOL     OW27772   3.924   3.248   3.438 -0.2823 -0.3906  0.2203
 5437SOL    HW127773   3.958   3.322   3.388  4.0906 -1.9053  1.0295
 5437SOL    HW227774   3.951   3.180   3.376  3.7889  1.6541 -0.2644
 5438SOL     OW27775   3.901   1.076   6.464 -0.4560  0.2721  0.1532
 5438SOL    HW127776   3.921   0.988   6.493  0.4714  1.2088  2.3360
 5438SOL    HW227777   3.811   1.084   6.496  0.2252  2.2147  1.6466
 5439SOL     OW27778   2.232   3.604   0.601 -0.5714 -0.3060  0.4120
 5439SOL    HW127779   2.159   3.580   0.544 -1.6713  2.2476  0.7494
 5439SOL    HW227780   2.303   3.546   0.573  0.4493  0.6912  0.9238
 5440SOL     OW27781   2.074   3.142   2.622  0.0848 -0.2074 -0.1237
 5440SOL    HW127782   2.016   3.123   2.696  0.5520 -0.7001  0.1241
 5440SOL    HW227783   2.047   3.229   2.594  1.8572 -0.0598 -1.3210
 5441SOL     OW27784   1.517   3.416  15.174 -0.1295 -0.4986  0.6531
 5441SOL    HW127785   1.593   3.459  15.215  0.1758 -0.4582  0.0461
 5441SOL    HW227786   1.441   3.460  15.211  0.8334  1.7723 -0.0681
 5442SOL     OW27787   0.704   1.460   7.797  0.8891 -0.0510  0.3013
 5442SOL    HW127788   0.625   1.412   7.771  1.6024 -0.6733 -0.7584
 5442SOL    HW227789   0.771   1.392   7.793 -0.2937 -1.1618 -0.8732
 5443SOL     OW27790   2.446   4.383  11.718  0.0381 -0.0776 -0.2569
 5443SOL    HW127791   2.528   4.406  11.763 -0.2808  2.1288 -0.8130
 5443SOL    HW227792   2.475   4.311  11.663  2.3735  0.5916  0.1053
 5444SOL     OW27793   3.148   1.343   2.725  0.9817  0.0260  0.0452
 5444SOL    HW127794   3.064   1.307   2.697  0.2486  0.4917  1.6278
 5444SOL    HW227795   3.125   1.376   2.812  2.3191 -0.9446  0.7704
 5445SOL     OW27796   2.650   4.449  11.896  0.1448  0.4705 -0.4511
 5445SOL    HW127797   2.715   4.381  11.911 -0.1572  0.0940 -0.8539
 5445SOL    HW227798   2.664   4.501  11.976  2.0219 -0.2990 -0.2724
 5446SOL     OW27799   1.715   4.106   2.725  0.1094  0.3859 -0.1684
 5446SOL    HW127800   1.758   4.191   2.719  0.1028  0.3933 -0.1053
 5446SOL    HW227801   1.796   4.056   2.712 -0.2777  0.9797 -5.1281
 5447SOL     OW27802   3.166   1.005  12.019 -0.3280 -0.2534  0.2023
 5447SOL    HW127803   3.199   0.931  11.967  0.7449  0.5396 -0.2398
 5447SOL    HW227804   3.188   0.970  12.105  3.5998  1.3997 -0.1121
 5448SOL     OW27805   4.663   0.630   3.530 -0.3038 -0.4166 -0.5364
 5448SOL    HW127806   4.569   0.644   3.533 -0.1965  0.0176  1.0434
 5448SOL    HW227807   4.663   0.558   3.468 -2.4531 -0.9200  0.0570
 5449SOL     OW27808   0.273   3.360   7.503 -0.0583  0.2327  0.7844
 5449SOL    HW127809   0.230   3.435   7.543 -2.6249 -1.8876  1.9985
 5449SOL    HW227810   0.368   3.368   7.502 -0.0246 -0.2019  0.3542
 5450SOL     OW27811   4.605   2.107  12.727 -0.1883  0.2745  0.4745
 5450SOL    HW127812   4.628   2.027  12.774 -1.3329 -0.0471  0.4768
 5450SOL    HW227813   4.680   2.102  12.667 -1.1873 -4.0908 -0.3659
 5451SOL     OW27814   1.532   3.382   1.545  0.7092 -0.1852 -0.4434
 5451SOL    HW127815   1.441   3.352   1.540 -0.2684  3.1398 -3.2864
 5451SOL    HW227816   1.550   3.420   1.459 -0.3440 -2.2679 -1.5928
 5452SOL     OW27817   2.674   0.084   3.588  0.0970  0.0949  0.0215
 5452SOL    HW127818   2.723   0.143   3.532  2.4131  0.2902  2.2510
 5452SOL    HW227819   2.713   4.715   3.577  0.9424  0.6727 -1.4162
 5453SOL     OW27820   3.759   1.752   7.292  0.3295  0.0151 -0.4312
 5453SOL    HW127821   3.663   1.757   7.294  0.3265  0.0255 -0.6421
 5453SOL    HW227822   3.784   1.771   7.383  0.3638 -1.2611 -0.1728
 5454SOL     OW27823   2.227   0.080  13.315 -0.1136 -0.3343  0.6506
 5454SOL    HW127824   2.163   0.008  13.319 -1.3837  0.9007  2.7567
 5454SOL    HW227825   2.176   0.150  13.274 -0.7460  0.4452  2.7191
 5455SOL     OW27826   1.601   4.004   4.720 -0.5979  0.3044 -0.8029
 5455SOL    HW127827   1.539   4.040   4.783 -1.2457 -0.2547 -1.1121
 5455SOL    HW227828   1.675   4.064   4.714 -0.4023  0.4345  2.8673
 5456SOL     OW27829   4.464   2.834   9.258  0.1236 -0.0842 -0.2945
 5456SOL    HW127830   4.548   2.788   9.259 -0.1025 -0.5058 -0.2978
 5456SOL    HW227831   4.438   2.805   9.171  0.7117 -0.5825 -0.3083
 5457SOL     OW27832   0.066   4.487  13.624 -0.1503 -0.4920  0.2452
 5457SOL    HW127833   4.702   4.505  13.670  0.6950 -0.2700  1.6647
 5457SOL    HW227834   0.055   4.393  13.607  0.0667 -0.4001 -0.3939
 5458SOL     OW27835   2.763   3.722   1.024 -0.4052  0.2204 -0.0669
 5458SOL    HW127836   2.749   3.702   1.116  0.6454 -0.1478  0.0093
 5458SOL    HW227837   2.858   3.713   1.026 -0.3999 -0.5262 -3.5814
 5459SOL     OW27838   3.389   3.245   1.101 -0.1048  0.7465 -0.4424
 5459SOL    HW127839   3.364   3.326   1.057 -1.2211  0.7821  0.2493
 5459SOL    HW227840   3.472   3.231   1.057  0.9097  0.2254  1.6487
 5460SOL     OW27841   1.591   0.902  11.611 -0.4975 -0.2969  0.2456
 5460SOL    HW127842   1.679   0.877  11.640 -0.1735  0.5174 -0.0311
 5460SOL    HW227843   1.538   0.823  11.626 -1.5481  0.5728  1.0907
 5461SOL     OW27844   2.553   2.637   1.308 -0.4265  0.0274  0.3589
 5461SOL    HW127845   2.475   2.674   1.349 -0.0769  0.2783  0.8129
 5461SOL    HW227846   2.619   2.645   1.378  0.6287  0.0771 -0.6539
 5462SOL     OW27847   3.130   1.567  16.935 -0.0747  0.4874  0.4189
 5462SOL    HW127848   3.109   1.638  16.995  2.1045  0.1816  1.5255
 5462SOL    HW227849   3.190   1.610  16.875 -1.0534 -1.8045 -2.2429
 5463SOL     OW27850   4.351   0.909   1.351 -0.2768  0.0138  0.7614
 5463SOL    HW127851   4.376   0.873   1.266 -2.3010 -2.7597  1.3214
 5463SOL    HW227852   4.353   0.839   1.417 -0.7111  0.2458  1.0238
 5464SOL     OW27853   1.068   0.130  14.074 -0.7039 -0.1686 -0.6658
 5464SOL    HW127854   1.027   0.163  13.994 -0.9765  2.3902  0.5293
 5464SOL    HW227855   1.115   0.209  14.101 -0.6898  0.4688 -2.5489
 5465SOL     OW27856   2.554   3.236   6.993 -0.1983 -0.0758 -0.2365
 5465SOL    HW127857   2.579   3.195   7.076 -0.5682 -0.3785 -0.2768
 5465SOL    HW227858   2.636   3.221   6.945 -0.4476 -2.9119  0.2043
 5466SOL     OW27859   3.054   2.637   2.255 -0.0544  0.3582  0.8001
 5466SOL    HW127860   3.094   2.587   2.184 -0.3295 -1.8036  2.1651
 5466SOL    HW227861   2.972   2.588   2.265  0.1169  0.0106  0.4897
 5467SOL     OW27862   3.681   3.506  14.923  0.0805  0.2314 -0.1730
 5467SOL    HW127863   3.730   3.444  14.869  2.5172  1.9185  0.1221
 5467SOL    HW227864   3.596   3.497  14.879  0.6057 -0.5889 -1.0130
 5468SOL     OW27865   1.791   4.537  15.053  0.0453 -0.9463  0.1445
 5468SOL    HW127866   1.774   4.625  15.087  1.2815 -0.4460 -0.5167
 5468SOL    HW227867   1.886   4.547  15.042  0.2220 -3.4079 -0.5273
 5469SOL     OW27868   0.187   1.928   4.279 -0.1575  0.4453 -0.5602
 5469SOL    HW127869   0.267   1.981   4.274  1.5940 -2.3136 -1.6386
 5469SOL    HW227870   0.125   1.965   4.342 -0.9359  0.4565 -1.3372
 5470SOL     OW27871   2.607   2.387  14.600  0.1862  0.3218  0.1790
 5470SOL    HW127872   2.681   2.444  14.576  1.6096 -1.4449  0.3374
 5470SOL    HW227873   2.583   2.338  14.521 -0.5929 -0.9134  1.2039
 5471SOL     OW27874   4.494   0.160  15.298  0.0276 -0.6902  0.3170
 5471SOL    HW127875   4.580   0.145  15.337  0.2783 -1.8483 -0.6763
 5471SOL    HW227876   4.510   0.241  15.251 -2.4784  0.3442  1.2288
 5472SOL     OW27877   3.600   3.897  16.539  0.3895 -0.0160  0.0068
 5472SOL    HW127878   3.693   3.883  16.554  0.2527 -1.3937 -0.4979
 5472SOL    HW227879   3.597   3.875  16.446 -0.5328  0.8765 -0.1785
 5473SOL     OW27880   4.447   1.198  15.923  0.4753  0.3621  0.2824
 5473SOL    HW127881   4.374   1.185  15.863  0.3874 -1.6529  0.8301
 5473SOL    HW227882   4.490   1.113  15.913 -0.7318 -0.2073 -0.0789
 5474SOL     OW27883   2.527   3.735   4.239 -0.2032  0.2651 -0.4671
 5474SOL    HW127884   2.488   3.732   4.152 -1.8775 -0.2295  0.2989
 5474SOL    HW227885   2.621   3.734   4.220  0.6262 -0.7574  3.7748
 5475SOL     OW27886   2.366   3.441   4.865  0.2098  0.4759  0.1057
 5475SOL    HW127887   2.347   3.360   4.818  3.7264  0.7235 -1.7113
 5475SOL    HW227888   2.368   3.403   4.953  0.6851 -0.8732 -0.4923
 5476SOL     OW27889   2.212   2.845   9.272 -0.1904 -0.3950  0.3966
 5476SOL    HW127890   2.124   2.879   9.262  1.1841  2.5958 -1.5407
 5476SOL    HW227891   2.255   2.928   9.294 -0.3215 -0.3728  0.5717
 5477SOL     OW27892   3.033   2.993   8.767  0.1055  0.4430 -0.2458
 5477SOL    HW127893   3.076   3.045   8.699  0.6817 -0.4107 -0.5398
 5477SOL    HW227894   2.988   3.067   8.809  1.1578  1.5294 -1.0496
 5478SOL     OW27895   3.136   1.652   6.444  0.0037  0.6853  0.0381
 5478SOL    HW127896   3.155   1.736   6.403 -1.1505  0.6166 -0.6226
 5478SOL    HW227897   3.217   1.601   6.439  0.5300  1.5537 -0.4405
 5479SOL     OW27898   0.525   3.488  14.458 -0.6001  0.0645 -0.3037
 5479SOL    HW127899   0.503   3.423  14.392 -0.5805 -0.7819  0.5212
 5479SOL    HW227900   0.480   3.448  14.533 -1.9782  4.1165  1.0612
 5480SOL     OW27901   1.883   3.133   7.972  0.0210 -0.0016  0.0948
 5480SOL    HW127902   1.814   3.131   8.038  0.2510 -0.1804  0.3300
 5480SOL    HW227903   1.849   3.200   7.911 -1.2129 -2.0227 -1.4408
 5481SOL     OW27904   0.928   2.206  16.051 -0.1351 -0.0888 -0.1714
 5481SOL    HW127905   0.922   2.231  16.143 -0.8478 -0.9253  0.0145
 5481SOL    HW227906   0.881   2.123  16.051  0.8542 -0.6403  0.5976
 5482SOL     OW27907   0.990   2.369   3.027 -0.1259  0.0587 -0.4864
 5482SOL    HW127908   0.985   2.298   2.962  0.5919 -0.0459 -0.4337
 5482SOL    HW227909   0.904   2.362   3.068 -0.2885  0.3744 -0.7729
 5483SOL     OW27910   4.407   0.434   7.871  0.2142 -0.2891 -0.0479
 5483SOL    HW127911   4.382   0.380   7.796 -1.0109  2.2077 -1.4316
 5483SOL    HW227912   4.501   0.450   7.868  0.0928  0.2550 -0.7925
 5484SOL     OW27913   4.543   2.839   0.774 -0.7751 -0.3518  1.0969
 5484SOL    HW127914   4.616   2.888   0.812 -0.0524 -2.1130  1.9384
 5484SOL    HW227915   4.569   2.750   0.796 -0.4631 -0.3418  0.7714
 5485SOL     OW27916   0.438   1.426  15.424  0.2948  0.4989 -0.1287
 5485SOL    HW127917   0.465   1.368  15.495 -0.3702  0.8054  0.3772
 5485SOL    HW227918   0.434   1.505  15.479 -1.7112  0.7191 -0.5929
 5486SOL     OW27919   0.909   0.221  15.089  0.4222 -0.1000 -0.3739
 5486SOL    HW127920   1.000   0.240  15.111  0.6406  0.4645 -1.7446
 5486SOL    HW227921   0.865   0.236  15.173  0.3185 -2.2030 -0.0524
 5487SOL     OW27922   0.873   0.274   5.876 -0.0882 -0.1256 -0.4790
 5487SOL    HW127923   0.809   0.296   5.943  1.0145 -1.0307  0.8625
 5487SOL    HW227924   0.807   0.249   5.811  1.6332 -1.6454 -1.6349
 5488SOL     OW27925   1.460   1.618  11.488 -0.1736 -0.6836 -0.0319
 5488SOL    HW127926   1.508   1.606  11.407  2.3313  0.0467  1.3478
 5488SOL    HW227927   1.523   1.579  11.549 -0.8849  2.4281  2.7417
 5489SOL     OW27928   1.118   4.270  15.935 -0.2746 -0.5929  0.0468
 5489SOL    HW127929   1.098   4.351  15.981 -1.7249  0.0917 -1.7924
 5489SOL    HW227930   1.093   4.216  16.010 -0.1792 -0.6534  0.0351
 5490SOL     OW27931   3.413   1.759  17.108  0.2688  0.0803  0.3853
 5490SOL    HW127932   3.325   1.795  17.094 -0.0462 -0.1748  1.8023
 5490SOL    HW227933   3.408   1.697  17.180 -0.6749 -0.5489 -0.2180
 5491SOL     OW27934   2.925   2.383   2.674  0.0904  0.5091 -1.1735
 5491SOL    HW127935   2.857   2.441   2.640 -0.7434 -0.6654 -1.5015
 5491SOL    HW227936   2.964   2.339   2.598 -1.0528  1.8481 -2.5354
 5492SOL     OW27937   3.522   3.690   3.540 -0.2516 -0.0332 -0.2041
 5492SOL    HW127938   3.562   3.603   3.544 -4.3417 -1.8028  2.3584
 5492SOL    HW227939   3.535   3.720   3.450  0.3354  2.4451  0.7185
 5493SOL     OW27940   3.745   2.695   5.292  0.0654  0.3956 -0.1330
 5493SOL    HW127941   3.667   2.716   5.240 -1.1505  0.8677  1.8516
 5493SOL    HW227942   3.765   2.606   5.264  3.9454  1.1730  0.2391
 5494SOL     OW27943   3.250   0.210  11.523  0.1736  0.6497 -0.3441
 5494SOL    HW127944   3.286   0.135  11.477 -1.2198 -0.3785  0.2499
 5494SOL    HW227945   3.202   0.259  11.456 -0.1923 -0.3462 -0.7971
 5495SOL     OW27946   3.560   2.913   9.463 -0.8317 -0.1664 -0.4243
 5495SOL    HW127947   3.486   2.959   9.423 -1.8386 -0.6568  0.9029
 5495SOL    HW227948   3.586   2.862   9.386 -1.2913 -2.2067  0.7865
 5496SOL     OW27949   3.134   4.088   5.577  0.5757  0.4388  0.1581
 5496SOL    HW127950   3.094   4.005   5.604  2.0792 -0.1017  0.7542
 5496SOL    HW227951   3.063   4.149   5.596 -0.4692 -1.1807  1.5390
 5497SOL     OW27952   2.629   2.778   5.013  0.4862  0.0266  0.3649
 5497SOL    HW127953   2.551   2.725   4.998  0.9405 -1.2402  2.6551
 5497SOL    HW227954   2.593   2.843   5.073 -0.7479  0.0642 -0.4136
 5498SOL     OW27955   2.917   1.861  13.279 -0.1117  0.2323 -0.5705
 5498SOL    HW127956   2.929   1.943  13.328 -0.3536 -1.5250  2.4629
 5498SOL    HW227957   2.836   1.886  13.235  0.0049 -0.5886 -1.2526
 5499SOL     OW27958   0.141   3.831  10.924 -0.4745  0.2454  0.4628
 5499SOL    HW127959   0.056   3.796  10.950  0.4824 -1.6521  1.0097
 5499SOL    HW227960   0.154   3.898  10.991 -2.1376  1.3086 -0.2703
 5500SOL     OW27961   3.580   4.166  11.962 -0.1077  0.3096 -0.7611
 5500SOL    HW127962   3.491   4.162  11.997 -0.4206  3.1408 -1.2320
 5500SOL    HW227963   3.619   4.098  12.018 -2.5939 -0.3994  0.1315
 5501SOL     OW27964   3.648   1.988  12.504  0.2255  0.1333 -0.2188
 5501SOL    HW127965   3.701   2.025  12.434  0.9005 -0.8761 -0.2375
 5501SOL    HW227966   3.593   2.066  12.505  0.1155  0.0620 -0.6064
 5502SOL     OW27967   2.198   3.838  11.340 -1.2139 -0.1029 -0.1924
 5502SOL    HW127968   2.184   3.748  11.368 -0.6288 -0.6514 -1.7060
 5502SOL    HW227969   2.183   3.890  11.419 -0.8451  1.2861 -1.0374
 5503SOL     OW27970   3.195   3.073   7.869  0.8026  0.3865 -0.3077
 5503SOL    HW127971   3.241   3.148   7.906 -1.8163  1.0089  1.7221
 5503SOL    HW227972   3.268   3.027   7.827  1.8195  0.5873  1.2360
 5504SOL     OW27973   2.460   3.692   3.986  0.3189 -0.5950  0.0436
 5504SOL    HW127974   2.452   3.630   3.913 -1.6934  0.3063 -0.5240
 5504SOL    HW227975   2.373   3.733   3.984  0.6479  0.1618  2.0894
 5505SOL     OW27976   3.247   4.126   8.382  0.2481  0.3610  0.6214
 5505SOL    HW127977   3.254   4.215   8.345  0.2981  0.9904  2.1634
 5505SOL    HW227978   3.251   4.084   8.296 -1.5815  0.4933  0.4751
 5506SOL     OW27979   3.551   2.192  11.504  0.0008  0.6109  0.7180
 5506SOL    HW127980   3.639   2.223  11.485 -1.0351  1.5433 -2.5402
 5506SOL    HW227981   3.495   2.266  11.485 -0.0677  0.3469 -0.1001
 5507SOL     OW27982   4.234   0.258   1.913 -0.0876 -0.3911  0.6655
 5507SOL    HW127983   4.142   0.253   1.938 -0.6982  0.2236 -1.4219
 5507SOL    HW227984   4.230   0.290   1.823  1.7153  0.3040  0.8360
 5508SOL     OW27985   0.777   1.811   9.927  0.1710  0.5022  0.1793
 5508SOL    HW127986   0.749   1.891   9.882 -0.4129 -0.6933 -1.5546
 5508SOL    HW227987   0.689   1.779   9.949  0.1425  0.5903  0.1957
 5509SOL     OW27988   3.915   3.843   3.594  0.0847  0.1510 -0.3088
 5509SOL    HW127989   3.877   3.809   3.513  2.2803 -1.8281 -0.5123
 5509SOL    HW227990   4.002   3.843   3.555  0.7405 -0.3299  1.1481
 5510SOL     OW27991   3.169   4.492   8.555 -0.0906 -0.6244  0.7513
 5510SOL    HW127992   3.247   4.498   8.610  0.2198  0.2329  0.2292
 5510SOL    HW227993   3.100   4.464   8.615 -1.7941 -1.1860 -1.4637
 5511SOL     OW27994   1.019   3.215  12.043  0.5688 -0.1403 -0.5661
 5511SOL    HW127995   1.003   3.134  11.995 -0.5625 -0.9539  1.1968
 5511SOL    HW227996   0.932   3.254  12.039 -0.5594 -2.6554 -0.2919
 5512SOL     OW27997   0.728   4.384   8.979  0.0388  0.2990  0.1607
 5512SOL    HW127998   0.765   4.296   8.979  1.1018  0.7427  1.3029
 5512SOL    HW227999   0.633   4.371   8.981 -0.1587  1.4111 -1.9842
 5513SOL     OW28000   4.669   3.563   5.889 -0.5675 -0.1623  0.2115
 5513SOL    HW128001   0.024   3.567   5.827 -1.5923  2.8411 -0.7991
 5513SOL    HW228002   4.717   3.539   5.967 -0.7071 -1.2310 -0.0287
 5514SOL     OW28003   1.708   0.271   6.748 -0.4237 -0.2109  0.1429
 5514SOL    HW128004   1.718   0.221   6.666 -2.2423 -1.7896  0.8942
 5514SOL    HW228005   1.742   0.359   6.734  0.0258 -0.7411 -2.1897
 5515SOL     OW28006   3.357   3.095   5.875 -0.2648  0.3530  0.3454
 5515SOL    HW128007   3.279   3.042   5.893 -1.0413  0.8443 -1.5790
 5515SOL    HW228008   3.390   3.071   5.789 -1.6744  1.0903 -0.3973
 5516SOL     OW28009   0.333   2.248   7.260 -0.2206  0.4267  0.3601
 5516SOL    HW128010   0.405   2.217   7.314 -0.8260 -0.5765  0.5991
 5516SOL    HW228011   0.303   2.167   7.218 -0.5719 -0.3005  2.0241
 5517SOL     OW28012   0.042   0.553  11.410 -0.1665  0.0881 -0.2874
 5517SOL    HW128013   4.682   0.519  11.455  0.8370  0.2011  1.5267
 5517SOL    HW228014   0.016   0.522  11.323 -0.8405 -1.5957  0.5017
 5518SOL     OW28015   3.079   3.972   5.988  0.3772 -0.1278 -0.4462
 5518SOL    HW128016   2.989   3.976   6.021  1.8352  4.4368  2.9501
 5518SOL    HW228017   3.073   4.058   5.947  0.7365  0.2884  0.3848
 5519SOL     OW28018   2.400   2.179   7.099 -0.0403  0.5181 -0.2411
 5519SOL    HW128019   2.331   2.226   7.146  1.6107  1.4842  1.1957
 5519SOL    HW228020   2.350   2.109   7.058 -0.9243 -0.1778  1.9839
 5520SOL     OW28021   4.115   1.569   2.783 -0.2841 -0.2435 -0.2363
 5520SOL    HW128022   4.201   1.535   2.807 -1.5048 -3.1690  0.0076
 5520SOL    HW228023   4.138   1.626   2.710 -0.1652  0.9718  0.7447
 5521SOL     OW28024   1.854   2.748  15.513  0.3155 -0.1692 -0.0760
 5521SOL    HW128025   1.796   2.806  15.564  0.4425  1.7015 -2.0490
 5521SOL    HW228026   1.880   2.806  15.441  0.7085 -0.5047 -0.1998
 5522SOL     OW28027   1.144   0.525   5.200 -0.0322  0.1074  0.3821
 5522SOL    HW128028   1.134   0.546   5.293  2.3705  1.2173  0.3748
 5522SOL    HW228029   1.088   0.450   5.180 -0.2690  0.2211  0.6130
 5523SOL     OW28030   0.962   3.419   8.958 -0.5084 -0.2640  0.6892
 5523SOL    HW128031   0.938   3.359   9.029  0.9745  1.0548  2.2941
 5523SOL    HW228032   0.992   3.497   9.004  4.1439 -1.2516 -0.6551
 5524SOL     OW28033   3.105   2.280   2.450  0.2383 -0.5247  0.0405
 5524SOL    HW128034   3.148   2.195   2.455  0.9413 -0.2318 -1.1555
 5524SOL    HW228035   3.028   2.265   2.396 -0.7803 -2.9868  2.1997
 5525SOL     OW28036   2.527   1.316   5.768 -0.6699  0.0240 -0.4452
 5525SOL    HW128037   2.453   1.292   5.711 -2.8271  2.2054  1.4355
 5525SOL    HW228038   2.550   1.405   5.744 -1.5637 -0.0101 -1.4390
 5526SOL     OW28039   2.768   3.903   2.637 -0.2093  0.1028  0.1347
 5526SOL    HW128040   2.766   3.888   2.543  0.1764  1.1362 -0.0429
 5526SOL    HW228041   2.861   3.884   2.651 -0.1750 -0.1530 -0.4281
 5527SOL     OW28042   0.896   3.425   4.879 -0.7166  0.3435  0.0441
 5527SOL    HW128043   0.910   3.400   4.971  0.7372  0.4150 -0.1726
 5527SOL    HW228044   0.910   3.344   4.831  1.5228  2.2362 -2.4839
 5528SOL     OW28045   0.549   3.753   3.816 -0.3205  0.3583 -0.4751
 5528SOL    HW128046   0.536   3.731   3.908  0.3717 -1.2061 -0.7483
 5528SOL    HW228047   0.634   3.710   3.804 -0.3867 -0.5321  2.3237
 5529SOL     OW28048   2.035   1.488  17.528 -0.5725  0.4820 -0.1685
 5529SOL    HW128049   2.051   1.567  17.580 -0.2070  1.8030 -2.2952
 5529SOL    HW228050   2.002   1.530  17.448  0.6986 -2.7359 -2.3500
 5530SOL     OW28051   3.462   2.011   6.290  0.5231  0.4273  0.7146
 5530SOL    HW128052   3.555   1.997   6.272  0.4776  1.6632 -0.5099
 5530SOL    HW228053   3.431   1.930   6.330  1.1114 -0.0407  0.2397
 5531SOL     OW28054   1.082   3.284   3.300  0.7155  0.0992 -0.0840
 5531SOL    HW128055   0.989   3.297   3.285  0.3629 -1.7045  0.4670
 5531SOL    HW228056   1.064   3.203   3.349  3.2814 -0.1266  0.5028
 5532SOL     OW28057   2.892   2.988   4.387 -0.2611 -0.1336 -0.1796
 5532SOL    HW128058   2.960   3.025   4.442 -1.3654  1.5965  0.0083
 5532SOL    HW228059   2.937   2.944   4.314  1.7779 -2.2967  2.3818
 5533SOL     OW28060   0.857   4.178   8.176  0.3989 -0.3499 -0.0236
 5533SOL    HW128061   0.925   4.233   8.214  0.6848  0.3317 -1.5440
 5533SOL    HW228062   0.789   4.198   8.241  0.7024  0.1720  0.1326
 5534SOL     OW28063   0.444   1.016   9.514 -0.1675  0.0730 -0.1050
 5534SOL    HW128064   0.424   1.076   9.586 -0.0460 -0.5130  0.4218
 5534SOL    HW228065   0.537   1.033   9.501 -0.3546  0.0429 -1.4777
 5535SOL     OW28066   3.919   0.781   4.566 -0.1791  0.0423 -0.0889
 5535SOL    HW128067   3.971   0.741   4.636 -3.0451 -0.1245  1.9580
 5535SOL    HW228068   3.838   0.807   4.611  0.1598  1.9562 -0.5673
 5536SOL     OW28069   3.898   3.236   9.051 -0.1239  0.5419  0.4191
 5536SOL    HW128070   3.899   3.325   9.084  0.5309 -1.0215  4.6006
 5536SOL    HW228071   3.986   3.203   9.070  0.5750  1.7424 -0.6866
 5537SOL     OW28072   1.730   1.591  15.528 -0.2786  0.1054  0.7105
 5537SOL    HW128073   1.667   1.654  15.493  0.2560 -0.7024 -1.7115
 5537SOL    HW228074   1.686   1.506  15.533 -0.0379 -0.1016 -0.5554
 5538SOL     OW28075   3.130   1.555   2.501  0.1060  0.2633 -0.6700
 5538SOL    HW128076   3.052   1.522   2.458  1.9810 -2.5822 -1.8903
 5538SOL    HW228077   3.129   1.507   2.584 -0.4599 -0.3967 -1.0632
 5539SOL     OW28078   0.374   2.554  17.514 -0.4354 -0.0745 -0.2206
 5539SOL    HW128079   0.445   2.563  17.578  2.1917  1.9528 -3.4881
 5539SOL    HW228080   0.311   2.535  17.584  0.6579 -0.9891  0.5304
 5540SOL     OW28081   2.236   0.212   8.598 -0.1298 -0.3593  0.3053
 5540SOL    HW128082   2.282   0.195   8.680 -2.9464  0.3510  2.0437
 5540SOL    HW228083   2.279   0.283   8.550 -0.1726  0.2818  1.2066
 5541SOL     OW28084   4.274   2.244   3.875  0.0038  0.1888  0.2619
 5541SOL    HW128085   4.344   2.194   3.917 -0.5961  1.9791  3.4667
 5541SOL    HW228086   4.225   2.184   3.819 -3.1384  0.1774  3.0061
 5542SOL     OW28087   2.955   1.755  13.012 -0.1283 -0.0260 -0.5323
 5542SOL    HW128088   2.998   1.833  12.977  0.2655 -1.2898 -2.8749
 5542SOL    HW228089   2.946   1.785  13.103 -1.1739 -0.6330 -0.4305
 5543SOL     OW28090   3.321   1.269  16.125 -0.4424 -0.1478 -0.0050
 5543SOL    HW128091   3.228   1.248  16.122 -0.6677  0.4464  2.9929
 5543SOL    HW228092   3.337   1.266  16.219  1.7045 -3.5045 -0.4848
 5544SOL     OW28093   0.211   2.591  16.694  0.2691 -0.3518  0.1822
 5544SOL    HW128094   0.265   2.668  16.671  1.1318 -1.1702 -0.5559
 5544SOL    HW228095   0.142   2.631  16.747  1.6674 -0.3081  1.9562
 5545SOL     OW28096   2.960   0.577  14.366 -0.1186  0.7157 -0.1119
 5545SOL    HW128097   2.995   0.666  14.356 -0.2040  0.8127  0.4372
 5545SOL    HW228098   2.874   0.599  14.402  0.2548  1.9335  0.0693
 5546SOL     OW28099   0.034   1.405  10.898 -0.3448  0.1773  0.4875
 5546SOL    HW128100   0.121   1.415  10.936  0.5029 -3.3386 -0.5288
 5546SOL    HW228101   4.710   1.365  10.975  0.9888  1.4079  1.8477
 5547SOL     OW28102   1.745   4.241   5.858 -0.2936  0.1785  0.0803
 5547SOL    HW128103   1.650   4.230   5.868 -0.5716  1.1680 -1.5730
 5547SOL    HW228104   1.768   4.276   5.944  1.6372 -0.0445 -0.3567
 5548SOL     OW28105   2.639   1.310   4.423  0.2253  0.7848 -0.1865
 5548SOL    HW128106   2.662   1.374   4.490 -0.7747 -0.1859  1.0746
 5548SOL    HW228107   2.600   1.369   4.358  1.0858  0.9761 -0.5397
 5549SOL     OW28108   3.234   1.729   2.277  0.4422 -0.0897 -0.5386
 5549SOL    HW128109   3.329   1.741   2.277  0.1357  2.3933 -0.9421
 5549SOL    HW228110   3.228   1.673   2.354  0.6746  2.2953  1.2338
 5550SOL     OW28111   1.716   4.237   1.773 -0.0974 -0.2006  0.2537
 5550SOL    HW128112   1.804   4.264   1.799  0.9787 -2.6479 -0.8882
 5550SOL    HW228113   1.657   4.263   1.845  1.0207  3.0845 -0.0532
 5551SOL     OW28114   1.090   2.018   9.972 -0.1287 -0.2680 -0.4836
 5551SOL    HW128115   1.152   1.945   9.976  1.0110  0.7944  0.9889
 5551SOL    HW228116   1.144   2.080  10.021 -1.3729  0.7319 -0.3836
 5552SOL     OW28117   2.638   2.692  13.434 -0.0771 -0.9276 -0.5546
 5552SOL    HW128118   2.703   2.710  13.366  0.4342  1.0908  0.4723
 5552SOL    HW228119   2.634   2.599  13.409  2.1197 -1.3668  0.6465
 5553SOL     OW28120   3.470   0.052  16.906  0.0850 -0.0813  0.2636
 5553SOL    HW128121   3.427   0.017  16.828 -1.6338  0.6100  0.8862
 5553SOL    HW228122   3.540   4.704  16.907  0.0422 -0.0882  1.7800
 5554SOL     OW28123   4.328   2.531  17.497 -0.6966 -0.4292 -0.0001
 5554SOL    HW128124   4.389   2.589  17.452 -1.7039  0.3411 -0.3747
 5554SOL    HW228125   4.329   2.466  17.427 -2.6654  0.5362 -0.9070
 5555SOL     OW28126   4.602   4.267   5.913 -0.2680  0.1219  0.2480
 5555SOL    HW128127   4.543   4.327   5.959 -0.6321  1.1421 -1.5301
 5555SOL    HW228128   4.687   4.308   5.928 -0.1691  0.2664 -0.6685
 5556SOL     OW28129   2.124   3.162  13.729 -0.5325  0.0671 -0.1244
 5556SOL    HW128130   2.138   3.252  13.698  0.1853  0.2230  0.6489
 5556SOL    HW228131   2.140   3.178  13.822 -2.2322  1.4188 -0.0696
 5557SOL     OW28132   1.359   0.945  16.339  0.4801  0.7063 -0.3418
 5557SOL    HW128133   1.363   0.850  16.326  2.0853  1.0747 -2.5161
 5557SOL    HW228134   1.417   0.960  16.414  0.6672 -0.2350 -0.2954
 5558SOL     OW28135   3.156   0.426  12.109 -0.1014  0.6055 -0.5317
 5558SOL    HW128136   3.151   0.363  12.181 -2.7068  0.0196 -1.2279
 5558SOL    HW228137   3.247   0.454  12.103 -0.2104  1.2422  0.6762
 5559SOL     OW28138   0.932   2.004   7.758  0.3105  0.8301 -0.0635
 5559SOL    HW128139   0.922   1.912   7.782 -0.8413  0.2489 -2.7743
 5559SOL    HW228140   0.918   2.049   7.842 -0.4718  1.3473 -0.4713
 5560SOL     OW28141   1.829   0.067   6.555  0.1810 -0.2696 -0.2891
 5560SOL    HW128142   1.735   0.077   6.540  0.3832 -0.0058 -1.4036
 5560SOL    HW228143   1.834   4.693   6.527 -0.4430 -0.1187 -0.9142
 5561SOL     OW28144   1.576   1.686   8.275  0.0638  0.8619  0.2135
 5561SOL    HW128145   1.562   1.766   8.326  0.8236  0.1840  1.4993
 5561SOL    HW228146   1.518   1.627   8.323  2.1551 -1.1323  0.2835
 5562SOL     OW28147   0.653   1.911   3.054  0.1888 -0.3078 -0.1550
 5562SOL    HW128148   0.683   1.820   3.058 -1.1608 -0.8386 -2.4825
 5562SOL    HW228149   0.668   1.938   3.145 -2.1972 -0.2688  0.2434
 5563SOL     OW28150   1.990   2.526  14.647 -0.3316  0.1506 -0.3546
 5563SOL    HW128151   2.080   2.530  14.679 -0.8711  0.4500  1.1135
 5563SOL    HW228152   1.988   2.437  14.610  1.2754 -1.2681  2.9801
 5564SOL     OW28153   0.961   2.763   1.941  0.4959 -0.1029 -0.2229
 5564SOL    HW128154   1.003   2.721   2.016 -0.3261 -0.1203  0.2321
 5564SOL    HW228155   0.958   2.857   1.959  0.8200 -0.2442  0.5709
 5565SOL     OW28156   0.170   2.810  11.265  0.0577  0.3847  0.6614
 5565SOL    HW128157   0.099   2.873  11.275  0.7027  1.2540 -0.3093
 5565SOL    HW228158   0.232   2.832  11.334  1.0648  0.0460 -0.1296
 5566SOL     OW28159   1.946   2.986  15.702 -0.2581 -0.4963 -0.8067
 5566SOL    HW128160   1.872   3.035  15.739  0.0726 -0.9860  0.5001
 5566SOL    HW228161   1.935   2.896  15.734  2.1330 -0.2510  0.7226
 5567SOL     OW28162   4.240   1.987   2.614 -0.0476  0.3844 -0.1653
 5567SOL    HW128163   4.319   1.988   2.560  1.9138  1.6845  2.6905
 5567SOL    HW228164   4.244   1.897   2.647 -0.0354  0.7730  0.9039
 5568SOL     OW28165   3.450   1.740  12.429 -0.1772 -0.2665 -0.1645
 5568SOL    HW128166   3.516   1.807  12.411  1.1324 -1.4271  0.2578
 5568SOL    HW228167   3.396   1.765  12.504  2.3744  2.8115  0.6349
 5569SOL     OW28168   4.385   1.773   4.506 -0.1819  0.4603  0.6064
 5569SOL    HW128169   4.328   1.842   4.540 -1.0735  0.2044 -0.3836
 5569SOL    HW228170   4.378   1.783   4.411  1.8182 -2.3500  0.1728
 5570SOL     OW28171   0.052   0.327   3.589  0.0785  0.0176  0.1216
 5570SOL    HW128172   4.689   0.347   3.637 -1.2268 -1.2809 -1.5330
 5570SOL    HW228173   0.115   0.307   3.658  0.9946  2.3672 -0.0544
 5571SOL     OW28174   3.297   1.019   4.201 -0.2898 -0.1441  0.3893
 5571SOL    HW128175   3.242   0.949   4.166  0.7526 -2.3918  3.2645
 5571SOL    HW228176   3.297   1.004   4.295 -2.6304 -2.0569  0.0897
 5572SOL     OW28177   2.625   2.196   8.207  0.1142 -0.4284 -0.4219
 5572SOL    HW128178   2.549   2.254   8.216  0.0543 -0.4981 -0.4797
 5572SOL    HW228179   2.687   2.254   8.251  1.0469 -0.3655 -1.8492
 5573SOL     OW28180   0.360   1.270   4.869 -0.3191  0.2031 -0.0214
 5573SOL    HW128181   0.334   1.357   4.900  0.4421  0.3089  0.3248
 5573SOL    HW228182   0.275   1.236   4.843 -0.2280 -0.6856  0.8563
 5574SOL     OW28183   1.793   4.514   9.588 -0.3769 -0.7569 -0.2513
 5574SOL    HW128184   1.796   4.604   9.619  1.8924 -1.3252  1.2228
 5574SOL    HW228185   1.714   4.487   9.635 -0.8824  2.2414  0.6257
 5575SOL     OW28186   4.717   3.295  13.847 -0.0600 -0.3208 -0.2460
 5575SOL    HW128187   4.661   3.358  13.893 -1.3141 -0.6687 -1.2836
 5575SOL    HW228188   0.013   3.342  13.765 -1.9516  1.6467  0.5563
 5576SOL     OW28189   0.688   3.243   3.026 -0.2320  0.3777 -0.4607
 5576SOL    HW128190   0.617   3.209   2.971 -0.8428  0.3377  0.3587
 5576SOL    HW228191   0.677   3.337   3.010  0.5592  1.2037  3.7719
 5577SOL     OW28192   2.036   1.707   1.085 -0.3904 -0.0198  0.2924
 5577SOL    HW128193   1.997   1.759   1.014  1.6653 -1.3090 -1.7708
 5577SOL    HW228194   1.957   1.660   1.112 -2.5090  1.4805 -3.1730
 5578SOL     OW28195   0.220   4.666   0.385  0.3959 -0.2585  0.0619
 5578SOL    HW128196   0.181   4.713   0.312  1.9461  1.6757  0.4652
 5578SOL    HW228197   0.147   4.640   0.441 -0.0762  0.1677 -0.3601
 5579SOL     OW28198   1.302   3.055  12.895  0.0985  0.1549 -0.2644
 5579SOL    HW128199   1.250   2.976  12.882 -0.9099  0.9430 -1.0067
 5579SOL    HW228200   1.334   3.043  12.985  1.1603 -2.7227 -1.0476
 5580SOL     OW28201   4.350   4.517   1.547 -0.9746 -0.0778 -0.7192
 5580SOL    HW128202   4.260   4.499   1.519 -1.4241  1.0261  0.0323
 5580SOL    HW228203   4.348   4.611   1.560 -1.5443  0.2724 -3.2975
 5581SOL     OW28204   3.766   3.746   4.925  0.7745 -0.2072 -0.8965
 5581SOL    HW128205   3.752   3.735   5.019 -2.6362  0.2942 -1.3437
 5581SOL    HW228206   3.827   3.676   4.902  0.5863 -0.8690  0.6792
 5582SOL     OW28207   0.751   3.884   9.212 -0.1426 -0.2165  0.6341
 5582SOL    HW128208   0.794   3.838   9.284 -1.8009  0.4788  2.0650
 5582SOL    HW228209   0.738   3.973   9.247 -1.2151 -0.6181  1.2688
 5583SOL     OW28210   2.221   2.061  15.435 -0.0646 -0.1106  0.5683
 5583SOL    HW128211   2.211   2.156  15.444  0.7791 -0.1628  2.1096
 5583SOL    HW228212   2.134   2.039  15.403  0.5212 -1.5145 -0.0534
 5584SOL     OW28213   1.163   2.515   5.085 -0.2072 -0.3261 -0.6161
 5584SOL    HW128214   1.234   2.529   5.023  1.4581  0.3040  1.4159
 5584SOL    HW228215   1.103   2.464   5.031 -1.5581 -0.4622  0.9853
 5585SOL     OW28216   1.567   4.672   9.803 -0.0339 -1.0228 -0.2192
 5585SOL    HW128217   1.536   0.011   9.873  0.8976 -2.2884  1.2202
 5585SOL    HW228218   1.653   4.710   9.788 -0.1877 -0.1939  1.0188
 5586SOL     OW28219   4.716   3.980  13.522  0.2336 -0.2398  0.6964
 5586SOL    HW128220   0.043   3.901  13.490  0.0379 -0.6926  1.5435
 5586SOL    HW228221   4.639   3.935  13.556 -0.6373  0.0377 -0.9072
 5587SOL     OW28222   1.601   0.570  15.208  0.6080  0.1663 -0.1516
 5587SOL    HW128223   1.664   0.561  15.137  1.0937 -0.6752  0.3860
 5587SOL    HW228224   1.655   0.545  15.283 -2.1990 -2.9055  0.9027
 5588SOL     OW28225   0.196   0.027  12.080 -0.1135 -0.1676 -0.1112
 5588SOL    HW128226   0.211   0.120  12.098  3.7615 -0.5836 -1.3072
 5588SOL    HW228227   0.172   4.714  12.168 -0.4096 -1.6196 -0.7042
 5589SOL     OW28228   1.949   4.423   5.347  0.0800 -0.1426 -0.1936
 5589SOL    HW128229   1.887   4.394   5.414  0.7395 -1.1547 -0.0208
 5589SOL    HW228230   1.928   4.517   5.342  1.1944  0.0361 -1.5521
 5590SOL     OW28231   3.696   0.793   8.589  0.8205 -0.0122  0.3647
 5590SOL    HW128232   3.615   0.772   8.636 -0.7650  2.3563 -1.3137
 5590SOL    HW228233   3.757   0.755   8.651  0.8270 -1.3123 -0.4363
 5591SOL     OW28234   3.002   1.112   2.745  0.4937  0.0218  0.2589
 5591SOL    HW128235   3.052   1.136   2.823 -0.7853 -1.6783  1.5980
 5591SOL    HW228236   3.041   1.030   2.717  1.9824  0.2409  1.7445
 5592SOL     OW28237   3.230   0.707   8.818  0.1433 -0.5455  0.0101
 5592SOL    HW128238   3.307   0.756   8.791 -0.5992 -0.1278 -1.3807
 5592SOL    HW228239   3.263   0.646   8.884 -0.2762 -1.1709 -0.3498
 5593SOL     OW28240   0.653   1.301  11.986  0.4191  0.0583  0.1184
 5593SOL    HW128241   0.730   1.259  12.025 -0.7488 -0.0667  2.2727
 5593SOL    HW228242   0.688   1.380  11.946 -1.6258  1.5563  1.2961
 5594SOL     OW28243   0.927   2.259   7.087 -0.4040  0.4645 -0.5103
 5594SOL    HW128244   0.975   2.236   7.167  1.7360  1.1006 -1.6051
 5594SOL    HW228245   0.838   2.238   7.115 -0.4313  2.2571  0.7290
 5595SOL     OW28246   1.265   2.443   9.211  0.0354 -0.2238  0.7776
 5595SOL    HW128247   1.272   2.437   9.116 -3.1913 -0.0067  0.4984
 5595SOL    HW228248   1.352   2.425   9.246  1.1859 -0.3060 -2.1569
 5596SOL     OW28249   0.206   3.087   4.859 -0.5154  0.0585 -0.2197
 5596SOL    HW128250   0.233   3.065   4.770  0.1826  1.4981 -0.3802
 5596SOL    HW228251   0.276   3.045   4.909 -0.2925 -1.1103 -1.5175
 5597SOL     OW28252   0.820   3.829   3.969  0.0202 -0.1994 -0.3343
 5597SOL    HW128253   0.779   3.754   3.926  1.6584 -1.3938  0.1701
 5597SOL    HW228254   0.909   3.801   3.947  0.9922  0.1626  3.1213
 5598SOL     OW28255   0.440   0.069   1.560  0.0120 -0.2320  0.1138
 5598SOL    HW128256   0.512   0.036   1.614 -0.2668  0.2633  0.7795
 5598SOL    HW228257   0.389   4.706   1.559  0.7527 -0.6882 -1.1800
 5599SOL     OW28258   1.777   1.144   6.253 -0.0753  0.0601 -0.4658
 5599SOL    HW128259   1.787   1.239   6.263 -0.8700  0.0684  0.2068
 5599SOL    HW228260   1.729   1.145   6.171  1.4541  3.1636 -1.3395
 5600SOL     OW28261   0.853   2.891   7.579  0.1942 -0.0853 -0.1034
 5600SOL    HW128262   0.788   2.840   7.626 -1.3122  1.4287 -0.5306
 5600SOL    HW228263   0.877   2.814   7.528 -0.4236  1.0225 -2.0747
 5601SOL     OW28264   3.085   2.307   3.167  0.0975 -0.2143  0.1224
 5601SOL    HW128265   3.003   2.330   3.211  1.5180 -1.5919  3.5005
 5601SOL    HW228266   3.125   2.390   3.143 -3.0257  0.9799 -0.9057
 5602SOL     OW28267   1.047   4.244   3.608 -0.1512 -0.1672  0.5464
 5602SOL    HW128268   1.124   4.189   3.619  0.3521  0.6309  1.0387
 5602SOL    HW228269   1.031   4.272   3.698 -1.5211 -2.3725  0.9716
 5603SOL     OW28270   4.359   2.055   2.857 -0.3513 -0.0758 -0.5308
 5603SOL    HW128271   4.452   2.079   2.856 -0.1195 -0.9170  1.4935
 5603SOL    HW228272   4.342   2.046   2.763  0.6876 -2.3869 -0.5073
 5604SOL     OW28273   0.321   4.049   8.021 -0.1995 -0.4082  0.2030
 5604SOL    HW128274   0.405   4.095   8.013 -0.4170 -0.1784 -0.8366
 5604SOL    HW228275   0.303   4.087   8.106 -0.7223  0.6612 -0.3840
 5605SOL     OW28276   2.195   3.124   8.032  0.1822  0.1706 -0.2405
 5605SOL    HW128277   2.103   3.148   8.033  0.1218  0.0611 -2.7791
 5605SOL    HW228278   2.203   3.111   7.937 -0.2192 -0.6692 -0.1589
 5606SOL     OW28279   0.760   3.315   6.127 -0.1483 -0.6814 -0.1873
 5606SOL    HW128280   0.855   3.312   6.120 -0.1925 -0.0626 -1.1248
 5606SOL    HW228281   0.750   3.263   6.207  0.1043 -0.3752  0.0459
 5607SOL     OW28282   2.706   1.692   0.024 -0.1838  0.1694 -0.1457
 5607SOL    HW128283   2.730   1.759   0.088 -0.0079 -2.1190  2.1755
 5607SOL    HW228284   2.787   1.641   0.033 -0.3800  0.0462  0.8661
 5608SOL     OW28285   3.337   3.365   5.465 -0.2928 -0.0897  0.0388
 5608SOL    HW128286   3.289   3.429   5.414  0.3510 -0.9761 -1.6666
 5608SOL    HW228287   3.318   3.384   5.557 -0.6104 -0.8641  0.1331
 5609SOL     OW28288   0.567   1.141   3.175 -0.1395  0.2053 -0.0878
 5609SOL    HW128289   0.645   1.138   3.229  0.5217  2.0176 -0.9463
 5609SOL    HW228290   0.539   1.228   3.202  1.7155  0.5825  0.6012
 5610SOL     OW28291   2.163   0.722  14.178  0.3589  0.1689 -0.4408
 5610SOL    HW128292   2.218   0.795  14.148 -1.0572  1.1683 -0.6278
 5610SOL    HW228293   2.089   0.768  14.218  0.6685 -0.7507  1.1662
 5611SOL     OW28294   4.681   0.849   5.919 -0.4861 -0.5412  0.4473
 5611SOL    HW128295   0.004   0.828   5.835 -0.2142  1.8979 -0.0179
 5611SOL    HW228296   4.623   0.773   5.926 -1.1784 -0.0976 -0.6281
 5612SOL     OW28297   2.915   2.870   8.312  0.4928 -0.2128  0.3313
 5612SOL    HW128298   2.874   2.784   8.320  1.3954 -0.6016  0.7810
 5612SOL    HW228299   2.907   2.895   8.404 -0.9672 -1.2703  0.4955
 5613SOL     OW28300   2.057   3.564   4.936  0.3878  0.1124  0.0512
 5613SOL    HW128301   2.059   3.493   4.873  1.5410 -1.1458  1.5153
 5613SOL    HW228302   2.138   3.552   4.986 -1.4146 -1.2933  2.6319
 5614SOL     OW28303   0.555   1.967  10.174  0.3719 -0.7332 -0.0307
 5614SOL    HW128304   0.491   2.001  10.236  0.2077  0.1939 -0.7056
 5614SOL    HW228305   0.603   1.911  10.234  0.8572 -0.4540 -0.1606
 5615SOL     OW28306   1.931   1.609   1.504  0.1851  0.1317  0.3692
 5615SOL    HW128307   1.917   1.674   1.573  0.0245  1.3906 -0.8473
 5615SOL    HW228308   1.923   1.664   1.426 -0.8899 -1.8079 -0.8682
 5616SOL     OW28309   3.854   1.962   7.081  0.2847 -0.1213 -0.6634
 5616SOL    HW128310   3.790   1.896   7.054 -0.5513  1.0487 -1.5110
 5616SOL    HW228311   3.857   1.952   7.176  1.7383  1.7119 -0.5198
 5617SOL     OW28312   0.865   0.227   3.300 -0.2328 -0.6049  0.4553
 5617SOL    HW128313   0.924   0.223   3.225 -1.5115  2.4336 -0.7364
 5617SOL    HW228314   0.788   0.183   3.266 -2.2799  2.7262  0.7535
 5618SOL     OW28315   1.128   0.560  14.191 -0.2070  0.3374 -0.2400
 5618SOL    HW128316   1.110   0.647  14.227 -0.5214 -0.7084  2.1639
 5618SOL    HW228317   1.063   0.564  14.120  0.0685 -1.3211 -0.5815
 5619SOL     OW28318   0.793   1.878   5.718 -0.4601 -0.5773  0.2499
 5619SOL    HW128319   0.708   1.862   5.676 -0.0077 -2.1468 -0.0729
 5619SOL    HW228320   0.844   1.900   5.640  2.7805  0.3101  2.6271
 5620SOL     OW28321   1.376   1.018  11.064  0.9512  0.6940 -0.8988
 5620SOL    HW128322   1.398   1.028  10.972  0.9435 -2.4783 -1.2253
 5620SOL    HW228323   1.440   0.955  11.096 -2.7125 -1.9800  1.1949
 5621SOL     OW28324   0.254   2.216   5.350  0.0546  0.5263 -0.0830
 5621SOL    HW128325   0.251   2.310   5.333 -1.2063  0.2972 -1.1690
 5621SOL    HW228326   0.199   2.178   5.281  0.6314 -2.7580  1.2789
 5622SOL     OW28327   2.843   3.967   5.473  0.0968 -0.4215 -0.3601
 5622SOL    HW128328   2.770   3.912   5.443  1.0983 -1.5096 -0.8114
 5622SOL    HW228329   2.885   3.992   5.391  1.3956 -0.9949  0.1250
 5623SOL     OW28330   1.160   0.677   3.213  0.7576 -0.3304 -0.0572
 5623SOL    HW128331   1.249   0.698   3.241  0.9748  0.5679 -1.4614
 5623SOL    HW228332   1.135   0.633   3.295  1.4587 -2.3616 -0.9411
 5624SOL     OW28333   1.219   4.546   9.176 -0.3275 -0.4320  0.0988
 5624SOL    HW128334   1.189   4.625   9.131  1.1549 -0.5876 -1.2088
 5624SOL    HW228335   1.134   4.504   9.170 -0.1738 -0.9024  1.2339
 5625SOL     OW28336   1.728   0.426   8.246  0.4049  0.3711  0.4463
 5625SOL    HW128337   1.674   0.384   8.313 -0.7011  0.9153 -0.1155
 5625SOL    HW228338   1.710   0.364   8.175 -1.9122  0.5917  0.8503
 5626SOL     OW28339   1.033   2.112   4.918 -0.5913 -0.1088 -0.4919
 5626SOL    HW128340   1.025   2.110   5.013  2.0390 -0.6955 -0.3000
 5626SOL    HW228341   1.016   2.205   4.900 -1.4816 -0.1383  0.1905
 5627SOL     OW28342   3.922   0.381   6.076 -0.1073  0.0948 -0.0944
 5627SOL    HW128343   3.902   0.366   6.168 -1.1507 -0.4805 -0.4101
 5627SOL    HW228344   3.872   0.461   6.058 -1.0110  0.2051  2.9263
 5628SOL     OW28345   2.818   1.575   7.408 -0.0518 -0.2173  0.1190
 5628SOL    HW128346   2.747   1.629   7.372 -0.2240 -0.9394 -0.6330
 5628SOL    HW228347   2.769   1.497   7.433 -2.7249  1.6989  0.8347
 5629SOL     OW28348   1.731   0.801   1.606  0.0235 -0.3022  0.3992
 5629SOL    HW128349   1.653   0.805   1.661 -1.9214  0.3748 -2.3978
 5629SOL    HW228350   1.727   0.878   1.550  0.2583  0.1603  1.0183
 5630SOL     OW28351   1.496   2.314  16.818  0.5273  0.0364 -0.3182
 5630SOL    HW128352   1.494   2.264  16.736  2.1626 -0.5955  0.0236
 5630SOL    HW228353   1.447   2.256  16.877 -0.0056 -0.4113 -1.2042
 5631SOL     OW28354   3.192   4.207  15.232 -0.2969 -0.2773  0.2163
 5631SOL    HW128355   3.109   4.243  15.263  0.6776  1.2966  1.0576
 5631SOL    HW228356   3.201   4.259  15.153  1.2219  0.3556  0.8000
 5632SOL     OW28357   0.981   4.659   3.008  0.3740  0.1644 -0.6189
 5632SOL    HW128358   0.990   4.578   2.958 -3.7332 -0.6285 -0.0267
 5632SOL    HW228359   0.902   4.641   3.058  1.2339 -2.9777 -0.4069
 5633SOL     OW28360   0.971   4.169   9.790  0.3600 -0.2311  0.1524
 5633SOL    HW128361   0.918   4.090   9.803  1.5451 -0.8392  1.2649
 5633SOL    HW228362   1.055   4.134   9.760 -0.9346 -2.1421 -1.2216
 5634SOL     OW28363   4.517   3.142   9.182 -0.5798 -0.4820  0.6398
 5634SOL    HW128364   4.544   3.073   9.122 -0.7126 -0.8445  1.0007
 5634SOL    HW228365   4.531   3.221   9.130 -2.5091 -0.0746  0.7589
 5635SOL     OW28366   2.358   2.316   6.457 -0.0417  0.4252  0.1397
 5635SOL    HW128367   2.272   2.278   6.473  0.1575 -0.5431 -1.0704
 5635SOL    HW228368   2.409   2.236   6.469 -0.7159 -0.1439 -0.8146
 5636SOL     OW28369   0.489   3.289   6.058 -0.6459  0.1875  0.1358
 5636SOL    HW128370   0.584   3.285   6.061 -0.7125 -1.7210 -0.3290
 5636SOL    HW228371   0.463   3.310   6.148  3.6825  1.6288  1.0021
 5637SOL     OW28372   2.082   4.144  14.653  0.4694  0.1631  0.3579
 5637SOL    HW128373   2.020   4.188  14.594  1.4240  0.0131 -0.7568
 5637SOL    HW228374   2.057   4.052  14.658  0.6324  0.1415  0.7938
 5638SOL     OW28375   1.352   2.162  16.970  0.2986  0.0973 -0.0664
 5638SOL    HW128376   1.370   2.120  17.054 -0.1029 -2.0859 -1.0574
 5638SOL    HW228377   1.305   2.087  16.933 -2.1804  1.5179  0.2328
 5639SOL     OW28378   2.046   4.086   4.117  0.1430 -0.5428 -0.0059
 5639SOL    HW128379   2.102   4.146   4.068 -0.2426  1.1404  1.5813
 5639SOL    HW228380   2.112   4.031   4.159  0.3898 -0.8191 -0.7631
 5640SOL     OW28381   0.501   2.400  15.222 -0.1506 -0.2714  0.0229
 5640SOL    HW128382   0.580   2.361  15.260 -2.0100 -0.4772  3.6324
 5640SOL    HW228383   0.496   2.484  15.267  1.0175 -0.4248  0.4346
 5641SOL     OW28384   3.327   0.518   3.559  0.7343  0.8617 -0.0326
 5641SOL    HW128385   3.302   0.513   3.652 -1.3855  0.5846 -0.6057
 5641SOL    HW228386   3.248   0.559   3.524 -2.0385 -2.4943  2.1792
 5642SOL     OW28387   0.728   4.385   1.835 -0.1166 -0.0766  0.1162
 5642SOL    HW128388   0.652   4.400   1.779 -0.7371 -0.5996  0.8185
 5642SOL    HW228389   0.706   4.433   1.915 -0.2801  1.1801 -0.6827
 5643SOL     OW28390   3.106   2.850   3.005 -0.2408  0.4957 -0.5791
 5643SOL    HW128391   3.151   2.887   3.081  1.2601 -0.0083 -1.2300
 5643SOL    HW228392   3.094   2.934   2.960 -1.1201 -0.0666 -1.3941
 5644SOL     OW28393   2.416   2.585  11.775 -0.1657 -0.2871  0.1266
 5644SOL    HW128394   2.412   2.491  11.757 -0.6441 -0.1987 -0.2378
 5644SOL    HW228395   2.370   2.617  11.697 -2.2243  0.3236  1.6121
 5645SOL     OW28396   2.032   4.149   6.986  0.1407 -0.0325  0.1044
 5645SOL    HW128397   2.114   4.188   6.954 -0.6452 -0.1373 -1.9794
 5645SOL    HW228398   1.973   4.174   6.916 -0.9855 -0.9414  0.7256
 5646SOL     OW28399   2.510   0.753   7.578  0.5790 -0.3237 -0.0349
 5646SOL    HW128400   2.532   0.827   7.521  0.7621  0.8478  1.5802
 5646SOL    HW228401   2.422   0.738   7.542  0.5834 -2.0172  0.6852
 5647SOL     OW28402   0.796   3.230   4.695 -0.8032 -0.0237 -0.1598
 5647SOL    HW128403   0.803   3.278   4.612 -0.5675  1.6245  0.8121
 5647SOL    HW228404   0.745   3.301   4.734 -2.2547 -1.5126  0.6556
 5648SOL     OW28405   1.847   0.810  16.867  0.2470  0.4523 -0.3237
 5648SOL    HW128406   1.840   0.862  16.947 -1.1536 -1.9220  1.0797
 5648SOL    HW228407   1.902   0.734  16.887  1.1980  1.0712 -0.5694
 5649SOL     OW28408   3.598   0.071   6.367  0.0300 -0.3818  0.0931
 5649SOL    HW128409   3.507   0.097   6.380 -0.1189 -1.6567  1.6065
 5649SOL    HW228410   3.606   0.080   6.272  0.0464 -1.6260 -0.0199
 5650SOL     OW28411   0.708   4.577   4.669 -0.0207  0.5776 -0.0734
 5650SOL    HW128412   0.748   4.490   4.679 -1.0189  0.2072  0.7327
 5650SOL    HW228413   0.711   4.587   4.574  0.5013 -2.4950 -0.3772
 5651SOL     OW28414   1.612   1.775  12.056 -0.1814  0.2392  0.2336
 5651SOL    HW128415   1.576   1.816  11.978 -1.3861 -0.8048  0.2413
 5651SOL    HW228416   1.633   1.690  12.016 -3.1971 -0.9206  1.1130
 5652SOL     OW28417   4.361   1.296   6.770  0.5493 -0.3877  0.1279
 5652SOL    HW128418   4.330   1.352   6.841  0.6838  1.1731 -1.0307
 5652SOL    HW228419   4.427   1.246   6.817  1.6164 -0.9439 -1.9488
 5653SOL     OW28420   1.105   2.354  13.784  0.1240  0.2443 -1.2521
 5653SOL    HW128421   1.150   2.336  13.701 -0.6283 -1.1352 -1.3579
 5653SOL    HW228422   1.122   2.448  13.789  3.7092 -0.3830 -1.3934
 5654SOL     OW28423   0.284   4.014   2.266 -0.4527  0.4134  0.0935
 5654SOL    HW128424   0.233   3.951   2.318  1.3927 -0.1146  1.2430
 5654SOL    HW228425   0.246   4.098   2.291  1.7617  0.9865  1.5417
 5655SOL     OW28426   3.054   4.451   2.349 -0.0261  0.9739 -0.1292
 5655SOL    HW128427   2.966   4.469   2.316  0.1357  1.3612 -0.3417
 5655SOL    HW228428   3.033   4.440   2.442 -1.3638  0.8338 -0.4418
 5656SOL     OW28429   1.183   2.386  16.384 -0.6348 -0.0733  0.4409
 5656SOL    HW128430   1.192   2.475  16.418 -0.9607  0.6783 -1.3961
 5656SOL    HW228431   1.110   2.352  16.434  0.1089  1.3159  2.4587
 5657SOL     OW28432   4.490   1.382   5.993 -0.2398 -0.0878 -0.6880
 5657SOL    HW128433   4.514   1.364   6.083 -1.2800  2.2760  0.0618
 5657SOL    HW228434   4.452   1.299   5.963  1.3427 -0.9583 -0.2254
 5658SOL     OW28435   3.865   1.540   8.416 -0.3532 -0.2977  0.4133
 5658SOL    HW128436   3.927   1.576   8.479  1.1734  0.2220 -1.3909
 5658SOL    HW228437   3.782   1.561   8.460 -0.7353 -0.1840 -0.3712
 5659SOL     OW28438   0.506   4.011   5.140  0.4242  0.2478  0.5831
 5659SOL    HW128439   0.568   3.988   5.071  1.3177  1.3589  1.0272
 5659SOL    HW228440   0.433   4.039   5.085  0.9973 -1.7036 -1.1493
 5660SOL     OW28441   4.696   1.192  12.883 -0.6226 -0.0388 -0.4874
 5660SOL    HW128442   0.050   1.136  12.912 -0.2523  0.5626 -0.2661
 5660SOL    HW228443   4.678   1.248  12.958  0.0632  0.6884 -0.8701
 5661SOL     OW28444   3.358   4.572   6.249  0.5287 -0.1153 -0.1497
 5661SOL    HW128445   3.375   4.568   6.155 -2.5758  0.2424 -0.7309
 5661SOL    HW228446   3.334   4.485   6.280  1.2053  0.9057  3.2053
 5662SOL     OW28447   3.391   1.582   7.056 -0.0071  0.4004 -0.1669
 5662SOL    HW128448   3.345   1.639   7.118 -0.8481 -0.0839 -0.3371
 5662SOL    HW228449   3.462   1.552   7.113 -1.9378 -1.9872  1.0095
 5663SOL     OW28450   2.933   1.637   6.241  0.4111 -0.2357  0.0742
 5663SOL    HW128451   3.009   1.622   6.298 -0.7338 -0.8607  1.4364
 5663SOL    HW228452   2.921   1.728   6.270 -1.5359 -0.6694  0.6282
 5664SOL     OW28453   2.061   3.736   8.689 -0.0913  0.5725  0.0083
 5664SOL    HW128454   2.076   3.694   8.774  2.0069 -1.9431 -1.5931
 5664SOL    HW228455   1.978   3.694   8.665  0.6824 -0.2395 -1.1726
 5665SOL     OW28456   0.022   0.150   6.060  0.3318  0.6597 -0.2510
 5665SOL    HW128457   0.016   0.182   5.970  2.0053  0.0408 -0.5842
 5665SOL    HW228458   0.077   0.210   6.109 -1.5269  0.8976  1.5422
 5666SOL     OW28459   1.032   2.564   9.231  0.1869  0.2480 -0.1173
 5666SOL    HW128460   1.114   2.516   9.240 -0.6471 -0.6845  2.5363
 5666SOL    HW228461   1.019   2.601   9.319  0.5362 -0.8581  0.4044
 5667SOL     OW28462   1.827   4.016   7.716  0.0880  0.0929 -0.3217
 5667SOL    HW128463   1.803   4.096   7.763 -0.4924 -0.8388  0.9846
 5667SOL    HW228464   1.889   4.047   7.651  0.3129 -1.4412 -0.8331
 5668SOL     OW28465   2.784   3.078  16.933 -0.0024 -0.0053 -0.2810
 5668SOL    HW128466   2.832   3.022  16.872  1.4456  0.8652  0.0501
 5668SOL    HW228467   2.800   3.156  16.880  0.5154 -0.0360 -0.1735
 5669SOL     OW28468   2.561   2.190  10.932  0.1325 -0.2543 -0.6176
 5669SOL    HW128469   2.477   2.233  10.918  0.2326  0.6983  1.6660
 5669SOL    HW228470   2.610   2.239  10.865  0.2376  0.6402  0.1061
 5670SOL     OW28471   4.283   3.256   7.577  0.7804 -0.1345  0.2498
 5670SOL    HW128472   4.356   3.285   7.631  2.4287 -0.5734 -1.7292
 5670SOL    HW228473   4.301   3.163   7.567 -0.6120 -0.4997  1.1619
 5671SOL     OW28474   4.548   3.148   5.562 -0.5297 -0.0956  0.0367
 5671SOL    HW128475   4.525   3.071   5.510 -1.3119  0.1900 -0.0514
 5671SOL    HW228476   4.466   3.194   5.544 -1.0020 -1.2765 -0.8862
 5672SOL     OW28477   3.579   1.225   1.239 -0.0220 -0.2847  0.1781
 5672SOL    HW128478   3.517   1.288   1.275  0.2432 -1.0004  1.8974
 5672SOL    HW228479   3.589   1.265   1.152 -3.4543  0.8044  0.3105
 5673SOL     OW28480   4.260   1.003   5.268 -0.1532  0.4821  0.7122
 5673SOL    HW128481   4.302   0.925   5.305  2.7347  0.6067 -2.3506
 5673SOL    HW228482   4.194   1.018   5.336 -0.5090 -1.2025  0.7335
 5674SOL     OW28483   0.656   3.080   3.898  0.2783 -0.2137  0.3336
 5674SOL    HW128484   0.663   3.002   3.953 -0.4444 -1.5600 -1.5251
 5674SOL    HW228485   0.563   3.097   3.910  0.0181  0.6948 -3.1995
 5675SOL     OW28486   1.794   2.775   3.388 -0.1748  0.6086 -0.0250
 5675SOL    HW128487   1.820   2.725   3.466 -0.4512 -1.1600 -1.0579
 5675SOL    HW228488   1.839   2.725   3.319 -1.9073  0.2231 -0.8833
 5676SOL     OW28489   3.134   3.506   9.065  0.5790  0.0931  0.1366
 5676SOL    HW128490   3.223   3.522   9.034  1.9125 -1.5309  3.1739
 5676SOL    HW228491   3.079   3.565   9.013  0.4567  0.0423  0.2091
 5677SOL     OW28492   1.814   3.440   6.523  0.0604  0.6035 -0.0081
 5677SOL    HW128493   1.819   3.353   6.564  0.8498  1.5919  2.0145
 5677SOL    HW228494   1.727   3.426   6.486  0.1800 -2.1635  0.7639
 5678SOL     OW28495   0.094   2.773  16.114 -0.0882  0.4324  0.3458
 5678SOL    HW128496   0.094   2.680  16.139 -0.2291  0.1466 -0.7206
 5678SOL    HW228497   0.001   2.794  16.119 -0.0104  1.0762 -0.7859
 5679SOL     OW28498   0.189   4.084   4.520 -0.3155  0.2045  0.3832
 5679SOL    HW128499   0.175   4.069   4.614  1.3200  1.9936  0.9193
 5679SOL    HW228500   0.206   4.178   4.526 -0.2176  0.1148  1.6448
 5680SOL     OW28501   4.195   3.064   2.118  0.3303  0.1269 -0.5304
 5680SOL    HW128502   4.172   3.156   2.105 -2.5760 -0.4699  0.5173
 5680SOL    HW228503   4.275   3.056   2.066  1.7987 -1.5419  1.9574
 5681SOL     OW28504   1.597   2.071   4.732 -0.3311  0.5292 -1.0383
 5681SOL    HW128505   1.510   2.069   4.693 -1.2373 -0.6854  1.0682
 5681SOL    HW228506   1.647   2.117   4.664 -1.7696 -1.3277 -3.3389
 5682SOL     OW28507   3.291   2.272   7.289 -0.2789  0.5958 -0.0639
 5682SOL    HW128508   3.348   2.325   7.344  0.8980 -1.4285  0.6753
 5682SOL    HW228509   3.324   2.306   7.205  0.5475  0.3677  0.1755
 5683SOL     OW28510   2.072   3.018   1.561 -0.0927 -0.8053 -0.3088
 5683SOL    HW128511   1.988   3.062   1.562 -0.2044 -1.0123 -1.0442
 5683SOL    HW228512   2.062   2.969   1.479 -2.1675 -0.8626 -0.0129
 5684SOL     OW28513   0.326   0.265   6.753 -0.2376  1.0777 -0.2028
 5684SOL    HW128514   0.323   0.227   6.841  2.2619 -0.3237 -0.7339
 5684SOL    HW228515   0.414   0.231   6.735 -0.0614  2.3844 -1.7788
 5685SOL     OW28516   0.459   0.310   2.047  0.1341 -0.3953  0.0341
 5685SOL    HW128517   0.389   0.283   1.987 -1.0566  1.8931  0.3852
 5685SOL    HW228518   0.411   0.375   2.099  0.6465 -0.6735  0.8541
 5686SOL     OW28519   0.807   1.201   7.848  0.0670  0.0312  0.5209
 5686SOL    HW128520   0.753   1.148   7.790  1.5076  0.3411 -1.1076
 5686SOL    HW228521   0.894   1.161   7.842  0.0550  0.1203 -0.2264
 5687SOL     OW28522   4.399   0.563   8.543  0.5619  0.5869  0.0670
 5687SOL    HW128523   4.313   0.602   8.557  0.4928  0.8066 -0.9146
 5687SOL    HW228524   4.400   0.487   8.601 -0.9974  0.6817  0.2046
 5688SOL     OW28525   2.145   2.731   5.636  0.5018  0.1649  0.2735
 5688SOL    HW128526   2.095   2.798   5.590  0.2465  0.7659  1.4196
 5688SOL    HW228527   2.195   2.684   5.569  0.6540  0.4502  0.1848
 5689SOL     OW28528   3.163   4.231  15.812  0.2500 -0.1392 -0.7614
 5689SOL    HW128529   3.082   4.223  15.763  0.7558 -2.4355 -1.2250
 5689SOL    HW228530   3.238   4.224  15.754  1.4806 -1.0993  0.9268
 5690SOL     OW28531   3.479   3.907   3.780  0.3683 -0.7511  0.1738
 5690SOL    HW128532   3.394   3.925   3.740  0.4478  0.4192  0.5370
 5690SOL    HW228533   3.505   3.825   3.738 -0.4234  0.1654 -2.0819
 5691SOL     OW28534   0.904   1.382   2.149 -0.2113 -0.6925 -0.7521
 5691SOL    HW128535   0.926   1.425   2.067 -1.0204 -0.3074 -0.7666
 5691SOL    HW228536   0.975   1.410   2.208 -0.2737 -2.2834  0.0723
 5692SOL     OW28537   0.202   2.261  16.541  0.4595 -0.2361  0.0869
 5692SOL    HW128538   0.254   2.287  16.465  0.6756 -1.1519 -0.0776
 5692SOL    HW228539   0.259   2.274  16.616  1.4757 -0.1300 -0.7012
 5693SOL     OW28540   0.331   3.209  12.402  0.2773  0.7457 -0.3975
 5693SOL    HW128541   0.427   3.208  12.412  0.1489 -0.5394  0.5793
 5693SOL    HW228542   0.303   3.171  12.484 -0.9608  1.6842 -0.3891
 5694SOL     OW28543   1.375   1.006   0.210  0.3979 -1.2026 -0.6401
 5694SOL    HW128544   1.300   1.021   0.152  0.3265 -0.3814 -0.3405
 5694SOL    HW228545   1.421   1.078   0.168  1.2555 -0.6775  1.2101
 5695SOL     OW28546   1.251   0.895   3.774 -0.0786 -0.4996  0.4209
 5695SOL    HW128547   1.235   0.805   3.800 -0.8363 -0.5426 -0.1832
 5695SOL    HW228548   1.263   0.938   3.859  2.8126  0.8096 -0.6320
 5696SOL     OW28549   0.525   1.887   3.962  0.5282  0.2417  0.2165
 5696SOL    HW128550   0.527   1.965   3.905 -0.4347 -1.3303 -1.9821
 5696SOL    HW228551   0.597   1.838   3.924 -1.0230 -0.4569 -1.8352
 5697SOL     OW28552   2.725   1.617  11.722  0.5178  0.7742 -0.0598
 5697SOL    HW128553   2.661   1.556  11.684  1.2703 -0.7843  1.1584
 5697SOL    HW228554   2.805   1.589  11.678  0.9552 -0.0405  1.2427
 5698SOL     OW28555   4.105   3.385   7.960  0.2927  0.5594 -0.2736
 5698SOL    HW128556   4.059   3.457   8.003 -2.1137 -0.9355 -0.3218
 5698SOL    HW228557   4.086   3.301   8.002  0.4289  0.7853  0.2386
 5699SOL     OW28558   2.996   4.225  12.987  0.3989 -0.0902 -0.0386
 5699SOL    HW128559   3.030   4.239  13.075  0.7890  0.1272 -0.2207
 5699SOL    HW228560   2.901   4.231  12.997  0.2360 -3.0904  0.0693
 5700SOL     OW28561   0.872   0.548   5.899 -0.0374 -0.2453 -0.1786
 5700SOL    HW128562   0.781   0.530   5.875 -0.2827 -0.5619  1.0111
 5700SOL    HW228563   0.908   0.461   5.879 -0.3084 -0.7096  1.3554
 5701SOL     OW28564   0.908   3.242   1.717  0.2630  0.6920 -0.6050
 5701SOL    HW128565   0.928   3.164   1.666 -1.7421 -0.2198  0.0332
 5701SOL    HW228566   0.866   3.288   1.645  0.2278 -1.2736 -1.8518
 5702SOL     OW28567   0.347   1.428   5.901 -0.1156 -0.0815  0.0370
 5702SOL    HW128568   0.416   1.374   5.864 -1.4343 -0.7197 -1.4771
 5702SOL    HW228569   0.305   1.463   5.822  0.7282  1.4881  0.2806
 5703SOL     OW28570   2.804   2.205  14.196  0.2407 -0.0976 -0.1271
 5703SOL    HW128571   2.840   2.267  14.133  2.3784 -0.8031  0.3746
 5703SOL    HW228572   2.711   2.225  14.207 -0.2079 -1.5082 -1.3693
 5704SOL     OW28573   4.046   3.443   5.191  0.3248 -0.3104  0.0320
 5704SOL    HW128574   3.973   3.500   5.214 -1.3909 -1.1063 -3.5822
 5704SOL    HW228575   4.013   3.407   5.109 -0.7550  1.2385 -0.2062
 5705SOL     OW28576   4.143   2.982  12.342  0.5613  0.0442 -0.1589
 5705SOL    HW128577   4.099   3.007  12.424 -0.5605  0.0373 -0.7680
 5705SOL    HW228578   4.120   3.043  12.272  1.2199 -0.1916 -0.5877
 5706SOL     OW28579   1.246   3.190   6.051  0.1658  0.5751  0.0661
 5706SOL    HW128580   1.319   3.146   6.094 -1.5336 -0.6192  1.7194
 5706SOL    HW228581   1.295   3.221   5.975 -0.1506 -1.2289 -0.8465
 5707SOL     OW28582   1.011   0.301   4.281  0.2834  0.1983  0.7077
 5707SOL    HW128583   1.033   0.282   4.190  0.5350 -2.3341  1.3145
 5707SOL    HW228584   0.944   0.369   4.267  0.8403  0.4156 -0.8787
 5708SOL     OW28585   3.922   4.055  16.998  0.1098  0.6151  0.4873
 5708SOL    HW128586   4.005   4.102  17.007  1.0099 -1.0516  0.9258
 5708SOL    HW228587   3.905   4.056  16.903 -0.1978  0.3029  0.5396
 5709SOL     OW28588   4.351   1.212  10.133  0.2968 -0.0010  0.0939
 5709SOL    HW128589   4.444   1.214  10.109  0.0907 -1.2465 -0.8538
 5709SOL    HW228590   4.310   1.184  10.051 -0.3179 -0.0545  0.4173
 5710SOL     OW28591   3.293   0.567   2.194 -0.3396  0.4051  0.0023
 5710SOL    HW128592   3.326   0.574   2.104  1.9988  0.0935  0.8539
 5710SOL    HW228593   3.338   0.646   2.225  0.2637 -0.3781  1.0956
 5711SOL     OW28594   4.597   4.351   8.249  0.6648  0.0682 -0.2381
 5711SOL    HW128595   4.520   4.369   8.302  0.0386 -2.4653 -0.2772
 5711SOL    HW228596   4.620   4.434   8.207  0.2706  0.3224  0.0504
 5712SOL     OW28597   1.763   0.502   2.652  0.1560 -0.5838  0.3679
 5712SOL    HW128598   1.690   0.523   2.594 -1.2712 -0.9882  2.0292
 5712SOL    HW228599   1.727   0.455   2.727 -1.7861  0.2428 -0.0401
 5713SOL     OW28600   1.559   2.444   8.282 -0.2382 -0.0030 -0.2254
 5713SOL    HW128601   1.526   2.532   8.302 -2.7840 -0.9046 -0.5037
 5713SOL    HW228602   1.510   2.394   8.347 -2.8714 -0.2073 -2.3736
 5714SOL     OW28603   1.312   0.112  12.940  0.0130  0.8172 -0.0204
 5714SOL    HW128604   1.401   0.085  12.964  0.5446  1.8593 -0.8080
 5714SOL    HW228605   1.331   0.117  12.846  0.9535  0.0870  0.1270
 5715SOL     OW28606   0.660   0.869  10.927 -0.5213  0.0899 -0.2992
 5715SOL    HW128607   0.710   0.949  10.906  1.5161 -1.0044  0.3636
 5715SOL    HW228608   0.580   0.909  10.960 -1.5267 -2.1931  0.0283
 5716SOL     OW28609   3.969   3.972   3.108 -0.4168  0.3934  0.2481
 5716SOL    HW128610   3.903   3.909   3.080  1.8289 -1.5723 -0.6615
 5716SOL    HW228611   4.044   3.912   3.103 -1.2889 -0.6592 -0.1377
 5717SOL     OW28612   0.502   0.851  15.591 -0.4221 -0.3232  0.3233
 5717SOL    HW128613   0.532   0.802  15.668  0.9972 -0.0776 -0.0668
 5717SOL    HW228614   0.579   0.907  15.578 -0.9582 -0.0335 -1.5696
 5718SOL     OW28615   1.739   1.767   6.471  0.2393 -0.0170 -0.1679
 5718SOL    HW128616   1.718   1.675   6.485  0.7684 -0.0087  0.6952
 5718SOL    HW228617   1.746   1.803   6.560  1.7044 -1.4825  0.3141
 5719SOL     OW28618   3.269   0.607   8.422 -0.2218  0.3006 -0.3283
 5719SOL    HW128619   3.222   0.690   8.430 -0.2221  0.5269 -2.7305
 5719SOL    HW228620   3.232   0.555   8.494 -3.0869  2.1659 -0.4467
 5720SOL     OW28621   0.883   2.989  12.962  0.0577 -0.0038  0.5103
 5720SOL    HW128622   0.843   3.001  13.048  0.6231 -0.3008  0.8088
 5720SOL    HW228623   0.809   2.961  12.908 -1.5776  2.3223  1.5706
 5721SOL     OW28624   2.223   3.695   3.687 -0.6439 -0.3724  0.6957
 5721SOL    HW128625   2.131   3.687   3.711 -1.6171 -0.6374 -3.1353
 5721SOL    HW228626   2.215   3.691   3.592  1.3164 -1.1009  0.5574
 5722SOL     OW28627   3.227   0.581   4.612  0.3362 -0.0495 -0.1485
 5722SOL    HW128628   3.202   0.631   4.534 -0.1921  0.0741  0.1007
 5722SOL    HW228629   3.296   0.634   4.651  0.8726 -0.9811  0.1522
 5723SOL     OW28630   1.885   3.369   3.242 -0.3649  0.1820 -0.0240
 5723SOL    HW128631   1.975   3.387   3.272 -1.0893  2.0860  1.0278
 5723SOL    HW228632   1.876   3.274   3.253 -1.5802  0.2791 -0.2533
 5724SOL     OW28633   1.565   1.358   7.740 -0.2065 -0.7193  0.2344
 5724SOL    HW128634   1.520   1.275   7.753  0.9091 -1.4380 -0.4523
 5724SOL    HW228635   1.556   1.398   7.827 -1.2174  3.1430 -1.6270
 5725SOL     OW28636   4.654   4.694   4.562 -0.4696  0.1695  0.8650
 5725SOL    HW128637   4.670   4.616   4.616 -0.2983  0.4045  1.1536
 5725SOL    HW228638   4.636   4.660   4.474  0.4457 -3.1671  1.9467
 5726SOL     OW28639   3.019   2.565   4.921  0.4827  0.9130 -0.3555
 5726SOL    HW128640   3.026   2.473   4.893 -1.3210 -0.2450  3.1179
 5726SOL    HW228641   3.050   2.602   4.838  1.8170 -0.5741 -0.5284
 5727SOL     OW28642   1.682   0.369   4.890  0.3347 -0.4097  0.4771
 5727SOL    HW128643   1.665   0.275   4.886 -1.7216 -0.0011 -0.5629
 5727SOL    HW228644   1.644   0.382   4.802  0.8473  2.6452  0.6880
 5728SOL     OW28645   2.955   4.052   9.045 -0.1803  0.8146  0.5765
 5728SOL    HW128646   3.015   4.126   9.045 -1.1006  1.5675  0.7054
 5728SOL    HW228647   2.932   4.021   9.133 -3.5662 -2.1675 -1.3160
 5729SOL     OW28648   4.008   2.290   7.646 -0.1262  0.1866 -0.0204
 5729SOL    HW128649   3.915   2.274   7.632  0.3591 -0.9235 -1.9853
 5729SOL    HW228650   4.054   2.239   7.579 -1.0056 -1.0112  0.3001
 5730SOL     OW28651   2.667   2.978   5.300  0.2743  0.2262 -0.6809
 5730SOL    HW128652   2.605   3.026   5.246 -1.6954  0.2601  1.6008
 5730SOL    HW228653   2.739   2.975   5.238  0.3431  2.0665 -0.6649
 5731SOL     OW28654   0.383   2.705   8.983  0.2506  0.9245  0.4223
 5731SOL    HW128655   0.304   2.652   8.987  0.2675  0.8588 -0.0764
 5731SOL    HW228656   0.422   2.671   9.063  3.7482  0.3938 -1.4861
 5732SOL     OW28657   0.231   1.679   4.206 -0.8964 -0.0390  0.0324
 5732SOL    HW128658   0.236   1.775   4.211  0.3382 -0.2097  1.9671
 5732SOL    HW228659   0.138   1.663   4.220 -1.2276  0.1995 -1.8350
 5733SOL     OW28660   1.360   1.992   6.650 -0.0626  0.3056 -0.1669
 5733SOL    HW128661   1.349   1.910   6.601  1.0607  0.6665 -1.0172
 5733SOL    HW228662   1.272   2.030   6.643 -0.3801 -0.0815  1.6643
 5734SOL     OW28663   2.265   3.024   8.294  0.6298  0.6412  0.3782
 5734SOL    HW128664   2.300   2.960   8.233  1.5441  1.6396 -0.1503
 5734SOL    HW228665   2.238   3.096   8.236 -0.6125  1.0659  1.4702
 5735SOL     OW28666   1.890   0.002  10.292  0.2052 -0.1201  0.3924
 5735SOL    HW128667   1.933   4.683  10.370 -1.7577 -0.5012  1.2891
 5735SOL    HW228668   1.854   0.078  10.337  1.3078 -0.3391  1.6515
 5736SOL     OW28669   2.871   1.773  17.250  0.4758  0.0597 -0.1651
 5736SOL    HW128670   2.886   1.859  17.290  1.2379 -0.7241  1.2461
 5736SOL    HW228671   2.851   1.712  17.321 -0.3055  0.4192 -0.0732
 5737SOL     OW28672   1.333   3.063  16.295  0.2285  0.1158  0.1646
 5737SOL    HW128673   1.287   2.979  16.300  0.5782 -0.0832 -0.0062
 5737SOL    HW228674   1.371   3.068  16.208  0.8598  0.3265  0.4566
 5738SOL     OW28675   4.143   1.265   5.087  0.2335 -0.1886  0.1508
 5738SOL    HW128676   4.206   1.196   5.108 -0.4394 -0.6049  0.8002
 5738SOL    HW228677   4.135   1.313   5.170 -0.8721  0.2969 -0.2437
 5739SOL     OW28678   3.959   1.503   5.035 -0.4818 -0.5898  0.1595
 5739SOL    HW128679   3.914   1.587   5.046 -2.3788 -1.7439  1.1673
 5739SOL    HW228680   4.031   1.524   4.976 -1.0664 -0.2716 -0.4333
 5740SOL     OW28681   2.923   0.578   8.408  0.3624 -0.6657  0.0911
 5740SOL    HW128682   2.973   0.572   8.490  0.6987 -0.3603 -0.0955
 5740SOL    HW228683   2.962   0.513   8.349  0.9611  0.4580 -0.7352
 5741SOL     OW28684   4.662   2.319   7.016  0.3662  0.5143  0.1872
 5741SOL    HW128685   0.038   2.333   7.029  0.7561 -1.2640 -0.7170
 5741SOL    HW228686   4.662   2.252   7.084  0.7963 -1.9158 -2.2352
 5742SOL     OW28687   0.196   2.745   6.832  0.6047 -0.3360 -0.1176
 5742SOL    HW128688   0.167   2.820   6.885  1.7327  0.1097 -0.1275
 5742SOL    HW228689   0.123   2.716   6.779 -0.1856  0.0940  0.7293
 5743SOL     OW28690   0.849   3.297   9.176  0.5165  0.3034 -0.0024
 5743SOL    HW128691   0.903   3.234   9.225  1.2023  0.5087 -0.5002
 5743SOL    HW228692   0.771   3.247   9.154 -0.4742  1.4436  0.9037
 5744SOL     OW28693   3.810   4.690   3.506 -0.8951 -0.2526 -0.1726
 5744SOL    HW128694   3.737   4.673   3.565 -1.3438 -0.0246 -0.6671
 5744SOL    HW228695   3.783   4.643   3.427  3.2574 -1.5997 -0.7903
 5745SOL     OW28696   3.100   1.751   4.828 -0.7423 -0.0738 -0.2809
 5745SOL    HW128697   3.108   1.784   4.739 -0.0235 -1.7106 -0.8180
 5745SOL    HW228698   3.099   1.836   4.874  0.9513  0.2334 -0.8357
 5746SOL     OW28699   3.883   1.270   5.551  0.1028  0.1816 -0.3030
 5746SOL    HW128700   3.795   1.299   5.527  0.6941  0.6348 -1.9355
 5746SOL    HW228701   3.907   1.346   5.604  1.3164  1.4874 -2.7442
 5747SOL     OW28702   0.775   3.659  11.306  0.5234 -0.2345  0.4911
 5747SOL    HW128703   0.736   3.663  11.393 -0.4961 -0.0802  0.0229
 5747SOL    HW228704   0.845   3.594  11.318  0.5230 -0.8355 -2.8924
 5748SOL     OW28705   3.548   2.544   9.098  0.5489 -0.0169  0.3321
 5748SOL    HW128706   3.471   2.488   9.088 -0.3376  1.8421 -3.0845
 5748SOL    HW228707   3.588   2.509   9.178  1.3086 -2.0808 -0.9361
 5749SOL     OW28708   3.573   4.597   2.445 -0.3200 -0.1501 -0.5941
 5749SOL    HW128709   3.479   4.580   2.458 -0.1834 -0.0250  0.6349
 5749SOL    HW228710   3.569   4.632   2.356 -0.5663 -1.5516 -1.1324
 5750SOL     OW28711   4.308   4.575   9.343 -0.0668  0.1585  0.7733
 5750SOL    HW128712   4.299   4.660   9.299 -0.6297 -0.6402 -0.6425
 5750SOL    HW228713   4.324   4.602   9.434 -1.3820 -0.0755  1.0752
 5751SOL     OW28714   1.152   2.799   5.974 -0.6026 -0.4307  0.5141
 5751SOL    HW128715   1.085   2.850   6.020  1.2320  2.1235  0.3290
 5751SOL    HW228716   1.125   2.707   5.972  0.0567 -0.6093  0.0912
 5752SOL     OW28717   2.056   4.556   1.647 -0.0827 -0.2384  0.2493
 5752SOL    HW128718   1.993   4.498   1.604 -0.4883 -0.0796  0.6228
 5752SOL    HW228719   2.044   4.641   1.606  0.9635 -1.7422 -3.1753
 5753SOL     OW28720   3.726   1.420   3.599  0.7642 -0.4567 -0.9156
 5753SOL    HW128721   3.681   1.348   3.644  0.5472  0.5417  0.4469
 5753SOL    HW228722   3.765   1.373   3.525  0.1644 -1.3291 -0.6856
 5754SOL     OW28723   2.876   0.930   7.667  0.0725  0.9370 -0.3824
 5754SOL    HW128724   2.798   0.912   7.719 -0.3371 -1.3629 -1.8020
 5754SOL    HW228725   2.933   0.939   7.743  1.2673  0.0880 -1.1650
 5755SOL     OW28726   1.694   1.643   1.984  0.4020  0.3004 -0.0893
 5755SOL    HW128727   1.640   1.654   2.062 -0.4525 -1.5063 -0.4296
 5755SOL    HW228728   1.724   1.554   1.999  1.1965  0.7200  0.8493
 5756SOL     OW28729   3.212   0.281   6.916  0.1868 -0.0293  0.7183
 5756SOL    HW128730   3.117   0.269   6.909  0.3619 -1.3377  0.6429
 5756SOL    HW228731   3.218   0.376   6.924  0.4662 -0.0291  0.4772
 5757SOL     OW28732   2.536   1.453  11.610  0.1120  0.0403  0.8391
 5757SOL    HW128733   2.492   1.535  11.589  1.3718  0.0471 -1.8268
 5757SOL    HW228734   2.467   1.393  11.579 -1.1334  2.5579 -1.2253
 5758SOL     OW28735   3.455   2.603   2.581 -0.4884 -0.0757  0.0166
 5758SOL    HW128736   3.482   2.541   2.649  3.0473  1.6330  0.2079
 5758SOL    HW228737   3.379   2.563   2.541  0.1058  0.3214 -1.5307
 5759SOL     OW28738   2.153   0.293   1.785  0.4605  0.3406  0.3271
 5759SOL    HW128739   2.128   0.211   1.742 -0.3437  1.0262 -0.4964
 5759SOL    HW228740   2.248   0.293   1.776  0.4847  0.5141  0.5955
 5760SOL     OW28741   0.289   1.791   9.555  0.2576 -0.1019  0.2939
 5760SOL    HW128742   0.207   1.778   9.603 -0.3210 -0.5360 -0.7928
 5760SOL    HW228743   0.269   1.751   9.470  1.1234  0.5693 -0.2183
 5761SOL     OW28744   2.243   2.430  15.182  0.5436  0.0522  0.9192
 5761SOL    HW128745   2.178   2.489  15.145  0.9595 -0.8635 -1.3218
 5761SOL    HW228746   2.196   2.384  15.251  0.5449 -1.6699 -0.2105
 5762SOL     OW28747   0.179   0.490   8.432 -0.1849  0.4281 -0.1299
 5762SOL    HW128748   0.237   0.456   8.501 -1.1231  1.2141  1.0439
 5762SOL    HW228749   0.156   0.403   8.399 -1.7531  1.1345 -0.9016
 5763SOL     OW28750   2.014   1.575   0.439 -0.2064 -0.1607 -0.1189
 5763SOL    HW128751   1.949   1.589   0.508 -1.5496 -2.5198 -0.8902
 5763SOL    HW228752   2.089   1.563   0.497 -1.7765  4.3067  2.8457
 5764SOL     OW28753   1.540   0.934   6.882  0.0529  0.6721 -0.4555
 5764SOL    HW128754   1.556   0.999   6.814 -0.7086  1.8184  0.4745
 5764SOL    HW228755   1.444   0.925   6.885  0.1146  0.3615  0.4775
 5765SOL     OW28756   1.808   2.630   9.630 -0.1948 -0.2066 -0.1056
 5765SOL    HW128757   1.882   2.657   9.576  0.1972 -1.7744 -0.3667
 5765SOL    HW228758   1.817   2.535   9.627 -1.1356 -0.3335  1.2361
 5766SOL     OW28759   4.227   1.547   7.952 -0.1671 -0.4002 -0.3259
 5766SOL    HW128760   4.215   1.496   8.031  0.5290  0.4092  0.3008
 5766SOL    HW228761   4.254   1.477   7.893  1.7768  1.5987 -1.8697
 5767SOL     OW28762   3.091   1.533   9.367 -0.3900  0.7047 -0.0302
 5767SOL    HW128763   3.122   1.564   9.282 -2.5023 -1.1399 -1.4939
 5767SOL    HW228764   3.001   1.566   9.365 -0.8608 -0.5780 -0.5067
 5768SOL     OW28765   0.684   3.984   8.730 -0.2274  0.0723  0.0982
 5768SOL    HW128766   0.597   3.974   8.691  0.7875 -1.3382 -1.8461
 5768SOL    HW228767   0.745   3.973   8.657  2.1522 -0.5107  2.1657
 5769SOL     OW28768   0.606   3.778  16.287 -0.4460  0.0861 -0.5872
 5769SOL    HW128769   0.692   3.747  16.260 -0.9822 -1.7622 -0.1405
 5769SOL    HW228770   0.565   3.824  16.214  1.3822  0.4153 -1.4027
 5770SOL     OW28771   0.622   3.660   8.804 -0.6524 -0.5949 -0.4730
 5770SOL    HW128772   0.668   3.730   8.850 -3.2646  0.2855  0.7794
 5770SOL    HW228773   0.568   3.622   8.873  0.9283  0.2291  1.2107
 5771SOL     OW28774   2.133   3.285   0.466  0.4871 -0.8158 -0.2063
 5771SOL    HW128775   2.100   3.370   0.438  2.2509 -0.1599 -0.2865
 5771SOL    HW228776   2.169   3.316   0.550  3.1276  0.0614 -1.6775
 5772SOL     OW28777   1.630   0.052   0.361  0.0458  0.1058  0.2921
 5772SOL    HW128778   1.536   0.052   0.374 -0.0297 -0.2333 -0.2399
 5772SOL    HW228779   1.673   0.095   0.435  1.8425  1.2555 -1.3893
 5773SOL     OW28780   3.164   0.307   1.202  0.7817 -0.3682  0.5146
 5773SOL    HW128781   3.186   0.294   1.110 -2.5270 -3.1495  0.1372
 5773SOL    HW228782   3.211   0.390   1.213  0.7360 -0.0316 -2.0289
 5774SOL     OW28783   0.634   1.852   5.355  0.6052 -0.3204 -0.5243
 5774SOL    HW128784   0.666   1.794   5.286 -1.6194 -2.3737  0.1570
 5774SOL    HW228785   0.604   1.786   5.418 -0.2001  0.2439 -0.3267
 5775SOL     OW28786   2.405   4.126   4.151  0.7462  0.1897 -0.2688
 5775SOL    HW128787   2.342   4.135   4.079 -2.1637  1.1525  2.4094
 5775SOL    HW228788   2.348   4.078   4.210  1.0432  1.4659  1.0629
 5776SOL     OW28789   2.920   1.174   1.189 -0.4673 -0.0988  0.0719
 5776SOL    HW128790   2.873   1.103   1.147  1.8087 -1.2549 -0.5298
 5776SOL    HW228791   2.885   1.253   1.148 -2.7443 -1.5685 -0.8097
 5777SOL     OW28792   1.728   2.836   8.695 -0.1033 -0.4413  0.4171
 5777SOL    HW128793   1.763   2.922   8.673  0.0707 -0.3943  0.8769
 5777SOL    HW228794   1.681   2.850   8.777  0.0149 -0.0066  0.4115
 5778SOL     OW28795   4.490   1.135   2.079  0.6767 -0.2648  0.0475
 5778SOL    HW128796   4.416   1.118   2.020 -0.2426  3.0624  0.2393
 5778SOL    HW228797   4.548   1.059   2.073  0.7041 -0.2811  0.5472
 5779SOL     OW28798   0.810   3.079   7.952  0.2057 -0.0349 -0.7151
 5779SOL    HW128799   0.885   3.020   7.958  0.1583 -0.0870 -0.6459
 5779SOL    HW228800   0.765   3.075   8.036  0.1040  0.8374 -0.7280
 5780SOL     OW28801   4.224   4.683   3.613 -0.2403 -0.1725  0.2481
 5780SOL    HW128802   4.217   4.627   3.535  0.2694  4.3383 -3.0791
 5780SOL    HW228803   4.290   0.029   3.584  0.2092 -1.8040 -2.3218
 5781SOL     OW28804   2.719   2.100   3.463 -0.4259 -0.4246  0.7666
 5781SOL    HW128805   2.671   2.071   3.386  0.4626  0.5777 -0.1571
 5781SOL    HW228806   2.792   2.155   3.435 -0.4659 -1.1128 -0.7027
 5782SOL     OW28807   2.767   2.360  11.770  0.1089 -0.3793  0.0544
 5782SOL    HW128808   2.716   2.338  11.848  0.5857  1.1960  0.7995
 5782SOL    HW228809   2.723   2.444  11.755  0.9454 -0.1212 -0.9379
 5783SOL     OW28810   0.703   0.723  14.760 -0.3366  0.2535 -0.3626
 5783SOL    HW128811   0.648   0.692  14.688 -0.4119 -2.1534  0.7376
 5783SOL    HW228812   0.786   0.737  14.713 -0.3820  2.0621  0.1021
 5784SOL     OW28813   2.527   0.594   8.263  0.5918 -0.3257  0.2221
 5784SOL    HW128814   2.436   0.561   8.259  0.8566 -1.0288 -0.0756
 5784SOL    HW228815   2.554   0.586   8.172 -1.0825  1.3642 -0.4294
 5785SOL     OW28816   3.997   1.063   5.685  0.9228  0.1881  0.1865
 5785SOL    HW128817   3.941   1.129   5.645  1.3731  2.2100  2.9088
 5785SOL    HW228818   4.077   1.109   5.659 -0.6291  2.7178 -0.1696
 5786SOL     OW28819   4.560   3.901  12.915  0.0644  0.2561  0.2790
 5786SOL    HW128820   4.599   3.937  12.994  0.3289  1.3130 -0.3436
 5786SOL    HW228821   4.635   3.851  12.883 -0.2409 -0.1229  0.1508
 5787SOL     OW28822   4.145   2.849   2.957  0.3391  0.3103  0.1559
 5787SOL    HW128823   4.056   2.864   2.990 -0.4876 -3.6132 -0.2690
 5787SOL    HW228824   4.128   2.850   2.862  1.0477 -0.0787  0.0236
 5788SOL     OW28825   2.035   2.770   8.994 -0.0715 -0.1358 -0.2269
 5788SOL    HW128826   2.119   2.772   8.948  0.3289  1.1732  0.5515
 5788SOL    HW228827   2.031   2.860   9.029  0.8382  0.2396 -1.0912
 5789SOL     OW28828   2.058   0.948   4.517 -0.2456 -0.8126  0.0256
 5789SOL    HW128829   1.999   0.899   4.574 -0.7054  1.4815  1.5072
 5789SOL    HW228830   2.063   1.029   4.568 -3.0435 -0.4425 -0.3067
 5790SOL     OW28831   2.377   2.374   8.801 -1.1591  0.1857 -0.2139
 5790SOL    HW128832   2.433   2.297   8.811  0.4917  1.3527 -0.4582
 5790SOL    HW228833   2.418   2.430   8.735 -1.6476  0.4502 -0.2915
 5791SOL     OW28834   3.959   2.080  12.599  0.5792  0.1093 -0.1643
 5791SOL    HW128835   3.977   2.066  12.506  2.8179  3.9637 -0.3056
 5791SOL    HW228836   3.889   2.145  12.592  0.8503  0.5975  1.7988
 5792SOL     OW28837   0.644   3.546  12.571  0.0910 -0.1542 -0.0129
 5792SOL    HW128838   0.735   3.546  12.599 -0.0020 -0.9140  0.2929
 5792SOL    HW228839   0.619   3.636  12.592 -0.6844 -0.5729  0.8622
 5793SOL     OW28840   1.241   4.179   5.518  0.9611  0.1783  0.3654
 5793SOL    HW128841   1.256   4.154   5.609  0.2162 -0.8016  0.2174
 5793SOL    HW228842   1.298   4.256   5.510  1.0223 -0.1487 -2.2519
 5794SOL     OW28843   4.425   2.475   8.092 -0.3363 -0.1115 -0.2407
 5794SOL    HW128844   4.512   2.440   8.115 -0.5866 -0.7169 -0.2066
 5794SOL    HW228845   4.367   2.408   8.130 -0.2434 -0.0127  0.0757
 5795SOL     OW28846   1.688   3.152   4.059 -0.3356  0.1881 -0.2436
 5795SOL    HW128847   1.606   3.194   4.088 -1.4769 -1.7695 -0.6869
 5795SOL    HW228848   1.750   3.194   4.119  1.8224  0.3405 -2.5878
 5796SOL     OW28849   4.386   1.685  16.474  0.2625 -0.4682  0.1330
 5796SOL    HW128850   4.356   1.670  16.384  1.1605 -0.2538 -0.2073
 5796SOL    HW228851   4.460   1.624  16.473  1.4425  0.9583  0.9159
 5797SOL     OW28852   3.371   3.325   7.395 -0.1635  0.5438 -0.1149
 5797SOL    HW128853   3.439   3.307   7.460  1.7653 -0.6531 -2.4334
 5797SOL    HW228854   3.426   3.360   7.325 -1.7617  2.2440 -0.5116
 5798SOL     OW28855   2.287   0.771   3.856 -0.1567  1.0675 -0.2542
 5798SOL    HW128856   2.254   0.850   3.898 -3.1062 -0.9847  1.3248
 5798SOL    HW228857   2.201   0.730   3.847  0.2818 -0.2045  1.4116
 5799SOL     OW28858   0.182   4.062   3.844  0.3807  0.0362 -0.0029
 5799SOL    HW128859   0.099   4.021   3.820  0.3754  0.5699 -0.9084
 5799SOL    HW228860   0.247   4.013   3.793  0.5808 -1.3327  1.5618
 5800SOL     OW28861   2.633   1.633   7.161 -0.5950  0.2132  0.2589
 5800SOL    HW128862   2.680   1.715   7.172 -0.9570  0.5307 -0.5271
 5800SOL    HW228863   2.548   1.676   7.168  0.4301  1.6206  3.7793
 5801SOL     OW28864   4.519   4.527  10.934 -0.2220 -0.3594 -0.4059
 5801SOL    HW128865   4.453   4.552  10.999 -0.6588 -3.8806  0.4569
 5801SOL    HW228866   4.601   4.561  10.971 -0.8695  1.3204 -0.5232
 5802SOL     OW28867   3.198   0.137   5.128 -0.4474  0.3283  0.2429
 5802SOL    HW128868   3.126   0.174   5.076 -0.0448  0.5820 -0.1365
 5802SOL    HW228869   3.165   0.133   5.217 -1.8146 -0.7725 -0.3005
 5803SOL     OW28870   3.391   4.373  13.980  0.0184  0.1070 -0.1061
 5803SOL    HW128871   3.382   4.438  14.049 -0.7593  0.5006 -0.5810
 5803SOL    HW228872   3.330   4.303  14.003  2.6339 -2.0560  0.3720
 5804SOL     OW28873   2.460   2.441   4.988  0.0460  0.3756 -0.7964
 5804SOL    HW128874   2.475   2.427   5.081 -0.5431  0.1845 -0.7286
 5804SOL    HW228875   2.456   2.349   4.961  1.0038 -0.2374  1.1928
 5805SOL     OW28876   0.378   2.048   3.766 -0.6346  0.1566  0.1592
 5805SOL    HW128877   0.312   1.991   3.725 -0.8398 -0.5222  1.4252
 5805SOL    HW228878   0.327   2.073   3.843  0.6253 -0.1015  1.0867
 5806SOL     OW28879   1.803   3.163   9.040 -0.4196  0.2601 -0.1691
 5806SOL    HW128880   1.717   3.204   9.032 -1.1585 -1.2348  0.0182
 5806SOL    HW228881   1.778   3.071   9.030 -0.9861  0.5610 -1.4247
 5807SOL     OW28882   3.167   3.729   8.373 -0.5274  0.1962 -0.2466
 5807SOL    HW128883   3.074   3.751   8.372 -0.2298  1.2744 -2.8537
 5807SOL    HW228884   3.198   3.767   8.291 -0.8231 -0.0740 -0.4862
 5808SOL     OW28885   2.909   0.168  15.647 -0.6235  0.4021  0.5063
 5808SOL    HW128886   2.814   0.184  15.644 -0.7968 -0.1469  3.3612
 5808SOL    HW228887   2.928   0.170  15.741  2.5680 -2.9056 -0.0639
 5809SOL     OW28888   0.486   0.179   1.173  0.2499  0.7050  0.2406
 5809SOL    HW128889   0.499   0.270   1.200  1.5736 -0.2941  3.0093
 5809SOL    HW228890   0.399   0.190   1.134 -0.6003  0.8225  2.1231
 5810SOL     OW28891   4.401   4.354   8.028  0.0503 -0.0775  0.2651
 5810SOL    HW128892   4.321   4.406   8.020  1.6848  2.4480  0.2960
 5810SOL    HW228893   4.394   4.330   8.120 -0.6535 -2.6086 -0.4600
 5811SOL     OW28894   0.435   3.549   1.611 -0.1572  0.1708 -0.2582
 5811SOL    HW128895   0.524   3.529   1.642  0.0162  1.1553 -0.1302
 5811SOL    HW228896   0.442   3.641   1.587 -3.1498  0.7222  1.0217
 5812SOL     OW28897   0.834   1.069   3.980  0.3809  0.2162  0.0397
 5812SOL    HW128898   0.752   1.020   3.979 -0.2325  1.2552  0.1321
 5812SOL    HW228899   0.864   1.059   4.071  0.5143 -1.7236 -0.2229
 5813SOL     OW28900   1.199   3.437   6.530  0.5662 -0.6813  0.5160
 5813SOL    HW128901   1.175   3.509   6.472 -2.4458 -0.8740  1.5288
 5813SOL    HW228902   1.210   3.479   6.615 -0.3960  0.9470 -0.1504
 5814SOL     OW28903   2.502   4.485   4.731  0.2188  0.3409  0.0479
 5814SOL    HW128904   2.509   4.462   4.638  1.9032  0.0000  0.2676
 5814SOL    HW228905   2.455   4.569   4.726  0.4968  0.4790 -0.2468
 5815SOL     OW28906   0.287   4.089  15.423 -0.3504  0.1762 -0.1176
 5815SOL    HW128907   0.367   4.061  15.468  0.3957  1.3058 -0.7527
 5815SOL    HW228908   0.250   4.141  15.494 -1.5357 -0.0430 -0.5761
 5816SOL     OW28909   2.724   2.385   6.334  0.8363  0.5038  0.1492
 5816SOL    HW128910   2.774   2.343   6.403 -3.4016 -2.6003  1.3711
 5816SOL    HW228911   2.726   2.477   6.359  0.6290  0.3955  0.5570
 5817SOL     OW28912   3.734   3.776   5.190 -0.2472 -0.9411 -0.7104
 5817SOL    HW128913   3.707   3.834   5.261 -2.6154 -0.2543 -2.1835
 5817SOL    HW228914   3.751   3.695   5.237  1.5016  0.3024  0.8293
 5818SOL     OW28915   2.837   0.221   2.783  0.0643  0.0825  0.1724
 5818SOL    HW128916   2.837   0.126   2.771 -0.5986  0.1085 -0.0460
 5818SOL    HW228917   2.889   0.251   2.709 -0.6104  0.1069 -0.2902
 5819SOL     OW28918   1.217   1.246   6.663  0.3705  0.2337 -0.2828
 5819SOL    HW128919   1.215   1.287   6.750 -0.5222 -0.6001  0.0892
 5819SOL    HW228920   1.306   1.211   6.662 -1.4198 -4.2584 -1.3992
 5820SOL     OW28921   3.488   2.483  16.458  0.2316  0.4544 -0.0325
 5820SOL    HW128922   3.392   2.474  16.459  0.2991 -0.8672 -2.9585
 5820SOL    HW228923   3.508   2.501  16.549 -1.9688 -0.6982  0.6907
 5821SOL     OW28924   4.688   2.886  11.488  0.0436  0.6930  0.0479
 5821SOL    HW128925   4.657   2.795  11.484  0.7513  0.4051  1.3841
 5821SOL    HW228926   0.054   2.862  11.527 -1.9413 -2.3015  2.4565
 5822SOL     OW28927   1.845   2.330   4.876 -0.2990  0.2824 -0.2927
 5822SOL    HW128928   1.820   2.262   4.814  0.0124  0.1609 -0.2865
 5822SOL    HW228929   1.766   2.384   4.873  0.6828  1.7465 -0.2258
 5823SOL     OW28930   4.566   2.647   3.960 -0.7162  0.2808 -0.4085
 5823SOL    HW128931   4.607   2.567   3.992  0.3935  1.2387  0.5715
 5823SOL    HW228932   4.501   2.662   4.029 -0.1305 -0.3356  0.2680
 5824SOL     OW28933   2.549   0.311   4.174  0.6472 -0.1758  0.0028
 5824SOL    HW128934   2.484   0.257   4.220 -1.6010 -0.0056 -2.9722
 5824SOL    HW228935   2.508   0.316   4.088  1.4520  0.5884 -0.3292
 5825SOL     OW28936   0.993   1.634   9.951  0.0525 -0.0152  0.0459
 5825SOL    HW128937   0.922   1.698   9.943  1.9557  2.3306  2.0494
 5825SOL    HW228938   1.035   1.638   9.865  1.2363 -0.5460  0.5992
 5826SOL     OW28939   0.841   3.800   8.277  0.3113 -0.2248 -0.4226
 5826SOL    HW128940   0.835   3.815   8.183  0.0981  0.2504 -0.3309
 5826SOL    HW228941   0.768   3.857   8.299  0.4959 -1.0340  2.2396
 5827SOL     OW28942   3.308   3.278   0.817  0.5476 -0.2811  0.2453
 5827SOL    HW128943   3.274   3.364   0.845  1.2253  0.7555 -2.0962
 5827SOL    HW228944   3.225   3.233   0.833  1.2847 -1.0385  1.8366
 5828SOL     OW28945   0.627   2.411   2.676  0.6800  0.3908 -0.0180
 5828SOL    HW128946   0.676   2.353   2.618 -0.6355 -0.0844 -0.6476
 5828SOL    HW228947   0.542   2.397   2.634  1.2670 -2.5033 -0.2570
 5829SOL     OW28948   2.901   3.707   7.635 -0.1651  0.3304  0.4085
 5829SOL    HW128949   2.877   3.786   7.586  1.4911 -0.0108 -0.9533
 5829SOL    HW228950   2.828   3.706   7.697  0.2865 -1.0696  0.9289
 5830SOL     OW28951   4.570   1.250  10.743  0.5451  0.0765  0.1786
 5830SOL    HW128952   4.523   1.315  10.795 -1.1803 -1.4827  0.5760
 5830SOL    HW228953   4.658   1.286  10.755  1.1874 -1.3560 -0.1652
 5831SOL     OW28954   2.075   0.568   3.424  0.4132 -0.1641  0.0843
 5831SOL    HW128955   2.157   0.615   3.409  1.0205 -1.3368 -0.2894
 5831SOL    HW228956   2.069   0.532   3.513  0.6863 -1.8238 -0.5619
 5832SOL     OW28957   1.732   3.915  13.223  0.3044 -0.3592 -0.2361
 5832SOL    HW128958   1.712   3.830  13.184 -0.8325  1.0453 -2.6877
 5832SOL    HW228959   1.728   3.890  13.316 -2.5270  0.2319 -0.1949
 5833SOL     OW28960   1.806   2.765   8.232 -0.3084 -0.0979  0.3345
 5833SOL    HW128961   1.875   2.825   8.262  0.0330 -0.5517  0.4587
 5833SOL    HW228962   1.730   2.806   8.272 -0.0606 -0.2428  0.9496
 5834SOL     OW28963   0.616   1.419   3.644 -0.1459 -0.6065 -0.0535
 5834SOL    HW128964   0.554   1.418   3.717  1.2288  1.4724  1.1473
 5834SOL    HW228965   0.600   1.508   3.615 -1.2633 -0.0454  2.2662
 5835SOL     OW28966   3.624   0.383  12.540  0.8343  0.1543  0.6803
 5835SOL    HW128967   3.550   0.408  12.485  2.1738  2.8915  0.0997
 5835SOL    HW228968   3.691   0.361  12.475 -0.4126 -3.1686  0.5348
 5836SOL     OW28969   4.326   2.136  10.780 -0.0266 -0.4113  0.5960
 5836SOL    HW128970   4.366   2.222  10.764  0.5838 -0.5893  1.1514
 5836SOL    HW228971   4.234   2.146  10.758  0.3532 -0.0647 -0.9061
 5837SOL     OW28972   4.110   1.722   2.276 -0.5480  0.0337  0.5932
 5837SOL    HW128973   4.061   1.782   2.220  0.1320 -0.9359 -1.0262
 5837SOL    HW228974   4.193   1.724   2.229 -2.0259  0.9509 -2.0087
 5838SOL     OW28975   2.315   4.279   0.730 -0.5658  0.4621 -0.2348
 5838SOL    HW128976   2.358   4.231   0.800 -1.8667 -1.4628 -0.7299
 5838SOL    HW228977   2.240   4.223   0.710  0.2199 -0.7137  0.1159
 5839SOL     OW28978   0.716   4.228   8.387  0.3949  0.9412  0.2633
 5839SOL    HW128979   0.666   4.269   8.457  0.8232  1.2831  0.3679
 5839SOL    HW228980   0.787   4.195   8.442 -0.5067  0.6660  1.2565
 5840SOL     OW28981   0.538   1.093   3.562 -0.0746  0.2772 -0.0682
 5840SOL    HW128982   0.500   1.046   3.637  0.8969 -3.5143 -1.9589
 5840SOL    HW228983   0.540   1.182   3.598 -0.8339 -0.6625  2.2700
 5841SOL     OW28984   1.525   2.210  10.588 -0.1410  0.3160 -0.1998
 5841SOL    HW128985   1.570   2.134  10.553 -0.9818 -0.9199  1.4382
 5841SOL    HW228986   1.492   2.167  10.667  0.9365 -0.3734 -0.1213
 5842SOL     OW28987   4.124   2.947   7.336  0.1029  0.1620 -0.1663
 5842SOL    HW128988   4.211   2.975   7.365  0.7592 -1.6187 -0.4277
 5842SOL    HW228989   4.099   2.870   7.387  0.2090  0.4174  0.2675
 5843SOL     OW28990   0.583   1.429  13.888  0.6195  0.4340  0.3239
 5843SOL    HW128991   0.580   1.398  13.979  1.8433  1.4559  0.7086
 5843SOL    HW228992   0.624   1.355  13.843  1.6806  0.4352  1.2789
 5844SOL     OW28993   0.723   2.888   2.827 -0.4200 -0.3568 -0.0086
 5844SOL    HW128994   0.769   2.927   2.753 -0.8282  0.4329  0.1619
 5844SOL    HW228995   0.747   2.796   2.817  2.6083  0.5732 -1.0701
 5845SOL     OW28996   1.192   3.381  15.922  0.0376 -0.0423  0.5303
 5845SOL    HW128997   1.163   3.384  15.831  0.2352 -0.0394  0.4676
 5845SOL    HW228998   1.277   3.338  15.917 -0.1388 -0.2491 -0.8229
 5846SOL     OW28999   3.053   4.064   6.973 -0.1277  0.5719  0.4983
 5846SOL    HW129000   2.991   3.991   6.980  1.6879 -0.9271  0.7045
 5846SOL    HW229001   3.007   4.120   6.910  2.5105  0.4027 -1.5502
 5847SOL     OW29002   4.424   0.270   9.692  0.5219 -0.2962  0.1657
 5847SOL    HW129003   4.378   0.352   9.709 -0.4984 -0.9201  0.3771
 5847SOL    HW229004   4.511   0.305   9.673  0.5703  1.2366  3.1457
 5848SOL     OW29005   0.831   1.636  17.642  0.1756 -0.9016  0.1412
 5848SOL    HW129006   0.858   1.724  17.616 -0.6125 -0.7839 -0.2700
 5848SOL    HW229007   0.799   1.658   0.056  0.4257 -0.7031  0.1818
 5849SOL     OW29008   0.148   2.695   4.134 -0.0486  0.0367 -0.0813
 5849SOL    HW129009   0.116   2.632   4.070 -0.0728  0.8286 -0.8468
 5849SOL    HW229010   0.079   2.760   4.123 -2.0428 -1.6325  2.6445
 5850SOL     OW29011   2.651   3.585   3.327  0.1254  0.0964  0.0665
 5850SOL    HW129012   2.655   3.505   3.380  1.0381  1.1119  1.5387
 5850SOL    HW229013   2.587   3.563   3.259  0.7220 -0.0455 -0.4446
 5851SOL     OW29014   4.667   3.195   5.835 -0.1287  0.1832 -0.1535
 5851SOL    HW129015   4.636   3.200   5.744  2.7644 -2.6118 -1.2734
 5851SOL    HW229016   4.583   3.203   5.881  1.1641  3.5024  1.6329
 5852SOL     OW29017   2.836   3.040   6.083  0.3743 -0.3901 -0.7327
 5852SOL    HW129018   2.845   3.054   6.177  1.7689 -1.1627 -0.7495
 5852SOL    HW229019   2.872   3.124   6.055 -0.3375  0.0623 -0.3170
 5853SOL     OW29020   3.756   3.907  15.806  0.3228  0.1370 -0.3450
 5853SOL    HW129021   3.850   3.894  15.793  0.3785  0.1665  0.0218
 5853SOL    HW229022   3.719   3.819  15.796 -1.5411  0.8057  0.6155
 5854SOL     OW29023   4.005   1.762   3.408 -0.3638 -0.3596 -0.4616
 5854SOL    HW129024   4.098   1.744   3.393  0.5462  2.6744  1.5374
 5854SOL    HW229025   3.961   1.745   3.324  3.4377 -1.1404 -2.2957
 5855SOL     OW29026   2.019   3.960   3.717 -0.0056 -0.8187  0.6311
 5855SOL    HW129027   1.958   3.966   3.644 -0.3149 -2.6716  0.7323
 5855SOL    HW229028   1.997   3.871   3.746  1.6920 -0.9706  1.4694
 5856SOL     OW29029   1.831   0.614   4.879  0.0688  0.4211  0.3167
 5856SOL    HW129030   1.759   0.667   4.913  0.3443  0.6175  0.5964
 5856SOL    HW229031   1.792   0.527   4.870  0.4433  0.1962  0.8963
 5857SOL     OW29032   2.359   1.457   9.464  0.7273  0.3024 -0.0290
 5857SOL    HW129033   2.355   1.505   9.547  0.4174 -2.1986  1.4044
 5857SOL    HW229034   2.330   1.369   9.488 -0.6868  0.3651 -1.5601
 5858SOL     OW29035   3.480   3.969  12.975 -0.0739  0.3758 -0.4101
 5858SOL    HW129036   3.399   3.964  13.026  1.0247 -0.0790  1.2993
 5858SOL    HW229037   3.498   4.063  12.987 -2.2627  1.0113 -2.2951
 5859SOL     OW29038   0.735   4.183   5.902 -0.3850 -0.1699  0.1752
 5859SOL    HW129039   0.818   4.139   5.884 -0.5963  0.1622 -1.5789
 5859SOL    HW229040   0.692   4.198   5.818  0.9270  0.0271 -0.4635
 5860SOL     OW29041   3.825   1.527   5.294  0.0488  0.5357  0.1221
 5860SOL    HW129042   3.859   1.615   5.305  0.6864  0.1787  1.0621
 5860SOL    HW229043   3.860   1.503   5.208  0.5184  3.3923 -0.4694
 5861SOL     OW29044   2.313   2.143   8.483 -0.1664  0.7319 -0.2738
 5861SOL    HW129045   2.369   2.067   8.501 -0.5441 -0.1507 -2.7543
 5861SOL    HW229046   2.337   2.166   8.394  0.1050 -3.3384 -1.2660
 5862SOL     OW29047   0.863   1.679   2.272 -0.0499 -0.0873 -0.4422
 5862SOL    HW129048   0.914   1.636   2.340 -1.7510 -0.1464  0.7970
 5862SOL    HW229049   0.769   1.675   2.291  0.2831 -2.3316  0.6352
 5863SOL     OW29050   2.961   3.790   7.019 -0.2424  0.5576  0.1496
 5863SOL    HW129051   2.899   3.760   7.086 -0.1953  1.4878  0.6042
 5863SOL    HW229052   3.044   3.753   7.048 -0.5305 -0.2535 -0.0634
 5864SOL     OW29053   0.544   2.119   9.926 -0.0131  0.2605  0.2910
 5864SOL    HW129054   0.544   2.089  10.016 -0.8194  0.2640  0.2905
 5864SOL    HW229055   0.534   2.212   9.947  0.1256  0.1333  0.9032
 5865SOL     OW29056   2.357   2.519  10.847 -0.5092 -0.0456 -0.1341
 5865SOL    HW129057   2.414   2.595  10.840 -0.1567 -0.3854 -1.0148
 5865SOL    HW229058   2.341   2.514  10.941 -0.6887 -1.4768 -0.2379
 5866SOL     OW29059   0.877   0.520   4.182  0.0205  0.1554  0.3395
 5866SOL    HW129060   0.862   0.595   4.240 -0.6440 -0.9147  1.5622
 5866SOL    HW229061   0.797   0.516   4.131  0.6260 -0.3252 -0.5763
 5867SOL     OW29062   3.167   4.590   8.147  0.0858  0.0884 -0.2860
 5867SOL    HW129063   3.212   4.604   8.064  0.8708  0.2758  0.1703
 5867SOL    HW229064   3.192   4.665   8.202  0.4794 -0.5818  0.4482
 5868SOL     OW29065   4.033   3.177   4.570  0.3031 -0.2417  0.0472
 5868SOL    HW129066   4.020   3.270   4.587 -2.3968 -0.8717  1.4382
 5868SOL    HW229067   4.052   3.145   4.658  0.4918 -2.2643 -0.7317
 5869SOL     OW29068   4.126   2.663   7.884  0.6682  0.2111  0.1469
 5869SOL    HW129069   4.100   2.619   7.803  1.9975 -0.0118 -0.1462
 5869SOL    HW229070   4.221   2.664   7.879  0.7500 -0.9607  1.5626
 5870SOL     OW29071   2.257   0.117  10.073 -0.0516 -0.4109 -0.1924
 5870SOL    HW129072   2.236   0.184  10.137  0.1528  1.3070 -1.9486
 5870SOL    HW229073   2.249   0.153   9.985  0.8704  3.9007  1.4963
 5871SOL     OW29074   3.225   0.824   3.676 -0.0527  0.1424  0.6739
 5871SOL    HW129075   3.140   0.780   3.678  0.0588 -0.1485 -0.9782
 5871SOL    HW229076   3.222   0.878   3.597 -0.3479 -1.6383 -0.5477
 5872SOL     OW29077   0.855   2.619   5.362 -0.0030 -0.3135 -0.8659
 5872SOL    HW129078   0.772   2.599   5.319 -0.4841  0.7579 -0.4411
 5872SOL    HW229079   0.881   2.536   5.401  2.0998  0.3604 -0.8399
 5873SOL     OW29080   4.706   1.579   4.507 -0.5649  0.0362 -0.4444
 5873SOL    HW129081   4.637   1.531   4.553  0.8322  0.2753  1.8963
 5873SOL    HW229082   0.065   1.530   4.540 -0.1196  0.7437 -0.4398
 5874SOL     OW29083   2.739   4.559   8.627  0.8279  0.9722  0.1553
 5874SOL    HW129084   2.700   4.530   8.545  2.8360 -1.2937  0.0141
 5874SOL    HW229085   2.665   4.550   8.687 -0.9947 -0.5234 -2.3584
 5875SOL     OW29086   0.109   0.782   5.703  0.0626 -0.1773 -0.4266
 5875SOL    HW129087   0.168   0.771   5.628  0.3026  0.0562 -0.2736
 5875SOL    HW229088   0.085   0.691   5.719 -0.3459  0.3463  1.8879
 5876SOL     OW29089   0.816   3.268   4.323  0.3119  0.1771 -0.0650
 5876SOL    HW129090   0.796   3.326   4.397  1.0420 -0.1224  0.3642
 5876SOL    HW229091   0.857   3.325   4.258  1.3342 -0.6107 -0.1114
 5877SOL     OW29092   4.138   0.280   5.561 -0.0924  0.4994 -0.0678
 5877SOL    HW129093   4.063   0.250   5.510  0.1968 -1.2483  0.5665
 5877SOL    HW229094   4.092   0.326   5.631 -1.7510  0.1485 -0.9272
 5878SOL     OW29095   2.657   2.631   1.585  0.2242 -0.3221 -0.5287
 5878SOL    HW129096   2.568   2.665   1.575 -0.0693 -1.6494 -2.5655
 5878SOL    HW229097   2.658   2.589   1.671 -1.4462  3.3225  1.2290
 5879SOL     OW29098   0.406   2.661  13.199 -0.0282  0.2873  0.8134
 5879SOL    HW129099   0.331   2.660  13.139 -0.3189 -0.0444  1.1775
 5879SOL    HW229100   0.390   2.576  13.241 -0.7213  1.6330  3.2416
 5880SOL     OW29101   1.432   0.104   2.752  0.2023  0.5557 -0.2180
 5880SOL    HW129102   1.437   0.029   2.813  1.4401  0.5345 -0.3503
 5880SOL    HW229103   1.341   0.129   2.770  1.1143  3.3867  0.4636
 5881SOL     OW29104   2.027   4.466   9.718  0.2933 -0.1041  0.6778
 5881SOL    HW129105   2.049   4.388   9.668  0.8862  1.0534 -0.8474
 5881SOL    HW229106   1.953   4.488   9.661  1.9591 -0.1953 -1.5180
 5882SOL     OW29107   3.576   2.679   8.456  0.2725 -0.1445 -0.1207
 5882SOL    HW129108   3.599   2.588   8.477  0.1538 -0.3146 -0.7108
 5882SOL    HW229109   3.480   2.673   8.452  0.3042 -0.3241 -0.6610
 5883SOL     OW29110   3.964   2.883   0.671  0.5306 -0.0983 -0.0847
 5883SOL    HW129111   3.985   2.900   0.579 -0.5091 -1.9503 -0.6739
 5883SOL    HW229112   3.957   2.976   0.690  0.5333 -0.0944 -0.1034
 5884SOL     OW29113   3.571   2.073  14.618 -0.3154  0.2172  0.7263
 5884SOL    HW129114   3.625   2.151  14.630  0.9329 -0.6034  0.5628
 5884SOL    HW229115   3.573   2.033  14.705 -1.8499 -1.1119  0.1518
 5885SOL     OW29116   1.814   2.275   9.909  0.0328  0.4053  0.3533
 5885SOL    HW129117   1.755   2.348   9.927  0.6437  0.4219  2.3221
 5885SOL    HW229118   1.897   2.324   9.913 -0.1741  0.6527  1.5743
 5886SOL     OW29119   2.250   4.341  17.467 -0.5062 -0.4091 -0.0736
 5886SOL    HW129120   2.213   4.265  17.422 -0.9446 -1.0960  1.4359
 5886SOL    HW229121   2.338   4.305  17.472 -0.0651  0.8826  1.3479
 5887SOL     OW29122   2.157   3.968   7.408 -0.5598 -0.0935 -0.2734
 5887SOL    HW129123   2.232   4.026   7.403 -0.7542  0.5238  3.5265
 5887SOL    HW229124   2.143   3.947   7.316  1.8637  1.4780 -0.9789
 5888SOL     OW29125   2.599   0.944   1.324 -0.7417 -0.5886  0.1426
 5888SOL    HW129126   2.652   0.983   1.393  0.1324  0.9535 -1.3908
 5888SOL    HW229127   2.550   0.872   1.364  0.7304 -1.8224 -0.2439
 5889SOL     OW29128   2.590   0.149   9.206  0.0793 -0.1360  0.7703
 5889SOL    HW129129   2.586   0.160   9.111  2.9721 -0.7809  0.5835
 5889SOL    HW229130   2.684   0.138   9.215 -0.0244 -1.2354  0.5304
 5890SOL     OW29131   4.401   4.482   7.294  0.1156  0.5159 -0.6391
 5890SOL    HW129132   4.386   4.413   7.358 -0.9194  0.5674 -0.8167
 5890SOL    HW229133   4.489   4.515   7.313  0.2086 -0.4373  0.5591
 5891SOL     OW29134   1.883   1.449   7.645  0.2073 -0.1718 -0.7099
 5891SOL    HW129135   1.821   1.394   7.597 -1.9704  1.8846 -0.2430
 5891SOL    HW229136   1.907   1.394   7.720  1.8364  0.5970 -0.6584
 5892SOL     OW29137   0.074   1.104   6.570 -0.4259 -0.1885  0.4072
 5892SOL    HW129138   0.050   1.165   6.640  0.3867  1.1284 -0.4556
 5892SOL    HW229139   0.168   1.123   6.579 -0.2485 -1.3435  0.9758
 5893SOL     OW29140   0.000   0.503  16.842 -0.7148 -0.2828  0.2785
 5893SOL    HW129141   0.034   0.419  16.810  0.1007  0.1612 -0.0452
 5893SOL    HW229142   4.704   0.470  16.930  2.1468  1.2089  1.2868
 5894SOL     OW29143   3.773   2.468   7.686  0.1775 -0.1948 -0.3231
 5894SOL    HW129144   3.778   2.561   7.709  1.2682 -0.2616 -0.2709
 5894SOL    HW229145   3.787   2.474   7.591  1.4451  0.4250 -0.1082
 5895SOL     OW29146   1.931   2.261   1.840 -0.0615 -0.0615  0.4237
 5895SOL    HW129147   1.881   2.316   1.780  0.6729  0.9468  0.7371
 5895SOL    HW229148   1.925   2.314   1.920  0.1489  0.2581  0.2287
 5896SOL     OW29149   1.946   2.944   0.234 -0.2410  0.3580  0.6685
 5896SOL    HW129150   1.872   2.936   0.173 -0.1725 -2.5184  0.9625
 5896SOL    HW229151   1.940   3.037   0.256 -0.3562  1.1425 -2.5550
 5897SOL     OW29152   0.363   2.094   5.640  0.4061 -0.0943  0.6112
 5897SOL    HW129153   0.284   2.072   5.590 -0.0785  2.0259  0.4517
 5897SOL    HW229154   0.325   2.175   5.674  1.2018  0.1431  0.9180
 5898SOL     OW29155   0.259   0.785   9.238  0.1616  0.3157 -0.3450
 5898SOL    HW129156   0.165   0.769   9.249 -0.2405  2.0176 -1.4068
 5898SOL    HW229157   0.291   0.781   9.329 -3.3757 -2.9458  0.7899
 5899SOL     OW29158   2.813   1.869   6.690 -0.9610 -0.5791 -0.3300
 5899SOL    HW129159   2.777   1.956   6.673  0.6806  0.3961  1.1703
 5899SOL    HW229160   2.733   1.817   6.700 -0.9025 -0.7867 -0.9747
 5900SOL     OW29161   3.196   2.913   3.721  0.5576  0.1088  0.2145
 5900SOL    HW129162   3.161   3.001   3.732 -1.2323 -0.7333  1.2502
 5900SOL    HW229163   3.287   2.926   3.695  0.6302 -1.1425 -0.1801
 5901SOL     OW29164   3.126   2.882   4.872 -0.3065  0.2878  0.1698
 5901SOL    HW129165   3.043   2.844   4.844 -1.4012  2.0157  1.0417
 5901SOL    HW229166   3.097   2.932   4.949  0.1529  1.2959 -0.3250
 5902SOL     OW29167   1.457   1.901  12.288  0.2029 -0.0732  0.3459
 5902SOL    HW129168   1.522   1.899  12.217  1.0043 -1.5967  1.1136
 5902SOL    HW229169   1.474   1.816  12.328  0.6210  0.5068  1.3863
 5903SOL     OW29170   4.667   3.558   5.078  0.4843  0.4067 -0.8975
 5903SOL    HW129171   4.587   3.597   5.044  0.1480  1.5275  1.1749
 5903SOL    HW229172   4.684   3.623   5.146 -0.4483  1.0019 -1.2353
 5904SOL     OW29173   3.790   1.230   4.691  0.2143 -0.3977 -0.1142
 5904SOL    HW129174   3.795   1.136   4.672  0.0470  0.0435 -2.3472
 5904SOL    HW229175   3.849   1.236   4.766  0.6531  1.6326 -0.6289
 5905SOL     OW29176   4.356   4.470   6.392 -0.2175  0.2873 -0.2041
 5905SOL    HW129177   4.433   4.527   6.390 -0.3044  0.3769 -1.1004
 5905SOL    HW229178   4.286   4.523   6.428 -0.8425 -0.0550 -0.9137
 5906SOL     OW29179   3.414   4.659  16.309 -0.2397  0.6935 -0.0836
 5906SOL    HW129180   3.509   4.667  16.298 -0.3742  1.0339 -1.0375
 5906SOL    HW229181   3.397   4.567  16.326  0.3242  0.1883 -2.2670
 5907SOL     OW29182   1.098   4.242   8.300 -0.1585 -0.2708 -0.7220
 5907SOL    HW129183   1.087   4.229   8.395 -0.5805  1.7140 -0.4944
 5907SOL    HW229184   1.147   4.162   8.283  1.2250  0.9236 -2.2284
 5908SOL     OW29185   3.289   1.495   8.000  0.6735  0.3380  0.0172
 5908SOL    HW129186   3.242   1.511   7.918 -2.9456 -0.9362  1.8222
 5908SOL    HW229187   3.286   1.575   8.052  3.3842  0.3953  0.0640
 5909SOL     OW29188   0.088   4.229  13.550  0.3905  0.6683 -0.1063
 5909SOL    HW129189   0.180   4.203  13.542  0.5253  1.5777 -1.7013
 5909SOL    HW229190   0.048   4.143  13.558  1.3969  0.2770  0.7651
 5910SOL     OW29191   1.744   1.554   0.552  0.1680 -0.0611 -0.3262
 5910SOL    HW129192   1.798   1.502   0.612 -0.8810 -1.2947 -0.4632
 5910SOL    HW229193   1.661   1.508   0.559  0.8221 -1.5453 -2.2296
 5911SOL     OW29194   0.090   1.922  15.253 -0.8243 -0.9164 -0.5226
 5911SOL    HW129195   0.072   1.926  15.159 -0.6892  2.1697 -0.4281
 5911SOL    HW229196   0.004   1.903  15.289 -1.7170  1.9050 -1.2065
 5912SOL     OW29197   3.194   2.903  10.681 -0.2727 -0.2019 -0.7972
 5912SOL    HW129198   3.242   2.883  10.761 -3.3913  3.3224  1.9571
 5912SOL    HW229199   3.141   2.980  10.699  1.6362  0.7169  0.8389
 5913SOL     OW29200   4.691   2.203   5.070 -0.0958  0.4572  1.2971
 5913SOL    HW129201   0.037   2.140   5.102 -1.3166  0.0041  2.8386
 5913SOL    HW229202   4.688   2.192   4.975 -1.6511 -0.7054  1.4763
 5914SOL     OW29203   0.353   2.147  13.492  0.0973 -0.3104  1.1302
 5914SOL    HW129204   0.301   2.201  13.433 -0.9363 -2.5922 -0.0186
 5914SOL    HW229205   0.411   2.101  13.431  0.3542  0.6967  0.6015
 5915SOL     OW29206   1.181   3.783   5.771  0.2067  0.1200 -0.5203
 5915SOL    HW129207   1.262   3.814   5.730 -1.0324  0.5328 -2.6602
 5915SOL    HW229208   1.196   3.776   5.865  0.5788 -1.9070 -0.7297
 5916SOL     OW29209   2.511   2.273  14.804 -0.1823 -0.5971  0.2720
 5916SOL    HW129210   2.424   2.299  14.774  1.3542  3.7769 -0.3504
 5916SOL    HW229211   2.558   2.329  14.743 -2.3612 -0.0629 -0.9280
 5917SOL     OW29212   2.899   4.185  10.018  0.0223  0.2924  0.1966
 5917SOL    HW129213   2.813   4.161  10.054 -0.0731 -0.2400 -0.3894
 5917SOL    HW229214   2.963   4.143  10.075  1.7001  1.3131 -0.9501
 5918SOL     OW29215   4.392   1.065   4.086 -0.0534 -0.0850  0.4330
 5918SOL    HW129216   4.306   1.091   4.053  0.7428  2.4161  0.3195
 5918SOL    HW229217   4.445   1.078   4.007  0.2439 -1.5304  0.3858
 5919SOL     OW29218   0.170   0.080   0.885 -0.2710 -0.2623  0.2892
 5919SOL    HW129219   0.137   0.073   0.795 -1.4915 -0.2248  0.7458
 5919SOL    HW229220   0.226   0.158   0.881 -2.2245  1.2239  2.4100
 5920SOL     OW29221   4.489   2.676  17.321  0.0449 -0.8094 -0.0869
 5920SOL    HW129222   4.576   2.709  17.299 -0.4018 -1.1005 -2.2670
 5920SOL    HW229223   4.442   2.689  17.239 -0.2173  1.9050  0.4896
 5921SOL     OW29224   3.479   1.656   1.933 -0.4022 -0.4720  0.1712
 5921SOL    HW129225   3.396   1.615   1.958  0.4392 -2.1856  0.1724
 5921SOL    HW229226   3.538   1.633   2.005 -0.7383 -0.3969  0.4746
 5922SOL     OW29227   4.507   4.688   6.310  0.2161 -0.8139  0.5039
 5922SOL    HW129228   4.455   0.041   6.272  1.2478 -0.9700 -1.2244
 5922SOL    HW229229   4.574   0.009   6.367 -0.0812  0.9831 -0.3760
 5923SOL     OW29230   2.003   2.492   9.009  0.2657 -0.9341  0.1757
 5923SOL    HW129231   2.094   2.470   8.990  0.5092 -1.5573  1.9801
 5923SOL    HW229232   2.003   2.587   9.008 -0.7681 -0.9647 -2.4717
 5924SOL     OW29233   1.206   1.503   3.491  0.0790  0.7039 -0.4112
 5924SOL    HW129234   1.199   1.435   3.558 -0.4442 -1.4265 -2.6216
 5924SOL    HW229235   1.273   1.466   3.434  3.0324  2.5912  1.8445
 5925SOL     OW29236   2.314   1.669   7.609  0.5098 -0.2364  0.5578
 5925SOL    HW129237   2.324   1.592   7.665  2.6663  0.6764  1.4182
 5925SOL    HW229238   2.231   1.652   7.564  1.2930  0.3608 -1.1399
 5926SOL     OW29239   0.021   2.981   8.919 -0.1762 -0.3960  0.0766
 5926SOL    HW129240   0.034   3.024   9.003 -2.8710  0.0305  0.2581
 5926SOL    HW229241   0.069   3.035   8.856  1.5356  0.0002  1.7153
 5927SOL     OW29242   4.338   1.575   7.202 -0.3025 -0.6595 -0.4551
 5927SOL    HW129243   4.338   1.655   7.150 -0.6523 -1.3019 -1.4453
 5927SOL    HW229244   4.256   1.539   7.167 -0.4579  0.2354 -1.0030
 5928SOL     OW29245   1.919   4.546  13.983  0.0090  0.0398 -0.1371
 5928SOL    HW129246   1.970   4.545  13.902  1.0327  0.9722  0.4943
 5928SOL    HW229247   1.831   4.532  13.949 -0.3238 -2.0386  1.5544
 5929SOL     OW29248   0.697   0.381   1.934  0.4181  0.4651 -0.1259
 5929SOL    HW129249   0.659   0.340   2.012  0.2999 -1.1449 -1.0467
 5929SOL    HW229250   0.629   0.373   1.868  1.2868  0.8324 -1.0548
 5930SOL     OW29251   2.501   0.798   5.080 -0.5782 -0.2411  0.1055
 5930SOL    HW129252   2.431   0.754   5.031 -0.3513  1.9719 -2.2345
 5930SOL    HW229253   2.519   0.882   5.037  2.5202 -0.5802  0.7364
 5931SOL     OW29254   0.485   2.009  11.110  0.2890 -0.0803  0.1572
 5931SOL    HW129255   0.492   2.025  11.205 -0.0566  5.5094 -0.7624
 5931SOL    HW229256   0.506   2.099  11.088  0.4132  0.4649  2.4966
 5932SOL     OW29257   1.355   0.055   5.858  0.8967 -0.1381  0.0337
 5932SOL    HW129258   1.287   0.103   5.811 -0.0177 -1.7493 -0.3122
 5932SOL    HW229259   1.321   4.683   5.853 -0.1009  0.2561 -0.2012
 5933SOL     OW29260   0.437   3.139   7.366 -0.1322 -0.6138  0.2962
 5933SOL    HW129261   0.457   3.056   7.409 -2.7143  0.0738  2.8171
 5933SOL    HW229262   0.490   3.196   7.422 -2.4709 -0.2163  2.0755
 5934SOL     OW29263   2.476   3.234  15.302  0.5330  0.0286  0.1090
 5934SOL    HW129264   2.469   3.183  15.221  2.4639 -1.3904  0.8589
 5934SOL    HW229265   2.513   3.178  15.370  1.1662  0.5454  0.1832
 5935SOL     OW29266   2.710   4.092  11.234 -0.0224 -0.2526  0.3925
 5935SOL    HW129267   2.615   4.097  11.242 -0.2276 -1.7538 -1.2279
 5935SOL    HW229268   2.738   4.164  11.178 -1.6947  0.0445 -0.0698
 5936SOL     OW29269   1.906   3.062   3.550  0.1687  0.1530 -0.2258
 5936SOL    HW129270   1.824   3.091   3.588 -1.0605  0.4186 -3.0684
 5936SOL    HW229271   1.912   3.096   3.460 -2.4368 -3.0759 -1.5896
 5937SOL     OW29272   4.357   4.351   2.080  0.4891  0.5377  0.5092
 5937SOL    HW129273   4.399   4.304   2.152 -0.0978  2.0142  1.8098
 5937SOL    HW229274   4.265   4.358   2.103  0.2016  0.4473 -0.6233
 5938SOL     OW29275   2.166   2.095   6.475 -0.0410  0.2383 -0.5410
 5938SOL    HW129276   2.075   2.127   6.472  0.2512  1.0288 -0.8265
 5938SOL    HW229277   2.170   2.057   6.387  1.4795 -2.9907  0.9322
 5939SOL     OW29278   3.117   1.912   5.880 -0.1773  0.0869 -0.3115
 5939SOL    HW129279   3.095   1.983   5.820 -0.6477 -0.0125 -0.2589
 5939SOL    HW229280   3.182   1.955   5.935  1.4169  0.4177 -2.4809
 5940SOL     OW29281   1.546   0.693   8.386  0.3416  0.2322 -0.3175
 5940SOL    HW129282   1.460   0.666   8.355 -0.5178  1.5820  0.8571
 5940SOL    HW229283   1.528   0.768   8.443 -3.4297 -1.9313  1.3000
 5941SOL     OW29284   0.980   3.771   7.713  0.0080  0.2182  0.1046
 5941SOL    HW129285   0.903   3.778   7.769  0.1173 -0.7535  0.3705
 5941SOL    HW229286   1.040   3.735   7.778 -0.4890  2.2121  1.6700
 5942SOL     OW29287   0.487   1.467   6.981 -0.2324  0.1121 -0.2671
 5942SOL    HW129288   0.554   1.534   6.971 -1.4065  1.1812 -0.9208
 5942SOL    HW229289   0.418   1.518   7.025  0.2293  1.0136 -0.5997
 5943SOL     OW29290   4.359   2.800   4.729  0.5158 -0.4209 -0.6869
 5943SOL    HW129291   4.273   2.758   4.735 -0.9261  2.4438 -1.1948
 5943SOL    HW229292   4.346   2.881   4.680 -0.0574 -0.1530 -0.0967
 5944SOL     OW29293   1.583   1.871   6.018  0.1073  0.0722  0.2653
 5944SOL    HW129294   1.512   1.935   6.014 -0.2792 -0.3213  0.7648
 5944SOL    HW229295   1.609   1.881   6.110  1.6047 -0.9448 -0.0540
 5945SOL     OW29296   2.996   1.413   4.280  0.1288  0.0545  0.3643
 5945SOL    HW129297   3.054   1.365   4.221  0.7447 -1.7354  2.4421
 5945SOL    HW229298   2.967   1.334   4.325  0.6881 -1.1758 -1.4478
 5946SOL     OW29299   3.538   4.202   8.544  0.0708  0.1936  0.5672
 5946SOL    HW129300   3.506   4.205   8.454  2.0301 -0.5562 -0.1594
 5946SOL    HW229301   3.621   4.248   8.536  0.4915 -0.5683  0.4918
 5947SOL     OW29302   4.280   3.909  13.778  0.1116 -0.3936 -0.6910
 5947SOL    HW129303   4.282   3.977  13.845  2.6939  0.9842 -2.1568
 5947SOL    HW229304   4.186   3.897  13.769 -0.4136  2.0167  1.5793
 5948SOL     OW29305   3.604   2.465  13.229  0.3854  0.0160  0.3045
 5948SOL    HW129306   3.550   2.388  13.244 -1.2786  1.1841  0.3155
 5948SOL    HW229307   3.535   2.531  13.216  0.0961 -0.0348  1.5377
 5949SOL     OW29308   4.081   4.030   3.854 -0.5220 -0.0715  0.5641
 5949SOL    HW129309   4.044   3.964   3.795  1.4233  0.4476 -1.2332
 5949SOL    HW229310   4.173   4.009   3.837 -0.3482  0.3568  0.9709
 5950SOL     OW29311   2.466   3.899   7.651 -0.4439 -0.4655  0.1894
 5950SOL    HW129312   2.385   3.848   7.655  0.2082 -1.4891  0.3372
 5950SOL    HW229313   2.431   3.986   7.672  1.6326  0.5795 -0.6696
 5951SOL     OW29314   3.449   1.459  10.497 -0.1521 -0.6756  0.2183
 5951SOL    HW129315   3.468   1.551  10.478 -2.6874  0.0711  1.3233
 5951SOL    HW229316   3.420   1.469  10.588  0.5656 -0.2498  0.4042
 5952SOL     OW29317   2.937   1.671  13.851 -0.1433  0.3960 -0.4300
 5952SOL    HW129318   3.021   1.626  13.848 -1.0127 -1.2420 -0.0648
 5952SOL    HW229319   2.930   1.681  13.946 -1.1210  2.4065 -0.7137
 5953SOL     OW29320   1.588   1.874   2.925 -0.1582 -0.0268  0.1184
 5953SOL    HW129321   1.653   1.881   2.995 -0.2914 -0.4377  0.2782
 5953SOL    HW229322   1.505   1.883   2.972 -0.6550  2.4713 -1.2295
 5954SOL     OW29323   0.950   2.660   9.540 -0.3398 -0.8751 -0.4365
 5954SOL    HW129324   0.873   2.716   9.542  0.6393  0.4775 -0.2740
 5954SOL    HW229325   1.009   2.721   9.496  1.7770 -0.4684  2.9325
 5955SOL     OW29326   4.382   3.650  13.743  0.1283  0.0270 -0.0976
 5955SOL    HW129327   4.386   3.656  13.839  0.5370 -1.0266 -0.0552
 5955SOL    HW229328   4.357   3.742  13.733 -0.6176 -0.1171  0.4551
 5956SOL     OW29329   4.680   2.816   2.287 -0.6561 -0.4237 -0.0969
 5956SOL    HW129330   4.636   2.731   2.280 -0.4089 -0.3181 -2.9480
 5956SOL    HW229331   0.053   2.787   2.298  0.3571  2.5121 -0.9475
 5957SOL     OW29332   3.643   1.903  17.038  0.3107 -0.6557 -0.3369
 5957SOL    HW129333   3.668   1.944  17.120 -0.9135  0.2071 -0.3906
 5957SOL    HW229334   3.562   1.860  17.065 -0.9708  0.9440 -1.6234
 5958SOL     OW29335   3.172   3.804  10.050  0.2937 -0.1156 -0.3338
 5958SOL    HW129336   3.116   3.747  10.103  1.5038 -1.3451 -0.3964
 5958SOL    HW229337   3.250   3.798  10.105  1.7008  1.7521 -2.1190
 5959SOL     OW29338   1.869   3.113   2.805 -0.6602 -0.7322 -0.4004
 5959SOL    HW129339   1.909   3.193   2.840 -0.6811 -1.4565  1.2610
 5959SOL    HW229340   1.782   3.138   2.773 -1.2997 -0.2361  1.7753
 5960SOL     OW29341   0.455   1.057  10.685  0.0667 -0.1574 -0.3459
 5960SOL    HW129342   0.515   1.026  10.617 -0.1855  1.0523 -1.1171
 5960SOL    HW229343   0.502   1.122  10.738 -0.1519 -0.7390  0.5544
 5961SOL     OW29344   1.752   2.492   8.846 -0.2863 -0.3916 -0.5667
 5961SOL    HW129345   1.684   2.520   8.908  1.4903  0.6066  0.9331
 5961SOL    HW229346   1.825   2.511   8.905  0.1106 -0.9708 -0.8736
 5962SOL     OW29347   0.718   0.801   8.821 -0.0072  0.4842  0.0372
 5962SOL    HW129348   0.686   0.836   8.904 -0.8723  1.6384 -0.7776
 5962SOL    HW229349   0.749   0.712   8.836 -0.2223  0.2100 -1.1356
 5963SOL     OW29350   2.042   3.547  15.907  0.6211 -0.0019 -0.1147
 5963SOL    HW129351   2.107   3.617  15.898  0.4957  0.2999  1.3724
 5963SOL    HW229352   2.049   3.504  15.822 -0.0899  1.4114 -0.8784
 5964SOL     OW29353   0.412   3.720  15.076  0.3718 -0.1224 -0.3154
 5964SOL    HW129354   0.345   3.752  15.016  0.9094  0.9693 -0.3313
 5964SOL    HW229355   0.455   3.650  15.027 -2.0425 -0.1697 -2.3396
 5965SOL     OW29356   0.215   0.031   8.523  0.0057  0.6434  0.1402
 5965SOL    HW129357   0.304   0.062   8.541 -1.0872  3.9186 -0.1604
 5965SOL    HW229358   0.195   4.697   8.600 -0.1868 -0.4064 -0.6087
 5966SOL     OW29359   1.913   0.781  11.002  0.0199 -0.3127 -0.3303
 5966SOL    HW129360   1.898   0.811  10.912  0.8070  3.8010  0.9121
 5966SOL    HW229361   1.948   0.692  10.998 -0.1535 -0.4165  0.5107
 5967SOL     OW29362   0.948   4.432   6.588  0.0018 -0.3020  0.2708
 5967SOL    HW129363   1.013   4.442   6.657  1.4937  2.3041 -1.5308
 5967SOL    HW229364   1.003   4.418   6.511 -3.6747 -0.4484 -2.3224
 5968SOL     OW29365   2.380   0.669  14.771  0.0932  0.0665  0.0126
 5968SOL    HW129366   2.415   0.725  14.840 -0.3291 -0.0539  0.3247
 5968SOL    HW229367   2.444   0.695  14.704  0.1410 -1.0241 -0.3804
 5969SOL     OW29368   0.403   2.743  13.588  0.2368 -0.1736 -0.3491
 5969SOL    HW129369   0.406   2.659  13.542  0.9067 -0.1634 -0.3269
 5969SOL    HW229370   0.318   2.742  13.631  0.2994  0.0589 -0.2210
 5970SOL     OW29371   3.868   2.789   3.659 -0.1309  0.3129 -0.0280
 5970SOL    HW129372   3.774   2.805   3.648 -0.1180 -0.1138 -0.8027
 5970SOL    HW229373   3.862   2.729   3.733 -0.0008 -1.0891 -1.1402
 5971SOL     OW29374   3.013   2.542   0.585 -0.2178  0.1135 -0.3759
 5971SOL    HW129375   3.050   2.471   0.638 -1.6804 -0.0541  0.4489
 5971SOL    HW229376   2.923   2.513   0.567 -0.0820 -0.4934 -0.0850
 5972SOL     OW29377   3.353   0.464  17.207  0.2979 -0.1424 -0.1256
 5972SOL    HW129378   3.288   0.473  17.137  2.0618  0.1540 -1.7196
 5972SOL    HW229379   3.426   0.424  17.160  1.4758  1.1543  0.6110
 5973SOL     OW29380   4.120   2.210   5.977  0.6180 -0.2203  0.2683
 5973SOL    HW129381   4.201   2.161   5.991  2.7369  2.3163 -3.1674
 5973SOL    HW229382   4.108   2.262   6.057 -0.7691  0.1001 -0.1593
 5974SOL     OW29383   2.767   3.124  11.089  0.5220 -0.4034  0.3858
 5974SOL    HW129384   2.833   3.193  11.094  1.2678 -1.0419 -0.5844
 5974SOL    HW229385   2.707   3.157  11.156 -1.1414 -2.0515 -0.2683
 5975SOL     OW29386   3.495   1.143   5.662  0.9197 -0.1182  0.3589
 5975SOL    HW129387   3.411   1.127   5.620  0.9345  3.5843 -1.0692
 5975SOL    HW229388   3.531   1.210   5.604 -1.0861  0.3318 -0.3789
 5976SOL     OW29389   2.035   2.138   0.941 -0.3207  0.3281 -0.2143
 5976SOL    HW129390   2.032   2.230   0.968  0.2127  0.6134 -1.1017
 5976SOL    HW229391   1.941   2.123   0.931  0.0179 -0.9045 -1.6035
 5977SOL     OW29392   0.659   0.496  17.331  0.1222  0.4053 -0.1634
 5977SOL    HW129393   0.613   0.490  17.415  2.1624 -0.1778  0.9036
 5977SOL    HW229394   0.717   0.420  17.325 -1.8810 -1.0906 -0.5310
 5978SOL     OW29395   0.085   4.072   5.384  0.3310  0.3059  0.7561
 5978SOL    HW129396   0.014   4.077   5.448  0.2460  0.7612  0.6239
 5978SOL    HW229397   0.141   4.135   5.428  0.7632  0.2375  0.3052
 5979SOL     OW29398   1.373   0.358   8.089 -0.3213  0.3490  0.2782
 5979SOL    HW129399   1.355   0.266   8.072 -0.3568  0.2266  0.9715
 5979SOL    HW229400   1.399   0.387   8.002 -0.4574 -0.9587 -0.1836
 5980SOL     OW29401   3.124   2.928   4.238  0.0127  0.2619 -0.3038
 5980SOL    HW129402   3.142   2.927   4.144  0.2316 -2.2179 -0.2375
 5980SOL    HW229403   3.176   2.858   4.276 -0.3779 -0.4407 -1.0606
 5981SOL     OW29404   2.476   0.046   4.851 -0.2875  0.2672  0.3380
 5981SOL    HW129405   2.385   0.034   4.876 -0.7459  0.8810 -1.0407
 5981SOL    HW229406   2.483   0.141   4.865  0.3488  0.0368  1.6077
 5982SOL     OW29407   4.338   1.439   1.169  0.0652  0.1449  0.6693
 5982SOL    HW129408   4.354   1.518   1.221 -0.0806 -0.8180  2.1681
 5982SOL    HW229409   4.246   1.416   1.171 -0.2236  1.3160  1.1376
 5983SOL     OW29410   0.373   1.653  15.579  0.2185 -0.0934  0.2054
 5983SOL    HW129411   0.302   1.646  15.643 -1.2363 -1.7040 -1.5535
 5983SOL    HW229412   0.441   1.696  15.630 -0.3952  1.4835 -0.3213
 5984SOL     OW29413   4.227   2.759   0.643 -0.1340  0.4119 -0.2011
 5984SOL    HW129414   4.279   2.839   0.648  2.2231 -0.9952 -1.9590
 5984SOL    HW229415   4.146   2.778   0.690  1.7433  4.4992  1.3973
 5985SOL     OW29416   2.197   2.547   6.628  0.1901  0.0885 -0.5505
 5985SOL    HW129417   2.289   2.522   6.635  0.5019  1.4477  0.2575
 5985SOL    HW229418   2.198   2.638   6.658 -0.3087 -0.5920  1.5912
 5986SOL     OW29419   2.990   4.335   4.498  0.1518  0.5719 -0.5190
 5986SOL    HW129420   3.046   4.387   4.555  1.8545  1.9108 -3.3773
 5986SOL    HW229421   3.041   4.264   4.460 -1.7381 -1.3003  0.4862
 5987SOL     OW29422   4.011   1.106   2.277  0.1186  0.2474  0.1020
 5987SOL    HW129423   3.987   1.090   2.186  0.3092 -0.1213  0.1147
 5987SOL    HW229424   3.953   1.175   2.308 -2.5813 -1.2844 -1.5559
 5988SOL     OW29425   0.378   0.512   3.981 -0.4204  0.1578  0.0305
 5988SOL    HW129426   0.364   0.493   4.074 -0.1894  0.2251  0.0790
 5988SOL    HW229427   0.362   0.425   3.943 -0.0141  0.6904 -1.3671
 5989SOL     OW29428   2.422   3.321  17.509 -0.0134  0.5597  0.2893
 5989SOL    HW129429   2.489   3.336  17.576 -0.8922  2.1230  0.8355
 5989SOL    HW229430   2.400   3.412  17.487  3.2621  0.8742 -1.6590
 5990SOL     OW29431   1.107   3.622   7.908 -0.5283  0.4074 -0.3633
 5990SOL    HW129432   1.105   3.552   7.973  0.5389 -0.5555 -1.3740
 5990SOL    HW229433   1.185   3.656   7.952 -1.1618  0.2532  0.8758
 5991SOL     OW29434   3.286   4.315   4.654  0.5417  0.3026 -0.5647
 5991SOL    HW129435   3.226   4.246   4.683 -1.6095  0.8286 -3.7895
 5991SOL    HW229436   3.338   4.269   4.589 -1.0915 -0.5747 -1.2600
 5992SOL     OW29437   4.524   2.585   6.025  0.1111 -0.2141  0.1938
 5992SOL    HW129438   4.488   2.538   6.101 -0.1356 -0.2002  0.0859
 5992SOL    HW229439   4.512   2.674   6.061 -1.2565 -0.2949 -0.0402
 5993SOL     OW29440   3.159   1.309   6.630  0.0002  0.2288 -0.1804
 5993SOL    HW129441   3.123   1.380   6.683  0.1330 -0.8424  1.3441
 5993SOL    HW229442   3.119   1.323   6.544 -1.3860 -3.3391 -0.1253
 5994SOL     OW29443   4.465   1.860   3.504  0.0162 -0.0952 -0.3063
 5994SOL    HW129444   4.477   1.768   3.482 -3.6480 -0.3537 -1.2821
 5994SOL    HW229445   4.538   1.894   3.453  0.5321 -2.2311 -0.9925
 5995SOL     OW29446   4.126   1.932   4.571  0.3022 -0.0513  0.1737
 5995SOL    HW129447   4.154   1.984   4.496 -0.5334 -0.6077 -0.5289
 5995SOL    HW229448   4.117   1.843   4.536  0.5140  0.5583 -1.3962
 5996SOL     OW29449   0.237   3.841   5.403 -0.2072  0.2217  0.4977
 5996SOL    HW129450   0.311   3.829   5.463  0.6176 -1.4665 -0.8883
 5996SOL    HW229451   0.229   3.937   5.405 -0.0289  0.2546 -0.9133
 5997SOL     OW29452   2.493   0.102  12.108  0.2050 -0.3818  0.8437
 5997SOL    HW129453   2.566   0.042  12.126  1.0366  0.3948  0.0251
 5997SOL    HW229454   2.431   0.040  12.069  0.1087  0.1508  0.1574
 5998SOL     OW29455   1.180   0.413   8.426 -0.3990  0.0660  0.0231
 5998SOL    HW129456   1.089   0.433   8.450 -0.5914 -2.9964  1.8538
 5998SOL    HW229457   1.220   0.389   8.510 -0.2182 -1.3431 -0.4666
 5999SOL     OW29458   3.980   1.839   4.197  0.0431 -0.0769 -0.1232
 5999SOL    HW129459   4.005   1.931   4.188  1.0202 -0.2876  0.4843
 5999SOL    HW229460   3.968   1.820   4.104 -0.6645  1.2349 -0.3002
 6000SOL     OW29461   4.339   0.018   2.658 -0.1234 -0.1801 -0.2886
 6000SOL    HW129462   4.268   0.073   2.691  0.7727  2.3317 -2.5606
 6000SOL    HW229463   4.398   0.082   2.620  1.6739 -0.6319  1.7200
 6001SOL     OW29464   2.500   4.399   3.311 -0.6306  0.1450 -0.7519
 6001SOL    HW129465   2.585   4.373   3.277 -1.0023 -1.5033 -0.4233
 6001SOL    HW229466   2.447   4.337   3.261 -2.6326  0.7865  0.5485
 6002SOL     OW29467   2.121   1.479   1.307 -0.2082  0.3990 -0.1003
 6002SOL    HW129468   2.159   1.406   1.356  1.1399  0.9765 -0.3056
 6002SOL    HW229469   2.057   1.504   1.373  3.3292 -1.1543  3.9278
 6003SOL     OW29470   0.392   0.038   7.228 -0.6980  0.3341 -0.0237
 6003SOL    HW129471   0.464   0.035   7.291  1.1799 -1.7064 -2.2777
 6003SOL    HW229472   0.337   4.689   7.270 -2.4601  2.2384  0.6784
 6004SOL     OW29473   0.172   0.778  13.438 -0.5382 -0.2098  0.2649
 6004SOL    HW129474   0.165   0.683  13.433 -0.8565 -0.1183 -1.1008
 6004SOL    HW229475   0.114   0.806  13.509  0.4182 -0.9815  1.3513
 6005SOL     OW29476   3.659   2.588   2.254 -0.1274 -0.8626 -0.2976
 6005SOL    HW129477   3.639   2.595   2.347 -1.4898  2.6124 -0.8506
 6005SOL    HW229478   3.575   2.562   2.216 -0.4062  0.4701 -0.5699
 6006SOL     OW29479   0.535   0.326  16.050 -0.0547 -0.1248 -0.0185
 6006SOL    HW129480   0.524   0.389  16.121 -0.6169  1.0017 -1.1046
 6006SOL    HW229481   0.473   0.267  16.094 -0.9638  0.8229 -0.0456
 6007SOL     OW29482   4.195   2.712   6.651 -0.2549  0.2226 -0.3223
 6007SOL    HW129483   4.277   2.695   6.605 -0.2374 -0.4245 -0.0633
 6007SOL    HW229484   4.147   2.775   6.598  1.4750  1.3798 -0.4759
 6008SOL     OW29485   0.939   3.263   3.968 -0.4473  0.0273 -0.0252
 6008SOL    HW129486   0.980   3.247   3.883 -0.0782 -0.8625  0.3231
 6008SOL    HW229487   0.950   3.180   4.015  2.1543 -0.1968 -1.0508
 6009SOL     OW29488   0.394   2.877   6.593  0.0938 -0.2056  0.5231
 6009SOL    HW129489   0.338   2.911   6.523 -0.2129 -2.2545 -0.2409
 6009SOL    HW229490   0.328   2.822   6.635  1.8405 -3.1141 -0.5223
 6010SOL     OW29491   0.846   3.397   8.220 -0.4537  0.1212 -0.5208
 6010SOL    HW129492   0.827   3.452   8.144 -2.0350  0.8116  0.3562
 6010SOL    HW229493   0.855   3.459   8.293  0.3112  0.2937 -0.7639
 6011SOL     OW29494   1.371   0.363   4.888  0.7065  0.3597  0.8204
 6011SOL    HW129495   1.420   0.333   4.811 -0.8277  0.9496 -0.3865
 6011SOL    HW229496   1.360   0.456   4.866  0.5024  0.0643 -0.3151
 6012SOL     OW29497   3.977   1.323  12.946  0.4133 -0.1556  0.1359
 6012SOL    HW129498   3.941   1.368  13.022  1.0471  0.1205  0.2714
 6012SOL    HW229499   4.008   1.244  12.989  0.2796  0.3985  1.2510
 6013SOL     OW29500   0.324   2.457  12.166  0.3045 -0.2758  0.3072
 6013SOL    HW129501   0.416   2.433  12.159  0.3024 -0.0624 -0.4731
 6013SOL    HW229502   0.284   2.373  12.187 -0.5630 -0.0117 -0.2453
 6014SOL     OW29503   1.392   4.121   4.864 -0.3333 -0.3407  0.1459
 6014SOL    HW129504   1.305   4.102   4.830 -0.8355  2.8782 -0.3190
 6014SOL    HW229505   1.365   4.157   4.948  2.7119 -0.6224  1.2487
 6015SOL     OW29506   1.310   1.957   3.015  0.3867  0.6042  0.0927
 6015SOL    HW129507   1.271   1.872   3.040 -0.2815  1.6498  2.6107
 6015SOL    HW229508   1.237   1.985   2.960  0.5081 -0.3112 -0.5434
 6016SOL     OW29509   1.605   2.761   7.689 -0.1814  0.3237 -0.5437
 6016SOL    HW129510   1.693   2.729   7.673 -0.6498 -2.0423  1.6196
 6016SOL    HW229511   1.618   2.854   7.676 -0.1821  0.3752 -0.1814
 6017SOL     OW29512   0.326   0.432   4.252 -0.3101 -0.4200 -0.1108
 6017SOL    HW129513   0.327   0.353   4.306 -0.9353 -0.3004  0.0764
 6017SOL    HW229514   0.403   0.479   4.282 -1.5471  1.1293  0.6011
 6018SOL     OW29515   2.084   2.809  16.174 -0.9018  0.2150  0.0833
 6018SOL    HW129516   2.054   2.894  16.206  0.8761  1.1025 -0.5606
 6018SOL    HW229517   2.155   2.785  16.234 -1.1658  0.0248  0.3184
 6019SOL     OW29518   1.099   3.870   3.828 -0.3152  0.0285  0.3935
 6019SOL    HW129519   1.182   3.825   3.815 -1.0736 -0.6825 -2.0642
 6019SOL    HW229520   1.119   3.964   3.821 -0.9472  0.2064  0.8716
 6020SOL     OW29521   1.301   1.776  17.004  0.1330  0.0740 -0.2854
 6020SOL    HW129522   1.314   1.681  16.996 -0.6251  0.1062 -1.8545
 6020SOL    HW229523   1.290   1.799  17.096 -1.4071  1.6287 -0.8596
 6021SOL     OW29524   1.542   0.916   1.406 -0.0708  0.2651  0.5769
 6021SOL    HW129525   1.496   0.936   1.324 -3.1378 -0.5283  2.1099
 6021SOL    HW229526   1.540   0.820   1.413 -0.2796  0.2942  0.9325
 6022SOL     OW29527   0.492   0.046   2.053 -0.2215 -0.0929 -0.4642
 6022SOL    HW129528   0.492   0.142   2.050  0.1470 -0.0620  0.2987
 6022SOL    HW229529   0.588   0.038   2.047 -0.5609 -1.8776 -3.2202
 6023SOL     OW29530   0.058   1.212  12.631 -0.2042 -0.2199 -0.0509
 6023SOL    HW129531   0.017   1.134  12.593  0.2439 -0.1801 -0.6132
 6023SOL    HW229532   0.021   1.214  12.719  0.7273  0.8333  0.3101
 6024SOL     OW29533   3.031   3.599  11.380  0.8088  0.1108 -0.1519
 6024SOL    HW129534   3.119   3.611  11.417 -0.1412 -0.6653  2.3339
 6024SOL    HW229535   3.046   3.619  11.287  3.0165 -2.5701 -0.4017
 6025SOL     OW29536   3.597   3.414   8.949 -1.0269  0.2467  0.1288
 6025SOL    HW129537   3.639   3.440   8.867 -1.9485 -1.0754 -0.7598
 6025SOL    HW229538   3.504   3.419   8.926 -0.5030  1.3780 -1.7351
 6026SOL     OW29539   1.892   1.870  10.376  0.3206 -0.1758  0.4648
 6026SOL    HW129540   1.844   1.800  10.420 -0.0541  1.8920  3.3217
 6026SOL    HW229541   1.922   1.918  10.453  0.2194  1.3554 -0.4654
 6027SOL     OW29542   2.267   1.969   2.308  0.1232 -0.3596  0.3419
 6027SOL    HW129543   2.222   2.034   2.362  0.4561 -0.4689  0.7536
 6027SOL    HW229544   2.355   1.993   2.337 -0.1617  0.7442  0.3136
 6028SOL     OW29545   1.569   0.903   1.938 -0.3759  0.9195  0.8383
 6028SOL    HW129546   1.605   0.948   2.015  0.3893  3.7645 -1.2014
 6028SOL    HW229547   1.595   0.964   1.869  1.9969  0.1194  1.0296
 6029SOL     OW29548   2.548   2.174   6.207  0.0123 -0.4741  0.1878
 6029SOL    HW129549   2.467   2.225   6.214  1.1696  1.6151 -1.5948
 6029SOL    HW229550   2.609   2.240   6.241  0.9855 -1.7621  0.9540
 6030SOL     OW29551   4.366   0.735   5.291 -0.2811  0.5303  0.0413
 6030SOL    HW129552   4.431   0.667   5.273  0.3013  0.6038  1.9010
 6030SOL    HW229553   4.284   0.692   5.268 -0.6560  1.2949 -0.0471
 6031SOL     OW29554   2.340   3.584   7.767 -0.7257  0.7584 -0.0873
 6031SOL    HW129555   2.339   3.643   7.842  0.9677  1.2329 -0.4376
 6031SOL    HW229556   2.334   3.636   7.687  3.6508  1.5834  0.1186
 6032SOL     OW29557   0.871   4.508  12.602  0.4044  0.2398 -0.5065
 6032SOL    HW129558   0.859   4.437  12.665 -0.2243 -0.4247 -1.3745
 6032SOL    HW229559   0.890   4.591  12.646 -2.9784 -0.1733  1.7192
 6033SOL     OW29560   0.345   2.274   2.702 -0.1497 -0.1743  0.1380
 6033SOL    HW129561   0.341   2.348   2.763  1.4834  0.4092 -0.4805
 6033SOL    HW229562   0.266   2.229   2.733  0.7373 -0.6467  1.7470
 6034SOL     OW29563   4.115   0.265   5.064 -0.2214  0.8034  0.4893
 6034SOL    HW129564   4.047   0.332   5.061 -0.3864  0.5818 -0.6172
 6034SOL    HW229565   4.104   0.237   4.973  2.0773  0.2004  0.3916
 6035SOL     OW29566   0.546   0.952  12.817  0.2389  0.2048 -0.2969
 6035SOL    HW129567   0.462   0.953  12.771  0.3443  2.5139 -0.4508
 6035SOL    HW229568   0.564   1.046  12.826 -0.0212  0.0974  1.3855
 6036SOL     OW29569   3.911   4.106  16.693 -0.3641  0.3043  0.1905
 6036SOL    HW129570   3.819   4.080  16.686 -0.0081 -0.7834 -0.4939
 6036SOL    HW229571   3.902   4.185  16.640 -2.5370 -0.5879 -0.7838
 6037SOL     OW29572   1.205   3.797   9.064 -0.1299 -0.8017  0.3133
 6037SOL    HW129573   1.111   3.782   9.076 -0.2863 -1.4477 -1.7379
 6037SOL    HW229574   1.245   3.729   9.118  1.4030  0.9274  1.3365
 6038SOL     OW29575   1.771   4.462  16.515  0.3984  0.8354 -0.3345
 6038SOL    HW129576   1.762   4.546  16.559 -1.0030  0.3737  0.2621
 6038SOL    HW229577   1.753   4.492  16.426  2.5651  1.0978 -0.6765
 6039SOL     OW29578   2.209   0.603   1.891  0.3293  0.1079 -0.2040
 6039SOL    HW129579   2.153   0.593   1.814  0.4578 -0.4302 -0.2258
 6039SOL    HW229580   2.174   0.684   1.927 -2.6631 -1.1929 -0.1396
 6040SOL     OW29581   2.588   0.001   3.184 -0.9244 -0.2323 -0.0907
 6040SOL    HW129582   2.596   0.096   3.191  0.0726 -0.3155 -0.1040
 6040SOL    HW229583   2.586   4.705   3.089  0.1531 -0.1744 -0.1210
 6041SOL     OW29584   2.139   2.613   1.048  0.4143  0.4944 -0.5314
 6041SOL    HW129585   2.100   2.696   1.019 -0.8641 -0.9913 -3.0098
 6041SOL    HW229586   2.232   2.634   1.059  0.4798 -0.0694 -0.0171
 6042SOL     OW29587   4.717   4.327  11.007  0.3581  0.1636 -0.8001
 6042SOL    HW129588   0.028   4.316  11.098 -0.4427  2.1440 -0.3131
 6042SOL    HW229589   0.072   4.362  10.957  2.0221 -0.3665  1.2277
 6043SOL     OW29590   3.243   1.222   3.794  0.2628 -0.1407  0.0932
 6043SOL    HW129591   3.290   1.259   3.720 -0.8058 -2.1931 -1.5961
 6043SOL    HW229592   3.261   1.295   3.854  2.8194  0.3126 -1.2370
 6044SOL     OW29593   0.254   2.236   4.624 -0.2284 -0.2752 -0.3299
 6044SOL    HW129594   0.307   2.293   4.568 -0.5548  0.9426  0.6036
 6044SOL    HW229595   0.291   2.240   4.712 -1.4255 -0.4188  0.1741
 6045SOL     OW29596   0.019   1.924   7.793  0.3885 -0.2940 -0.0755
 6045SOL    HW129597   0.059   1.862   7.733 -0.1471 -0.2604 -0.4686
 6045SOL    HW229598   0.057   2.009   7.772 -0.0858  0.3516  1.6246
 6046SOL     OW29599   3.038   2.248   8.183  0.1727 -0.4670  0.4881
 6046SOL    HW129600   3.110   2.217   8.128 -0.2341 -0.0436 -0.2892
 6046SOL    HW229601   2.975   2.179   8.163 -0.8364  0.8922 -1.1138
 6047SOL     OW29602   1.961   0.589   8.993  0.1966 -0.1218  0.1630
 6047SOL    HW129603   1.957   0.683   8.975 -0.3559 -0.1160  0.3283
 6047SOL    HW229604   2.035   0.572   8.935  0.0553 -3.3240  0.8715
 6048SOL     OW29605   1.694   4.389   6.488  0.4751 -0.1589 -0.5344
 6048SOL    HW129606   1.693   4.474   6.443  0.3801  0.6070  0.9206
 6048SOL    HW229607   1.788   4.375   6.497  0.8150  1.2487 -1.7230
 6049SOL     OW29608   0.701   2.801  11.043 -0.7942  0.1221 -0.6256
 6049SOL    HW129609   0.612   2.836  11.044 -0.6825  0.4217 -0.9843
 6049SOL    HW229610   0.746   2.823  10.961 -1.0145  2.9807  0.0370
 6050SOL     OW29611   1.088   2.992   7.896 -0.1360 -0.3717 -0.5431
 6050SOL    HW129612   1.124   2.940   7.968  1.2428 -0.5043 -1.3131
 6050SOL    HW229613   1.134   3.070   7.925 -0.3292 -0.8471  1.0417
 6051SOL     OW29614   0.304   3.118   5.883  0.2844  0.1290 -0.8202
 6051SOL    HW129615   0.378   3.159   5.929  2.3525 -4.0474 -0.4829
 6051SOL    HW229616   0.334   3.032   5.856  1.5272 -0.3164  1.9572
 6052SOL     OW29617   0.785   0.814  11.187  0.2919 -0.3161 -0.2530
 6052SOL    HW129618   0.698   0.819  11.226  0.5713  0.1466  0.3150
 6052SOL    HW229619   0.752   0.815  11.097 -0.6681 -2.1603  0.0768
 6053SOL     OW29620   1.776   2.876  16.002 -0.3501 -0.2677 -0.4767
 6053SOL    HW129621   1.849   2.816  15.984  0.0113  0.2883 -0.8874
 6053SOL    HW229622   1.828   2.954  16.024  1.5900 -1.8410  0.5303
 6054SOL     OW29623   3.816   1.619  15.589  0.3103 -0.7196  0.3041
 6054SOL    HW129624   3.882   1.683  15.560  0.3452 -1.0670 -0.3865
 6054SOL    HW229625   3.811   1.568  15.508  0.8069 -0.0259 -0.1725
 6055SOL     OW29626   2.228   4.714  14.886  0.1184 -0.1462 -0.1543
 6055SOL    HW129627   2.300   4.653  14.867  0.4926 -0.2199  1.4849
 6055SOL    HW229628   2.277   0.071  14.921  2.0775 -0.6814 -1.7520
 6056SOL     OW29629   2.421   4.335  13.425  0.2061  0.1393  0.3535
 6056SOL    HW129630   2.442   4.399  13.357 -0.1900 -0.6246 -0.4880
 6056SOL    HW229631   2.448   4.255  13.380  1.1985  1.2902 -1.1336
 6057SOL     OW29632   2.209   3.930   4.261 -0.1785 -0.1403 -0.2049
 6057SOL    HW129633   2.237   3.845   4.296  0.0258 -0.3723 -0.9383
 6057SOL    HW229634   2.205   3.984   4.340 -1.2320 -0.6489  0.0970
 6058SOL     OW29635   0.326   1.985   5.911  0.6181  0.3803  0.3028
 6058SOL    HW129636   0.334   2.060   5.970 -2.0009  0.4916  0.5568
 6058SOL    HW229637   0.334   2.027   5.826 -2.4735  0.1553 -0.1163
 6059SOL     OW29638   3.457   2.514  13.659  0.5386  0.2947  0.2587
 6059SOL    HW129639   3.406   2.502  13.580  0.1985 -1.1494  0.6879
 6059SOL    HW229640   3.545   2.520  13.622 -0.0305 -1.5803 -1.4118
 6060SOL     OW29641   3.900   4.590   3.044  0.3859 -0.8608 -0.1860
 6060SOL    HW129642   3.870   4.551   3.126 -0.9651  0.3164 -0.1422
 6060SOL    HW229643   3.897   4.506   2.997 -0.9465  0.9136 -3.2617
 6061SOL     OW29644   0.093   3.407  14.516 -0.0481  0.0815  0.1049
 6061SOL    HW129645   0.005   3.370  14.527  0.7244 -1.0369  2.5334
 6061SOL    HW229646   0.093   3.427  14.422  1.5984 -1.9425 -0.3204
 6062SOL     OW29647   1.773   1.633   0.896  0.3299 -0.6460 -0.1286
 6062SOL    HW129648   1.775   1.651   0.990 -0.8643  0.0936 -0.2465
 6062SOL    HW229649   1.810   1.716   0.865 -1.6176  0.3377  0.2233
 6063SOL     OW29650   1.019   4.218   8.820 -0.2997  0.3301 -0.1444
 6063SOL    HW129651   0.946   4.199   8.880 -1.2347  0.8752 -1.1105
 6063SOL    HW229652   1.087   4.159   8.853  0.3146  0.1312 -1.7824
 6064SOL     OW29653   1.004   4.568   2.703  0.3974  0.0449 -0.0316
 6064SOL    HW129654   1.038   4.621   2.631 -1.2631  2.4647  0.9841
 6064SOL    HW229655   1.060   4.492   2.716 -0.5136 -0.9498 -1.8968
 6065SOL     OW29656   0.185   0.741  10.392  0.3764 -0.1444  0.0461
 6065SOL    HW129657   0.115   0.728  10.456  0.0181  1.4798 -0.0129
 6065SOL    HW229658   0.157   0.826  10.360  1.4783 -1.1543 -3.5353
 6066SOL     OW29659   1.215   2.249  10.065  0.2577  0.8726 -0.4638
 6066SOL    HW129660   1.211   2.315   9.995  1.4682  0.1155 -1.2440
 6066SOL    HW229661   1.204   2.295  10.148  1.1795  1.0012 -0.4068
 6067SOL     OW29662   2.692   0.470  11.447  0.9252 -0.1101 -0.1868
 6067SOL    HW129663   2.780   0.458  11.413  0.7213 -1.6205 -0.1913
 6067SOL    HW229664   2.658   0.383  11.466 -0.1717  0.5002  0.6256
 6068SOL     OW29665   4.605   3.186  12.477  0.4407  0.3746  0.1950
 6068SOL    HW129666   4.615   3.158  12.568 -1.2024 -1.1344 -0.0732
 6068SOL    HW229667   4.514   3.215  12.482  0.4582  0.6355 -0.9477
 6069SOL     OW29668   4.257   4.167  16.251 -0.3128  0.4480 -0.0847
 6069SOL    HW129669   4.265   4.198  16.341  1.4278 -1.7521  0.5309
 6069SOL    HW229670   4.223   4.245  16.207  0.4450  0.8096 -0.0352
 6070SOL     OW29671   0.870   4.439   7.708  0.0864  0.0692 -0.2189
 6070SOL    HW129672   0.850   4.392   7.789  2.4114  1.2149  1.0349
 6070SOL    HW229673   0.906   4.521   7.741 -1.1353  1.2464 -1.8531
 6071SOL     OW29674   3.865   3.152   2.894  0.0328 -0.2462  0.0815
 6071SOL    HW129675   3.950   3.123   2.861  0.2515 -1.2953  1.5721
 6071SOL    HW229676   3.845   3.080   2.954 -1.2246  0.7812  0.9086
 6072SOL     OW29677   1.762   1.928   4.906 -0.0356  0.3265  0.5372
 6072SOL    HW129678   1.717   1.995   4.855 -0.3597  0.4544  0.9866
 6072SOL    HW229679   1.840   1.974   4.938 -2.1809  2.6074  2.5100
 6073SOL     OW29680   0.609   3.084  14.528 -0.6746 -0.3459  0.0188
 6073SOL    HW129681   0.629   2.993  14.504 -0.8102  0.2687 -2.4185
 6073SOL    HW229682   0.538   3.118  14.474 -0.6627  1.0314  0.8918
 6074SOL     OW29683   1.208   0.174   7.223  0.1221 -0.2805  0.1385
 6074SOL    HW129684   1.155   0.104   7.185 -0.8475  0.6168 -0.1705
 6074SOL    HW229685   1.292   0.131   7.237  0.6269  0.2078 -1.4219
 6075SOL     OW29686   4.034   2.108  17.127 -0.0286  0.0553 -0.0263
 6075SOL    HW129687   4.087   2.167  17.181 -0.8873 -0.4041  1.3200
 6075SOL    HW229688   4.051   2.154  17.045 -0.3468 -1.2368 -0.8045
 6076SOL     OW29689   3.279   2.945   8.314  0.0912 -0.1141  0.0362
 6076SOL    HW129690   3.274   2.852   8.290 -0.9212  0.1908 -0.9167
 6076SOL    HW229691   3.191   2.970   8.288 -0.3866 -0.3577  1.4288
 6077SOL     OW29692   0.651   2.714  10.292 -0.0465 -0.7760 -0.2156
 6077SOL    HW129693   0.737   2.701  10.253 -0.2089 -1.6853 -0.2708
 6077SOL    HW229694   0.668   2.783  10.356 -1.0996  0.7756 -1.6134
 6078SOL     OW29695   3.257   3.269   4.044 -0.6858  0.2329  0.0614
 6078SOL    HW129696   3.285   3.354   4.011 -2.2226  1.6137  2.2306
 6078SOL    HW229697   3.305   3.208   3.989 -1.6035  1.7626 -2.4344
 6079SOL     OW29698   2.246   0.394   3.738  0.3664 -0.5212  0.4607
 6079SOL    HW129699   2.252   0.299   3.748  1.0040 -0.4985  0.3034
 6079SOL    HW229700   2.276   0.411   3.649  0.6805  0.3897  0.7507
 6080SOL     OW29701   1.445   3.214  12.751  0.3029 -0.2573 -0.0706
 6080SOL    HW129702   1.386   3.172  12.814 -0.5744  0.1974 -0.6030
 6080SOL    HW229703   1.476   3.138  12.701  1.4608  0.0901  0.1024
 6081SOL     OW29704   0.876   0.249  10.172 -0.7737 -0.1783  0.7552
 6081SOL    HW129705   0.861   0.206  10.088  0.8246 -0.3692  0.5711
 6081SOL    HW229706   0.807   0.202  10.219 -0.2242 -0.9302  0.8079
 6082SOL     OW29707   0.910   4.477  17.041 -0.0022 -0.3683 -0.1942
 6082SOL    HW129708   0.895   4.419  16.967 -1.5098 -1.0757  0.6547
 6082SOL    HW229709   0.867   4.425  17.109 -2.3117 -0.9325 -2.1051
 6083SOL     OW29710   0.323   1.779   8.223  0.0608 -0.2989  0.0228
 6083SOL    HW129711   0.297   1.722   8.295  2.1330 -0.9519  0.2374
 6083SOL    HW229712   0.294   1.859   8.267  0.1826  0.6539 -1.6218
 6084SOL     OW29713   2.326   4.523   4.123 -0.6443  0.0482  0.9163
 6084SOL    HW129714   2.392   4.592   4.114 -0.6471  0.1128  1.4114
 6084SOL    HW229715   2.374   4.445   4.151 -2.5461 -0.2102  3.4309
 6085SOL     OW29716   4.089   2.414  12.031 -0.3552 -0.3074  0.4830
 6085SOL    HW129717   4.173   2.367  12.031  0.8592  1.8893  1.1826
 6085SOL    HW229718   4.090   2.457  11.945  0.6009 -2.2471 -0.4872
 6086SOL     OW29719   0.317   1.879  13.314  0.2724  0.2249 -0.4726
 6086SOL    HW129720   0.388   1.942  13.301 -0.1599  0.6393 -0.8397
 6086SOL    HW229721   0.253   1.920  13.255 -0.5832 -0.0216  0.2943
 6087SOL     OW29722   2.387   2.397   9.596  0.9389  0.8044  0.1648
 6087SOL    HW129723   2.350   2.401   9.684  0.0937  2.3014 -0.2498
 6087SOL    HW229724   2.362   2.482   9.560  0.8558  0.8444  0.3178
 6088SOL     OW29725   4.494   3.885  14.213 -0.2487  0.0497  0.1841
 6088SOL    HW129726   4.491   3.951  14.283  0.8568  0.4911 -0.1768
 6088SOL    HW229727   4.401   3.884  14.190 -0.1647  1.5988 -0.2384
 6089SOL     OW29728   3.127   0.165   3.697 -0.0687  0.7633  0.0563
 6089SOL    HW129729   3.199   0.126   3.647 -0.5372  0.3897 -0.3386
 6089SOL    HW229730   3.070   0.134   3.626  1.7883 -1.6940 -0.3921
 6090SOL     OW29731   3.737   4.033  12.665 -0.1445 -0.5816 -0.4033
 6090SOL    HW129732   3.818   4.060  12.621 -1.6356  1.5846 -1.7926
 6090SOL    HW229733   3.678   4.107  12.651  1.1857  0.5116 -0.2459
 6091SOL     OW29734   4.681   2.010  14.735  0.3733 -0.3333  0.0527
 6091SOL    HW129735   4.696   1.921  14.705  2.1206 -0.0208  0.0184
 6091SOL    HW229736   0.054   2.039  14.727  0.3660 -0.1121  0.7005
 6092SOL     OW29737   0.769   3.307   7.180 -0.2278  0.5524  0.2035
 6092SOL    HW129738   0.768   3.390   7.227 -0.4163  0.0172  1.1472
 6092SOL    HW229739   0.798   3.247   7.249  0.7933 -1.6637 -2.1611
 6093SOL     OW29740   2.238   1.241  10.234 -0.0076  0.0161 -0.0951
 6093SOL    HW129741   2.319   1.283  10.205  1.1660 -1.7572  0.6377
 6093SOL    HW229742   2.203   1.315  10.283  0.9508  2.3861 -2.9308
 6094SOL     OW29743   1.569   0.363   1.308 -0.0095 -0.2045  0.2574
 6094SOL    HW129744   1.600   0.301   1.373 -0.2182  1.1775  1.6781
 6094SOL    HW229745   1.489   0.324   1.274  0.5526 -2.6903  1.8322
 6095SOL     OW29746   4.124   2.666  17.619  0.5215  0.2181  0.0431
 6095SOL    HW129747   4.199   2.635  17.568 -1.5454 -4.2857 -0.2692
 6095SOL    HW229748   4.088   2.583  17.651  1.4464  0.2400  1.1524
 6096SOL     OW29749   2.263   1.857  12.057 -0.1038  0.5727 -0.2247
 6096SOL    HW129750   2.264   1.878  12.151 -0.0560 -0.5513  0.0219
 6096SOL    HW229751   2.324   1.923  12.023  1.2073 -0.6465 -0.2417
 6097SOL     OW29752   3.461   0.876  10.690 -0.0091  0.7923 -0.5243
 6097SOL    HW129753   3.518   0.855  10.615 -1.0111 -2.2708 -0.4093
 6097SOL    HW229754   3.422   0.791  10.709  2.0255  0.1858  0.9565
 6098SOL     OW29755   4.429   1.903  12.921  0.1256 -0.2519 -0.0951
 6098SOL    HW129756   4.401   1.852  12.997 -0.1101 -0.0473 -0.0467
 6098SOL    HW229757   4.524   1.892  12.930 -0.2926 -1.5262  2.7854
 6099SOL     OW29758   3.409   0.972   7.352  0.0841  0.2872 -0.2660
 6099SOL    HW129759   3.474   1.006   7.291  0.8833  0.2408  0.5687
 6099SOL    HW229760   3.390   1.049   7.406  0.6288  1.1634 -1.3215
 6100SOL     OW29761   0.793   3.478   3.526  0.3096 -0.1568 -0.0794
 6100SOL    HW129762   0.729   3.517   3.465 -0.2246  0.6811  1.0088
 6100SOL    HW229763   0.761   3.389   3.534  1.9581 -0.6369  0.9442
 6101SOL     OW29764   1.737   4.610   1.849  0.3530  0.3880 -0.2341
 6101SOL    HW129765   1.795   4.538   1.874 -1.5704 -0.0340  2.9510
 6101SOL    HW229766   1.731   4.655   1.933  2.1243  1.5127 -0.7144
 6102SOL     OW29767   1.778   3.677   4.541 -0.3064  0.3331  0.5629
 6102SOL    HW129768   1.761   3.720   4.457  0.3095 -0.2500  0.1408
 6102SOL    HW229769   1.812   3.592   4.512 -3.1846  0.2697 -2.6105
 6103SOL     OW29770   2.143   1.685   2.798  0.3123  0.5911  0.5134
 6103SOL    HW129771   2.156   1.776   2.773  0.7227  0.5589  0.6185
 6103SOL    HW229772   2.095   1.653   2.722 -0.7934  2.0252  0.6063
 6104SOL     OW29773   0.252   1.989  16.506  0.1985  0.5646 -0.4053
 6104SOL    HW129774   0.180   2.052  16.512 -0.0200  0.0765  2.1876
 6104SOL    HW229775   0.279   1.999  16.415  2.3560  0.5680  0.2448
 6105SOL     OW29776   3.152   2.799   9.214  0.2816  0.4703  0.0653
 6105SOL    HW129777   3.128   2.861   9.283  1.1730 -1.5251  2.1953
 6105SOL    HW229778   3.208   2.853   9.159  0.2293  0.9389  0.4704
 6106SOL     OW29779   0.655   0.833   4.912 -0.3997  0.0223  0.1314
 6106SOL    HW129780   0.617   0.901   4.857 -0.5811  0.4341  0.7664
 6106SOL    HW229781   0.585   0.814   4.974 -1.3952  0.1548 -0.9541
 6107SOL     OW29782   4.154   3.841   3.455  0.3215  0.2730 -0.2630
 6107SOL    HW129783   4.242   3.823   3.486  1.6288  2.9998 -2.4210
 6107SOL    HW229784   4.165   3.836   3.360  0.3137  1.6020 -0.3358
 6108SOL     OW29785   1.756   4.233   5.553  0.1821  0.0736  0.3499
 6108SOL    HW129786   1.678   4.287   5.541  0.7886  1.0092  0.6906
 6108SOL    HW229787   1.754   4.215   5.647 -1.5570  1.4682  0.5572
 6109SOL     OW29788   1.481   0.674   7.223  0.3553 -0.4026 -0.0679
 6109SOL    HW129789   1.534   0.653   7.301  0.3193 -1.4357 -0.3169
 6109SOL    HW229790   1.547   0.663   7.154  0.3574 -2.5364  0.2626
 6110SOL     OW29791   0.614   0.446   3.728 -0.1644  0.3603 -0.0372
 6110SOL    HW129792   0.541   0.484   3.681  1.3579  1.6627 -1.3308
 6110SOL    HW229793   0.657   0.392   3.661  0.4387 -1.6949  1.9771
 6111SOL     OW29794   3.103   1.897   7.986  0.1585 -0.3436 -0.7199
 6111SOL    HW129795   3.172   1.921   7.924  0.8017 -2.5449 -0.8527
 6111SOL    HW229796   3.027   1.884   7.929 -0.2359  0.0921 -0.2930
 6112SOL     OW29797   4.115   3.674  12.764 -0.0792  0.9567  0.0014
 6112SOL    HW129798   4.024   3.649  12.749 -0.0013  0.0168  1.1360
 6112SOL    HW229799   4.103   3.714  12.850  2.9302  2.5248 -0.2787
 6113SOL     OW29800   0.419   0.536   5.011 -0.1667 -0.0320 -0.2017
 6113SOL    HW129801   0.358   0.500   4.948 -1.1724 -0.1543  0.8377
 6113SOL    HW229802   0.503   0.498   4.987  0.6546  2.6908 -1.6279
 6114SOL     OW29803   3.251   2.199  10.456 -0.4858  0.3630  0.3956
 6114SOL    HW129804   3.211   2.287  10.455  0.1026  0.6539  2.5618
 6114SOL    HW229805   3.334   2.215  10.501 -1.6445  0.2260  2.5741
 6115SOL     OW29806   1.933   1.329  11.367 -0.0908 -0.1655 -0.3409
 6115SOL    HW129807   1.921   1.288  11.453 -2.8059 -0.7254 -0.9743
 6115SOL    HW229808   1.958   1.254  11.314  1.9527 -0.3572  0.8857
 6116SOL     OW29809   0.139   3.520   6.181 -0.0140 -0.5192 -0.2674
 6116SOL    HW129810   0.145   3.461   6.256 -0.9452  1.3404  1.2740
 6116SOL    HW229811   0.187   3.468   6.116  1.4226 -1.3870  1.5117
 6117SOL     OW29812   3.766   2.051   9.601  0.3570  1.0204  0.3756
 6117SOL    HW129813   3.826   2.110   9.646  1.4927  0.1241  0.0304
 6117SOL    HW229814   3.688   2.105   9.618 -0.0619  0.8404 -0.9243
 6118SOL     OW29815   1.059   0.986  17.230 -0.1409 -0.1926  0.4392
 6118SOL    HW129816   1.088   1.012  17.142 -0.1500  1.4968  0.9418
 6118SOL    HW229817   1.058   1.069  17.277  0.7620  0.2116 -0.2424
 6119SOL     OW29818   3.529   1.460   7.254 -0.0858  0.0790 -0.1416
 6119SOL    HW129819   3.569   1.422   7.176  0.7501 -0.0287  0.3504
 6119SOL    HW229820   3.509   1.388   7.314 -1.0003  0.5455  0.1269
 6120SOL     OW29821   0.811   1.717  13.908 -0.4839 -0.3905  0.0747
 6120SOL    HW129822   0.733   1.681  13.866 -1.3188 -0.9828  2.1857
 6120SOL    HW229823   0.822   1.801  13.863  0.0700  0.7532  2.3378
 6121SOL     OW29824   4.146   0.281   4.783  0.0954  0.4720 -0.1659
 6121SOL    HW129825   4.130   0.266   4.690  1.1410 -1.2592 -0.0696
 6121SOL    HW229826   4.242   0.278   4.779  0.0974  1.1204 -0.4850
 6122SOL     OW29827   4.222   1.631   3.603 -0.6170  0.1271  0.0882
 6122SOL    HW129828   4.132   1.614   3.574 -0.4781 -1.4249  0.5777
 6122SOL    HW229829   4.263   1.671   3.527  0.7129 -0.2478  0.6096
 6123SOL     OW29830   3.789   4.057  13.620 -0.2292  0.0022  0.0461
 6123SOL    HW129831   3.722   4.010  13.571 -0.3569 -1.4425  1.6099
 6123SOL    HW229832   3.864   4.043  13.562 -0.9933  1.6898 -1.3355
 6124SOL     OW29833   2.943   1.431  15.751 -0.2567  0.0692  0.5185
 6124SOL    HW129834   3.015   1.368  15.755  1.8566  2.4253 -0.6204
 6124SOL    HW229835   2.917   1.422  15.659 -0.1570 -1.3676  0.6222
 6125SOL     OW29836   0.916   2.172  17.120 -0.3746 -0.1989  0.6263
 6125SOL    HW129837   0.861   2.193  17.194 -0.1272 -1.6676  1.2283
 6125SOL    HW229838   0.854   2.177  17.047 -0.8843 -1.6857  0.9588
 6126SOL     OW29839   0.007   3.150  13.498 -0.0202 -0.8445 -0.0446
 6126SOL    HW129840   0.087   3.179  13.454  1.0613 -0.1308  2.3881
 6126SOL    HW229841   4.665   3.210  13.452  0.4303 -0.0073  0.4617
 6127SOL     OW29842   1.352   2.040   2.254 -0.4861  0.0801  0.7680
 6127SOL    HW129843   1.387   1.992   2.179  0.1788 -0.3473  1.3546
 6127SOL    HW229844   1.271   1.988   2.264 -0.3795 -0.4411 -1.1558
 6128SOL     OW29845   1.943   1.545   1.826  0.5938 -0.0898 -0.8238
 6128SOL    HW129846   2.017   1.573   1.771  1.3156 -0.3481  0.0278
 6128SOL    HW229847   1.964   1.599   1.902 -0.0977  0.4880 -1.0377
 6129SOL     OW29848   0.363   2.931  14.917  0.8302  0.2873  0.1260
 6129SOL    HW129849   0.369   3.024  14.893 -0.8687  0.3275 -0.1869
 6129SOL    HW229850   0.418   2.889  14.851 -0.1294  1.1113 -1.2139
 6130SOL     OW29851   3.955   1.726   8.202 -0.5584 -0.3072  0.7260
 6130SOL    HW129852   3.879   1.687   8.247 -0.5819 -1.7396 -0.5731
 6130SOL    HW229853   4.016   1.655   8.220 -1.6764 -1.8206 -1.4696
 6131SOL     OW29854   3.316   2.980  13.785 -0.2632  0.1422 -0.8483
 6131SOL    HW129855   3.304   3.065  13.742  0.3828  1.1708  1.0114
 6131SOL    HW229856   3.408   2.990  13.811  0.6889 -1.2306 -3.7631
 6132SOL     OW29857   1.779   0.203  11.355  0.1542  0.1918 -0.3205
 6132SOL    HW129858   1.849   0.192  11.419 -0.3220 -0.1784  0.1392
 6132SOL    HW229859   1.790   0.123  11.304 -0.4552  0.5993 -1.0911
 6133SOL     OW29860   2.328   4.611  17.510  0.2886  0.2532  0.7791
 6133SOL    HW129861   2.375   4.623  17.428  1.9400 -1.3761  1.4907
 6133SOL    HW229862   2.278   4.531  17.491  0.6660 -0.2745  1.9800
 6134SOL     OW29863   2.164   1.949   9.659  0.2009  0.9165  0.3445
 6134SOL    HW129864   2.110   1.901   9.722  1.9126 -3.3222 -1.4269
 6134SOL    HW229865   2.158   1.885   9.589 -1.9781  1.4950 -0.0234
 6135SOL     OW29866   4.187   3.815   7.866  0.3887 -0.2271 -0.0137
 6135SOL    HW129867   4.216   3.889   7.814 -2.4064  1.7062  1.2215
 6135SOL    HW229868   4.208   3.829   7.958  0.5008 -1.7460  0.2034
 6136SOL     OW29869   4.465   3.410   4.655  0.1682 -0.1310  0.2954
 6136SOL    HW129870   4.475   3.374   4.567  1.8442  1.5869 -0.2218
 6136SOL    HW229871   4.554   3.432   4.682  0.2426  0.4346 -0.4081
 6137SOL     OW29872   3.676   2.931   3.480  0.6193 -0.1596 -0.6725
 6137SOL    HW129873   3.630   2.930   3.396 -2.1261  0.6290  0.8099
 6137SOL    HW229874   3.681   3.024   3.500 -2.2259  1.0757 -5.6201
 6138SOL     OW29875   4.406   4.249  13.184  0.1818 -0.0511  0.0568
 6138SOL    HW129876   4.476   4.251  13.249 -0.5594 -4.3072  0.9861
 6138SOL    HW229877   4.451   4.240  13.100 -3.1991  1.3536 -1.9049
 6139SOL     OW29878   4.648   2.804  16.955  0.1576  0.0064 -0.2304
 6139SOL    HW129879   0.020   2.828  16.933  1.4962 -3.2319  1.7215
 6139SOL    HW229880   4.647   2.809  17.051 -0.0254 -0.1083 -0.2261
 6140SOL     OW29881   3.895   3.552   1.484 -0.5795 -0.2906  0.4456
 6140SOL    HW129882   3.803   3.566   1.459 -0.1656  0.3273 -0.7387
 6140SOL    HW229883   3.924   3.556   1.392 -0.0932  0.0030  0.6134
 6141SOL     OW29884   0.429   2.815   2.387  0.1725 -0.0182 -0.2985
 6141SOL    HW129885   0.479   2.808   2.306 -1.7350  0.3753 -1.5105
 6141SOL    HW229886   0.495   2.785   2.450  0.7845  0.7641 -0.5674
 6142SOL     OW29887   3.543   3.416   3.461  0.1658 -0.0028 -0.3365
 6142SOL    HW129888   3.598   3.437   3.386 -0.1833 -2.2658 -1.2206
 6142SOL    HW229889   3.569   3.327   3.485 -1.0288  0.0580  1.1889
 6143SOL     OW29890   2.127   3.381   3.344  0.2236 -0.4177  0.0082
 6143SOL    HW129891   2.215   3.407   3.315 -0.1909  1.7026  0.6462
 6143SOL    HW229892   2.141   3.303   3.398 -2.3506 -1.4357 -0.8164
 6144SOL     OW29893   3.499   0.015   8.730  0.0830 -0.2902 -0.1857
 6144SOL    HW129894   3.492   0.108   8.754  0.1504 -0.5852  0.9668
 6144SOL    HW229895   3.569   0.018   8.664  1.0942  2.5313  1.0135
 6145SOL     OW29896   2.279   0.018  14.007  0.1150  0.1419 -0.0688
 6145SOL    HW129897   2.344   4.671  14.036  1.3357  1.8903  1.0825
 6145SOL    HW229898   2.216   4.683  13.957 -1.7671  2.4948 -0.1609
 6146SOL     OW29899   4.422   1.236   8.602 -0.4798  0.6428 -0.3786
 6146SOL    HW129900   4.499   1.216   8.655 -0.4690  0.3082 -0.5172
 6146SOL    HW229901   4.365   1.276   8.667 -0.3568 -0.8406  0.6436
 6147SOL     OW29902   3.648   1.187  15.521 -0.1992  0.6887  0.7474
 6147SOL    HW129903   3.716   1.196  15.454 -0.7594  1.3466  0.2727
 6147SOL    HW229904   3.707   1.149  15.586  0.7622 -1.2753 -1.2568
 6148SOL     OW29905   2.261   2.214   5.637 -0.1521 -0.2438 -0.1287
 6148SOL    HW129906   2.186   2.270   5.618 -0.1619 -0.9682 -2.2632
 6148SOL    HW229907   2.251   2.226   5.731 -2.6547 -0.1230 -0.3918
 6149SOL     OW29908   3.834   2.271  17.414  0.3077  0.3306 -0.4855
 6149SOL    HW129909   3.747   2.242  17.441 -0.1645  1.3081 -0.9430
 6149SOL    HW229910   3.875   2.198  17.461 -0.1503  1.0301  1.0280
 6150SOL     OW29911   3.987   3.895   5.150  0.3952 -0.0293  0.1060
 6150SOL    HW129912   3.912   3.953   5.164  1.1094  0.8522  0.2680
 6150SOL    HW229913   3.952   3.807   5.163  0.2895 -0.0620 -0.4019
 6151SOL     OW29914   2.939   0.402   6.481  0.3805  0.2313 -0.2178
 6151SOL    HW129915   2.911   0.479   6.531 -2.7302 -1.1873  0.2568
 6151SOL    HW229916   2.849   0.380   6.454 -0.0934 -0.2708  1.7765
 6152SOL     OW29917   4.020   3.511   3.280 -0.4439 -0.2422 -0.2431
 6152SOL    HW129918   4.080   3.484   3.210  0.4716  1.5532 -0.1455
 6152SOL    HW229919   4.089   3.538   3.341 -1.3889  0.3720  0.5379
 6153SOL     OW29920   2.614   2.012   6.879 -0.0541 -0.1679 -0.1642
 6153SOL    HW129921   2.582   1.924   6.862  0.4575  0.0953 -2.5096
 6153SOL    HW229922   2.589   2.020   6.971  1.3951  3.2714 -0.0443
 6154SOL     OW29923   2.625   4.480   2.710  0.0792  0.1613  0.7083
 6154SOL    HW129924   2.637   4.401   2.659  0.0924 -0.4344  1.6339
 6154SOL    HW229925   2.596   4.530   2.634 -0.5147 -2.2332 -0.6350
 6155SOL     OW29926   0.274   2.680   5.785  0.5577  0.0726 -0.2457
 6155SOL    HW129927   0.204   2.733   5.749 -0.6269  0.9894  3.3810
 6155SOL    HW229928   0.226   2.613   5.834  0.6672 -0.4219 -0.8144
 6156SOL     OW29929   3.473   3.339   2.938 -0.7560  0.3804  0.0167
 6156SOL    HW129930   3.395   3.392   2.927 -0.5278  1.0412  1.6093
 6156SOL    HW229931   3.482   3.301   2.851 -1.5305  0.5010 -0.1107
 6157SOL     OW29932   0.388   3.527   8.127 -0.3882  0.3176  0.2523
 6157SOL    HW129933   0.418   3.601   8.181  0.9841 -0.2639  0.2982
 6157SOL    HW229934   0.462   3.526   8.066  1.0787  0.2686  2.0193
 6158SOL     OW29935   3.312   3.409  12.879  0.3176  0.4637 -0.4718
 6158SOL    HW129936   3.348   3.332  12.923  0.9117  1.2489  0.4368
 6158SOL    HW229937   3.315   3.465  12.956  0.7994 -0.4898  0.2016
 6159SOL     OW29938   0.925   3.758   1.977  0.2903  0.1677 -0.0985
 6159SOL    HW129939   0.933   3.669   2.010 -1.7186  0.4527  1.1677
 6159SOL    HW229940   0.882   3.803   2.049 -0.1580  0.3402 -0.4756
 6160SOL     OW29941   2.836   0.553   1.937  0.0990 -0.3754  0.0479
 6160SOL    HW129942   2.749   0.571   1.902 -0.2474 -1.2480  0.4464
 6160SOL    HW229943   2.845   0.618   2.006  1.0096  0.1946 -0.6036
 6161SOL     OW29944   1.855   1.806   3.071 -0.8224 -0.5343 -0.0787
 6161SOL    HW129945   1.906   1.730   3.099 -0.8392 -1.2363 -1.9903
 6161SOL    HW229946   1.914   1.867   3.026  0.6039 -3.0917 -1.7254
 6162SOL     OW29947   1.352   1.662  11.906  1.0692  0.1377  0.4561
 6162SOL    HW129948   1.432   1.632  11.862 -0.6488 -3.1125 -0.4711
 6162SOL    HW229949   1.389   1.737  11.952  2.4573 -0.0920 -0.2671
 6163SOL     OW29950   4.198   4.296   1.270  0.2491 -0.2016  0.1022
 6163SOL    HW129951   4.195   4.391   1.279  0.9600 -0.4550  2.9403
 6163SOL    HW229952   4.147   4.290   1.189  0.4772  0.4022 -0.0838
 6164SOL     OW29953   4.049   0.935   5.444  0.3645  0.1787 -0.0630
 6164SOL    HW129954   4.024   0.990   5.518  1.4882 -0.7317  1.0005
 6164SOL    HW229955   4.048   0.858   5.501  1.3384 -0.5600 -1.0522
 6165SOL     OW29956   2.069   0.604   6.685  0.2109  0.5233  0.1667
 6165SOL    HW129957   2.127   0.678   6.702 -1.2799  1.8757 -0.5844
 6165SOL    HW229958   2.042   0.645   6.602 -0.6909  1.3305  0.8485
 6166SOL     OW29959   3.017   1.757   7.498  0.0022  0.0147 -0.2313
 6166SOL    HW129960   3.029   1.801   7.414 -1.3432  2.5630  0.9081
 6166SOL    HW229961   2.947   1.696   7.474  0.6187 -0.2529 -1.3101
 6167SOL     OW29962   0.670   2.224   3.405 -0.2336  0.1478  0.7521
 6167SOL    HW129963   0.634   2.155   3.462 -0.7640 -0.6989 -0.6164
 6167SOL    HW229964   0.680   2.296   3.468 -0.8832 -0.0385  1.0707
 6168SOL     OW29965   0.589   2.326   5.910 -0.3353  0.3411  0.0097
 6168SOL    HW129966   0.616   2.259   5.848  0.4782  0.8498 -0.1937
 6168SOL    HW229967   0.609   2.269   5.984 -1.2050 -1.1089 -0.8786
 6169SOL     OW29968   0.168   1.057   8.708  0.2128  0.5173 -0.5733
 6169SOL    HW129969   0.079   1.037   8.738 -0.0795  2.9856  0.2318
 6169SOL    HW229970   0.221   0.999   8.762  0.8886  1.1480 -0.5583
 6170SOL     OW29971   2.354   1.095   1.220  0.0889  0.1594  0.5875
 6170SOL    HW129972   2.323   1.012   1.185 -0.0968  0.8428 -0.8854
 6170SOL    HW229973   2.432   1.064   1.265  0.1373 -0.0105  0.3828
 6171SOL     OW29974   4.602   1.658   7.988 -0.2574 -0.2267  0.6178
 6171SOL    HW129975   4.538   1.672   8.058 -0.4358  0.2506  0.3603
 6171SOL    HW229976   4.565   1.710   7.917 -1.4493 -0.4696  1.0671
 6172SOL     OW29977   0.082   1.743   9.716 -0.0448 -0.3614 -0.2998
 6172SOL    HW129978   4.705   1.753   9.719 -0.0205 -0.3477  0.4340
 6172SOL    HW229979   0.106   1.688   9.791  0.3178  1.7853  1.1811
 6173SOL     OW29980   4.162   3.220   4.336  0.6066 -0.4012 -0.2997
 6173SOL    HW129981   4.184   3.201   4.427  3.0444  1.1660 -0.5334
 6173SOL    HW229982   4.068   3.233   4.345  0.8593 -0.9548  3.1864
 6174SOL     OW29983   4.640   2.092   6.737  0.3919 -0.9181  0.4410
 6174SOL    HW129984   4.697   2.163   6.768 -0.6440 -0.9250  2.3253
 6174SOL    HW229985   4.647   2.099   6.642 -0.1887  0.4020  0.4877
 6175SOL     OW29986   3.450   3.104   8.856 -0.1563  0.1089 -0.1500
 6175SOL    HW129987   3.358   3.098   8.883  0.1771 -1.3697  0.6669
 6175SOL    HW229988   3.494   3.053   8.924 -2.4738 -1.5132  0.1294
 6176SOL     OW29989   3.656   3.279   6.939  0.1306  0.1444  0.7267
 6176SOL    HW129990   3.742   3.315   6.918  0.9085 -1.5844  0.9503
 6176SOL    HW229991   3.610   3.352   6.979 -1.4511 -0.5056  0.1214
 6177SOL     OW29992   4.500   0.214   2.556  0.1409  0.6379 -0.4903
 6177SOL    HW129993   4.582   0.231   2.510  0.3369 -0.2111 -0.4478
 6177SOL    HW229994   4.496   0.280   2.626  0.6934 -0.0934  0.2304
 6178SOL     OW29995   3.081   3.461   7.885 -0.2827  0.1979  0.0341
 6178SOL    HW129996   3.067   3.488   7.794 -3.7634 -1.4394  0.0999
 6178SOL    HW229997   3.001   3.412   7.902 -2.4899  2.6943 -3.3259
 6179SOL     OW29998   1.129   3.942  13.372 -0.1215 -0.0505 -0.6850
 6179SOL    HW129999   1.135   3.930  13.277  2.9418  2.5649 -0.8370
 6179SOL    HW230000   1.201   3.884  13.398 -1.5161 -0.9051  1.3374
 6180SOL     OW30001   2.396   1.324   3.225 -0.7084 -0.2849 -0.5106
 6180SOL    HW130002   2.376   1.232   3.207  0.2761 -0.1044 -2.4977
 6180SOL    HW230003   2.397   1.332   3.320  1.3803 -0.1177 -0.5584
 6181SOL     OW30004   2.066   4.463   4.848  0.3256 -0.1400  0.0080
 6181SOL    HW130005   2.002   4.473   4.918 -0.1059  1.1539 -0.5740
 6181SOL    HW230006   2.141   4.424   4.894  0.4315 -0.1538 -0.1768
 6182SOL     OW30007   2.235   0.161  12.982 -0.4699  0.4355 -0.0229
 6182SOL    HW130008   2.221   0.212  12.902 -4.3207 -0.1800  0.2653
 6182SOL    HW230009   2.158   0.180  13.034  0.8558  0.5540  1.9042
 6183SOL     OW30010   0.548   2.608  14.995 -0.5630  0.4492 -0.0619
 6183SOL    HW130011   0.590   2.636  15.077 -2.2098 -0.1948  1.0054
 6183SOL    HW230012   0.609   2.544  14.958  0.3249  1.0783  0.2955
 6184SOL     OW30013   1.702   4.476  14.772  0.8283 -0.3354 -0.3282
 6184SOL    HW130014   1.744   4.497  14.856 -1.6719  3.0121  0.1057
 6184SOL    HW230015   1.635   4.544  14.766  1.1965  0.2163  1.6464
 6185SOL     OW30016   2.542   3.474   7.185 -0.4455  0.9316  0.4355
 6185SOL    HW130017   2.542   3.432   7.099  0.1251  0.1924  0.7992
 6185SOL    HW230018   2.494   3.420   7.247  1.2269  0.0959  1.0108
 6186SOL     OW30019   4.571   3.115   9.882 -0.2163  0.1381  0.0782
 6186SOL    HW130020   4.537   3.126   9.971  1.5352  0.9132  0.6424
 6186SOL    HW230021   4.493   3.096   9.831 -0.3745  1.4204 -0.1444
 6187SOL     OW30022   0.561   3.581   4.290 -0.0264 -0.4738  0.4343
 6187SOL    HW130023   0.602   3.667   4.299 -1.2555  0.1065  0.3911
 6187SOL    HW230024   0.517   3.570   4.374  0.4185 -1.0465  0.5984
 6188SOL     OW30025   2.093   1.014   8.539 -0.4912 -0.0084  0.1912
 6188SOL    HW130026   2.136   0.958   8.475  0.8558  0.0272  1.0609
 6188SOL    HW230027   2.099   1.101   8.501  0.0220  0.3585  1.1079
 6189SOL     OW30028   2.486   4.220  17.463 -0.4507 -0.5061 -0.5152
 6189SOL    HW130029   2.499   4.154  17.531 -1.7120  0.2423  0.4465
 6189SOL    HW230030   2.530   4.194  17.382  1.4363 -3.3943  1.4428
 6190SOL     OW30031   1.652   2.705  14.017  0.0890 -0.1806 -0.4470
 6190SOL    HW130032   1.738   2.677  13.986  1.8312  3.8678  0.7144
 6190SOL    HW230033   1.606   2.622  14.005 -0.3657  0.0579 -0.3672
 6191SOL     OW30034   4.218   1.740  16.684 -0.6289 -0.0994 -0.0075
 6191SOL    HW130035   4.264   1.721  16.603 -1.2403 -1.0253 -0.1482
 6191SOL    HW230036   4.232   1.660  16.736 -0.6778 -0.0580  0.0699
 6192SOL     OW30037   2.224   0.611  16.658  0.5169 -0.2305  0.1337
 6192SOL    HW130038   2.290   0.677  16.639  0.0522  0.4896  1.0011
 6192SOL    HW230039   2.282   0.536  16.672 -0.0443 -0.6646  0.1749
 6193SOL     OW30040   1.690   0.381   6.373 -0.7037 -0.1162  0.0251
 6193SOL    HW130041   1.737   0.412   6.450 -0.6130 -0.2090  0.0070
 6193SOL    HW230042   1.612   0.436   6.377 -1.4718 -1.1966 -0.2201
 6194SOL     OW30043   2.701   3.594   5.661 -0.4728  0.1589 -0.6214
 6194SOL    HW130044   2.757   3.671   5.670 -0.8565  0.5020 -1.1558
 6194SOL    HW230045   2.757   3.530   5.616  1.5113  0.9825  0.6607
 6195SOL     OW30046   1.810   4.090   3.931 -0.4468 -0.1124 -0.2351
 6195SOL    HW130047   1.899   4.063   3.955 -0.3177  2.3157  2.0511
 6195SOL    HW230048   1.825   4.118   3.841 -2.7378  0.6756 -0.3458
 6196SOL     OW30049   3.414   4.446   4.158  0.3953 -0.0120  0.4312
 6196SOL    HW130050   3.400   4.387   4.083  2.1854 -1.1033  0.9479
 6196SOL    HW230051   3.477   4.394   4.208  0.5028  0.0641  0.3726
 6197SOL     OW30052   0.377   4.325   6.876  0.2805  0.6452  0.0676
 6197SOL    HW130053   0.424   4.359   6.800  0.0828  4.0510  1.4954
 6197SOL    HW230054   0.375   4.393   6.943 -2.4514  1.1504 -0.4885
 6198SOL     OW30055   3.485   0.335   2.792 -1.1213  0.5102 -0.1044
 6198SOL    HW130056   3.445   0.421   2.790 -0.7397  0.6877 -0.1812
 6198SOL    HW230057   3.559   0.362   2.846 -1.6128  0.8173  0.4100
 6199SOL     OW30058   3.588   0.919  12.223  0.0677  0.0845  0.0794
 6199SOL    HW130059   3.519   0.895  12.284 -1.3313  3.0200 -0.3648
 6199SOL    HW230060   3.613   1.011  12.232 -0.8554  0.1946  1.3562
 6200SOL     OW30061   4.437   0.967   9.552 -0.2079 -0.5733 -0.0342
 6200SOL    HW130062   4.371   0.987   9.486 -1.3447  0.3992  1.4189
 6200SOL    HW230063   4.485   0.907   9.494  0.6480  0.4699 -0.3939
 6201SOL     OW30064   3.664   2.908   5.504  0.4890  0.4892  0.5692
 6201SOL    HW130065   3.706   2.842   5.448  1.6662  0.7595  1.1561
 6201SOL    HW230066   3.735   2.956   5.545  0.6480 -0.2029  1.1030
 6202SOL     OW30067   4.413   0.711  11.388 -0.7236 -0.1692 -0.2898
 6202SOL    HW130068   4.484   0.775  11.380 -0.8083  0.2124  1.9994
 6202SOL    HW230069   4.365   0.724  11.307  1.0968  1.6832 -1.0512
 6203SOL     OW30070   1.632   3.458   7.617  0.2307 -0.3602  0.6589
 6203SOL    HW130071   1.662   3.449   7.527  2.3425 -1.1197  1.4466
 6203SOL    HW230072   1.695   3.527   7.639 -0.7209  0.3166  1.3006
 6204SOL     OW30073   1.399   4.238  12.940  0.1862 -0.3452 -0.0529
 6204SOL    HW130074   1.441   4.294  13.005  0.9730 -0.8420 -0.1258
 6204SOL    HW230075   1.454   4.267  12.867  0.8038  0.2564  0.6461
 6205SOL     OW30076   2.532   4.672   4.145 -0.2344 -0.2548 -1.2073
 6205SOL    HW130077   2.579   4.692   4.064 -0.9180 -2.2215 -2.0791
 6205SOL    HW230078   2.611   4.670   4.199 -0.3812 -0.0518 -0.9843
 6206SOL     OW30079   3.626   3.844   4.716  0.0878 -0.0269 -0.2901
 6206SOL    HW130080   3.659   3.777   4.656 -1.3220 -1.1090  0.1397
 6206SOL    HW230081   3.676   3.827   4.796 -0.6073 -1.2192 -0.1052
 6207SOL     OW30082   3.064   0.556   7.412  0.5215 -0.2191 -0.3274
 6207SOL    HW130083   2.972   0.553   7.437  0.2384 -0.7609 -1.4927
 6207SOL    HW230084   3.062   0.605   7.330  2.1824  0.8370  0.2669
 6208SOL     OW30085   1.691   3.536   3.227  0.2310 -0.5701 -0.5102
 6208SOL    HW130086   1.612   3.496   3.263 -1.2787  1.2793 -1.7524
 6208SOL    HW230087   1.759   3.474   3.252  0.5961  1.0686  2.5216
 6209SOL     OW30088   0.345   1.275  16.569  0.3743  0.5753 -0.2341
 6209SOL    HW130089   0.394   1.338  16.623  1.7478 -0.8595  0.1840
 6209SOL    HW230090   0.329   1.320  16.486 -1.7869  0.4260  0.1191
 6210SOL     OW30091   4.470   1.849  15.727 -0.3227 -0.2648 -0.0246
 6210SOL    HW130092   4.499   1.940  15.728 -2.3119  0.3619  0.3419
 6210SOL    HW230093   4.501   1.813  15.810  0.9873  0.6787 -0.1096
 6211SOL     OW30094   3.463   2.146  17.156  0.8090  0.2198 -0.0588
 6211SOL    HW130095   3.433   2.092  17.083 -0.5073  1.0098 -0.1127
 6211SOL    HW230096   3.426   2.232  17.135 -1.1435 -0.4059  0.8106
 6212SOL     OW30097   3.694   2.094   4.809  1.0674  0.3047 -0.0233
 6212SOL    HW130098   3.725   2.143   4.733  0.9389  1.7741  0.8639
 6212SOL    HW230099   3.637   2.026   4.773  2.5001  1.0758 -3.7527
 6213SOL     OW30100   2.949   2.710   3.233  0.1376 -0.2343 -0.0561
 6213SOL    HW130101   2.973   2.655   3.158 -1.7582 -1.3540  0.1482
 6213SOL    HW230102   3.028   2.725   3.285 -1.0995 -2.1580  2.4144
 6214SOL     OW30103   0.089   1.263   5.560  0.2014  0.1437 -0.5979
 6214SOL    HW130104   0.118   1.203   5.629  0.9826  1.7253  0.4428
 6214SOL    HW230105   0.019   1.212   5.520  1.4409 -0.5912 -1.8469
 6215SOL     OW30106   2.259   2.876   6.169 -0.0148  0.0223 -0.3435
 6215SOL    HW130107   2.227   2.824   6.243  1.3349  0.7915  0.7783
 6215SOL    HW230108   2.179   2.910   6.129 -0.0981  1.3577  0.9627
 6216SOL     OW30109   1.536   4.290   7.697  0.4708 -0.7272 -0.6384
 6216SOL    HW130110   1.470   4.234   7.655 -0.0584 -0.5659 -0.0299
 6216SOL    HW230111   1.597   4.290   7.624  0.4865  3.5843 -0.6275
 6217SOL     OW30112   0.368   1.051   2.044 -0.2395 -0.4421  0.1062
 6217SOL    HW130113   0.300   0.983   2.046 -1.3850  0.6781 -0.5724
 6217SOL    HW230114   0.430   1.015   1.980  0.2687 -0.4723  0.6167
 6218SOL     OW30115   3.406   1.531  10.748  0.2394 -0.0688 -0.4753
 6218SOL    HW130116   3.398   1.611  10.800 -1.5726 -1.5375  1.5010
 6218SOL    HW230117   3.411   1.469  10.820  1.5399 -0.0335 -0.5431
 6219SOL     OW30118   4.456   3.540   8.365 -0.0270  0.1628 -0.3366
 6219SOL    HW130119   4.418   3.465   8.319 -0.4512 -0.4069  0.9167
 6219SOL    HW230120   4.499   3.579   8.290  2.7021  1.5273  1.9434
 6220SOL     OW30121   1.131   2.839  10.408 -0.7410 -0.1402 -0.0876
 6220SOL    HW130122   1.122   2.934  10.408  0.5537 -0.0257  0.1412
 6220SOL    HW230123   1.056   2.809  10.461 -1.2766 -0.5965 -1.1057
 6221SOL     OW30124   0.221   2.392   7.455  0.1191  0.2773  0.2445
 6221SOL    HW130125   0.294   2.444   7.490  1.6174 -1.7968  0.2260
 6221SOL    HW230126   0.265   2.345   7.383 -2.7869 -1.8179 -0.1555
 6222SOL     OW30127   3.591   4.089   1.678 -0.5094  0.0841  0.0792
 6222SOL    HW130128   3.678   4.107   1.715 -1.2672  2.9325  0.4649
 6222SOL    HW230129   3.540   4.160   1.718 -2.4916 -0.8618 -0.7767
 6223SOL     OW30130   2.952   2.931   9.630  0.2192 -0.0742  0.1128
 6223SOL    HW130131   2.969   2.872   9.557  0.4193 -0.4140  0.4370
 6223SOL    HW230132   2.868   2.898   9.661  0.1149 -0.6735 -0.8112
 6224SOL     OW30133   1.815   1.195   2.456 -0.2835  0.0100  0.1912
 6224SOL    HW130134   1.834   1.118   2.510 -2.0924  0.4620  1.4782
 6224SOL    HW230135   1.893   1.197   2.400 -0.6080 -1.5865 -0.3199
 6225SOL     OW30136   3.500   0.745   8.371 -0.0037  0.1700  0.2229
 6225SOL    HW130137   3.425   0.783   8.418  0.2197  0.3814  0.4106
 6225SOL    HW230138   3.573   0.767   8.429 -0.6599 -1.2594  1.5825
 6226SOL     OW30139   3.672   4.602  16.927 -0.0225 -0.4720  0.0172
 6226SOL    HW130140   3.705   4.602  17.017  0.7420 -0.4390 -0.2614
 6226SOL    HW230141   3.684   4.510  16.907 -1.8797 -0.8869  0.7976
 6227SOL     OW30142   0.923   2.106   7.997 -0.1377  0.1328 -0.6218
 6227SOL    HW130143   0.862   2.177   8.019 -0.0224  0.3148 -0.8866
 6227SOL    HW230144   0.985   2.120   8.068 -0.2136 -1.2767 -0.2883
 6228SOL     OW30145   0.616   1.596   8.052 -0.0901 -0.6018  0.0377
 6228SOL    HW130146   0.522   1.580   8.054 -0.1017 -0.5787 -0.2720
 6228SOL    HW230147   0.643   1.543   7.977  0.0344 -0.5772  0.0642
 6229SOL     OW30148   0.746   4.636   2.776  0.1429  0.0983  0.3528
 6229SOL    HW130149   0.837   4.622   2.753  0.4527  2.3957  0.1776
 6229SOL    HW230150   0.725   4.549   2.808  3.3574  0.1894  2.5868
 6230SOL     OW30151   1.677   0.359   7.985  0.3059 -0.2144  0.3372
 6230SOL    HW130152   1.641   0.444   7.959 -0.8236 -0.6099  0.6334
 6230SOL    HW230153   1.619   0.293   7.947  0.1543  0.5317 -0.7248
 6231SOL     OW30154   2.220   2.997  15.409 -0.0538  0.0267 -0.0536
 6231SOL    HW130155   2.280   2.952  15.350 -0.0212 -0.3876  0.3046
 6231SOL    HW230156   2.138   2.976  15.365 -0.4383 -2.4243  1.8620
 6232SOL     OW30157   3.537   2.317   6.480 -0.1385  0.3028  0.0529
 6232SOL    HW130158   3.526   2.385   6.414  0.5038 -0.8481 -1.2227
 6232SOL    HW230159   3.609   2.265   6.445 -0.4104 -0.6668  0.9244
 6233SOL     OW30160   2.547   4.672   6.637  0.2780 -0.2747  0.2217
 6233SOL    HW130161   2.462   4.715   6.641  0.0275 -0.4595 -2.5677
 6233SOL    HW230162   2.597   4.699   6.714  0.3041  2.0994 -0.6198
 6234SOL     OW30163   3.150   4.368   2.811  0.0405  0.1344 -0.3153
 6234SOL    HW130164   3.185   4.455   2.794 -0.7708  0.4312 -0.4626
 6234SOL    HW230165   3.075   4.368   2.751  0.7861 -2.1695 -1.2308
 6235SOL     OW30166   3.936   2.945   9.147  0.1162  0.5220 -0.2903
 6235SOL    HW130167   3.911   2.923   9.057 -3.1728  0.0783  0.7287
 6235SOL    HW230168   4.011   3.005   9.139 -0.9285  1.5221 -2.7602
 6236SOL     OW30169   4.617   4.027  10.449 -0.5189  0.3137 -0.2014
 6236SOL    HW130170   4.708   4.056  10.460 -0.9060  0.9568  1.3626
 6236SOL    HW230171   4.631   3.952  10.393  0.5357 -0.6154  1.3040
 6237SOL     OW30172   0.770   2.053  17.383 -0.4167 -0.2309 -0.4769
 6237SOL    HW130173   0.783   2.148  17.374  2.4371 -0.4046  2.1225
 6237SOL    HW230174   0.674   2.053  17.390 -0.3518  1.1485  0.5271
 6238SOL     OW30175   4.121   2.080  17.525  0.1665  0.0169 -0.5000
 6238SOL    HW130176   4.029   2.062  17.547  0.3368  1.0003  1.0045
 6238SOL    HW230177   4.140   2.131  17.604  0.0520 -0.0117 -0.4533
 6239SOL     OW30178   2.700   1.532   4.569  0.2015  0.5107  0.2214
 6239SOL    HW130179   2.618   1.534   4.618 -0.0485 -1.7537 -0.1324
 6239SOL    HW230180   2.724   1.625   4.578 -1.7333  0.9480  0.8868
 6240SOL     OW30181   4.547   2.688  11.783 -0.2764 -0.1683 -0.6814
 6240SOL    HW130182   4.595   2.633  11.845  0.0910  0.6330 -0.2581
 6240SOL    HW230183   4.477   2.700  11.847 -1.9431  0.4030 -2.6217
 6241SOL     OW30184   1.551   3.993   9.326  0.2490  0.1074  0.1967
 6241SOL    HW130185   1.587   4.077   9.353 -0.0015 -0.9842  4.0680
 6241SOL    HW230186   1.471   3.989   9.379  0.3381  1.3666  0.4105
 6242SOL     OW30187   1.461   0.572   4.528  0.2324  0.3796 -0.5684
 6242SOL    HW130188   1.411   0.558   4.447  0.2960  2.4944 -0.9717
 6242SOL    HW230189   1.531   0.630   4.500  0.7079  0.4221  0.7451
 6243SOL     OW30190   4.346   3.182  12.425 -0.1531  0.2488 -0.8546
 6243SOL    HW130191   4.294   3.133  12.360 -0.9628  0.5812 -0.4508
 6243SOL    HW230192   4.307   3.139  12.501 -1.9689  3.6112  0.0871
 6244SOL     OW30193   4.645   4.048   4.383 -0.0884  0.5380  0.2625
 6244SOL    HW130194   0.023   4.036   4.382 -0.2082 -0.0331 -2.9807
 6244SOL    HW230195   4.617   3.958   4.399  1.1822 -0.2805 -2.1233
 6245SOL     OW30196   1.745   1.467   5.489 -0.5537  0.2231 -0.2122
 6245SOL    HW130197   1.701   1.418   5.558 -2.5058  0.3526 -1.3644
 6245SOL    HW230198   1.757   1.411   5.412 -0.0962  0.7917 -0.5552
 6246SOL     OW30199   0.744   3.570   5.447 -0.2188  0.3749 -0.0341
 6246SOL    HW130200   0.708   3.629   5.380 -1.0134  1.5366  1.4282
 6246SOL    HW230201   0.839   3.573   5.433  0.0314  1.2867  1.8127
 6247SOL     OW30202   3.525   4.374  16.487 -0.1035 -0.2535 -0.2774
 6247SOL    HW130203   3.431   4.369  16.504  0.1362  1.0180  1.3956
 6247SOL    HW230204   3.559   4.457  16.521  0.6211 -0.3728 -0.7101
 6248SOL     OW30205   4.387   4.399   9.563  0.0604  0.5209  0.4181
 6248SOL    HW130206   4.386   4.314   9.519 -1.5845  0.9315 -0.3476
 6248SOL    HW230207   4.469   4.440   9.536 -0.6727  1.6331 -0.0745
 6249SOL     OW30208   2.384   1.851   8.031 -0.1519  0.3082  0.9118
 6249SOL    HW130209   2.404   1.763   7.997  0.6504  0.5781  0.6831
 6249SOL    HW230210   2.290   1.840   8.046 -0.5072  0.4321 -1.1853
 6250SOL     OW30211   1.392   0.912   1.143  0.0465 -0.3245  0.0699
 6250SOL    HW130212   1.365   0.822   1.162 -0.3131 -0.4497 -1.0383
 6250SOL    HW230213   1.389   0.907   1.048 -0.4495  1.3317 -0.0067
 6251SOL     OW30214   0.051   0.177   4.064  0.1943 -0.4432  0.6486
 6251SOL    HW130215   4.694   0.123   4.039 -0.8023  0.5280  1.5268
 6251SOL    HW230216   0.111   0.142   3.999 -2.2428 -0.2340 -1.7036
 6252SOL     OW30217   2.937   3.511   3.705 -0.3024  0.5386 -0.1928
 6252SOL    HW130218   2.904   3.499   3.793 -0.5246  1.1353 -0.1981
 6252SOL    HW230219   2.861   3.561   3.674  0.1499  0.5082 -1.3687
 6253SOL     OW30220   3.362   3.102   4.420 -0.5249  0.6789 -0.5492
 6253SOL    HW130221   3.434   3.134   4.475 -0.0516 -0.6755 -0.3736
 6253SOL    HW230222   3.385   3.011   4.400 -0.8678  0.2444  1.0353
 6254SOL     OW30223   3.071   2.438  15.667 -0.3713  0.2659  0.0434
 6254SOL    HW130224   3.148   2.455  15.613 -2.4512  0.3523 -2.9338
 6254SOL    HW230225   3.007   2.437  15.596 -0.0199 -1.1948 -0.2698
 6255SOL     OW30226   3.304   0.422   6.047 -0.1721  0.0049  0.3853
 6255SOL    HW130227   3.225   0.418   6.100  1.8349  1.1680  3.4643
 6255SOL    HW230228   3.310   0.347   5.987  1.3170 -0.7551  1.4677
 6256SOL     OW30229   0.218   2.017   8.362 -0.9497  0.0590  0.6121
 6256SOL    HW130230   0.214   2.043   8.454  0.7809  2.3206  0.0456
 6256SOL    HW230231   0.131   2.036   8.326 -0.3483 -0.2917 -1.0209
 6257SOL     OW30232   1.334   3.898   7.828  0.6965  0.1896  0.2446
 6257SOL    HW130233   1.424   3.876   7.803  0.5395  0.6344 -0.7384
 6257SOL    HW230234   1.309   3.822   7.880 -1.4165  1.1881  0.6861
 6258SOL     OW30235   1.640   3.182   5.706  0.0655  0.0980 -0.0543
 6258SOL    HW130236   1.669   3.273   5.716  2.6306 -0.6548 -0.6208
 6258SOL    HW230237   1.656   3.172   5.613 -2.2237  1.1058 -0.5633
 6259SOL     OW30238   1.014   3.228   6.470 -0.4750 -0.5080 -0.1090
 6259SOL    HW130239   1.056   3.148   6.501  1.7710  0.9110  0.5708
 6259SOL    HW230240   1.073   3.293   6.508 -0.0209 -0.8163 -0.2845
 6260SOL     OW30241   3.422   0.740   4.734 -0.0908  0.3109 -0.0310
 6260SOL    HW130242   3.413   0.700   4.820 -1.4242  1.0070  0.1569
 6260SOL    HW230243   3.409   0.833   4.752 -0.1864  0.2822  0.0460
 6261SOL     OW30244   2.063   2.375   3.108  0.1429 -0.4222  0.0601
 6261SOL    HW130245   2.121   2.437   3.064 -1.5733  0.8068 -0.4431
 6261SOL    HW230246   2.012   2.356   3.029 -1.7520  1.1630  0.9125
 6262SOL     OW30247   2.722   3.464   6.047 -0.4452  0.2522 -0.3393
 6262SOL    HW130248   2.736   3.440   6.139  2.5825 -0.2528 -0.9328
 6262SOL    HW230249   2.689   3.551   6.067 -0.1258  0.5608 -1.1591
 6263SOL     OW30250   3.705   0.864   3.290  0.1613  0.2413  0.7549
 6263SOL    HW130251   3.793   0.842   3.320  0.9549  1.1266 -0.9543
 6263SOL    HW230252   3.717   0.856   3.196  1.3448 -0.7821  0.9932
 6264SOL     OW30253   3.658   4.334  13.962  0.5294  0.1618 -0.3774
 6264SOL    HW130254   3.662   4.316  13.868 -0.1266  2.6263 -0.8784
 6264SOL    HW230255   3.565   4.339  13.983  0.6746 -3.2569  1.1589
 6265SOL     OW30256   3.058   0.747   2.979  0.2586  0.0069 -0.7778
 6265SOL    HW130257   3.145   0.752   3.019 -0.3147  2.8452  0.0587
 6265SOL    HW230258   3.062   0.806   2.903  2.4739  0.7939 -0.0411
 6266SOL     OW30259   0.092   0.282   5.002 -0.1662 -0.1760  0.0165
 6266SOL    HW130260   0.092   0.201   4.952 -0.5529  0.7520 -1.4726
 6266SOL    HW230261   0.163   0.331   4.962  1.2633 -1.4886  0.9501
 6267SOL     OW30262   3.289   3.055  12.361  0.0942  0.1223  0.4479
 6267SOL    HW130263   3.288   3.150  12.368  0.3708 -0.0120  2.1888
 6267SOL    HW230264   3.238   3.031  12.439 -2.3178  2.8685 -0.2743
 6268SOL     OW30265   4.220   2.089   2.235  0.2707 -0.1610  0.3103
 6268SOL    HW130266   4.205   2.184   2.237 -0.3188 -0.2160 -1.5921
 6268SOL    HW230267   4.290   2.090   2.301  0.2802  2.0302  0.2734
 6269SOL     OW30268   2.981   2.635   4.625 -0.1710 -0.1917  0.4854
 6269SOL    HW130269   2.940   2.619   4.540  0.2850  1.6500 -0.0943
 6269SOL    HW230270   3.016   2.723   4.612 -0.4692 -0.0570  0.5791
 6270SOL     OW30271   0.102   2.248   4.189 -0.3761 -0.3705  0.2896
 6270SOL    HW130272   0.168   2.316   4.176  1.1157 -2.0553 -0.9592
 6270SOL    HW230273   0.147   2.176   4.145  2.0687  0.7359  0.9977
 6271SOL     OW30274   3.987   4.235   2.578  0.1698  0.0825 -0.2642
 6271SOL    HW130275   3.906   4.284   2.589 -1.0760 -1.6908 -1.5528
 6271SOL    HW230276   3.961   4.149   2.613  0.1312 -0.3491 -1.3315
 6272SOL     OW30277   0.154   2.225  11.708 -0.4664  0.4109 -0.0299
 6272SOL    HW130278   0.157   2.163  11.781 -3.5833  2.8303  2.1419
 6272SOL    HW230279   0.141   2.306  11.758 -0.1201  0.2300  0.3558
 6273SOL     OW30280   0.611   4.479   2.073 -0.1065 -0.4556  0.0127
 6273SOL    HW130281   0.545   4.516   2.014  1.0999  0.6818 -0.6089
 6273SOL    HW230282   0.552   4.445   2.140 -0.1739  1.5696  0.9827
 6274SOL     OW30283   0.602   2.205   2.020 -0.7374  0.0280 -0.2956
 6274SOL    HW130284   0.685   2.218   2.066 -0.6331 -1.5732 -0.0263
 6274SOL    HW230285   0.625   2.234   1.932  0.4216 -2.3858 -0.7899
 6275SOL     OW30286   2.482   0.836  14.946 -0.7831  0.5888  0.1466
 6275SOL    HW130287   2.469   0.863  15.037  0.0716 -0.3206  0.5424
 6275SOL    HW230288   2.576   0.854  14.943 -0.7417  0.4015  0.2829
 6276SOL     OW30289   1.665   2.583   2.979  0.4617  0.8716 -0.3268
 6276SOL    HW130290   1.724   2.574   2.904  2.5895 -1.2411  1.6105
 6276SOL    HW230291   1.694   2.671   3.005  1.1883  0.8749 -1.1300
 6277SOL     OW30292   1.164   1.792   9.225  0.0119  0.7237 -0.9252
 6277SOL    HW130293   1.195   1.855   9.159  0.0891  1.6701  0.0228
 6277SOL    HW230294   1.073   1.799   9.198  0.0952  0.8533 -1.1723
 6278SOL     OW30295   0.971   0.474  17.100 -0.1248  0.5932  0.8117
 6278SOL    HW130296   0.995   0.564  17.119  0.0260  0.7998 -0.3850
 6278SOL    HW230297   0.959   0.447  17.191 -1.7681 -2.8178 -0.4033
 6279SOL     OW30298   0.568   1.170   5.674 -0.0050 -0.7781  0.3478
 6279SOL    HW130299   0.484   1.204   5.643  0.2963 -0.2098  0.1569
 6279SOL    HW230300   0.603   1.241   5.728 -1.4679 -0.0430  0.3380
 6280SOL     OW30301   0.848   2.052   6.200  0.2335  0.2964 -0.3864
 6280SOL    HW130302   0.919   1.997   6.166  0.4313  1.2101 -1.4601
 6280SOL    HW230303   0.841   2.006   6.284  1.1023  0.6243 -0.1266
 6281SOL     OW30304   2.122   0.567   7.986 -0.1925 -0.3772  0.1058
 6281SOL    HW130305   2.153   0.531   8.069 -0.3083 -0.7969 -0.0310
 6281SOL    HW230306   2.062   0.502   7.949 -0.3680  1.4004 -2.6804
 6282SOL     OW30307   4.101   1.188  16.713  0.1549  0.1758  0.9657
 6282SOL    HW130308   4.171   1.149  16.662 -0.6690  0.0694 -0.1007
 6282SOL    HW230309   4.035   1.183  16.643 -1.3992  2.4155  2.2348
 6283SOL     OW30310   1.127   3.736  16.342 -0.0235  0.0275 -0.2808
 6283SOL    HW130311   1.046   3.685  16.346 -1.1088  1.6092 -2.0482
 6283SOL    HW230312   1.081   3.814  16.311 -0.7253 -0.1800  0.2399
 6284SOL     OW30313   1.638   2.520  12.890  0.4414 -0.0721 -0.3235
 6284SOL    HW130314   1.568   2.455  12.892  0.0547  0.3205 -0.9898
 6284SOL    HW230315   1.676   2.503  12.976 -1.1505  0.9429  0.5723
 6285SOL     OW30316   4.122   3.347   2.072  0.1552  0.6623 -0.1530
 6285SOL    HW130317   4.162   3.331   1.986  2.2900  0.0097  0.9706
 6285SOL    HW230318   4.066   3.423   2.058  0.4413  1.0324  0.7281
 6286SOL     OW30319   1.009   0.996   4.412  0.0522  0.0333 -0.3150
 6286SOL    HW130320   1.022   0.980   4.505 -1.0794  2.6900  0.3029
 6286SOL    HW230321   1.007   1.091   4.405 -1.1684  0.0761  0.6339
 6287SOL     OW30322   1.328   0.207   2.157  0.3684  0.1104 -0.3534
 6287SOL    HW130323   1.279   0.246   2.230  0.9598  0.2318 -0.0246
 6287SOL    HW230324   1.377   0.279   2.118 -0.8768  1.0425 -0.2192
 6288SOL     OW30325   1.641   4.289   9.090  0.0632  0.3945  0.3063
 6288SOL    HW130326   1.651   4.251   9.177 -1.2883  1.0031  0.7293
 6288SOL    HW230327   1.649   4.209   9.039 -1.0756 -0.1569  0.9919
 6289SOL     OW30328   3.892   0.449   5.093  0.1173 -0.0243 -0.1027
 6289SOL    HW130329   3.868   0.381   5.155  0.6215 -0.8948 -0.8519
 6289SOL    HW230330   3.814   0.456   5.037 -0.0901  2.2099  0.4703
 6290SOL     OW30331   2.003   1.861   4.633 -0.1897 -0.3838 -0.0902
 6290SOL    HW130332   1.958   1.877   4.550  1.3989  2.3551 -0.4236
 6290SOL    HW230333   1.955   1.924   4.686  1.2899  0.5595  0.1266
 6291SOL     OW30334   0.744   2.499   7.251 -0.5869 -0.1342  0.0901
 6291SOL    HW130335   0.673   2.483   7.189  0.3387  0.8564 -1.2119
 6291SOL    HW230336   0.820   2.511   7.195 -1.3442  0.1843 -0.8721
 6292SOL     OW30337   2.811   3.396   7.857  0.0717 -0.6160  0.8922
 6292SOL    HW130338   2.719   3.417   7.842 -0.1732 -0.0071  3.2258
 6292SOL    HW230339   2.835   3.324   7.798  1.4552  0.7509 -0.2054
 6293SOL     OW30340   2.523   2.458   4.117  0.0285 -0.2367  0.3539
 6293SOL    HW130341   2.493   2.495   4.035  0.0033 -2.7143 -0.7670
 6293SOL    HW230342   2.501   2.367   4.095 -0.4973 -0.4152  1.5853
 6294SOL     OW30343   2.875   2.540  15.034 -0.3134  0.0790 -0.2441
 6294SOL    HW130344   2.867   2.454  15.077  0.4208  0.7613  1.2450
 6294SOL    HW230345   2.947   2.573  15.088 -0.7620 -0.2403  0.5649
 6295SOL     OW30346   0.771   2.298   6.409 -0.0014 -0.5884 -0.5178
 6295SOL    HW130347   0.860   2.263   6.397  0.1385 -0.1966 -0.6113
 6295SOL    HW230348   0.776   2.348   6.490  1.1794 -0.3836 -0.7076
 6296SOL     OW30349   0.020   4.545   4.238 -0.1824  0.2920 -0.0946
 6296SOL    HW130350   0.014   4.450   4.243 -0.6867  0.3486  0.4223
 6296SOL    HW230351   0.053   4.549   4.148 -0.7878  1.6308 -0.2633
 6297SOL     OW30352   1.068   2.021   1.311  0.2164 -0.7508 -0.0305
 6297SOL    HW130353   1.010   2.008   1.237 -0.3072  0.9982  0.0600
 6297SOL    HW230354   1.029   2.093   1.361 -0.6099 -1.5471  0.4485
 6298SOL     OW30355   3.083   3.537   2.600 -0.2444 -0.3441 -0.1733
 6298SOL    HW130356   3.127   3.536   2.514 -0.6678  0.8452 -0.4057
 6298SOL    HW230357   3.026   3.461   2.587 -1.6215  0.2801  2.2130
 6299SOL     OW30358   3.391   0.124   5.614  0.1158 -0.0461 -0.2300
 6299SOL    HW130359   3.393   0.206   5.565 -2.4890  0.4140  0.4598
 6299SOL    HW230360   3.299   0.114   5.637 -0.4189  3.0296 -0.9852
 6300SOL     OW30361   0.218   1.018  15.918 -0.1931  0.0873 -0.2952
 6300SOL    HW130362   0.150   1.063  15.968  0.5826 -0.3354  1.1229
 6300SOL    HW230363   0.170   0.987  15.841  4.1225 -2.1527 -2.1298
 6301SOL     OW30364   3.705   0.396   2.940 -0.0863  0.0815  0.1337
 6301SOL    HW130365   3.747   0.348   3.011  1.0123 -2.6845 -2.3891
 6301SOL    HW230366   3.745   0.355   2.863 -0.0561 -1.9071  1.2097
 6302SOL     OW30367   2.532   3.760   9.495 -0.1805 -0.2369 -0.2441
 6302SOL    HW130368   2.537   3.845   9.539  1.2893 -0.6036  0.3082
 6302SOL    HW230369   2.625   3.744   9.482 -0.0102  1.5228 -1.1357
 6303SOL     OW30370   2.346   2.192   2.731  0.1102  0.0766 -0.2219
 6303SOL    HW130371   2.385   2.173   2.816  1.5805  0.0014 -0.9092
 6303SOL    HW230372   2.420   2.172   2.673  0.1399  1.8910 -0.8051
 6304SOL     OW30373   4.164   4.497   9.104  0.4917  0.0426 -0.2248
 6304SOL    HW130374   4.208   4.558   9.163 -1.9170 -1.4688  3.1227
 6304SOL    HW230375   4.102   4.556   9.062 -0.7018  0.2662  1.8405
 6305SOL     OW30376   1.546   1.677  17.265 -0.0353  0.0100  0.0933
 6305SOL    HW130377   1.452   1.679  17.281  0.2804  2.3422  1.5654
 6305SOL    HW230378   1.562   1.763  17.226  1.8848  0.9571  2.9679
 6306SOL     OW30379   3.119   2.457   8.313  0.2360 -0.1779  0.7097
 6306SOL    HW130380   3.083   2.372   8.286 -1.8355  0.2068  2.2305
 6306SOL    HW230381   3.037   2.506   8.318  0.0677 -0.3290 -0.5934
 6307SOL     OW30382   0.283   2.745   9.768  0.1925 -0.4558  0.7756
 6307SOL    HW130383   0.235   2.681   9.820 -1.8912  2.2776  2.2156
 6307SOL    HW230384   0.373   2.713   9.763  0.3384 -0.1349  1.4249
 6308SOL     OW30385   2.421   3.080   6.076 -0.2422  0.4564  0.4512
 6308SOL    HW130386   2.357   3.009   6.076  1.2009 -0.8174 -1.4166
 6308SOL    HW230387   2.407   3.100   6.169 -1.9547 -0.4791  0.3976
 6309SOL     OW30388   3.236   3.757  14.150  0.0487  0.0982 -0.6298
 6309SOL    HW130389   3.275   3.814  14.216  0.3259  0.8093 -1.4141
 6309SOL    HW230390   3.214   3.823  14.085  1.2406  2.9399  1.8424
 6310SOL     OW30391   4.573   2.844   6.099  0.3554 -0.5999  0.2233
 6310SOL    HW130392   4.647   2.889   6.137 -0.7365  0.7405  0.7510
 6310SOL    HW230393   4.516   2.847   6.176 -1.1774  2.3849 -1.0356
 6311SOL     OW30394   2.090   4.402   8.505 -0.4626  0.0641  0.1717
 6311SOL    HW130395   2.000   4.370   8.505 -0.4875  0.1292  3.2464
 6311SOL    HW230396   2.095   4.442   8.592 -2.9618  0.8983 -0.0789
 6312SOL     OW30397   3.382   3.782   4.831  0.0857  0.1300 -0.2557
 6312SOL    HW130398   3.441   3.787   4.906 -1.8520  2.9396  1.1224
 6312SOL    HW230399   3.451   3.818   4.776 -0.1824 -0.0396 -0.7074
 6313SOL     OW30400   4.082   1.850   9.242  0.7447 -0.5233  0.4026
 6313SOL    HW130401   4.099   1.944   9.248 -0.2453 -0.2748 -0.8188
 6313SOL    HW230402   4.009   1.839   9.301 -0.3003  0.3088 -0.7316
 6314SOL     OW30403   2.053   1.552  16.855 -0.4127  0.5286 -0.5178
 6314SOL    HW130404   2.120   1.595  16.801 -0.8444 -0.0427 -1.4928
 6314SOL    HW230405   1.998   1.514  16.787  2.6443  0.2912 -2.9002
 6315SOL     OW30406   2.825   1.763   9.771 -0.0464  0.1459 -0.0409
 6315SOL    HW130407   2.896   1.782   9.710 -0.1990  1.1248  0.0864
 6315SOL    HW230408   2.861   1.685   9.814  1.4349  0.4845 -0.6553
 6316SOL     OW30409   4.280   3.306  10.405  0.2071 -0.2588  0.5771
 6316SOL    HW130410   4.209   3.333  10.463 -1.4498 -4.1370  0.3500
 6316SOL    HW230411   4.293   3.213  10.420  0.1408 -0.5466 -1.1373
 6317SOL     OW30412   3.151   1.706   7.734  0.4590 -0.0491 -0.3716
 6317SOL    HW130413   3.226   1.765   7.731  2.1842 -2.1115  2.7387
 6317SOL    HW230414   3.104   1.724   7.652  2.2981  0.3279 -1.3520
 6318SOL     OW30415   4.138   1.412   7.410  0.3638 -0.5565 -0.0246
 6318SOL    HW130416   4.173   1.420   7.322 -0.4510  1.5181 -0.1578
 6318SOL    HW230417   4.216   1.387   7.460 -0.1613 -2.4935 -0.2091
 6319SOL     OW30418   1.096   0.222   7.470 -0.2741 -0.0403  0.8315
 6319SOL    HW130419   1.094   0.316   7.454  0.8668 -0.0449  0.6786
 6319SOL    HW230420   1.130   0.193   7.385 -4.2037  3.5403 -1.9888
 6320SOL     OW30421   3.812   0.466   8.642 -0.0498  0.9500  0.5809
 6320SOL    HW130422   3.740   0.422   8.596  0.5153 -2.3525  2.8630
 6320SOL    HW230423   3.869   0.392   8.662  2.0432  1.9501 -1.7726
 6321SOL     OW30424   3.371   2.503   6.687  0.2979 -0.3026  0.4077
 6321SOL    HW130425   3.304   2.436   6.697 -1.0775  0.8501 -1.0801
 6321SOL    HW230426   3.449   2.448   6.682 -0.2808 -1.0633 -0.1357
 6322SOL     OW30427   0.657   1.821   2.453  0.3694  0.1304  0.0451
 6322SOL    HW130428   0.666   1.860   2.366 -1.0696 -1.8042 -0.9574
 6322SOL    HW230429   0.565   1.795   2.456  0.6692 -1.1234 -1.4644
 6323SOL     OW30430   1.420   3.640   9.856  0.3141 -0.7089  0.3527
 6323SOL    HW130431   1.465   3.638   9.940  1.9131  1.1759 -0.4387
 6323SOL    HW230432   1.454   3.717   9.809  0.1239  0.6654  2.4989
 6324SOL     OW30433   4.549   1.145   6.938 -0.0352  0.2807 -0.2071
 6324SOL    HW130434   4.558   1.052   6.959  0.0251  0.0083 -1.4415
 6324SOL    HW230435   4.597   1.175   7.015  0.7899  2.0444 -1.4141
 6325SOL     OW30436   3.707   3.582   7.821 -0.0108  0.0470 -0.5658
 6325SOL    HW130437   3.635   3.637   7.850  1.2883  1.0473  0.7166
 6325SOL    HW230438   3.774   3.631   7.870 -0.4644 -0.5840  0.6707
 6326SOL     OW30439   0.175   0.463   1.215 -0.6750  0.0134 -0.3655
 6326SOL    HW130440   0.232   0.539   1.229  1.2858 -1.4744 -0.2628
 6326SOL    HW230441   0.243   0.399   1.233 -0.1066  0.1840 -1.9353
 6327SOL     OW30442   4.417   4.132  11.200  0.2829 -0.2198 -0.0431
 6327SOL    HW130443   4.346   4.140  11.264  0.4465  0.4904  0.0532
 6327SOL    HW230444   4.390   4.194  11.133  0.2304  0.6961  0.8107
 6328SOL     OW30445   3.325   0.055   6.974  0.2303 -0.3638  0.1927
 6328SOL    HW130446   3.272   0.134   6.983 -1.9942 -1.9087  0.5521
 6328SOL    HW230447   3.372   0.073   6.892  0.4518 -0.3467  0.3234
 6329SOL     OW30448   3.877   2.059  17.576 -0.5519  0.4101 -0.3215
 6329SOL    HW130449   3.844   2.085  17.662  1.2826 -0.6075  0.6743
 6329SOL    HW230450   3.838   1.973  17.568  0.7967  0.1641 -4.2638
 6330SOL     OW30451   3.570   2.849   8.214 -0.3658 -0.2470 -0.2548
 6330SOL    HW130452   3.560   2.792   8.290 -0.5093  1.2956  0.8997
 6330SOL    HW230453   3.538   2.793   8.143  2.9398 -2.0089 -0.3005
 6331SOL     OW30454   1.191   3.534   6.186 -0.1391 -0.3128 -0.1152
 6331SOL    HW130455   1.141   3.464   6.145 -0.2952  0.2183 -0.8298
 6331SOL    HW230456   1.130   3.558   6.256 -0.3648 -0.7225 -0.1731
 6332SOL     OW30457   1.858   2.218   3.959 -0.1847 -0.4871  0.4010
 6332SOL    HW130458   1.884   2.296   3.910 -0.1469  0.3941  1.7956
 6332SOL    HW230459   1.819   2.165   3.890  0.3500 -1.4303  0.8346
 6333SOL     OW30460   0.191   2.392  12.689  0.4251 -0.1191 -0.2638
 6333SOL    HW130461   0.213   2.465  12.632 -0.5170  0.4229  0.0710
 6333SOL    HW230462   0.247   2.317  12.669  0.5327 -0.2611  0.5525
 6334SOL     OW30463   0.467   0.924   5.517 -0.2019  0.1931  0.1420
 6334SOL    HW130464   0.440   1.000   5.568  0.1254  0.0520  0.5214
 6334SOL    HW230465   0.382   0.881   5.505 -0.3804  0.5739  0.0714
 6335SOL     OW30466   1.580   4.032   6.492 -0.2022  0.2466 -0.2787
 6335SOL    HW130467   1.608   3.949   6.532  0.3591  1.0478  0.9641
 6335SOL    HW230468   1.646   4.037   6.423  3.5491  1.9088  3.4475
 6336SOL     OW30469   3.281   0.628   2.639  0.0204 -0.0680  0.1703
 6336SOL    HW130470   3.204   0.636   2.582  0.0369 -2.9486 -0.2665
 6336SOL    HW230471   3.356   0.645   2.582  0.8556  0.1543  1.3374
 6337SOL     OW30472   3.564   4.585  11.415  0.2960 -0.5213 -0.1889
 6337SOL    HW130473   3.578   4.501  11.459 -1.0522 -0.8990 -0.4623
 6337SOL    HW230474   3.627   4.647  11.452 -0.8186  1.0801 -0.9604
 6338SOL     OW30475   0.342   4.151   5.546  0.1639 -0.2053  0.0477
 6338SOL    HW130476   0.424   4.132   5.502 -0.4075 -0.2417 -0.9970
 6338SOL    HW230477   0.356   4.110   5.631  1.5892 -1.0198 -0.5923
 6339SOL     OW30478   3.763   3.661  11.449 -0.1677  0.1894 -0.0180
 6339SOL    HW130479   3.708   3.643  11.525  2.6509 -0.7393  1.8173
 6339SOL    HW230480   3.852   3.635  11.475 -0.2003  0.8923  0.8092
 6340SOL     OW30481   4.245   1.008  16.500 -0.2140  0.0121 -0.2101
 6340SOL    HW130482   4.309   1.037  16.436 -0.4500 -2.2125 -1.4440
 6340SOL    HW230483   4.293   0.935  16.539  2.6589  2.1260  0.1931
 6341SOL     OW30484   4.339   2.757   1.712  0.4048 -0.5465 -0.7669
 6341SOL    HW130485   4.280   2.802   1.772  0.7305 -1.8445  0.5382
 6341SOL    HW230486   4.288   2.749   1.632 -1.2836  2.6158  0.0020
 6342SOL     OW30487   4.637   0.361   1.238  0.1236 -0.0131  0.4069
 6342SOL    HW130488   0.004   0.401   1.252  0.2562  0.6086 -2.1563
 6342SOL    HW230489   4.585   0.397   1.310 -1.8000 -1.6345 -0.1784
 6343SOL     OW30490   4.463   4.633   2.869 -0.4964 -0.1536 -0.3930
 6343SOL    HW130491   4.425   4.548   2.889  0.8489 -0.5371  0.5746
 6343SOL    HW230492   4.441   4.646   2.776 -4.7473 -0.1521  0.6225
 6344SOL     OW30493   0.815   2.428   5.689  0.0262  0.2336  0.4076
 6344SOL    HW130494   0.754   2.356   5.670 -0.0545  0.9543 -2.0634
 6344SOL    HW230495   0.895   2.382   5.715  1.5173  2.4618 -0.2486
 6345SOL     OW30496   3.045   2.171   5.241  0.0299 -0.4668 -0.4584
 6345SOL    HW130497   2.955   2.154   5.215  0.3168 -1.5782 -0.7212
 6345SOL    HW230498   3.018   2.233   5.310 -1.4247 -0.1610 -1.3080
 6346SOL     OW30499   0.611   3.078   4.299 -0.1305  0.5684 -0.5603
 6346SOL    HW130500   0.627   3.019   4.226  2.2063  2.6312 -1.7250
 6346SOL    HW230501   0.684   3.140   4.300  0.3892 -0.0538 -0.4326
 6347SOL     OW30502   0.147   3.981  16.044  0.2663 -0.5449 -0.0815
 6347SOL    HW130503   0.213   4.051  16.045 -0.7937  0.4577  0.1286
 6347SOL    HW230504   0.072   4.034  16.017  0.6351  1.2841  2.5175
 6348SOL     OW30505   3.389   2.451   5.399  0.1071 -0.6628  0.1093
 6348SOL    HW130506   3.473   2.437   5.443 -0.7801 -0.5067  1.8471
 6348SOL    HW230507   3.423   2.489   5.318 -0.5982  0.3211  0.2685
 6349SOL     OW30508   0.758   4.011   7.613  0.2757 -0.1104  0.2514
 6349SOL    HW130509   0.827   4.053   7.664 -1.5945  3.4332 -0.0803
 6349SOL    HW230510   0.772   3.918   7.625 -1.9708 -0.9075 -3.1795
 6350SOL     OW30511   3.388   1.208   6.680  0.4747  0.5586 -0.0017
 6350SOL    HW130512   3.420   1.275   6.740 -0.1022 -2.1285  3.3309
 6350SOL    HW230513   3.294   1.223   6.680  0.4632  0.4807 -1.8113
 6351SOL     OW30514   0.423   2.416   7.877  0.0798 -1.1554 -0.4806
 6351SOL    HW130515   0.347   2.364   7.852 -0.1718 -1.9095  1.9243
 6351SOL    HW230516   0.454   2.357   7.945  3.1876 -1.8297 -2.4659
 6352SOL     OW30517   1.408   1.430   8.261  0.8946 -0.6377  0.1907
 6352SOL    HW130518   1.317   1.409   8.281  1.6332 -2.2025  1.9260
 6352SOL    HW230519   1.423   1.466   8.348 -0.9730 -2.2805  1.1938
 6353SOL     OW30520   3.436   1.023   3.775  0.4608  0.5235 -0.1030
 6353SOL    HW130521   3.412   0.931   3.770  2.4542 -0.0434  0.7743
 6353SOL    HW230522   3.357   1.056   3.819 -0.4961  0.3536 -1.6753
 6354SOL     OW30523   0.897   1.735   1.222  0.2271 -0.6722  0.1476
 6354SOL    HW130524   0.900   1.807   1.159  0.0122  1.0031  2.0324
 6354SOL    HW230525   0.962   1.672   1.189  1.0727  0.9114 -1.1923
 6355SOL     OW30526   1.705   2.376   5.600  0.5553  0.1177  0.4893
 6355SOL    HW130527   1.796   2.352   5.618 -0.2604 -3.4303 -0.2781
 6355SOL    HW230528   1.695   2.336   5.514  0.2976 -0.7391  0.9185
 6356SOL     OW30529   4.381   1.637   1.666 -0.0676  0.0493  0.1539
 6356SOL    HW130530   4.392   1.709   1.605 -0.2523 -0.2416 -0.2204
 6356SOL    HW230531   4.298   1.598   1.637  0.3821  0.2950 -1.4099
 6357SOL     OW30532   1.995   2.760   9.464  0.3734 -0.2607  0.4535
 6357SOL    HW130533   2.003   2.712   9.382  0.0072 -2.3545  1.6433
 6357SOL    HW230534   1.935   2.831   9.441  1.3537  0.5231  0.3538
 6358SOL     OW30535   3.597   3.070   7.480  0.3095  0.4591  0.1999
 6358SOL    HW130536   3.524   3.014   7.505 -0.1201 -0.0011 -2.0652
 6358SOL    HW230537   3.564   3.155   7.510  0.1497  0.3274  0.4002
 6359SOL     OW30538   2.849   1.036   1.945 -0.0389  0.3629  0.0653
 6359SOL    HW130539   2.791   1.095   1.993 -1.5288 -1.1337  0.0918
 6359SOL    HW230540   2.799   0.957   1.965  0.6213  0.5733  2.5933
 6360SOL     OW30541   0.961   2.525   1.711 -0.9084 -0.5137  0.5012
 6360SOL    HW130542   0.978   2.610   1.670 -1.6858 -0.0922  1.0441
 6360SOL    HW230543   0.902   2.538   1.785 -1.3827  0.8550 -0.1276
 6361SOL     OW30544   4.610   1.325   2.806  0.2118 -0.1287  0.0913
 6361SOL    HW130545   4.633   1.331   2.899  1.1045 -2.0131 -0.0247
 6361SOL    HW230546   4.695   1.321   2.763  0.3388  1.9668  0.1255
 6362SOL     OW30547   0.772   1.457   6.708  0.1973 -0.3110 -0.5520
 6362SOL    HW130548   0.760   1.364   6.729 -0.2378 -0.0032  0.5708
 6362SOL    HW230549   0.775   1.496   6.795 -0.6259 -1.3249 -0.0702
 6363SOL     OW30550   0.932   0.495   2.404  0.1649 -0.2569 -0.0833
 6363SOL    HW130551   1.019   0.530   2.420  0.3570 -1.2542  0.9738
 6363SOL    HW230552   0.914   0.540   2.321 -1.2953  0.5651  0.6601
 6364SOL     OW30553   2.129   1.241   7.588  0.0595  0.2346  0.6957
 6364SOL    HW130554   2.079   1.164   7.561 -0.5335  1.4050 -1.4955
 6364SOL    HW230555   2.091   1.272   7.671 -0.9605 -1.9030  1.0346
 6365SOL     OW30556   3.755   2.728   7.764  0.0170  0.2341  0.3958
 6365SOL    HW130557   3.751   2.793   7.834 -1.9949 -0.6075  1.0540
 6365SOL    HW230558   3.788   2.790   7.698  1.0094 -2.3761 -1.5513
 6366SOL     OW30559   3.044   0.367   3.273 -0.3033  0.2686 -0.1601
 6366SOL    HW130560   3.110   0.413   3.222 -1.9455  0.9003 -1.7115
 6366SOL    HW230561   2.981   0.335   3.208 -0.3523  1.4596 -0.6957
 6367SOL     OW30562   2.766   2.943   1.747  0.0349 -0.0052 -0.1698
 6367SOL    HW130563   2.821   2.885   1.800  1.8720  1.1100 -0.8501
 6367SOL    HW230564   2.812   2.938   1.663 -0.1518 -0.6542 -0.2313
 6368SOL     OW30565   1.923   3.978   3.430 -0.1873  0.5563 -0.2165
 6368SOL    HW130566   1.952   3.905   3.375  1.6742  0.9044  0.3181
 6368SOL    HW230567   1.847   4.013   3.382 -0.4919  0.4171  0.1607
 6369SOL     OW30568   0.181   3.123   7.348  0.5382 -0.1261 -0.1814
 6369SOL    HW130569   0.156   3.203   7.394 -1.3642 -2.2947  2.5624
 6369SOL    HW230570   0.276   3.125   7.360  0.4079  1.5709  0.6705
 6370SOL     OW30571   0.533   0.642  13.039  0.2168  0.2304 -0.1663
 6370SOL    HW130572   0.456   0.655  13.094  0.5873 -1.7220  0.8083
 6370SOL    HW230573   0.579   0.568  13.080  1.1126  0.4854 -0.7218
 6371SOL     OW30574   1.072   3.952   4.310 -0.2971 -0.1505  1.1568
 6371SOL    HW130575   1.069   3.954   4.405  1.0973 -0.5213  1.2125
 6371SOL    HW230576   1.126   3.875   4.295 -0.2097 -0.0062  0.7225
 6372SOL     OW30577   4.283   2.424   9.179 -0.0455  0.2083  0.4227
 6372SOL    HW130578   4.235   2.478   9.241  0.9035  2.5436 -0.8944
 6372SOL    HW230579   4.235   2.450   9.100 -0.2188  1.7554  1.0452
 6373SOL     OW30580   1.015   0.175   6.800  0.1802 -0.3622 -0.4054
 6373SOL    HW130581   1.022   0.235   6.726  2.1773  0.5556  0.5271
 6373SOL    HW230582   1.108   0.171   6.821 -0.4001 -0.0164  2.1752
 6374SOL     OW30583   1.111   3.697   1.223  0.0283 -0.7146  0.2791
 6374SOL    HW130584   1.074   3.681   1.311 -1.0164 -1.0690 -0.2223
 6374SOL    HW230585   1.191   3.646   1.232  0.5355 -0.0918 -0.8153
 6375SOL     OW30586   1.541   1.525   4.315 -0.0708 -0.6005  0.1469
 6375SOL    HW130587   1.538   1.430   4.302  2.1126 -0.3610 -1.9611
 6375SOL    HW230588   1.581   1.522   4.402  0.7241  1.6469 -0.1634
 6376SOL     OW30589   4.600   0.675   7.777  0.2991 -0.1264  0.1996
 6376SOL    HW130590   4.675   0.707   7.726  0.0040 -0.3618 -0.3839
 6376SOL    HW230591   4.631   0.584   7.781  0.8097 -0.0922 -2.5069
 6377SOL     OW30592   2.198   4.542   2.273 -0.0989 -0.1665  0.1121
 6377SOL    HW130593   2.232   4.534   2.362 -0.4363  0.2970  0.2777
 6377SOL    HW230594   2.131   4.473   2.273  0.2879 -0.5477  1.2383
 6378SOL     OW30595   2.056   0.832   1.870  0.0310 -0.0486  0.2351
 6378SOL    HW130596   1.972   0.795   1.896  1.3219 -2.0007  1.6637
 6378SOL    HW230597   2.032   0.925   1.873  4.0666  0.9401  2.5614
 6379SOL     OW30598   2.240   0.788  13.071  0.5053  0.1338  0.7573
 6379SOL    HW130599   2.234   0.862  13.131  0.2969 -0.1523  1.0896
 6379SOL    HW230600   2.159   0.808  13.022  0.1421  2.3398  2.2324
 6380SOL     OW30601   2.604   4.558   7.040  0.1086  0.6905 -0.3221
 6380SOL    HW130602   2.661   4.575   7.115 -1.0305 -1.4856  1.0430
 6380SOL    HW230603   2.515   4.552   7.076  0.7217  2.5337  1.4765
 6381SOL     OW30604   1.949   2.311  11.694  0.2444 -0.1580 -0.6962
 6381SOL    HW130605   2.016   2.368  11.733 -0.7080 -0.2749  1.0946
 6381SOL    HW230606   1.951   2.350  11.607  2.0546 -0.8745 -0.9707
 6382SOL     OW30607   1.780   1.653   1.172 -0.2380  0.2520  0.3219
 6382SOL    HW130608   1.755   1.561   1.172 -0.0141  0.1898  0.3683
 6382SOL    HW230609   1.702   1.700   1.201  0.0009  0.6964  0.2437
 6383SOL     OW30610   0.487   3.866   7.899  0.3874  0.8335 -0.2753
 6383SOL    HW130611   0.412   3.910   7.938 -0.2558 -1.6879  1.2924
 6383SOL    HW230612   0.453   3.855   7.810 -1.1632 -0.3262  0.4609
 6384SOL     OW30613   4.176   1.374   5.746 -0.1674 -0.3485  0.0344
 6384SOL    HW130614   4.186   1.367   5.841  0.9447 -0.2518 -0.0725
 6384SOL    HW230615   4.099   1.431   5.751  0.0991  0.1545 -1.7917
 6385SOL     OW30616   4.129   1.311  12.654 -0.0688  0.2885 -0.3928
 6385SOL    HW130617   4.064   1.310  12.725 -0.6082 -0.7190 -0.8980
 6385SOL    HW230618   4.212   1.291  12.695 -0.3515  0.3837  0.2175
 6386SOL     OW30619   0.811   3.780   1.376 -0.5332  0.0611 -0.1158
 6386SOL    HW130620   0.892   3.762   1.423 -0.9645 -0.4578  0.4282
 6386SOL    HW230621   0.847   3.809   1.292 -3.2817 -0.4298 -1.5014
 6387SOL     OW30622   4.394   0.455   9.176 -0.4580 -0.3417  0.3850
 6387SOL    HW130623   4.394   0.425   9.267  1.7385  0.6185  0.7028
 6387SOL    HW230624   4.362   0.378   9.129 -0.7201  0.0441 -0.0627
 6388SOL     OW30625   3.569   0.641   1.474  0.3939  0.1025  0.1828
 6388SOL    HW130626   3.492   0.646   1.417  0.0533 -4.3555  0.2374
 6388SOL    HW230627   3.523   0.577   1.529 -0.9496  0.1778 -0.8409
 6389SOL     OW30628   2.624   1.286   2.436 -0.0002  0.5664 -0.1151
 6389SOL    HW130629   2.550   1.321   2.487 -0.8353 -0.5136 -0.5914
 6389SOL    HW230630   2.571   1.243   2.369  0.2246 -1.4736  1.0104
 6390SOL     OW30631   3.351   1.473   6.492 -0.6238  0.6280 -0.0045
 6390SOL    HW130632   3.377   1.454   6.582 -0.6781  2.2685  0.3553
 6390SOL    HW230633   3.372   1.388   6.453  1.1408  0.8218  0.5076
 6391SOL     OW30634   1.984   2.109   7.378 -0.2211 -0.2038 -0.6656
 6391SOL    HW130635   1.907   2.059   7.405 -0.4250  0.0175 -0.8366
 6391SOL    HW230636   2.052   2.052   7.413 -0.7955  0.6174  1.8029
 6392SOL     OW30637   3.573   1.595   4.460  0.3249 -0.1522 -0.5581
 6392SOL    HW130638   3.576   1.676   4.409  0.5499 -0.1182 -0.4899
 6392SOL    HW230639   3.668   1.582   4.470  0.5836  0.5781 -2.0031
 6393SOL     OW30640   1.196   4.558   5.889  0.4087  0.0454 -0.0271
 6393SOL    HW130641   1.224   4.562   5.980 -3.7420 -1.0750  1.2790
 6393SOL    HW230642   1.132   4.488   5.898  0.6923 -0.4415 -1.6892
 6394SOL     OW30643   3.461   4.032   3.243  0.5385 -0.4066  0.2898
 6394SOL    HW130644   3.507   4.053   3.161 -1.1561 -0.7076 -0.7471
 6394SOL    HW230645   3.425   3.945   3.223 -1.0800  0.3286 -0.0805
 6395SOL     OW30646   3.930   3.357   8.730 -0.4725 -0.2244 -0.2189
 6395SOL    HW130647   4.004   3.339   8.787 -1.9221 -0.2426  1.6635
 6395SOL    HW230648   3.956   3.345   8.639 -2.1212  0.2287 -0.7467
 6396SOL     OW30649   0.930   2.261   0.169 -0.0279 -0.1540 -0.4318
 6396SOL    HW130650   0.993   2.285   0.101 -0.2523  2.2710  0.1948
 6396SOL    HW230651   0.927   2.336   0.229  0.3717 -1.9670  1.8437
 6397SOL     OW30652   2.361   4.182   5.974  0.0564 -0.3190 -0.0511
 6397SOL    HW130653   2.314   4.121   6.031  1.0545 -1.0118  0.0258
 6397SOL    HW230654   2.286   4.222   5.929  0.0907  0.1797  0.3390
 6398SOL     OW30655   3.667   3.721  14.505 -0.0111  0.0648  0.1924
 6398SOL    HW130656   3.754   3.713  14.467  0.2071  2.1123  0.2970
 6398SOL    HW230657   3.693   3.727  14.596 -0.4207 -1.6008  0.4258
 6399SOL     OW30658   0.701   1.838   3.729  0.2914 -0.7677 -0.4045
 6399SOL    HW130659   0.667   1.771   3.670 -0.7359  0.7748 -1.5843
 6399SOL    HW230660   0.772   1.794   3.775 -0.5482 -0.6724  0.9767
 6400SOL     OW30661   1.967   1.757  15.043 -0.0415 -0.7373  0.1068
 6400SOL    HW130662   1.908   1.716  15.106  0.4088  1.4088  1.9278
 6400SOL    HW230663   2.021   1.680  15.024  0.4138 -0.2709 -0.5071
 6401SOL     OW30664   2.038   4.646  16.268  0.4278 -0.2357 -0.2563
 6401SOL    HW130665   1.955   4.670  16.308 -0.5266 -2.3150 -0.9836
 6401SOL    HW230666   2.039   4.716  16.203 -3.3925  0.4531  0.4445
 6402SOL     OW30667   3.210   3.573  13.473  0.3170  0.0666 -0.2389
 6402SOL    HW130668   3.150   3.638  13.435  1.1284  2.4032  2.4499
 6402SOL    HW230669   3.185   3.568  13.565 -0.9894  3.1710 -0.4094
 6403SOL     OW30670   0.528   1.528   8.583  0.7008 -0.3096  0.3125
 6403SOL    HW130671   0.521   1.557   8.674 -0.6762 -0.1705  0.1664
 6403SOL    HW230672   0.621   1.534   8.562  0.4225 -1.6418 -1.3225
 6404SOL     OW30673   3.369   1.120   2.542 -0.0381 -0.2712 -0.4379
 6404SOL    HW130674   3.399   1.211   2.537 -2.9356  0.7550  0.4707
 6404SOL    HW230675   3.403   1.073   2.618 -1.6520  0.7451  0.9370
 6405SOL     OW30676   4.614   0.565  10.387  1.0470 -0.1635 -0.3213
 6405SOL    HW130677   4.651   0.627  10.450 -1.9655 -0.2954  1.6032
 6405SOL    HW230678   4.673   0.491  10.398  2.8971  1.5781  1.3887
 6406SOL     OW30679   0.565   2.222  10.918  0.4342  0.1171 -0.3132
 6406SOL    HW130680   0.498   2.184  10.861  0.1379  1.4040 -0.8060
 6406SOL    HW230681   0.642   2.213  10.863  1.2701 -0.4754  0.9529
 6407SOL     OW30682   3.405   2.412   9.429 -0.1785  0.4222 -0.1417
 6407SOL    HW130683   3.369   2.475   9.491  1.9566 -1.2798  2.8123
 6407SOL    HW230684   3.420   2.335   9.484  0.1798 -0.1756 -1.0702
 6408SOL     OW30685   3.556   1.387   1.002 -0.4148 -0.2000 -0.4131
 6408SOL    HW130686   3.509   1.464   1.035  0.5959 -0.1299  0.8472
 6408SOL    HW230687   3.503   1.338   0.940  0.3683  0.4500 -1.6141
 6409SOL     OW30688   1.472   1.642   3.976 -0.2604 -1.0429 -0.2663
 6409SOL    HW130689   1.416   1.674   4.048  0.5115  0.7922 -0.4954
 6409SOL    HW230690   1.533   1.597   4.035 -1.0619 -0.7948  0.7659
 6410SOL     OW30691   4.314   2.997  11.202  0.2885  0.5531 -1.4228
 6410SOL    HW130692   4.351   3.058  11.266  0.5500 -2.0544  0.9255
 6410SOL    HW230693   4.393   2.953  11.170  1.3503  0.4408  1.3337
 6411SOL     OW30694   1.475   4.264   5.880  0.0372  0.1937  0.0399
 6411SOL    HW130695   1.466   4.241   5.972  3.7559  0.1037  0.3940
 6411SOL    HW230696   1.455   4.357   5.893  0.0388  0.4328 -1.7284
 6412SOL     OW30697   1.907   2.225   8.788 -0.0196 -0.3195 -0.1989
 6412SOL    HW130698   1.975   2.261   8.731  1.1555 -0.6933  0.9583
 6412SOL    HW230699   1.857   2.300   8.817  0.7111 -0.2411  0.8661
 6413SOL     OW30700   2.708   4.352   2.960 -0.6582 -0.7940  0.6723
 6413SOL    HW130701   2.662   4.390   2.885 -0.5935 -1.5589  0.2468
 6413SOL    HW230702   2.800   4.373   2.944 -0.8770 -0.5812 -0.3317
 6414SOL     OW30703   1.475   3.179   9.818 -0.3293 -0.3408  0.3667
 6414SOL    HW130704   1.431   3.263   9.828 -0.4624 -0.4078  0.3499
 6414SOL    HW230705   1.470   3.138   9.904  0.1769 -1.1288  0.0193
 6415SOL     OW30706   4.373   3.276   3.297 -0.3401 -0.6148  0.0795
 6415SOL    HW130707   4.431   3.226   3.356 -1.0533  0.0564  1.3538
 6415SOL    HW230708   4.407   3.255   3.210 -2.3295 -0.7802 -0.6528
 6416SOL     OW30709   4.334   2.080   9.107  0.3395 -0.0657 -0.0263
 6416SOL    HW130710   4.387   2.056   9.031  1.1761 -0.8443  0.8026
 6416SOL    HW230711   4.249   2.079   9.064  0.8093 -1.3085 -0.9123
 6417SOL     OW30712   2.056   3.873  14.448  0.2241  0.6522 -0.1390
 6417SOL    HW130713   1.994   3.911  14.387 -1.6833 -1.1101  0.7006
 6417SOL    HW230714   2.006   3.861  14.529  1.3216 -0.2350  0.4044
 6418SOL     OW30715   0.277   3.694   5.156  0.1320 -0.0776  0.6713
 6418SOL    HW130716   0.231   3.624   5.202 -1.6139 -0.4287 -1.5763
 6418SOL    HW230717   0.303   3.752   5.227  1.1288  1.2520 -0.7938
 6419SOL     OW30718   2.410   1.595   6.128  0.1810 -0.1976 -0.3526
 6419SOL    HW130719   2.388   1.627   6.041 -0.1483 -0.0099 -0.2038
 6419SOL    HW230720   2.505   1.588   6.126  0.1594 -0.3766 -0.6937
 6420SOL     OW30721   2.199   0.433  16.047  0.2837 -0.1428 -0.3406
 6420SOL    HW130722   2.195   0.441  16.143 -2.9239 -0.4386 -0.4762
 6420SOL    HW230723   2.193   0.338  16.036 -1.6289 -0.2074  1.3577
 6421SOL     OW30724   3.082   2.012   6.696 -0.2588 -0.1595  0.1307
 6421SOL    HW130725   3.056   2.021   6.604  0.2004 -0.9493 -0.0710
 6421SOL    HW230726   3.001   1.987   6.739  0.0089 -1.3087 -0.0434
 6422SOL     OW30727   0.296   0.767   6.823 -0.7583 -0.2682  0.5042
 6422SOL    HW130728   0.283   0.676   6.795  0.7081 -0.2848 -0.0802
 6422SOL    HW230729   0.208   0.803   6.817  0.0972  1.6263 -0.5764
 6423SOL     OW30730   0.334   3.555   3.714 -0.3891 -0.1981  0.3548
 6423SOL    HW130731   0.367   3.470   3.686  1.1306 -0.7626  3.7950
 6423SOL    HW230732   0.418   3.594   3.736  0.9240 -1.3650 -2.6855
 6424SOL     OW30733   4.382   2.585   6.498  0.0758 -0.2599  0.2753
 6424SOL    HW130734   4.312   2.527   6.468  0.7521 -0.8796 -0.1161
 6424SOL    HW230735   4.441   2.512   6.518  0.6389 -0.0403 -0.5674
 6425SOL     OW30736   1.263   1.155   7.382  0.1849  0.4831 -0.0913
 6425SOL    HW130737   1.204   1.101   7.435 -0.2267  1.0667  0.0477
 6425SOL    HW230738   1.236   1.243   7.408 -1.1704 -0.0511  0.3063
 6426SOL     OW30739   0.371   4.663   3.588 -0.3918  0.0978  0.0376
 6426SOL    HW130740   0.380   4.641   3.495 -0.0766 -2.3892  0.6546
 6426SOL    HW230741   0.332   0.033   3.584 -1.4403 -0.4526 -1.8936
 6427SOL     OW30742   4.174   2.167   7.400 -0.2741 -0.0412  0.0147
 6427SOL    HW130743   4.225   2.248   7.409 -1.3259  0.9176 -2.6232
 6427SOL    HW230744   4.088   2.201   7.376 -0.1756  1.4673  1.7513
 6428SOL     OW30745   3.388   2.671   4.057  0.0101  0.0060  0.2933
 6428SOL    HW130746   3.455   2.613   4.022  0.1838  0.4820 -0.1532
 6428SOL    HW230747   3.432   2.720   4.126  1.1557 -2.2413  1.1797
 6429SOL     OW30748   4.382   4.407  12.189 -0.0263  0.1386 -0.0559
 6429SOL    HW130749   4.464   4.433  12.146  0.1917 -2.5760 -1.2902
 6429SOL    HW230750   4.317   4.465  12.151 -0.2554 -0.0696  0.0127
 6430SOL     OW30751   4.542   0.777  13.808  0.0696 -0.1430  0.3226
 6430SOL    HW130752   4.510   0.759  13.896 -2.4106  3.6324  0.1725
 6430SOL    HW230753   4.462   0.805  13.764 -2.5976 -3.1245  3.2196
 6431SOL     OW30754   2.097   1.653   5.785 -0.0554 -0.1467  0.3183
 6431SOL    HW130755   2.141   1.611   5.711 -0.7834  1.9425 -1.2973
 6431SOL    HW230756   2.037   1.703   5.731  0.4162 -0.7474 -0.7703
 6432SOL     OW30757   0.781   2.776   4.510 -0.2072 -0.1623  0.0326
 6432SOL    HW130758   0.852   2.807   4.566 -1.6246  2.3032  0.4192
 6432SOL    HW230759   0.807   2.813   4.426  1.3541  1.3260  1.1870
 6433SOL     OW30760   1.327   4.707  14.275 -0.2401  0.4208 -0.3027
 6433SOL    HW130761   1.289   4.689  14.190 -0.3176  3.1549 -0.8498
 6433SOL    HW230762   1.272   0.065  14.297  4.7626  3.2804  2.4568
 6434SOL     OW30763   4.309   1.928   0.085 -0.1767 -0.0629  0.0733
 6434SOL    HW130764   4.391   1.979   0.090  1.0069 -1.8549 -1.0177
 6434SOL    HW230765   4.246   1.986   0.043  1.3358  0.1692 -1.9044
 6435SOL     OW30766   1.755   2.974   6.966  0.3948 -0.0505  0.6929
 6435SOL    HW130767   1.664   2.981   6.995 -0.3930 -1.7059 -1.3699
 6435SOL    HW230768   1.731   2.913   6.896  0.4325 -0.0523  0.6818
 6436SOL     OW30769   3.734   2.158   8.628  0.1753  0.4632 -0.0213
 6436SOL    HW130770   3.819   2.115   8.624 -1.1440 -1.9131 -2.6930
 6436SOL    HW230771   3.736   2.231   8.690 -0.0709  1.9866 -1.7988
 6437SOL     OW30772   3.926   3.161   0.697 -0.6819  0.1956  0.1793
 6437SOL    HW130773   3.866   3.142   0.769  0.5915 -1.6385  0.7648
 6437SOL    HW230774   3.997   3.189   0.755 -2.0290  0.1059  1.8711
 6438SOL     OW30775   0.248   0.411   4.810  0.1725  0.7310  0.0125
 6438SOL    HW130776   0.200   0.356   4.749 -1.5737  2.7331 -0.3963
 6438SOL    HW230777   0.197   0.492   4.804 -0.9879 -0.0589 -0.6721
 6439SOL     OW30778   1.909   1.787   2.459 -0.1342  1.1115  0.0110
 6439SOL    HW130779   1.951   1.870   2.483  0.3329  0.5359  1.1968
 6439SOL    HW230780   1.984   1.746   2.416 -0.2354  1.6674 -0.6945
 6440SOL     OW30781   1.650   0.667   8.086  0.0326 -1.1470  0.5343
 6440SOL    HW130782   1.581   0.665   8.152  1.0432  1.2177  1.6897
 6440SOL    HW230783   1.708   0.600   8.124  1.4811  0.0956  0.5034
 6441SOL     OW30784   4.392   0.917   1.769  0.8128  0.3849  0.7461
 6441SOL    HW130785   4.441   0.971   1.831  0.0376  0.9341  0.8836
 6441SOL    HW230786   4.462   0.871   1.723 -0.1814  0.2035 -0.5985
 6442SOL     OW30787   0.950   2.054   2.037 -0.8651  0.0592 -0.3130
 6442SOL    HW130788   0.965   2.093   1.951 -2.6261  1.8156  0.1765
 6442SOL    HW230789   0.901   1.975   2.014  0.5559 -0.3562 -1.9332
 6443SOL     OW30790   0.495   2.135  17.462 -0.5260 -0.8088 -0.0573
 6443SOL    HW130791   0.475   2.047  17.493  0.0387 -0.2666  1.8778
 6443SOL    HW230792   0.494   2.182  17.546 -1.8983  0.9669 -1.0578
 6444SOL     OW30793   2.917   3.795   8.351 -0.1039  0.3149  0.2246
 6444SOL    HW130794   2.853   3.859   8.379  0.4342 -0.1874  2.5416
 6444SOL    HW230795   2.862   3.736   8.299 -1.0761  0.4125  1.1580
 6445SOL     OW30796   2.919   0.203   4.573 -0.1507  0.3976  0.0790
 6445SOL    HW130797   2.866   0.235   4.646  0.2404 -0.0434  0.5563
 6445SOL    HW230798   2.865   0.155   4.510  0.5067 -0.1678 -0.0513
 6446SOL     OW30799   0.699   3.423  15.803 -0.0702  0.1125  0.3882
 6446SOL    HW130800   0.646   3.443  15.726  0.2617 -1.0385 -0.1430
 6446SOL    HW230801   0.703   3.328  15.803 -0.6899  0.0988  2.1503
 6447SOL     OW30802   3.122   0.885   0.796 -0.3121  0.0264 -0.0683
 6447SOL    HW130803   3.068   0.927   0.729 -0.8301  1.4089  1.2081
 6447SOL    HW230804   3.063   0.859   0.867 -0.1680 -1.8174 -0.6447
 6448SOL     OW30805   4.367   0.466  12.184 -0.7727 -0.0273 -0.1976
 6448SOL    HW130806   4.294   0.454  12.124 -0.4029  1.1889 -0.8783
 6448SOL    HW230807   4.329   0.520  12.254 -0.3268 -2.2827  1.7884
 6449SOL     OW30808   3.769   1.716   4.725 -0.1025 -0.2937 -0.2017
 6449SOL    HW130809   3.678   1.740   4.742 -0.4958 -2.0284  0.1291
 6449SOL    HW230810   3.794   1.693   4.815  0.3662 -1.0407 -0.5320
 6450SOL     OW30811   3.895   1.940   1.509  0.1738  0.5495 -0.4702
 6450SOL    HW130812   3.862   1.979   1.590  1.7647 -1.7941  1.3026
 6450SOL    HW230813   3.943   1.865   1.545  0.0061  0.5232 -0.3006
 6451SOL     OW30814   3.700   4.168   8.067 -0.1198  0.5246 -0.0764
 6451SOL    HW130815   3.660   4.213   8.141 -3.7068  0.4778 -1.9956
 6451SOL    HW230816   3.757   4.235   8.030 -1.2018  1.0671 -0.7497
 6452SOL     OW30817   2.737   4.382  12.589 -0.1259  0.4453 -0.0437
 6452SOL    HW130818   2.691   4.452  12.543 -2.0448 -0.1739  0.9281
 6452SOL    HW230819   2.785   4.342  12.516 -1.8131 -0.1737 -0.8186
 6453SOL     OW30820   0.699   0.013   4.879  0.9030  0.7857 -0.1051
 6453SOL    HW130821   0.718   4.678   4.801  1.5850 -1.3810  1.5163
 6453SOL    HW230822   0.720   0.101   4.850  1.2220  1.0217  0.8263
 6454SOL     OW30823   1.960   0.006   6.815 -0.1490  0.1677 -0.2921
 6454SOL    HW130824   1.960   0.086   6.868 -1.7039  0.3594 -0.5615
 6454SOL    HW230825   1.912   0.033   6.737 -1.9575 -1.0366  0.3785
 6455SOL     OW30826   3.726   3.088  17.362  0.2624  0.5495 -0.4558
 6455SOL    HW130827   3.654   3.038  17.323  1.5947 -0.8936 -1.0656
 6455SOL    HW230828   3.793   3.046  17.308 -0.0803  0.5620 -0.8973
 6456SOL     OW30829   2.904   4.308  17.042 -0.0431 -0.1619  0.0778
 6456SOL    HW130830   2.904   4.327  16.949  0.0648 -0.4426  0.0200
 6456SOL    HW230831   2.869   4.388  17.082  0.3096  0.2026 -0.3428
 6457SOL     OW30832   0.929   1.501   8.157  0.2594 -0.6126  0.2131
 6457SOL    HW130833   0.951   1.491   8.064  0.5697 -0.8826  0.3151
 6457SOL    HW230834   0.851   1.446   8.165 -0.3258 -0.2597 -3.0509
 6458SOL     OW30835   4.444   4.617   1.924  0.2105  0.5117  0.4484
 6458SOL    HW130836   4.352   4.594   1.911  0.0160  1.4362  0.1687
 6458SOL    HW230837   4.480   4.547   1.978 -2.0282 -0.2431  0.9213
 6459SOL     OW30838   1.380   3.646   1.549 -0.3326  0.1151 -0.1743
 6459SOL    HW130839   1.473   3.630   1.566 -0.5569 -1.2296 -0.2238
 6459SOL    HW230840   1.347   3.635   1.638  0.6430 -0.7686  0.0874
 6460SOL     OW30841   3.031   2.414  16.834  0.0795 -0.0872  0.1203
 6460SOL    HW130842   2.968   2.344  16.818  0.7102 -0.3053 -1.4413
 6460SOL    HW230843   3.063   2.413  16.744  0.8807 -0.5568  0.4090
 6461SOL     OW30844   3.165   3.901   4.672  0.0840  0.0227  0.0989
 6461SOL    HW130845   3.238   3.876   4.730 -1.0699 -0.4895  1.3277
 6461SOL    HW230846   3.153   3.822   4.619 -0.4752  1.4104 -1.8412
 6462SOL     OW30847   0.878   2.907   6.116  0.2552  0.1362 -0.3129
 6462SOL    HW130848   0.946   2.964   6.154  0.7257 -1.2185  0.9017
 6462SOL    HW230849   0.797   2.959   6.112 -0.6960 -1.2487  0.8056
 6463SOL     OW30850   2.092   4.171  14.136  0.2307  0.1665 -0.0794
 6463SOL    HW130851   2.180   4.139  14.116  0.1567 -0.5471  0.7509
 6463SOL    HW230852   2.050   4.099  14.183  0.5937 -0.1115 -0.1860
 6464SOL     OW30853   3.418   2.954  11.400  0.2590 -0.0295  0.3750
 6464SOL    HW130854   3.399   3.037  11.443 -0.8395 -1.6096  2.9312
 6464SOL    HW230855   3.334   2.908  11.407 -0.0844  0.4942 -0.3185
 6465SOL     OW30856   2.047   2.747  12.439  0.6162 -0.2248  1.1301
 6465SOL    HW130857   2.038   2.699  12.357  0.1061  0.4358  0.8010
 6465SOL    HW230858   2.139   2.735  12.461  1.1078  1.0949 -0.1943
 6466SOL     OW30859   3.875   0.356  15.326  0.3938  0.6738 -0.0762
 6466SOL    HW130860   3.948   0.295  15.334  1.3651  1.7382 -0.8486
 6466SOL    HW230861   3.911   0.434  15.369  0.1758 -0.1374  1.5672
 6467SOL     OW30862   4.085   4.379   5.111  0.1385 -0.1311  0.0592
 6467SOL    HW130863   4.071   4.326   5.032  1.2197 -0.7768  0.3128
 6467SOL    HW230864   4.099   4.304   5.168 -0.7933 -0.1451  0.2713
 6468SOL     OW30865   2.334   4.049   7.964  0.1371  0.2183 -0.0622
 6468SOL    HW130866   2.266   4.114   7.985 -0.7783 -1.1139  1.0348
 6468SOL    HW230867   2.356   4.062   7.872 -0.6944 -1.4515 -0.4931
 6469SOL     OW30868   4.278   4.384  11.289  1.0972 -0.1341  0.0866
 6469SOL    HW130869   4.305   4.371  11.198  0.7069  1.2303 -0.2203
 6469SOL    HW230870   4.317   4.470  11.302 -0.1791  0.4439  0.0330
 6470SOL     OW30871   0.527   1.060   4.085  0.6758 -0.0061  0.1912
 6470SOL    HW130872   0.557   1.012   4.162 -1.9087 -1.4702  0.2770
 6470SOL    HW230873   0.542   1.149   4.117  1.8702  0.0099 -0.4193
 6471SOL     OW30874   4.543   3.475   2.691 -0.4281  0.1885  0.0134
 6471SOL    HW130875   4.492   3.511   2.618 -0.0456  0.5256 -0.0869
 6471SOL    HW230876   4.622   3.529   2.683  0.0734 -0.8321 -1.9064
 6472SOL     OW30877   3.689   0.150   7.963  0.1658 -0.3548  0.5781
 6472SOL    HW130878   3.751   0.152   7.889  0.3627  2.7250  0.8407
 6472SOL    HW230879   3.623   0.216   7.942  1.6960  0.9610 -0.0818
 6473SOL     OW30880   2.403   1.226   1.635  0.1205 -0.0063 -0.2647
 6473SOL    HW130881   2.354   1.156   1.678  2.4329 -0.0417  2.2542
 6473SOL    HW230882   2.491   1.194   1.655 -0.5440  0.0515  2.7590
 6474SOL     OW30883   0.670   0.943  13.281 -0.0020  0.1018 -0.2286
 6474SOL    HW130884   0.702   0.955  13.370 -0.5991 -1.0353  0.1411
 6474SOL    HW230885   0.590   0.892  13.298 -0.0382 -0.3224 -1.6416
 6475SOL     OW30886   0.686   1.281   8.597 -0.0410 -0.1031 -0.3628
 6475SOL    HW130887   0.636   1.337   8.656  0.5852 -0.3232  0.3820
 6475SOL    HW230888   0.731   1.349   8.546  0.7841  0.5335  1.2018
 6476SOL     OW30889   4.660   3.074   8.059 -0.0463  0.1010 -0.0435
 6476SOL    HW130890   4.565   3.069   8.073 -0.0906 -2.0214 -1.0976
 6476SOL    HW230891   4.656   3.161   8.019  3.0569  0.2477  0.0177
 6477SOL     OW30892   2.345   4.581  14.549 -0.7435 -0.4132 -0.0582
 6477SOL    HW130893   2.267   4.604  14.598 -0.0992 -2.5760  1.9821
 6477SOL    HW230894   2.343   4.651  14.484 -0.0182  1.1715  1.6232
 6478SOL     OW30895   3.218   0.170   4.224  0.1103  0.1181 -0.6990
 6478SOL    HW130896   3.199   0.233   4.154  0.4492  0.2407 -0.6777
 6478SOL    HW230897   3.242   0.231   4.293  1.9040 -3.6108  1.9911
 6479SOL     OW30898   0.243   3.942   3.481 -0.2559  0.2785  0.3403
 6479SOL    HW130899   0.299   3.993   3.539  0.2761  0.2910 -0.1893
 6479SOL    HW230900   0.218   4.011   3.420  1.1101  1.2580  0.9004
 6480SOL     OW30901   2.895   4.628  13.022  0.0119 -0.5676  0.2550
 6480SOL    HW130902   2.911   4.571  12.946 -1.2196 -2.1585  1.1896
 6480SOL    HW230903   2.802   4.612  13.039 -0.6618  0.9613 -1.9588
 6481SOL     OW30904   1.348   1.143   1.511  0.0476 -0.0297 -0.1597
 6481SOL    HW130905   1.400   1.196   1.573  0.6159  0.3168 -0.9371
 6481SOL    HW230906   1.408   1.069   1.509  0.1964  0.1368 -1.6744
 6482SOL     OW30907   0.760   3.308  15.275  0.0675  0.3132  0.0156
 6482SOL    HW130908   0.790   3.262  15.353 -1.5731  1.0521  1.0925
 6482SOL    HW230909   0.840   3.313  15.224  0.4197 -0.9287  0.4553
 6483SOL     OW30910   3.962   3.230  12.522  0.2698  0.4519 -0.5090
 6483SOL    HW130911   3.935   3.139  12.512  1.1042  0.1044  0.4125
 6483SOL    HW230912   3.997   3.223  12.611 -0.3098  0.0503 -0.3201
 6484SOL     OW30913   1.414   3.990   4.500 -0.6430  0.4618  0.0097
 6484SOL    HW130914   1.472   3.975   4.574 -1.6760 -0.4766  0.6303
 6484SOL    HW230915   1.386   3.899   4.486 -2.3449  1.3830 -2.7571
 6485SOL     OW30916   2.315   2.409   7.493  0.2141 -0.2149  0.3525
 6485SOL    HW130917   2.380   2.414   7.423 -1.3456 -1.0317 -1.1532
 6485SOL    HW230918   2.251   2.469   7.455  2.0831  0.2445 -2.0560
 6486SOL     OW30919   3.057   0.723   2.503  0.1975  0.4563  0.2127
 6486SOL    HW130920   3.079   0.782   2.431  0.8401 -1.4959 -1.1900
 6486SOL    HW230921   2.995   0.666   2.457 -0.8810  1.5397  0.3406
 6487SOL     OW30922   3.294   4.524   2.433  0.1016 -0.2895  0.5735
 6487SOL    HW130923   3.216   4.473   2.414  0.9776 -1.8328  1.1230
 6487SOL    HW230924   3.311   4.574   2.353  1.6815  0.9934  1.6980
 6488SOL     OW30925   2.555   1.101  14.687 -0.1677  0.1845 -0.2980
 6488SOL    HW130926   2.478   1.062  14.728  0.8420  0.7509  2.1302
 6488SOL    HW230927   2.527   1.086  14.597  0.9976 -0.9378 -0.4754
 6489SOL     OW30928   4.583   3.540  13.962 -0.1305  0.9403 -0.2363
 6489SOL    HW130929   4.600   3.603  14.031  0.0217  0.3530  0.2649
 6489SOL    HW230930   4.504   3.498  13.994 -0.1161  0.1117 -1.2900
 6490SOL     OW30931   3.364   1.650  15.887 -0.1402 -0.0489 -0.3227
 6490SOL    HW130932   3.291   1.676  15.944  1.0124  0.9224  0.7086
 6490SOL    HW230933   3.382   1.730  15.837  0.4218 -0.1315 -0.2468
 6491SOL     OW30934   1.525   0.095   5.187  0.6350 -0.2279  0.6590
 6491SOL    HW130935   1.609   0.125   5.222  0.4820  1.0808 -0.0555
 6491SOL    HW230936   1.478   0.054   5.260 -2.8739  1.3275 -0.7086
 6492SOL     OW30937   3.800   3.040   8.887  0.1465  0.5859  0.4979
 6492SOL    HW130938   3.843   3.105   8.942  1.5743  0.9535 -1.0351
 6492SOL    HW230939   3.712   3.042   8.925  0.2485 -3.4749  0.9268
 6493SOL     OW30940   0.208   3.586  15.370 -0.3032 -0.1554 -0.1101
 6493SOL    HW130941   0.196   3.539  15.452 -0.6127  0.6898  0.3272
 6493SOL    HW230942   0.300   3.612  15.379 -0.1064 -1.3800  1.3964
 6494SOL     OW30943   4.695   4.492   7.771  0.2550 -0.1419  0.4288
 6494SOL    HW130944   0.047   4.490   7.706 -2.7179  0.5703 -2.7980
 6494SOL    HW230945   4.636   4.433   7.723 -1.2888  0.5200  1.5275
 6495SOL     OW30946   4.615   2.752   4.769 -0.1334 -0.6068 -0.0849
 6495SOL    HW130947   4.520   2.757   4.754 -0.8028 -1.2252  3.9149
 6495SOL    HW230948   4.608   2.666   4.812  0.7574 -0.2743  0.7250
 6496SOL     OW30949   4.594   0.839   6.209  0.2285  0.1627  0.4681
 6496SOL    HW130950   4.538   0.907   6.247  1.6516  0.3228  2.2740
 6496SOL    HW230951   4.624   0.875   6.125  1.0263 -0.7109  0.3831
 6497SOL     OW30952   0.133   2.486   3.950 -0.5414  0.4990 -0.1422
 6497SOL    HW130953   0.101   2.465   3.862 -0.8934 -0.1460  0.1386
 6497SOL    HW230954   0.227   2.468   3.939 -1.0101 -2.9108  1.5732
 6498SOL     OW30955   1.401   2.360  12.470  0.2229 -0.7448  0.3313
 6498SOL    HW130956   1.432   2.450  12.481 -0.9730 -0.2637 -0.2096
 6498SOL    HW230957   1.349   2.352  12.550  0.2884  1.2079  0.5808
 6499SOL     OW30958   2.882   2.982   7.348 -0.0843  0.1719 -0.8078
 6499SOL    HW130959   2.886   2.951   7.438 -0.3150 -1.4113 -1.3452
 6499SOL    HW230960   2.970   3.020   7.343 -0.7208  1.6980 -0.3231
 6500SOL     OW30961   1.316   0.146   6.437 -0.6950 -0.4016  0.2382
 6500SOL    HW130962   1.295   0.054   6.420 -2.1313 -0.0386  0.0582
 6500SOL    HW230963   1.290   0.185   6.353 -0.1999 -1.7097 -0.5283
 6501SOL     OW30964   3.323   3.981   8.922  0.0244 -0.9416 -0.5033
 6501SOL    HW130965   3.288   4.035   8.993 -1.4896  1.3427 -2.9380
 6501SOL    HW230966   3.342   4.049   8.856 -0.8431  1.1181  1.3586
 6502SOL     OW30967   2.503   0.564   5.450 -0.1638 -0.0974 -0.1901
 6502SOL    HW130968   2.486   0.513   5.529  1.3102  0.5930  0.5692
 6502SOL    HW230969   2.482   0.653   5.475 -0.8595  0.0243 -1.1665
 6503SOL     OW30970   3.796   2.402   1.603  0.2459  0.5871  0.3114
 6503SOL    HW130971   3.719   2.349   1.621  1.0898 -0.5679  0.5184
 6503SOL    HW230972   3.858   2.342   1.561 -0.0544 -0.0465  0.7687
 6504SOL     OW30973   0.191   4.578   4.719  0.0252  0.0727  0.5611
 6504SOL    HW130974   0.203   4.545   4.630  0.2065  1.9961 -0.1277
 6504SOL    HW230975   0.263   4.641   4.727  0.5097 -0.4705  0.4565
 6505SOL     OW30976   3.371   2.639   6.449  0.4233  0.3501  0.2752
 6505SOL    HW130977   3.327   2.718   6.480 -0.1915  1.8360 -4.4626
 6505SOL    HW230978   3.370   2.585   6.528 -0.5636  0.5000  0.3677
 6506SOL     OW30979   2.948   0.401  15.515 -0.1154  0.6534 -0.0824
 6506SOL    HW130980   2.979   0.456  15.586 -0.1928  0.1818  0.3186
 6506SOL    HW230981   2.946   0.314  15.555 -1.8174 -0.0191 -1.6312
 6507SOL     OW30982   4.673   4.178   8.506 -0.1124 -0.8174 -0.3575
 6507SOL    HW130983   4.683   4.263   8.550 -2.0126 -0.9361  0.2955
 6507SOL    HW230984   4.641   4.213   8.423 -2.8964 -0.4716  0.8570
 6508SOL     OW30985   3.361   4.626   9.379 -0.0827 -0.2094  0.1996
 6508SOL    HW130986   3.383   4.551   9.433 -3.3170 -0.7266  0.7466
 6508SOL    HW230987   3.381   4.696   9.442  2.0927  1.3786 -2.2092
 6509SOL     OW30988   1.019   3.111   9.241 -0.3141 -0.2101 -0.1932
 6509SOL    HW130989   1.083   3.074   9.301 -1.9532  1.1171  2.3305
 6509SOL    HW230990   1.045   3.071   9.157 -0.5548  2.2955 -1.4605
 6510SOL     OW30991   2.246   3.480   2.932 -0.0129  0.6040  0.4194
 6510SOL    HW130992   2.201   3.487   2.847 -0.9468 -0.3720  0.8321
 6510SOL    HW230993   2.335   3.487   2.897 -0.3218  0.0055 -0.4947
 6511SOL     OW30994   0.471   0.547   4.696 -0.3477 -0.6531 -0.2795
 6511SOL    HW130995   0.563   0.550   4.723 -0.4177  1.7652 -0.2800
 6511SOL    HW230996   0.444   0.465   4.736 -0.7806  0.3261  1.4648
 6512SOL     OW30997   2.435   3.966   5.731  0.1192  0.5241  0.0432
 6512SOL    HW130998   2.343   3.995   5.735 -0.5586 -1.6173 -0.3463
 6512SOL    HW230999   2.435   3.925   5.645 -2.1954 -0.8316  0.6847
 6513SOL     OW31000   3.884   2.130  16.750 -0.0474 -0.2947  0.4295
 6513SOL    HW131001   3.884   2.048  16.799 -2.7120 -0.8210 -0.4271
 6513SOL    HW231002   3.931   2.108  16.670 -2.5257 -0.2343 -1.0552
 6514SOL     OW31003   4.335   1.755  10.988  0.1642 -0.3853  0.1644
 6514SOL    HW131004   4.339   1.661  11.006 -1.3643 -0.6962 -1.1521
 6514SOL    HW231005   4.304   1.783  11.074  2.2200  0.6215  0.5710
 6515SOL     OW31006   1.962   0.416  14.826  0.3652 -0.6370 -0.4260
 6515SOL    HW131007   2.043   0.466  14.813 -1.5178  2.6251  0.4588
 6515SOL    HW231008   1.984   0.335  14.779  2.9216 -0.3318  0.2702
 6516SOL     OW31009   3.062   3.655   1.040 -0.0660 -0.1972 -0.5613
 6516SOL    HW131010   3.106   3.738   1.059 -0.4908  0.7090 -3.6634
 6516SOL    HW231011   3.043   3.664   0.947  0.7738 -0.1127 -0.7194
 6517SOL     OW31012   2.544   0.232   4.600  0.0117 -0.1667  0.4045
 6517SOL    HW131013   2.495   0.151   4.583 -2.6735  1.8971 -1.5850
 6517SOL    HW231014   2.609   0.225   4.530  1.7635 -2.2438  2.2138
 6518SOL     OW31015   1.178   0.596   2.474  0.3477 -0.2376  0.0578
 6518SOL    HW131016   1.204   0.676   2.427 -1.9073  0.1252 -0.6025
 6518SOL    HW231017   1.221   0.622   2.556 -1.3861 -0.3207  1.0027
 6519SOL     OW31018   1.034   1.107   9.582  0.2136  0.2560 -0.2071
 6519SOL    HW131019   1.097   1.067   9.522  1.9998 -0.8693  2.4265
 6519SOL    HW231020   0.978   1.033   9.607  1.4578 -0.5707  0.1399
 6520SOL     OW31021   1.643   0.111   4.185 -0.0187  0.0585  0.4479
 6520SOL    HW131022   1.600   0.026   4.174  1.1966 -0.4477 -0.2822
 6520SOL    HW231023   1.733   0.081   4.188 -0.0025  0.1722  1.1946
 6521SOL     OW31024   3.168   1.062   6.329  0.1633  0.2304 -0.0824
 6521SOL    HW131025   3.243   1.121   6.317 -1.3008  2.0134 -0.4356
 6521SOL    HW231026   3.124   1.123   6.388 -0.8994  0.3859 -1.0273
 6522SOL     OW31027   2.888   1.618   2.164 -0.0843 -0.4804  0.2768
 6522SOL    HW131028   2.939   1.699   2.159 -0.2861 -0.3705  0.0656
 6522SOL    HW231029   2.825   1.659   2.224 -1.8015 -1.8116 -0.6338
 6523SOL     OW31030   1.780   0.403   4.040 -0.1252 -0.6448  0.1938
 6523SOL    HW131031   1.844   0.430   3.975 -0.9199  0.5576 -0.1020
 6523SOL    HW231032   1.806   0.318   4.076  2.1801 -0.2716 -0.6070
 6524SOL     OW31033   1.962   3.162   5.818 -0.1312 -0.3580  0.4062
 6524SOL    HW131034   1.976   3.072   5.847 -2.2269 -0.5204  0.9361
 6524SOL    HW231035   2.032   3.200   5.872  1.9740 -1.4932 -1.5356
 6525SOL     OW31036   0.091   0.663   8.767  0.4616  0.0050  0.0780
 6525SOL    HW131037   0.029   0.695   8.700 -0.3164 -0.4061  0.6009
 6525SOL    HW231038   0.036   0.623   8.834  0.0648 -0.1437 -0.3368
 6526SOL     OW31039   3.344   3.450   8.836 -0.7391  0.3161 -0.1310
 6526SOL    HW131040   3.385   3.382   8.783 -1.7469 -0.6943  0.3830
 6526SOL    HW231041   3.253   3.451   8.806 -0.6816  0.9188 -0.2996
 6527SOL     OW31042   1.140   1.391   2.267 -0.2265 -0.4451  0.1696
 6527SOL    HW131043   1.134   1.316   2.328 -2.1959  1.2790  2.0935
 6527SOL    HW231044   1.174   1.452   2.332  2.7526 -1.7521 -0.1159
 6528SOL     OW31045   1.370   1.935  11.983 -0.2124 -0.1028 -0.1120
 6528SOL    HW131046   1.348   2.028  11.970 -0.3496  0.2432  2.5201
 6528SOL    HW231047   1.312   1.907  12.053  0.3824  0.0875  0.4626
 6529SOL     OW31048   2.559   3.430   5.831  0.2717  0.3362 -0.2203
 6529SOL    HW131049   2.626   3.463   5.772  1.7032 -0.8499  0.7287
 6529SOL    HW231050   2.609   3.432   5.913  1.5685  1.9729 -1.0678
 6530SOL     OW31051   3.335   3.436  11.602  0.0229 -0.1153 -0.3429
 6530SOL    HW131052   3.284   3.433  11.683  0.5014  1.2050  0.0016
 6530SOL    HW231053   3.306   3.516  11.557 -1.3232 -0.8446 -0.7756
 6531SOL     OW31054   4.247   3.635   4.658 -0.0315 -0.1416 -0.1690
 6531SOL    HW131055   4.333   3.595   4.674  1.1532  2.4725  0.0194
 6531SOL    HW231056   4.189   3.559   4.652  0.2342 -0.3367 -0.2806
 6532SOL     OW31057   1.323   3.593   3.104  0.6002 -0.1669  0.2615
 6532SOL    HW131058   1.298   3.512   3.150 -0.5882 -0.3731 -0.7762
 6532SOL    HW231059   1.360   3.642   3.178  2.0109 -0.6484 -0.1229
 6533SOL     OW31060   4.476   1.850   7.805  0.1411 -0.5286 -0.0187
 6533SOL    HW131061   4.570   1.872   7.807  0.1732 -0.9889  2.6154
 6533SOL    HW231062   4.438   1.918   7.860  0.3798 -0.1128 -0.3676
 6534SOL     OW31063   1.725   0.955   5.021  0.5174  0.4790  0.5620
 6534SOL    HW131064   1.778   0.887   5.062 -2.0225 -0.5343  2.2208
 6534SOL    HW231065   1.639   0.917   4.999  1.3230 -0.8580 -0.2581
 6535SOL     OW31066   3.556   3.390   0.439  0.0581 -0.3052  0.3977
 6535SOL    HW131067   3.632   3.395   0.496 -0.6278  0.9712  1.2159
 6535SOL    HW231068   3.507   3.313   0.467 -0.6911  0.0638  0.1285
 6536SOL     OW31069   2.455   4.193   1.199  0.2256  0.1470  0.0342
 6536SOL    HW131070   2.370   4.232   1.219 -0.9505 -1.5451 -1.6853
 6536SOL    HW231071   2.510   4.221   1.272 -1.3644 -0.2413  1.3624
 6537SOL     OW31072   4.332   2.931   9.919 -0.2250  0.0996  0.6256
 6537SOL    HW131073   4.325   2.995   9.990  2.4806  1.9112 -0.7691
 6537SOL    HW231074   4.350   2.846   9.960 -1.1388 -0.1306  0.5508
 6538SOL     OW31075   0.243   2.283   6.496 -0.9866  0.1409 -0.2897
 6538SOL    HW131076   0.204   2.273   6.409  0.0459  0.2632 -0.7594
 6538SOL    HW231077   0.335   2.274   6.472 -0.5665  3.5071  0.1653
 6539SOL     OW31078   0.598   3.874  15.978 -0.0600 -0.2316  0.1749
 6539SOL    HW131079   0.674   3.916  15.937  0.7499 -0.0911  1.8302
 6539SOL    HW231080   0.633   3.785  15.983  1.8037  0.4214 -1.1516
 6540SOL     OW31081   3.076   3.812   3.330  0.0903 -0.1274 -0.1936
 6540SOL    HW131082   3.066   3.901   3.364 -1.0050 -0.1793 -0.3804
 6540SOL    HW231083   2.990   3.780   3.304 -0.1645  1.4459 -1.2833
 6541SOL     OW31084   1.155   1.277  17.565  0.2017 -0.6423  0.6544
 6541SOL    HW131085   1.235   1.328  17.558  0.8107 -1.0249  5.3005
 6541SOL    HW231086   1.122   1.316  17.646 -2.3328  1.0200 -1.1416
 6542SOL     OW31087   3.870   4.069   4.262  0.4099 -0.5828 -0.5092
 6542SOL    HW131088   3.909   3.992   4.304 -0.6968  0.0642  1.7457
 6542SOL    HW231089   3.936   4.138   4.272 -0.7855  0.4016  0.6210
 6543SOL     OW31090   3.342   2.377   9.165  0.0397  0.1231  0.1031
 6543SOL    HW131091   3.253   2.341   9.161  0.3011 -0.5945  1.0461
 6543SOL    HW231092   3.367   2.368   9.257 -1.3087  0.3699  0.4951
 6544SOL     OW31093   2.117   2.909   8.600 -0.0744 -0.6513  0.3687
 6544SOL    HW131094   2.126   2.814   8.607  1.4045 -0.5890 -0.6715
 6544SOL    HW231095   2.209   2.931   8.581  0.7581 -0.9061  4.1311
 6545SOL     OW31096   1.587   0.892   9.251 -0.0538  0.2027  0.1725
 6545SOL    HW131097   1.583   0.931   9.339 -1.2998 -0.0152  0.2186
 6545SOL    HW231098   1.681   0.886   9.234 -0.2078 -1.8880  0.1367
 6546SOL     OW31099   4.434   3.694   3.230 -0.1650  0.2508 -0.3568
 6546SOL    HW131100   4.505   3.738   3.182 -0.9812 -0.4594 -2.2143
 6546SOL    HW231101   4.480   3.651   3.302  1.2620 -0.2979 -1.5706
 6547SOL     OW31102   1.096   4.004   7.939 -0.1990 -0.1999  0.6833
 6547SOL    HW131103   1.059   4.054   7.866  1.7837  1.2070  0.6363
 6547SOL    HW231104   1.166   3.974   7.880  0.8166  0.7814  1.4128
 6548SOL     OW31105   4.593   0.312   6.375 -0.1897 -0.4318 -0.2440
 6548SOL    HW131106   4.528   0.270   6.318  1.1829 -1.8388 -0.7494
 6548SOL    HW231107   4.637   0.245   6.426  0.4094  0.2494  0.1322
 6549SOL     OW31108   3.177   2.844   3.988 -0.1893  0.8800  0.0648
 6549SOL    HW131109   3.242   2.775   3.999 -0.5861  0.6188  0.7711
 6549SOL    HW231110   3.164   2.849   3.893 -1.8016  1.2744  0.3055
 6550SOL     OW31111   1.451   2.752   8.604 -0.0220  0.1803  0.3487
 6550SOL    HW131112   1.541   2.773   8.627  0.2617  1.8820 -2.4039
 6550SOL    HW231113   1.406   2.822   8.651 -1.1263 -1.7599  2.2370
 6551SOL     OW31114   0.080   2.532   5.937 -0.5216 -0.3471 -1.1180
 6551SOL    HW131115   4.716   2.579   5.921 -0.4694  0.2103  0.2861
 6551SOL    HW231116   0.078   2.516   6.031  0.8328 -1.4499 -1.2655
 6552SOL     OW31117   4.514   0.485  11.477 -0.4276  1.1480  0.0851
 6552SOL    HW131118   4.438   0.427  11.467  1.2537 -1.1689  0.8051
 6552SOL    HW231119   4.481   0.563  11.433 -3.0595 -1.2627 -2.2282
 6553SOL     OW31120   1.445   2.344   9.586 -0.1221 -0.1883  0.5153
 6553SOL    HW131121   1.537   2.357   9.610 -0.7346  0.1828  2.7038
 6553SOL    HW231122   1.440   2.249   9.586  0.9838 -0.2475  1.3483
 6554SOL     OW31123   1.228   2.163   8.742  0.0695 -0.2158  0.0352
 6554SOL    HW131124   1.265   2.239   8.788 -0.3787 -0.5932  1.0115
 6554SOL    HW231125   1.161   2.135   8.804 -0.5306 -2.0100 -1.4347
 6555SOL     OW31126   3.028   4.252   5.937  0.2599  0.1822 -0.3944
 6555SOL    HW131127   2.946   4.293   5.964  0.1197  0.4450 -1.2085
 6555SOL    HW231128   3.004   4.245   5.845 -0.5052  1.8567 -0.3089
 6556SOL     OW31129   4.660   1.955   3.343 -0.1471  0.3086 -0.3052
 6556SOL    HW131130   4.623   2.020   3.283  2.6954  1.1725 -1.1042
 6556SOL    HW231131   0.022   1.925   3.300 -1.3642 -2.4120 -0.6551
 6557SOL     OW31132   2.025   1.860  11.970  0.3334  0.4765 -0.0623
 6557SOL    HW131133   2.115   1.849  11.999  0.3448 -0.3438 -0.4041
 6557SOL    HW231134   2.038   1.900  11.884  2.2652 -2.2306 -1.0388
 6558SOL     OW31135   0.350   0.167   4.937 -0.5319 -0.4011  1.2547
 6558SOL    HW131136   0.281   0.142   4.998 -1.2483 -0.8964  0.2345
 6558SOL    HW231137   0.382   0.250   4.974  0.3183  0.0070 -0.3781
 6559SOL     OW31138   1.982   0.892   2.518 -0.5112  0.4728  0.3782
 6559SOL    HW131139   1.940   0.906   2.603 -2.1030 -2.3772  0.0531
 6559SOL    HW231140   2.024   0.807   2.532  1.3707  1.3177 -0.1253
 6560SOL     OW31141   0.626   4.552   6.105 -0.1787  0.9658 -0.5642
 6560SOL    HW131142   0.565   4.624   6.119 -0.5649  0.5870 -0.2879
 6560SOL    HW231143   0.573   4.511   6.037 -1.0148  0.0385  0.6558
 6561SOL     OW31144   2.043   4.600   6.205 -0.5800  0.0290  0.9537
 6561SOL    HW131145   2.062   4.694   6.196  1.0168 -0.4443 -0.5233
 6561SOL    HW231146   2.011   4.587   6.116  1.5892  0.2857  0.1362
 6562SOL     OW31147   4.563   4.717   7.534 -0.3839  0.1216 -0.5644
 6562SOL    HW131148   4.547   0.074   7.476 -0.9354  0.1147 -0.4259
 6562SOL    HW231149   4.512   0.016   7.613 -2.6984  0.0230 -2.0318
 6563SOL     OW31150   2.066   3.577   7.662  0.1894  0.2752 -0.2144
 6563SOL    HW131151   2.105   3.548   7.580  2.6131  1.7316  0.4157
 6563SOL    HW231152   2.132   3.547   7.726  0.5229 -1.1969 -1.2508
 6564SOL     OW31153   2.742   0.749   5.476  0.1779  0.5912 -0.3271
 6564SOL    HW131154   2.686   0.685   5.430  1.1733  0.6002 -1.5553
 6564SOL    HW231155   2.709   0.757   5.565 -1.7603  1.2800 -1.1029
 6565SOL     OW31156   1.668   2.243   1.348  0.3250  0.2536  0.1162
 6565SOL    HW131157   1.716   2.246   1.431 -0.7416  0.3441  0.7320
 6565SOL    HW231158   1.738   2.255   1.283  0.1117  0.5177 -0.0626
 6566SOL     OW31159   0.809   2.678   0.109  0.1989 -0.3420 -0.1608
 6566SOL    HW131160   0.862   2.660   0.187  0.6002  1.2673 -0.0550
 6566SOL    HW231161   0.734   2.619   0.116 -0.7502  0.8770  0.0862
 6567SOL     OW31162   0.831   4.319   4.419  0.0949 -0.3492  0.2467
 6567SOL    HW131163   0.832   4.340   4.513  0.2810 -0.2397  0.2194
 6567SOL    HW231164   0.792   4.399   4.383  1.3604  0.8671  1.5506
 6568SOL     OW31165   0.434   2.591   9.206  0.2559  0.5304 -0.0196
 6568SOL    HW131166   0.471   2.503   9.214  0.8376  0.9987  2.2599
 6568SOL    HW231167   0.445   2.617   9.297  1.3093  0.0142  0.0048
 6569SOL     OW31168   4.385   3.014   6.519  0.7571 -0.1021 -0.1826
 6569SOL    HW131169   4.344   3.071   6.453 -0.7865 -0.9953  0.0150
 6569SOL    HW231170   4.416   3.072   6.588 -1.4707 -1.7601  2.2054
 6570SOL     OW31171   3.952   3.834  14.825 -0.0794  0.2453  0.2523
 6570SOL    HW131172   4.025   3.894  14.811 -0.4633  0.3284 -1.3522
 6570SOL    HW231173   4.003   3.753  14.827 -1.5059 -0.5929  3.5634
 6571SOL     OW31174   0.943   2.195   6.810 -0.0959 -0.1796 -0.0255
 6571SOL    HW131175   0.950   2.221   6.902 -0.7504 -1.3513  0.3478
 6571SOL    HW231176   0.913   2.104   6.807 -1.7339  0.4008 -0.8506
 6572SOL     OW31177   4.185   1.414   0.338  0.3522  0.6794 -0.5714
 6572SOL    HW131178   4.269   1.444   0.305 -0.5053  4.0535  0.3578
 6572SOL    HW231179   4.183   1.429   0.433 -0.1334 -2.2209 -0.0966
 6573SOL     OW31180   1.659   2.162   2.678  0.5532 -0.5972 -0.4547
 6573SOL    HW131181   1.671   2.213   2.758  0.5202 -1.9163  0.4097
 6573SOL    HW231182   1.739   2.111   2.685  0.3527 -0.9993 -1.1298
 6574SOL     OW31183   1.895   4.423   1.452 -0.4296 -0.0108  0.4728
 6574SOL    HW131184   1.857   4.510   1.454  0.8921  0.5499  1.5194
 6574SOL    HW231185   1.859   4.389   1.370  3.0331  0.0146 -1.0861
 6575SOL     OW31186   3.603   0.829   6.581 -0.3402 -0.2547  0.1290
 6575SOL    HW131187   3.691   0.801   6.555 -0.8028 -1.3562 -0.2593
 6575SOL    HW231188   3.555   0.746   6.592 -0.1224 -0.4273 -0.2402
 6576SOL     OW31189   2.139   1.078   9.307  0.2297 -0.7183 -0.3836
 6576SOL    HW131190   2.114   1.078   9.400  1.8766 -0.5842  0.0570
 6576SOL    HW231191   2.219   1.129   9.317  1.3070 -2.1027 -2.0616
 6577SOL     OW31192   1.057   0.520   7.948  0.4966 -0.0423 -0.0243
 6577SOL    HW131193   1.004   0.584   7.996 -0.8668 -2.7235  2.0620
 6577SOL    HW231194   1.124   0.500   8.013 -0.6408  0.3939  1.2829
 6578SOL     OW31195   1.932   4.501   9.328  0.4113  0.4100 -0.3785
 6578SOL    HW131196   1.881   4.480   9.406  0.1522  0.0319 -0.6539
 6578SOL    HW231197   1.982   4.575   9.363  0.3940 -0.2494  1.0637
 6579SOL     OW31198   3.543   3.588   0.826  0.5898  0.8079 -0.2544
 6579SOL    HW131199   3.623   3.542   0.849 -0.3524 -0.3541  0.6925
 6579SOL    HW231200   3.478   3.564   0.892  1.6380 -1.3945 -0.0349
 6580SOL     OW31201   3.731   3.317   2.683 -0.0847  0.5249  0.2176
 6580SOL    HW131202   3.700   3.239   2.636  0.2312 -1.4327  3.2460
 6580SOL    HW231203   3.790   3.262   2.734  0.6096 -0.3182 -1.4936
 6581SOL     OW31204   3.479   3.866   7.125 -0.1729 -0.5140  0.1621
 6581SOL    HW131205   3.568   3.871   7.158 -0.2689 -1.0863  0.5017
 6581SOL    HW231206   3.499   3.866   7.031 -2.7802 -3.9797 -0.4084
 6582SOL     OW31207   2.806   3.545  14.560  0.5651 -0.3098  0.5660
 6582SOL    HW131208   2.744   3.506  14.499 -1.1861 -0.0729  2.1871
 6582SOL    HW231209   2.873   3.585  14.505  2.1215 -2.1505  1.1150
 6583SOL     OW31210   1.724   3.444   7.358  0.0756  0.1139 -0.3945
 6583SOL    HW131211   1.737   3.377   7.290 -2.2350 -3.5954  2.8169
 6583SOL    HW231212   1.728   3.520   7.299  2.7571 -1.3553 -2.0987
 6584SOL     OW31213   3.057   1.653   5.994 -0.1508 -0.0376  0.2455
 6584SOL    HW131214   3.004   1.675   6.071  1.1689 -1.1308  1.4621
 6584SOL    HW231215   3.067   1.739   5.952 -0.9662 -0.7817 -1.4513
 6585SOL     OW31216   3.309   2.210   4.910  0.0870  0.4613  0.3479
 6585SOL    HW131217   3.229   2.253   4.879  1.0958  0.9434 -1.5850
 6585SOL    HW231218   3.375   2.278   4.894  0.2234 -0.1054 -1.5711
 6586SOL     OW31219   2.704   1.891   4.411  0.2192  0.6756  0.0135
 6586SOL    HW131220   2.690   1.969   4.464  0.8428  0.7179  0.1167
 6586SOL    HW231221   2.775   1.846   4.457  1.0892  1.0045 -1.0012
 6587SOL     OW31222   2.881   4.357   6.304 -0.3583 -0.6219 -0.2534
 6587SOL    HW131223   2.807   4.395   6.351  0.2805 -1.2923  1.2930
 6587SOL    HW231224   2.951   4.403   6.351  0.7209 -0.2753 -2.2368
 6588SOL     OW31225   1.903   2.595   9.889 -0.7387  0.0289  0.4839
 6588SOL    HW131226   1.962   2.667   9.909 -2.7079  1.6361  0.5967
 6588SOL    HW231227   1.870   2.613   9.800 -2.4675 -0.8928  0.9378
 6589SOL     OW31228   1.299   3.498   1.291  0.3925 -0.8624 -0.3711
 6589SOL    HW131229   1.315   3.515   1.383 -2.7852 -1.8727  0.3655
 6589SOL    HW231230   1.374   3.543   1.253  0.4703 -2.0512 -1.6210
 6590SOL     OW31231   1.464   3.559   6.985 -0.4574 -0.2674 -0.1144
 6590SOL    HW131232   1.499   3.647   7.001  0.0609 -0.5647  0.3865
 6590SOL    HW231233   1.497   3.503   7.056  1.1102  0.9462  0.1211
 6591SOL     OW31234   2.848   1.475   0.876  0.2505 -0.7493  0.5176
 6591SOL    HW131235   2.934   1.476   0.917  1.0757 -3.1487 -1.1234
 6591SOL    HW231236   2.794   1.412   0.926 -1.2566  2.3133  2.7624
 6592SOL     OW31237   1.904   3.533   7.967  0.3331 -0.1258 -0.2644
 6592SOL    HW131238   1.903   3.439   7.952  1.1750  0.0961 -1.7479
 6592SOL    HW231239   1.990   3.537   8.010 -0.6666 -1.2702  1.8228
 6593SOL     OW31240   2.179   2.640   4.884 -0.9069 -0.6152  0.6186
 6593SOL    HW131241   2.119   2.662   4.955  0.7827 -0.7472  2.1093
 6593SOL    HW231242   2.191   2.546   4.901  0.1119 -0.3709  1.2313
 6594SOL     OW31243   4.715   1.532   7.166  0.3887  0.0258 -0.1062
 6594SOL    HW131244   4.699   1.626   7.179 -0.0703  0.3125 -2.6384
 6594SOL    HW231245   0.018   1.506   7.255  1.6709  0.8658 -0.1460
 6595SOL     OW31246   4.342   2.775   5.578 -0.9452 -0.5522 -0.4212
 6595SOL    HW131247   4.402   2.819   5.517 -0.8772 -0.0213  0.0303
 6595SOL    HW231248   4.399   2.711   5.621  1.6670  1.0839 -1.4630
 6596SOL     OW31249   1.787   0.523   9.229  0.0819 -0.5145  0.9584
 6596SOL    HW131250   1.841   0.451   9.261  3.1331  1.2980 -0.1448
 6596SOL    HW231251   1.837   0.568   9.161 -0.3480  0.1406  1.0745
 6597SOL     OW31252   3.568   3.913   2.188  0.2377  0.4655 -0.4771
 6597SOL    HW131253   3.579   3.825   2.152  1.6087  1.3062 -2.1371
 6597SOL    HW231254   3.497   3.907   2.252  1.6086  1.5880  1.1504
 6598SOL     OW31255   1.408   3.870   5.064  0.5024 -0.0995  0.1038
 6598SOL    HW131256   1.502   3.879   5.074  1.2323 -4.9290 -2.1967
 6598SOL    HW231257   1.377   3.959   5.084 -1.2447 -0.0665 -2.7699
 6599SOL     OW31258   2.752   0.221   7.732 -0.0698 -0.3815  0.0734
 6599SOL    HW131259   2.834   0.270   7.724  0.3216 -0.8140  1.4553
 6599SOL    HW231260   2.722   0.247   7.819 -0.9351 -0.6962 -0.1318
 6600SOL     OW31261   0.750   2.779   5.873  0.3555 -0.5255  0.1513
 6600SOL    HW131262   0.810   2.811   5.941 -0.6772  0.8813  0.3954
 6600SOL    HW231263   0.736   2.695   5.916 -1.4711 -0.4652 -0.3325
 6601SOL     OW31264   3.773   0.632   2.591 -0.1722  0.1926 -0.6884
 6601SOL    HW131265   3.726   0.657   2.670  0.0815 -1.3641 -0.0529
 6601SOL    HW231266   3.860   0.668   2.610 -1.3039  2.0026  1.0786
 6602SOL     OW31267   1.905   3.764   3.243  0.4134  0.2727  0.2065
 6602SOL    HW131268   1.867   3.680   3.267 -0.5395  0.9186  0.9347
 6602SOL    HW231269   1.969   3.725   3.184 -0.0922  1.8178 -1.3862
 6603SOL     OW31270   1.995   1.312   4.189  0.7761 -0.1584 -0.0558
 6603SOL    HW131271   1.962   1.365   4.262 -0.0124 -1.2098  0.3442
 6603SOL    HW231272   1.915   1.281   4.147  0.7094  0.5089 -0.4215
 6604SOL     OW31273   0.408   3.139   6.714 -0.0488  0.9794  0.5197
 6604SOL    HW131274   0.468   3.209   6.689 -1.3765  2.9007  2.7622
 6604SOL    HW231275   0.467   3.068   6.688 -0.9430  1.2138 -2.1085
 6605SOL     OW31276   3.890   3.314  16.522 -0.7155  0.1609 -0.5251
 6605SOL    HW131277   3.816   3.352  16.474 -0.9119 -0.1207 -0.4451
 6605SOL    HW231278   3.837   3.269  16.588 -0.8047 -0.9056 -1.3284
 6606SOL     OW31279   3.869   3.155   2.008  0.3858  1.0575 -0.3699
 6606SOL    HW131280   3.947   3.154   1.952 -0.1897  0.9278 -1.1596
 6606SOL    HW231281   3.866   3.247   2.032  0.6033  1.3940 -1.6357
 6607SOL     OW31282   4.075   0.530   8.341 -0.1540  0.1294 -0.1793
 6607SOL    HW131283   4.154   0.545   8.391  0.4097 -0.1379 -0.9798
 6607SOL    HW231284   4.075   0.608   8.286  1.7545 -0.4305 -0.9626
 6608SOL     OW31285   0.869   0.838   3.497  0.1789  0.3267 -0.4921
 6608SOL    HW131286   0.929   0.907   3.523 -0.5434  0.4889  0.7720
 6608SOL    HW231287   0.822   0.847   3.580  0.7938 -1.1282  0.0244
 6609SOL     OW31288   3.594   0.390   7.577 -0.5831 -0.0851  0.5109
 6609SOL    HW131289   3.642   0.361   7.499 -0.6745  0.2474  0.3298
 6609SOL    HW231290   3.645   0.340   7.641  0.0020  2.0572  1.7008
 6610SOL     OW31291   2.471   3.610   5.377  0.6020 -0.2499  0.0928
 6610SOL    HW131292   2.489   3.701   5.403 -0.6594  0.5774 -1.8762
 6610SOL    HW231293   2.431   3.576   5.457  2.8838 -0.8870  0.9646
 6611SOL     OW31294   2.927   3.801  10.580  0.4546 -0.0577  0.3447
 6611SOL    HW131295   2.964   3.869  10.523 -3.4179  1.5547 -0.2394
 6611SOL    HW231296   2.879   3.836  10.655  0.7342 -2.8784  1.8494
 6612SOL     OW31297   3.780   0.203   1.232  0.2023 -0.3181  0.4869
 6612SOL    HW131298   3.731   0.126   1.201 -0.9253  1.4944 -2.2723
 6612SOL    HW231299   3.740   0.222   1.316  1.7024  0.1344  1.0997
 6613SOL     OW31300   2.947   0.253  13.281 -0.0051  0.2825 -0.0788
 6613SOL    HW131301   2.961   0.167  13.241  2.5037  0.7583 -0.2626
 6613SOL    HW231302   2.890   0.293  13.217  0.8538  2.9224  0.8050
 6614SOL     OW31303   0.175   0.311  11.615  0.1962  0.5195 -0.7674
 6614SOL    HW131304   0.155   0.396  11.577 -0.9116 -0.1196 -1.6185
 6614SOL    HW231305   0.139   0.313  11.704  1.5322  0.6796 -0.2369
 6615SOL     OW31306   2.396   4.669   2.145  0.1394 -0.0109  0.7023
 6615SOL    HW131307   2.346   4.660   2.064 -0.0844 -0.9496  0.9384
 6615SOL    HW231308   2.346   4.612   2.204 -0.2176  0.3033  0.7012
 6616SOL     OW31309   0.145   2.740   4.638  0.0231  0.5522  0.1605
 6616SOL    HW131310   0.124   2.682   4.564 -1.2073  1.0930  0.0859
 6616SOL    HW231311   0.077   2.715   4.701  0.5739 -0.1770  0.4636
 6617SOL     OW31312   1.082   0.327   4.844  0.3379  0.1994  0.2363
 6617SOL    HW131313   1.052   0.285   4.764  0.0978  2.6188 -0.9336
 6617SOL    HW231314   1.176   0.338   4.838  0.1875  0.5236 -1.5093
 6618SOL     OW31315   2.343   3.815   2.614 -0.3768 -0.0829 -0.3966
 6618SOL    HW131316   2.286   3.791   2.686  0.1028  1.2225  0.4167
 6618SOL    HW231317   2.346   3.731   2.568 -0.4341 -1.3240  1.8731
 6619SOL     OW31318   4.563   0.972   4.692 -0.0742  0.7025 -0.9752
 6619SOL    HW131319   4.525   0.960   4.605  1.9069  1.8352 -2.0180
 6619SOL    HW231320   4.515   1.048   4.723 -0.9502  0.0182 -0.6679
 6620SOL     OW31321   2.600   2.855   7.268  0.1051  0.0073 -0.3710
 6620SOL    HW131322   2.631   2.854   7.358 -1.9881  2.3092  0.3604
 6620SOL    HW231323   2.549   2.774   7.263  0.1414 -0.1452  1.9919
 6621SOL     OW31324   2.147   3.899   4.643  0.0177 -0.3564 -0.2128
 6621SOL    HW131325   2.134   3.921   4.735  2.2613 -1.6468  0.4063
 6621SOL    HW231326   2.162   3.805   4.648  1.6143 -0.2140 -2.8053
 6622SOL     OW31327   2.885   1.657   5.592  0.4570 -0.1890  0.0023
 6622SOL    HW131328   2.980   1.655   5.582  0.5833  1.3508  0.8462
 6622SOL    HW231329   2.877   1.621   5.680 -0.6620 -0.1778 -0.0872
 6623SOL     OW31330   2.892   2.020   4.216  0.0612 -0.5641 -0.0399
 6623SOL    HW131331   2.954   1.966   4.167  1.3637 -0.5293  1.5731
 6623SOL    HW231332   2.841   1.956   4.265  0.8062 -1.6646 -0.6906
 6624SOL     OW31333   4.315   1.880   6.348 -0.4415 -0.4483 -0.2554
 6624SOL    HW131334   4.332   1.922   6.433 -3.1558 -0.5387  0.3295
 6624SOL    HW231335   4.367   1.800   6.353  2.4206  1.3969 -0.5999
 6625SOL     OW31336   1.211   0.287   3.622 -0.4490  0.0169 -0.3004
 6625SOL    HW131337   1.185   0.226   3.553  0.1032  0.7838 -1.1834
 6625SOL    HW231338   1.277   0.244   3.678 -0.9494  1.3797  1.3127
 6626SOL     OW31339   0.143   2.671  11.954 -0.0569 -0.2692  0.3294
 6626SOL    HW131340   0.230   2.681  11.991 -0.7001 -0.5116  1.8779
 6626SOL    HW231341   0.086   2.731  12.002 -1.5279  0.0705 -1.8191
 6627SOL     OW31342   3.433   4.043   9.282 -0.9370  0.1516 -0.6494
 6627SOL    HW131343   3.359   4.098   9.307 -0.1329  1.4366 -1.1237
 6627SOL    HW231344   3.386   3.963   9.257  0.0747 -0.7015  0.1800
 6628SOL     OW31345   1.179   1.964   5.765  0.3748 -0.5096 -0.4019
 6628SOL    HW131346   1.106   1.901   5.762  0.3097 -0.4091 -0.8615
 6628SOL    HW231347   1.186   1.981   5.671 -0.2797 -1.8329 -0.6998
 6629SOL     OW31348   0.467   3.215   4.732 -0.1784 -0.3159 -0.5423
 6629SOL    HW131349   0.532   3.167   4.682  0.1373  0.3339 -0.7633
 6629SOL    HW231350   0.523   3.290   4.751 -0.2163 -0.6278  0.8007
 6630SOL     OW31351   1.114   3.552   5.650 -0.1534 -0.7720 -0.1894
 6630SOL    HW131352   1.046   3.530   5.715 -0.3975  1.6029  0.3566
 6630SOL    HW231353   1.130   3.642   5.677 -1.3976 -1.5932  3.2992
 6631SOL     OW31354   3.745   0.974   6.096 -0.3375 -0.1554  0.4152
 6631SOL    HW131355   3.762   0.982   6.003  0.7456  1.1266  0.7285
 6631SOL    HW231356   3.830   0.975   6.139  0.2044 -0.6403 -0.6548
 6632SOL     OW31357   3.775   3.826   3.342 -0.1266 -0.2969 -0.4406
 6632SOL    HW131358   3.701   3.784   3.298 -1.6238  1.7817  0.0839
 6632SOL    HW231359   3.858   3.794   3.308  1.5451  1.1410  2.2807
 6633SOL     OW31360   4.650   3.270   5.101  0.1041  0.3519  0.4536
 6633SOL    HW131361   0.001   3.243   5.163 -0.5172 -1.5225  0.3230
 6633SOL    HW231362   4.665   3.364   5.094 -0.6541  0.5116  0.9811
 6634SOL     OW31363   2.190   4.311   7.260 -0.5930  0.0718 -0.4201
 6634SOL    HW131364   2.230   4.379   7.206  1.3077 -1.5480 -1.0435
 6634SOL    HW231365   2.253   4.239   7.253 -0.3751  0.0828  1.4365
 6635SOL     OW31366   0.521   4.233   7.962 -0.5667 -0.1805 -0.3124
 6635SOL    HW131367   0.456   4.304   7.956 -0.7934 -0.4804 -1.4696
 6635SOL    HW231368   0.514   4.217   7.868  0.6642 -2.0587 -0.0606
 6636SOL     OW31369   0.072   4.662   7.027 -0.3272  0.0896 -0.0826
 6636SOL    HW131370   0.007   4.709   6.975  2.0019  3.7873  0.3968
 6636SOL    HW231371   0.059   4.572   6.995 -1.9179 -0.0577  0.9499
 6637SOL     OW31372   2.069   3.011   3.756  0.3555  0.3144  0.2109
 6637SOL    HW131373   2.101   2.935   3.707 -0.9744 -0.9437  1.2877
 6637SOL    HW231374   2.002   3.030   3.690 -1.8618  0.0799  2.3710
 6638SOL     OW31375   0.661   1.285   4.184  0.0356 -0.1431 -0.3674
 6638SOL    HW131376   0.596   1.355   4.188 -0.7395 -0.9352  1.1786
 6638SOL    HW231377   0.675   1.276   4.278  2.6690 -0.4882 -0.7905
 6639SOL     OW31378   3.542   0.755   3.777 -0.2703 -0.3200 -0.5555
 6639SOL    HW131379   3.569   0.841   3.745 -1.0664 -0.7614 -2.3878
 6639SOL    HW231380   3.607   0.732   3.843 -2.1576  0.0377  1.4190
 6640SOL     OW31381   1.988   0.703  10.679 -0.2645 -0.2568  1.1165
 6640SOL    HW131382   2.067   0.719  10.731 -0.0300  1.6497  0.1532
 6640SOL    HW231383   1.957   0.793  10.671 -3.0368 -1.1621  1.6690
 6641SOL     OW31384   1.786   0.442   5.831  0.3746 -0.1414  0.0365
 6641SOL    HW131385   1.834   0.364   5.803  2.4168  1.1427 -0.0398
 6641SOL    HW231386   1.828   0.510   5.779 -1.6579  0.0170 -1.4124
 6642SOL     OW31387   2.981   0.498   2.873 -0.4547 -0.0399  0.2830
 6642SOL    HW131388   3.008   0.587   2.895  3.7808 -1.3753  0.3954
 6642SOL    HW231389   3.044   0.475   2.804  0.7600 -1.5040  1.9016
 6643SOL     OW31390   4.304   2.255   6.795  0.3119  0.4953  0.0954
 6643SOL    HW131391   4.330   2.299   6.875  0.7416  0.6283 -0.1189
 6643SOL    HW231392   4.216   2.288   6.778  0.4432  0.1161 -1.3382
 6644SOL     OW31393   3.447   4.087   9.669 -0.3175  0.8922  0.0176
 6644SOL    HW131394   3.369   4.133   9.638 -0.8391  0.7883  1.1441
 6644SOL    HW231395   3.407   4.030   9.736  2.6562  0.0197  1.0313
 6645SOL     OW31396   1.978   4.556   3.173 -0.1448 -0.0545  0.2991
 6645SOL    HW131397   1.884   4.573   3.175 -1.0080 -4.7625 -0.6381
 6645SOL    HW231398   2.012   4.643   3.154  1.8293 -0.6427  1.1515
 6646SOL     OW31399   4.056   3.650   5.785 -0.2445  0.0613 -0.2746
 6646SOL    HW131400   4.111   3.708   5.837  0.5320 -1.0235  0.1038
 6646SOL    HW231401   3.974   3.646   5.834  0.4684  0.0778  0.9211
 6647SOL     OW31402   0.481   0.492   8.304 -0.1762 -0.3391  0.1640
 6647SOL    HW131403   0.447   0.483   8.392 -3.2522  1.1238 -0.8764
 6647SOL    HW231404   0.406   0.510   8.248  0.3202 -0.3210 -0.4988
 6648SOL     OW31405   3.607   0.383   6.470  0.0119  0.1568 -0.3013
 6648SOL    HW131406   3.581   0.418   6.385  0.7391 -0.6654 -0.8606
 6648SOL    HW231407   3.593   0.289   6.463  2.5874 -0.1893 -0.9659
 6649SOL     OW31408   4.711   2.607   6.453  0.7761 -0.4505  0.1532
 6649SOL    HW131409   4.631   2.602   6.400 -0.4820  0.5155  1.9732
 6649SOL    HW231410   0.060   2.589   6.387 -0.4202  0.6546 -1.3730
 6650SOL     OW31411   4.264   0.402   7.359 -0.0053  0.1080  0.4436
 6650SOL    HW131412   4.313   0.469   7.311  0.5460  1.0773  2.3789
 6650SOL    HW231413   4.254   0.336   7.289  2.0885  0.4150 -0.1486
 6651SOL     OW31414   1.672   2.847  16.265  0.2825 -1.0457 -0.1664
 6651SOL    HW131415   1.629   2.914  16.319 -1.0874 -2.2466  0.2568
 6651SOL    HW231416   1.748   2.816  16.315  0.7484 -1.1411 -0.9470
 6652SOL     OW31417   1.669   3.979  17.437  0.0921 -0.1175 -0.3448
 6652SOL    HW131418   1.750   3.985  17.385  0.7361  0.1423  0.6943
 6652SOL    HW231419   1.662   3.886  17.457 -0.2121  0.2958  1.4669
 6653SOL     OW31420   0.387   1.766  15.049 -0.0308 -0.2637 -0.5920
 6653SOL    HW131421   0.407   1.859  15.054  0.0440 -0.3393  0.4984
 6653SOL    HW231422   0.403   1.742  15.140 -0.2369 -0.7730 -0.6886
 6654SOL     OW31423   0.273   3.017  16.090 -0.1377  0.7237  0.2271
 6654SOL    HW131424   0.244   3.027  16.181  1.9646 -0.4234  1.0253
 6654SOL    HW231425   0.210   2.949  16.065  0.6964  0.1225 -0.2379
 6655SOL     OW31426   1.791   4.372   4.151  0.0435 -0.4445 -0.3114
 6655SOL    HW131427   1.846   4.435   4.198 -2.7719  1.7243  0.1067
 6655SOL    HW231428   1.813   4.388   4.059  0.0164  1.6211  0.0328
 6656SOL     OW31429   0.171   4.234  13.859 -0.2608 -0.1582  0.5789
 6656SOL    HW131430   0.168   4.269  13.770 -1.6469  1.7915  1.3939
 6656SOL    HW231431   0.141   4.144  13.843  2.7726 -1.0568  0.0141
 6657SOL     OW31432   2.553   2.806   3.641  0.4356 -0.0024 -0.7983
 6657SOL    HW131433   2.602   2.869   3.589  1.6511  0.2307  0.6061
 6657SOL    HW231434   2.480   2.855   3.677  1.0256  0.9794 -0.9545
 6658SOL     OW31435   0.690   2.967   7.130 -0.0196 -0.0121 -0.7134
 6658SOL    HW131436   0.710   2.930   7.216  0.7010  0.0494 -0.8537
 6658SOL    HW231437   0.741   3.047   7.143  0.3993 -0.6911  1.7293
 6659SOL     OW31438   2.050   0.892   3.987 -0.4145  0.2931  0.0341
 6659SOL    HW131439   2.063   0.800   4.008  1.4273  0.4876 -0.2870
 6659SOL    HW231440   2.091   0.938   4.060  2.3536  0.1751 -1.4744
 6660SOL     OW31441   1.469   2.091   1.528  0.0101 -0.1893  0.2670
 6660SOL    HW131442   1.551   2.139   1.513 -0.2257  0.1811  0.1698
 6660SOL    HW231443   1.489   1.998   1.518  0.6300  0.0262 -0.4844
 6661SOL     OW31444   3.982   4.444   7.035 -0.4735 -0.2440 -0.2834
 6661SOL    HW131445   4.010   4.372   6.978  1.9008 -0.9729  1.8097
 6661SOL    HW231446   4.005   4.414   7.123  0.3824 -0.0442 -0.4406
 6662SOL     OW31447   3.019   1.857   2.169  0.5185 -0.3525  0.0639
 6662SOL    HW131448   3.073   1.822   2.239  0.4938 -1.0642 -0.2685
 6662SOL    HW231449   3.083   1.920   2.134  1.2986 -0.1027  1.9884
 6663SOL     OW31450   0.004   0.999   9.116 -0.0126  0.3270  0.2698
 6663SOL    HW131451   4.643   0.945   9.119 -0.7607  1.5763  2.3183
 6663SOL    HW231452   0.023   1.003   9.022 -1.1203 -1.0930 -0.0164
 6664SOL     OW31453   4.671   1.351  13.156 -0.3327 -0.0270 -0.2581
 6664SOL    HW131454   0.037   1.308  13.175 -0.6629 -0.3129  0.5668
 6664SOL    HW231455   4.651   1.402  13.234  0.1199  1.9111 -1.4149
 6665SOL     OW31456   3.999   1.929   8.661 -0.0332 -0.0060  0.0328
 6665SOL    HW131457   3.923   1.872   8.650  0.8894 -1.6629  2.1767
 6665SOL    HW231458   4.017   1.948   8.569  0.2546 -2.1661 -0.3704
 6666SOL     OW31459   2.723   0.979   2.758  0.5483 -0.3219 -0.0595
 6666SOL    HW131460   2.778   0.981   2.836  2.1785  0.1731 -1.2103
 6666SOL    HW231461   2.633   0.982   2.789  1.9317  3.4389  3.5961
 6667SOL     OW31462   4.332   3.978   6.725 -0.2272  0.6216 -0.2102
 6667SOL    HW131463   4.386   4.055   6.707 -1.0671  1.3045  0.1644
 6667SOL    HW231464   4.344   3.930   6.644 -3.0240  1.8566 -1.3593
 6668SOL     OW31465   0.828   4.586   5.085 -0.0740 -0.0746  0.0104
 6668SOL    HW131466   0.758   4.634   5.039  0.4389  0.8652  0.2205
 6668SOL    HW231467   0.881   4.572   5.006 -0.9308 -0.4103 -0.5084
 6669SOL     OW31468   0.755   3.520   0.138  0.7305  0.5895 -0.3087
 6669SOL    HW131469   0.743   3.615   0.142 -0.3606  0.3503  2.2035
 6669SOL    HW231470   0.692   3.508   0.068 -0.0482  0.4178  0.4202
 6670SOL     OW31471   4.080   4.652   6.240  0.5001 -0.1226  0.0736
 6670SOL    HW131472   4.053   4.566   6.272  0.5105 -0.4936 -0.9230
 6670SOL    HW231473   4.121   4.686   6.320  0.2338 -0.5145  0.3777
 6671SOL     OW31474   2.814   1.844  16.970 -0.1290  0.3693 -0.0459
 6671SOL    HW131475   2.802   1.834  17.064 -0.9266  2.7070  0.0829
 6671SOL    HW231476   2.896   1.891  16.959  0.8514 -1.1172  0.8592
 6672SOL     OW31477   1.728   0.617  10.525  0.1337  0.1600 -0.1957
 6672SOL    HW131478   1.652   0.618  10.467  1.6867  2.4576 -2.1573
 6672SOL    HW231479   1.689   0.658  10.602  0.0312  1.3996 -0.9189
 6673SOL     OW31480   1.522   1.450   8.001  0.0445  0.0580  0.4516
 6673SOL    HW131481   1.495   1.484   8.087 -0.9741  0.0529  0.1290
 6673SOL    HW231482   1.496   1.358   8.008  0.8375 -0.2315 -0.4686
 6674SOL     OW31483   3.738   2.060   8.279 -0.0763 -0.3189 -0.3779
 6674SOL    HW131484   3.822   2.104   8.295 -0.9993  1.4063 -0.2642
 6674SOL    HW231485   3.752   2.029   8.189 -2.9346  1.4495 -1.4441
 6675SOL     OW31486   1.621   0.948  12.738  0.0047 -0.7042  0.1051
 6675SOL    HW131487   1.615   0.903  12.654  0.3117  0.9393 -0.7970
 6675SOL    HW231488   1.707   0.916  12.766  0.8098  1.3870  0.0496
 6676SOL     OW31489   4.157   1.823   1.785  0.2056  0.2360 -0.5629
 6676SOL    HW131490   4.094   1.795   1.719  0.1511  3.3025 -1.8157
 6676SOL    HW231491   4.224   1.755   1.780  1.1563  0.8773  3.8644
 6677SOL     OW31492   3.969   3.721   5.515 -0.0273 -0.2251  0.7328
 6677SOL    HW131493   3.996   3.692   5.603  0.8398  0.8534  0.8206
 6677SOL    HW231494   3.992   3.814   5.518 -0.7167 -0.0681  1.0623
 6678SOL     OW31495   3.884   4.550   8.473  0.2888 -0.0093  0.3618
 6678SOL    HW131496   3.975   4.568   8.451 -0.1593  3.6860  1.4718
 6678SOL    HW231497   3.885   4.573   8.566  1.9315 -0.5244  0.4595
 6679SOL     OW31498   0.018   0.549   6.871  0.3518  0.2947  0.1965
 6679SOL    HW131499   0.082   0.547   6.799 -1.3257  0.1725 -1.2939
 6679SOL    HW231500   0.070   0.523   6.947 -0.6732 -0.9061  0.4876
 6680SOL     OW31501   1.138   3.823   4.901  0.3794  0.3459  0.4294
 6680SOL    HW131502   1.109   3.906   4.940 -0.6091  1.3945 -2.4978
 6680SOL    HW231503   1.054   3.779   4.910 -0.6826  1.8379 -2.2158
 6681SOL     OW31504   4.127   0.838  15.873  0.2510  0.0181  0.5388
 6681SOL    HW131505   4.098   0.865  15.785 -1.5635 -2.2712  0.4383
 6681SOL    HW231506   4.114   0.743  15.873 -0.9266  0.1794 -0.8267
 6682SOL     OW31507   3.772   4.145  12.997 -0.8593  0.1417 -0.0708
 6682SOL    HW131508   3.773   4.240  12.981 -0.1039  0.2720  0.6978
 6682SOL    HW231509   3.731   4.106  12.920 -1.4215 -0.1939  0.4060
 6683SOL     OW31510   4.418   4.243   3.941 -0.1195  0.2446 -0.0467
 6683SOL    HW131511   4.453   4.258   3.854  1.3297  0.9293  0.6625
 6683SOL    HW231512   4.440   4.150   3.949 -1.6487 -0.0368  0.9979
 6684SOL     OW31513   0.807   4.310   4.690  0.1385  0.8080  0.1419
 6684SOL    HW131514   0.868   4.247   4.728 -0.0738  1.0101  0.8276
 6684SOL    HW231515   0.720   4.287   4.723 -0.1459  1.5525 -0.0757
 6685SOL     OW31516   3.822   0.474   6.620 -0.0785  0.3939  0.0050
 6685SOL    HW131517   3.766   0.426   6.559 -0.7720  0.8977  0.2433
 6685SOL    HW231518   3.897   0.415   6.618 -0.1838  0.1832  2.2767
 6686SOL     OW31519   1.694   1.063   7.346  0.0349 -0.1425 -0.1533
 6686SOL    HW131520   1.682   1.069   7.441 -2.6241 -1.0016 -0.4565
 6686SOL    HW231521   1.707   0.969   7.337 -1.1613 -0.4016  0.7831
 6687SOL     OW31522   1.732   2.183   4.196  0.9797 -0.6257 -0.9458
 6687SOL    HW131523   1.790   2.165   4.122  0.8569  1.2370 -1.5232
 6687SOL    HW231524   1.656   2.163   4.140 -0.7486 -0.6231  1.4274
 6688SOL     OW31525   4.605   4.176   5.572  0.0334  0.1909  0.6079
 6688SOL    HW131526   4.569   4.125   5.644 -2.3167  2.2611  0.8842
 6688SOL    HW231527   4.584   4.262   5.608 -0.2940  0.0355  0.7836
 6689SOL     OW31528   4.167   2.205   6.447 -0.1325 -0.0024  0.3101
 6689SOL    HW131529   4.235   2.166   6.392 -1.0017  2.1925 -2.3587
 6689SOL    HW231530   4.163   2.143   6.519  1.4736 -0.8376 -0.3189
 6690SOL     OW31531   1.526   4.263   3.423  0.1255 -0.0094  0.1111
 6690SOL    HW131532   1.442   4.274   3.378  0.2547  2.9357  0.5522
 6690SOL    HW231533   1.558   4.183   3.383  0.0829 -0.0777  0.2135
 6691SOL     OW31534   0.876   4.590   8.893  0.1731  0.0747 -0.3395
 6691SOL    HW131535   0.806   4.533   8.923 -1.1274  2.1433  0.5856
 6691SOL    HW231536   0.843   4.613   8.806 -3.0021 -1.5095  0.4500
 6692SOL     OW31537   2.467   2.598   3.887 -0.2282 -0.6483 -0.0268
 6692SOL    HW131538   2.556   2.584   3.855 -0.4228 -0.4702 -0.6367
 6692SOL    HW231539   2.452   2.690   3.866  0.3057 -0.4795  0.3249
 6693SOL     OW31540   1.374   2.587  10.002 -0.2576  0.6171  0.1158
 6693SOL    HW131541   1.316   2.659   9.974  0.4445  0.5472 -1.5268
 6693SOL    HW231542   1.333   2.515   9.954 -0.1360  0.5452  0.1217
 6694SOL     OW31543   1.276   1.756   3.555 -0.1233 -0.2227  0.4305
 6694SOL    HW131544   1.191   1.799   3.551 -1.3111 -2.8327 -2.7493
 6694SOL    HW231545   1.258   1.662   3.552  0.0919 -0.1647 -2.3226
 6695SOL     OW31546   3.451   4.224   7.916  0.1546 -0.0141  0.9835
 6695SOL    HW131547   3.358   4.246   7.907  0.6243  1.5283 -0.1538
 6695SOL    HW231548   3.448   4.153   7.980 -0.9545 -0.2699  0.6545
 6696SOL     OW31549   1.945   2.880   6.587  0.2217 -0.3060  0.6062
 6696SOL    HW131550   1.904   2.798   6.561 -0.3891  0.4124 -0.7242
 6696SOL    HW231551   1.995   2.911   6.511 -1.6193 -1.3147 -1.0138
 6697SOL     OW31552   3.978   2.210   9.709 -0.6713  0.0702 -0.0361
 6697SOL    HW131553   4.056   2.155   9.697 -1.6180 -1.3469  0.2691
 6697SOL    HW231554   4.010   2.272   9.775  1.2277 -1.2195  0.2642
 6698SOL     OW31555   1.294   2.601  13.730  0.4294 -0.0704  0.1519
 6698SOL    HW131556   1.338   2.578  13.648 -0.7566  0.4979 -0.6479
 6698SOL    HW231557   1.296   2.697  13.725  1.3630 -0.0580  0.8100
 6699SOL     OW31558   0.517   0.669   9.162 -0.6820 -0.0018 -0.2844
 6699SOL    HW131559   0.525   0.574   9.169 -1.7545 -0.0561  0.3298
 6699SOL    HW231560   0.425   0.681   9.187 -0.6709 -0.3246 -0.0928
 6700SOL     OW31561   3.044   2.139  16.598 -0.3190 -0.1965 -0.2246
 6700SOL    HW131562   3.088   2.219  16.569 -0.2255 -0.4195 -0.6978
 6700SOL    HW231563   3.113   2.075  16.580  1.4107  1.6748 -0.1911
 6701SOL     OW31564   2.289   4.615  12.022  0.2097  0.3343 -0.0280
 6701SOL    HW131565   2.196   4.592  12.017  0.1533  0.9587 -1.9977
 6701SOL    HW231566   2.307   4.556  12.095  0.1448  1.7429  1.1182
 6702SOL     OW31567   3.101   1.989   4.941 -0.2722  0.1070  0.4845
 6702SOL    HW131568   3.165   2.054   4.914 -0.7163  1.3318  2.3974
 6702SOL    HW231569   3.022   2.041   4.929  0.2442  0.7254 -0.1827
 6703SOL     OW31570   2.063   3.216   7.158 -0.1187  0.4019  0.3897
 6703SOL    HW131571   2.048   3.158   7.083 -1.2175 -2.9074  3.1870
 6703SOL    HW231572   2.112   3.165   7.223 -0.8143  0.1425  0.7084
 6704SOL     OW31573   2.153   2.956  12.216  0.1273  0.2414  0.4863
 6704SOL    HW131574   2.113   2.975  12.301 -0.1697  2.5572 -0.1855
 6704SOL    HW231575   2.212   2.883  12.237  2.1038  2.0438  1.2252
 6705SOL     OW31576   2.393   3.972   6.699 -0.4542 -0.3036 -0.2451
 6705SOL    HW131577   2.319   3.982   6.759 -0.9874  1.1532 -1.1417
 6705SOL    HW231578   2.348   3.969   6.615 -0.9746  0.0813  0.0207
 6706SOL     OW31579   1.946   0.880   8.921  0.3594 -0.2856 -0.4277
 6706SOL    HW131580   1.860   0.842   8.902  1.3029 -1.9670 -1.2820
 6706SOL    HW231581   1.942   0.910   9.012  1.8095  0.8680 -0.7570
 6707SOL     OW31582   2.624   4.579  12.160 -0.5353  0.5053  0.0099
 6707SOL    HW131583   2.553   4.515  12.157  0.1466 -0.2331 -0.6329
 6707SOL    HW231584   2.662   4.564  12.247  0.5577  0.6684 -0.4412
 6708SOL     OW31585   3.143   2.815  14.671  0.0656  0.3610  0.1238
 6708SOL    HW131586   3.061   2.822  14.621 -0.2136  1.4398  0.7356
 6708SOL    HW231587   3.203   2.861  14.613 -1.0081  0.1008 -1.2091
 6709SOL     OW31588   2.185   2.813   5.888 -0.1130  0.0426  0.5956
 6709SOL    HW131589   2.180   2.777   5.800 -0.4756  1.1699  0.1486
 6709SOL    HW231590   2.266   2.776   5.924  0.0286  0.0912  0.3268
 6710SOL     OW31591   4.137   4.126  14.520  0.0824  0.9034 -0.2250
 6710SOL    HW131592   4.152   4.090  14.433 -0.5749 -3.5527  1.5137
 6710SOL    HW231593   4.206   4.192  14.513  0.6545  0.6205  2.7918
 6711SOL     OW31594   0.445   0.657   3.288  0.0016  0.9761  0.2769
 6711SOL    HW131595   0.512   0.590   3.295 -1.7358 -0.9463 -1.3817
 6711SOL    HW231596   0.495   0.724   3.241 -0.7149  0.3082 -1.4499
 6712SOL     OW31597   1.851   0.640   2.245 -0.2210 -0.1157 -0.0524
 6712SOL    HW131598   1.782   0.593   2.291 -0.7051 -0.0446 -0.6977
 6712SOL    HW231599   1.929   0.588   2.263  1.1085  0.9098 -2.7136
 6713SOL     OW31600   4.276   0.193  16.844 -0.4267 -0.1013 -0.5392
 6713SOL    HW131601   4.329   0.271  16.861  0.0310 -0.3475 -0.8428
 6713SOL    HW231602   4.186   0.211  16.872 -0.9020 -2.6953 -0.4136
 6714SOL     OW31603   1.914   4.225   9.817 -0.5179 -0.1265  0.0439
 6714SOL    HW131604   1.939   4.312   9.850 -0.0421  0.4724 -1.8981
 6714SOL    HW231605   1.988   4.205   9.761 -0.0535  2.6304 -0.3238
 6715SOL     OW31606   0.864   0.022   0.935  0.1627  0.2125 -0.1974
 6715SOL    HW131607   0.899   0.047   1.020 -3.0186 -1.7400  1.7158
 6715SOL    HW231608   0.769   0.031   0.943  0.2001 -0.8101  1.3322
 6716SOL     OW31609   3.524   1.977  12.141 -0.1572  0.3706 -0.3635
 6716SOL    HW131610   3.482   1.973  12.055 -0.3238 -0.4894 -0.2439
 6716SOL    HW231611   3.439   1.985  12.184  0.1878  0.1066  0.3690
 6717SOL     OW31612   0.738   2.859  16.230  0.1965 -0.2132 -0.0539
 6717SOL    HW131613   0.651   2.820  16.223 -0.2337  0.4792  1.4734
 6717SOL    HW231614   0.715   2.951  16.246 -0.9804 -0.3193 -1.1704
 6718SOL     OW31615   2.341   1.342   2.434  0.2784  0.1939 -0.4435
 6718SOL    HW131616   2.360   1.388   2.516 -2.2499  1.5563 -0.6343
 6718SOL    HW231617   2.270   1.289   2.471 -0.7130  3.0988  1.8360
 6719SOL     OW31618   1.502   1.159   5.157 -0.0097 -0.6560  0.2787
 6719SOL    HW131619   1.505   1.163   5.253 -0.6577  0.2051  0.2639
 6719SOL    HW231620   1.485   1.251   5.135 -2.0278 -0.9353  0.6302
 6720SOL     OW31621   0.186   1.741   6.846 -0.2919  0.0801 -0.1605
 6720SOL    HW131622   0.171   1.807   6.778  1.0057  0.9183  0.3608
 6720SOL    HW231623   0.231   1.796   6.911  0.6618 -0.3175 -0.4970
 6721SOL     OW31624   2.820   0.644  13.696  0.1992 -0.0782 -0.2292
 6721SOL    HW131625   2.787   0.636  13.607  1.7800 -2.9700 -0.5707
 6721SOL    HW231626   2.862   0.559  13.709 -0.9307 -0.3894  1.3630
 6722SOL     OW31627   0.409   0.747   3.846  0.2319 -0.1511 -0.2249
 6722SOL    HW131628   0.343   0.778   3.909  2.8987 -1.5646  3.2701
 6722SOL    HW231629   0.415   0.657   3.879 -1.5539  0.3690  1.5303
 6723SOL     OW31630   2.443   3.139   3.417  0.1634 -0.6202 -0.1681
 6723SOL    HW131631   2.391   3.131   3.337 -0.9331 -0.4664  0.5236
 6723SOL    HW231632   2.415   3.229   3.437  2.3843  0.1072 -0.3419
 6724SOL     OW31633   2.498   1.576  13.887  0.0109 -0.3583  0.3307
 6724SOL    HW131634   2.564   1.532  13.940  0.6273 -0.5427 -0.5900
 6724SOL    HW231635   2.486   1.655  13.939  2.3794  0.3849 -0.2617
 6725SOL     OW31636   0.602   1.480   6.495  0.2028  0.2521 -0.1326
 6725SOL    HW131637   0.645   1.457   6.577  1.5416 -2.0029 -1.4615
 6725SOL    HW231638   0.512   1.449   6.502  1.0578 -2.1818  0.0513
 6726SOL     OW31639   1.086   2.747   0.260  0.3603 -0.0541  0.3049
 6726SOL    HW131640   1.040   2.808   0.204  0.1096 -0.3286  0.2143
 6726SOL    HW231641   1.092   2.809   0.333  0.8441  0.2158  0.0374
 6727SOL     OW31642   3.209   3.832   8.101  0.2575 -0.4398  0.4052
 6727SOL    HW131643   3.130   3.863   8.056 -0.8148 -0.2043  2.4736
 6727SOL    HW231644   3.220   3.754   8.045  0.1025 -0.3311  0.2226
 6728SOL     OW31645   3.957   4.617   8.727  0.9387 -0.3938  0.2705
 6728SOL    HW131646   4.038   4.656   8.695  1.0541  1.1424  2.4203
 6728SOL    HW231647   3.966   4.641   8.819 -0.2286 -0.5519  0.4318
 6729SOL     OW31648   3.282   4.363  14.942  0.3999 -0.2689 -0.0033
 6729SOL    HW131649   3.204   4.389  14.992  0.0037 -2.2115  0.3730
 6729SOL    HW231650   3.240   4.308  14.876  2.0686 -2.6953  0.9817
 6730SOL     OW31651   0.568   3.565   3.397  0.7700 -0.1959 -0.5504
 6730SOL    HW131652   0.557   3.554   3.303 -1.6961  2.5511 -0.5781
 6730SOL    HW231653   0.497   3.627   3.414  1.5659 -0.0168  2.1439
 6731SOL     OW31654   1.367   2.959  14.289  0.1869  0.1104  0.6000
 6731SOL    HW131655   1.338   3.004  14.369 -0.0631  0.8495  0.0841
 6731SOL    HW231656   1.414   3.026  14.241  0.6025 -0.5090  0.1433
 6732SOL     OW31657   3.149   4.132   4.835 -0.0698 -0.5725 -0.1172
 6732SOL    HW131658   3.207   4.098   4.904  0.0248  0.3402  0.2546
 6732SOL    HW231659   3.121   4.050   4.795  0.1321 -0.2127 -0.9968
 6733SOL     OW31660   3.667   2.376   9.302  0.1371 -0.2002 -0.1044
 6733SOL    HW131661   3.716   2.361   9.383  1.3798  2.0023 -0.4311
 6733SOL    HW231662   3.578   2.349   9.323 -0.4604  3.2587  1.9252
 6734SOL     OW31663   2.435   3.836  14.236 -0.1630 -1.1970  0.2256
 6734SOL    HW131664   2.480   3.786  14.168  0.5584 -0.9155  0.4958
 6734SOL    HW231665   2.489   3.835  14.315  1.1990  1.8953 -0.6306
 6735SOL     OW31666   2.318   2.740  12.313  0.8549 -0.1352  0.1154
 6735SOL    HW131667   2.394   2.783  12.354  0.2760  3.2389 -2.3687
 6735SOL    HW231668   2.361   2.696  12.239  0.0163 -1.4388  0.4049
 6736SOL     OW31669   2.350   2.038   5.987 -0.0357  0.2679  0.4788
 6736SOL    HW131670   2.426   2.053   6.043  0.3804 -0.2190  0.0452
 6736SOL    HW231671   2.357   2.118   5.935 -2.1218  0.9715  1.2690
 6737SOL     OW31672   1.001   2.866   7.137 -0.8385 -0.0595 -0.1817
 6737SOL    HW131673   0.940   2.828   7.074 -0.7202 -2.2216  0.9735
 6737SOL    HW231674   0.968   2.831   7.220 -2.6806  0.2735 -0.7910
 6738SOL     OW31675   4.564   1.637   3.430  0.1358  0.6445  0.4427
 6738SOL    HW131676   4.511   1.589   3.368  1.3879  0.4673 -0.4868
 6738SOL    HW231677   4.656   1.626   3.408 -0.1479  1.5093 -1.1332
 6739SOL     OW31678   1.190   2.839  15.882  0.0537  0.3890  0.2807
 6739SOL    HW131679   1.187   2.744  15.877  0.4031  0.4295 -0.8808
 6739SOL    HW231680   1.111   2.855  15.934  0.6848  3.8192  0.1729
 6740SOL     OW31681   1.263   3.854   0.511  0.3363 -0.0197 -0.3540
 6740SOL    HW131682   1.305   3.936   0.485 -2.4902  1.4293 -0.3948
 6740SOL    HW231683   1.185   3.875   0.562  0.0330 -0.3111 -0.6967
 6741SOL     OW31684   0.462   3.007   5.595  0.8058  0.5583 -0.5260
 6741SOL    HW131685   0.554   3.024   5.614  1.2449  0.4296 -2.5319
 6741SOL    HW231686   0.445   2.944   5.665  1.1843  1.0876  0.0439
 6742SOL     OW31687   2.822   2.290   9.025  0.0725 -0.9498  0.1121
 6742SOL    HW131688   2.799   2.370   8.980  0.4818  0.2595  2.0483
 6742SOL    HW231689   2.758   2.221   9.006 -2.0124  0.6352  1.4271
 6743SOL     OW31690   3.313   1.681   8.228 -0.1351 -0.7358 -0.2266
 6743SOL    HW131691   3.389   1.641   8.270 -0.7364  1.1825  2.7073
 6743SOL    HW231692   3.347   1.764   8.194  0.1721  0.1694  2.3240
 6744SOL     OW31693   3.920   0.072   2.393 -0.3513  0.0282 -0.4710
 6744SOL    HW131694   3.874   0.043   2.314  1.9282 -0.9655 -1.4422
 6744SOL    HW231695   4.010   0.048   2.371 -0.5415 -3.1926  2.2808
 6745SOL     OW31696   1.572   4.230   4.004  0.4333 -0.0010  0.5110
 6745SOL    HW131697   1.600   4.310   4.048 -0.4454  0.5448  0.0764
 6745SOL    HW231698   1.654   4.181   3.993  2.0167  2.4008  1.7061
 6746SOL     OW31699   3.311   2.374   6.972  0.3857 -0.6871 -0.8798
 6746SOL    HW131700   3.237   2.427   7.000  1.6574  0.5712  0.0876
 6746SOL    HW231701   3.376   2.440   6.947  1.1290 -0.3094  2.0726
 6747SOL     OW31702   1.914   0.735   3.270  0.0980  0.0822  0.7590
 6747SOL    HW131703   1.974   0.770   3.204  0.2543 -2.6017 -0.5001
 6747SOL    HW231704   1.966   0.663   3.303 -0.7276 -0.7140  0.3228
 6748SOL     OW31705   2.747   0.243   4.794 -0.1415  0.3817  0.2472
 6748SOL    HW131706   2.656   0.235   4.764 -0.3496 -0.2895  1.0366
 6748SOL    HW231707   2.743   0.318   4.853 -3.3525  0.2716  0.1739
 6749SOL     OW31708   4.411   1.696   4.235  0.2842 -0.5180  0.3901
 6749SOL    HW131709   4.354   1.619   4.231 -0.7100  0.1082  2.8538
 6749SOL    HW231710   4.409   1.735   4.147 -0.2937 -1.0400  0.1711
 6750SOL     OW31711   1.713   1.022   3.115 -0.3126 -1.2585  0.1862
 6750SOL    HW131712   1.729   1.060   3.029 -0.9623 -0.2010  0.5291
 6750SOL    HW231713   1.680   1.094   3.170 -0.5783 -1.2686  0.0408
 6751SOL     OW31714   4.134   4.248   8.035 -0.3883  0.1687 -0.5604
 6751SOL    HW131715   4.144   4.342   8.019  2.5031 -0.3685 -1.9266
 6751SOL    HW231716   4.091   4.216   7.956  0.5738  1.1134 -1.4792
 6752SOL     OW31717   1.916   2.372   1.273  0.0509  0.3371  0.3647
 6752SOL    HW131718   1.921   2.374   1.177 -1.0389 -0.4141  0.2828
 6752SOL    HW231719   1.861   2.450   1.283 -1.5463 -0.5408 -1.3182
 6753SOL     OW31720   3.794   1.806  13.241  0.0072 -0.5739 -0.3138
 6753SOL    HW131721   3.728   1.820  13.309 -0.0600 -2.5838  0.0326
 6753SOL    HW231722   3.761   1.876  13.183 -1.2416  2.3751  3.9403
 6754SOL     OW31723   2.913   0.266   1.940  0.6832  0.0369  0.5824
 6754SOL    HW131724   2.875   0.354   1.939  1.5372  0.4084  0.9085
 6754SOL    HW231725   2.976   0.280   2.011 -0.4746  0.0951  1.6103
 6755SOL     OW31726   4.082   1.423   4.693  0.0361 -0.2663 -0.3391
 6755SOL    HW131727   4.129   1.448   4.613 -1.0245 -0.9201 -1.1741
 6755SOL    HW231728   4.118   1.334   4.693 -0.1889 -0.3587  0.3159
 6756SOL     OW31729   1.050   3.339   1.941 -0.0634  0.1681 -0.4705
 6756SOL    HW131730   0.992   3.313   1.870 -0.6521  2.3063 -0.7809
 6756SOL    HW231731   0.990   3.330   2.016  1.2615 -0.6221  0.5004
 6757SOL     OW31732   0.051   2.542   4.470  0.5250  0.1893  0.1945
 6757SOL    HW131733   0.002   2.481   4.525  0.3915 -3.0605 -3.5756
 6757SOL    HW231734   4.694   2.584   4.426  0.9115  0.7886  0.1069
 6758SOL     OW31735   1.695   2.925   8.994  0.2128 -0.2232 -0.5087
 6758SOL    HW131736   1.719   2.845   9.040 -1.9221 -0.1706  0.6867
 6758SOL    HW231737   1.602   2.907   8.982  0.1855  1.4145 -2.7809
 6759SOL     OW31738   0.530   0.602   9.591  0.2577 -0.3177  0.0562
 6759SOL    HW131739   0.560   0.636   9.676 -1.9647  2.1119 -0.1300
 6759SOL    HW231740   0.611   0.598   9.540  1.2348 -2.2269  1.7371
 6760SOL     OW31741   0.101   0.773  12.653  0.0782 -0.2978 -0.1757
 6760SOL    HW131742   0.077   0.847  12.597  0.6896 -1.1827 -1.6185
 6760SOL    HW231743   0.035   0.709  12.624  1.5084 -2.2745  0.9134
 6761SOL     OW31744   1.503   2.850   3.745 -0.2424 -0.5013  0.1065
 6761SOL    HW131745   1.535   2.763   3.724  1.7454  0.4677 -0.9347
 6761SOL    HW231746   1.429   2.867   3.687 -0.2281  0.4954  0.3654
 6762SOL     OW31747   0.753   0.979   1.000  0.0676 -0.6037  0.2263
 6762SOL    HW131748   0.673   1.023   0.974  0.9459  0.5854 -0.4576
 6762SOL    HW231749   0.721   0.937   1.080  2.5999 -1.1925  0.9547
 6763SOL     OW31750   1.065   4.408   6.840  0.5344  0.0152 -0.2782
 6763SOL    HW131751   1.041   4.493   6.876 -0.2198  0.3241 -1.5129
 6763SOL    HW231752   0.987   4.355   6.853 -0.2338  1.0541 -0.6879
 6764SOL     OW31753   0.477   3.324   4.144 -0.2982  0.0344  0.2776
 6764SOL    HW131754   0.480   3.279   4.228 -1.6797 -1.6756 -0.5996
 6764SOL    HW231755   0.525   3.404   4.165 -0.9204  0.6998 -0.8136
 6765SOL     OW31756   4.345   2.416   5.283 -0.8366 -0.0461 -0.4040
 6765SOL    HW131757   4.334   2.338   5.228 -2.5386  0.2987 -0.5555
 6765SOL    HW231758   4.421   2.390   5.336 -0.0602 -0.4725 -1.7139
 6766SOL     OW31759   1.710   3.109   8.479  0.0757  0.4651  0.1398
 6766SOL    HW131760   1.675   3.173   8.542  0.0506 -1.6576  2.2989
 6766SOL    HW231761   1.793   3.082   8.518  0.8485  1.4073 -0.8758
 6767SOL     OW31762   0.198   2.926   2.911  0.0052  0.4991 -0.1664
 6767SOL    HW131763   0.250   2.932   2.832  0.0603  0.3346 -0.1425
 6767SOL    HW231764   0.260   2.880   2.967  0.1346 -0.5235 -1.1695
 6768SOL     OW31765   4.552   2.448  11.926  0.3046 -0.0724  0.2043
 6768SOL    HW131766   4.518   2.522  11.976 -1.3951  0.7934 -2.2132
 6768SOL    HW231767   4.474   2.404  11.892 -0.5781 -0.1256  2.3331
 6769SOL     OW31768   1.667   0.814   3.940 -0.2405  0.7608 -0.2459
 6769SOL    HW131769   1.664   0.741   3.878 -1.8408  0.2627  0.4218
 6769SOL    HW231770   1.658   0.892   3.885  0.5615  1.8470  1.1793
 6770SOL     OW31771   4.696   2.908   5.857 -0.3049  0.0605 -0.1426
 6770SOL    HW131772   4.689   2.856   5.937  1.2968  1.6669  1.0455
 6770SOL    HW231773   4.664   2.996   5.878 -0.3081  0.4794 -1.9157
 6771SOL     OW31774   3.880   2.548   6.935  0.3607 -0.2306  0.1589
 6771SOL    HW131775   3.844   2.633   6.911 -1.0677 -0.1118  2.7276
 6771SOL    HW231776   3.922   2.564   7.019 -0.7994  2.8081  0.1391
 6772SOL     OW31777   4.347   1.306   6.486 -0.7202 -0.5390 -0.5985
 6772SOL    HW131778   4.362   1.332   6.577 -1.2337  0.7866 -0.8855
 6772SOL    HW231779   4.255   1.333   6.491 -0.5492 -0.1072  0.1860
 6773SOL     OW31780   4.327   0.356   1.597 -0.4317  0.0081 -0.2533
 6773SOL    HW131781   4.266   0.430   1.595 -1.4962 -0.8416  0.5372
 6773SOL    HW231782   4.319   0.333   1.505 -2.7884  3.0413 -0.7990
 6774SOL     OW31783   0.925   1.452   3.700  0.0771  0.3673  0.4539
 6774SOL    HW131784   0.908   1.487   3.612  1.0316  0.6939  0.3978
 6774SOL    HW231785   0.841   1.408   3.713  0.5001 -0.4818  0.3255
 6775SOL     OW31786   4.102   4.255   1.888 -0.2690  0.5461  0.4815
 6775SOL    HW131787   4.107   4.210   1.972 -1.6571  0.3683  0.4572
 6775SOL    HW231788   4.151   4.200   1.826  0.7056  0.3120  1.4641
 6776SOL     OW31789   2.276   1.930   7.296 -0.2029  0.4804  0.3218
 6776SOL    HW131790   2.198   1.903   7.344 -0.1646 -0.1839  0.0089
 6776SOL    HW231791   2.333   1.960   7.367 -2.0094  0.4055  1.8064
 6777SOL     OW31792   4.371   2.997   7.051  0.0980  0.8333 -0.2310
 6777SOL    HW131793   4.450   2.970   7.004  0.0616  0.8641 -0.3081
 6777SOL    HW231794   4.410   3.029   7.133  1.0098 -0.3097 -0.2081
 6778SOL     OW31795   2.274   2.137  17.648 -0.7305 -0.1123  0.6133
 6778SOL    HW131796   2.252   2.061   0.028 -0.0936 -2.0136 -1.8030
 6778SOL    HW231797   2.327   2.181   0.041 -0.1305 -0.4564  0.3611
 6779SOL     OW31798   1.263   4.656   6.148  0.3788  0.3609 -0.0840
 6779SOL    HW131799   1.284   0.027   6.176 -4.9169  1.7024 -0.3047
 6779SOL    HW231800   1.300   4.597   6.214  0.3862  1.1164  0.5843
 6780SOL     OW31801   2.822   4.024   4.243 -0.0010 -0.0071 -0.1339
 6780SOL    HW131802   2.770   4.043   4.165  0.3917  0.5828 -0.2542
 6780SOL    HW231803   2.794   4.101   4.293 -1.1068 -0.7050  0.3140
 6781SOL     OW31804   1.313   1.969   8.038 -0.6871 -0.0691  0.2334
 6781SOL    HW131805   1.304   1.881   8.076 -1.4665  0.1246  0.4980
 6781SOL    HW231806   1.404   1.968   8.009 -0.7109 -3.9282  0.2390
 6782SOL     OW31807   0.705   2.672   7.691 -0.1452 -0.2010  0.5359
 6782SOL    HW131808   0.744   2.650   7.776 -1.0999  0.3940  1.1379
 6782SOL    HW231809   0.693   2.583   7.658 -0.0545 -0.5917  1.5519
 6783SOL     OW31810   4.021   2.170   3.493 -0.1095  0.1343 -0.4585
 6783SOL    HW131811   4.100   2.129   3.529 -1.0126 -0.4294  0.8705
 6783SOL    HW231812   4.022   2.137   3.404 -0.7423 -0.9749 -0.0503
 6784SOL     OW31813   3.853   0.931   8.415  0.0169  0.4386 -0.6524
 6784SOL    HW131814   3.850   0.870   8.489  0.7570 -0.3823 -1.3077
 6784SOL    HW231815   3.817   1.004   8.466  2.0757 -1.6508  3.8515
 6785SOL     OW31816   1.631   0.822   5.499  0.1128 -0.1687  0.2778
 6785SOL    HW131817   1.687   0.785   5.567  1.7461  1.1400 -0.3527
 6785SOL    HW231818   1.547   0.777   5.505  0.4599 -0.8098  0.3394
 6786SOL     OW31819   3.408   3.081   9.312  0.1534 -0.0457  0.7432
 6786SOL    HW131820   3.483   3.111   9.259 -0.6771 -0.0238 -0.4264
 6786SOL    HW231821   3.360   3.057   9.233  2.0039  1.3743 -0.8343
 6787SOL     OW31822   3.681   4.301  12.550  0.0674 -0.0759 -0.6629
 6787SOL    HW131823   3.761   4.277  12.503 -0.2132  0.1864 -1.2789
 6787SOL    HW231824   3.617   4.300  12.479 -0.3232 -1.4800 -0.3031
 6788SOL     OW31825   4.112   0.645   5.162 -0.1932 -0.2541 -0.1193
 6788SOL    HW131826   4.044   0.702   5.198 -0.6396 -0.3730 -0.7786
 6788SOL    HW231827   4.054   0.575   5.131 -1.2034  0.3747  0.3205
 6789SOL     OW31828   1.141   3.419   2.866 -0.0073 -0.1425 -0.8560
 6789SOL    HW131829   1.135   3.428   2.771 -1.8086 -0.1400 -0.7593
 6789SOL    HW231830   1.143   3.510   2.896  0.8523 -0.2701 -0.5400
 6790SOL     OW31831   0.635   2.183   5.651  0.2590 -0.2829 -0.1386
 6790SOL    HW131832   0.546   2.149   5.643 -0.6586  2.0143  0.2987
 6790SOL    HW231833   0.662   2.169   5.560 -2.5210 -0.9979 -0.8487
 6791SOL     OW31834   2.332   3.628  13.943  0.3981  0.3927 -0.3949
 6791SOL    HW131835   2.404   3.662  13.995 -0.5962  1.8604  0.0376
 6791SOL    HW231836   2.363   3.538  13.930  0.2206  0.3235 -0.3513
 6792SOL     OW31837   2.686   4.696   3.870 -0.3305 -0.0346  0.3657
 6792SOL    HW131838   2.702   0.050   3.808  0.7095 -0.0216  0.6580
 6792SOL    HW231839   2.776   4.663   3.875 -0.3355 -0.1910 -0.4541
 6793SOL     OW31840   0.977   1.892   6.422 -0.2820  0.5258  0.4969
 6793SOL    HW131841   1.028   1.857   6.495  0.0319  0.1084  0.0681
 6793SOL    HW231842   0.989   1.821   6.360 -0.3530  0.5420  0.4646
 6794SOL     OW31843   1.143   3.549  13.794 -0.6383  0.5500 -0.8607
 6794SOL    HW131844   1.084   3.548  13.718 -2.2406  4.1504  0.3573
 6794SOL    HW231845   1.129   3.469  13.845 -3.4401  1.5053 -0.1241
 6795SOL     OW31846   3.485   4.190   2.319 -0.0786  0.4178  0.1865
 6795SOL    HW131847   3.395   4.221   2.332  0.0037  1.6883 -2.3937
 6795SOL    HW231848   3.486   4.169   2.226  2.3451  1.8374 -0.1115
 6796SOL     OW31849   3.948   2.604   2.326  0.4141  0.6742  0.2860
 6796SOL    HW131850   3.853   2.607   2.317  0.4378  3.1643  0.8490
 6796SOL    HW231851   3.976   2.514   2.308  0.9253  0.7832  0.5408
 6797SOL     OW31852   2.324   1.554   0.915 -0.5667 -0.3035  0.6097
 6797SOL    HW131853   2.359   1.633   0.874 -0.9501 -0.4570  0.0003
 6797SOL    HW231854   2.343   1.487   0.849 -0.2212  0.6346 -0.2286
 6798SOL     OW31855   1.096   3.659   6.406  0.4825  0.5935  0.8769
 6798SOL    HW131856   1.004   3.648   6.432  1.5084 -3.1191  2.8472
 6798SOL    HW231857   1.109   3.754   6.398  1.9030  0.1875 -1.5111
 6799SOL     OW31858   3.060   2.303   4.826  0.0502 -0.0505  0.0233
 6799SOL    HW131859   2.987   2.248   4.853  0.6502 -0.8198  0.0679
 6799SOL    HW231860   3.043   2.304   4.732  0.0656 -0.7407  0.0183
 6800SOL     OW31861   3.873   0.349  11.305 -0.0033 -0.0931  0.2243
 6800SOL    HW131862   3.789   0.304  11.306  0.0515 -0.2088 -1.7720
 6800SOL    HW231863   3.851   0.426  11.358 -2.5793 -1.1138  0.6243
 6801SOL     OW31864   0.506   0.746  15.326 -0.6407 -0.1578  0.0493
 6801SOL    HW131865   0.506   0.762  15.420 -1.3749  0.0349  0.0144
 6801SOL    HW231866   0.414   0.722  15.317 -0.0912 -2.2764 -0.1198
 6802SOL     OW31867   0.464   4.236   1.304 -0.0162  0.0267  0.3412
 6802SOL    HW131868   0.477   4.287   1.224 -0.2831  1.7511  1.3787
 6802SOL    HW231869   0.370   4.219   1.299 -0.0323 -0.6006  2.9840
 6803SOL     OW31870   3.856   2.465   6.365  0.1808 -0.0395  0.0618
 6803SOL    HW131871   3.793   2.532   6.339  1.7080  0.9887 -0.9194
 6803SOL    HW231872   3.865   2.485   6.458  0.1859 -0.1620  0.0886
 6804SOL     OW31873   0.181   4.566   7.307 -0.1574 -0.7442 -0.2523
 6804SOL    HW131874   0.097   4.558   7.353 -0.2191 -1.0488 -0.4168
 6804SOL    HW231875   0.147   4.556   7.217 -1.2465 -0.7861  0.1600
 6805SOL     OW31876   2.325   1.368   8.325 -0.2510 -0.2928  0.1712
 6805SOL    HW131877   2.349   1.460   8.313 -1.4154 -0.0984 -0.6812
 6805SOL    HW231878   2.368   1.324   8.251 -0.3935 -3.6401  2.0755
 6806SOL     OW31879   4.426   4.024   2.845 -0.3435 -0.6673  0.0064
 6806SOL    HW131880   4.361   4.070   2.791 -0.8341  0.1958  1.3333
 6806SOL    HW231881   4.399   3.932   2.844  1.9894 -1.3499  0.0547
 6807SOL     OW31882   0.286   3.772   8.508 -0.0823  0.4682 -0.2634
 6807SOL    HW131883   0.283   3.707   8.438  0.0386 -1.4705  1.5560
 6807SOL    HW231884   0.206   3.821   8.487  0.3038  1.8649  1.5271
 6808SOL     OW31885   2.712   1.035   1.094 -0.0197 -0.0653 -0.3076
 6808SOL    HW131886   2.660   1.021   1.174  0.3343 -0.5638 -0.1680
 6808SOL    HW231887   2.644   1.009   1.032 -0.6231  0.0514  0.3006
 6809SOL     OW31888   3.214   2.922   6.201  0.4060  0.0520 -0.2541
 6809SOL    HW131889   3.292   2.951   6.248  0.0438  1.2189 -0.3845
 6809SOL    HW231890   3.134   2.941   6.250  0.5818 -0.5670  0.2753
 6810SOL     OW31891   3.641   0.339   4.450  0.1531 -0.0803  0.5002
 6810SOL    HW131892   3.605   0.384   4.374  1.7216  1.3747  0.6247
 6810SOL    HW231893   3.636   0.403   4.521 -0.0345 -0.2937  0.6812
 6811SOL     OW31894   0.111   3.109   5.253  0.5771 -0.0859  0.0946
 6811SOL    HW131895   0.186   3.081   5.201  0.2253 -0.7272 -0.0672
 6811SOL    HW231896   0.152   3.134   5.336  0.2214  1.5560 -0.2277
 6812SOL     OW31897   3.695   0.706   4.016 -0.0548  0.1043  0.9710
 6812SOL    HW131898   3.750   0.768   4.065  0.6802 -0.0750  0.3655
 6812SOL    HW231899   3.629   0.681   4.081 -1.8059  1.7885 -0.1716
 6813SOL     OW31900   2.078   2.451  15.909  0.5427 -0.3083 -0.3348
 6813SOL    HW131901   2.145   2.452  15.977 -0.4188 -0.8817  0.6288
 6813SOL    HW231902   2.003   2.415  15.957  1.2730 -0.4798  0.6605
 6814SOL     OW31903   3.878   1.347   2.136  0.2271  0.7342  0.2401
 6814SOL    HW131904   3.820   1.274   2.114  0.9764  0.9216 -2.3287
 6814SOL    HW231905   3.922   1.366   2.054 -0.9434  1.4350 -0.2269
 6815SOL     OW31906   4.674   4.232   9.665  0.1388 -1.0760 -0.0586
 6815SOL    HW131907   0.039   4.243   9.711 -0.6519  4.0736  0.1233
 6815SOL    HW231908   4.683   4.288   9.588  1.8216  1.1665  1.7804
 6816SOL     OW31909   0.496   4.255   2.915  0.5083 -0.3427  0.0874
 6816SOL    HW131910   0.501   4.163   2.889  0.1278 -0.2136 -0.4486
 6816SOL    HW231911   0.403   4.268   2.897  0.4489 -0.0330  0.6165
 6817SOL     OW31912   2.076   2.252  15.714  0.4005  0.0187  0.5663
 6817SOL    HW131913   2.124   2.275  15.634 -1.3842 -1.3960 -0.9005
 6817SOL    HW231914   2.070   2.343  15.741 -1.7441  0.1365 -0.3187
 6818SOL     OW31915   2.839   3.212   2.644 -0.0120  0.1932  0.3847
 6818SOL    HW131916   2.911   3.213   2.582 -0.6156 -1.1135 -0.3176
 6818SOL    HW231917   2.842   3.126   2.685  1.5272  1.0813  2.1718
 6819SOL     OW31918   4.358   0.053  15.979  0.3685  0.0152  0.3727
 6819SOL    HW131919   4.335   0.012  16.062  2.3863 -2.0990 -0.1092
 6819SOL    HW231920   4.418   0.120  16.012  2.0469 -1.1780 -0.2662
 6820SOL     OW31921   2.749   2.627   2.925  0.0386 -0.4115 -0.0222
 6820SOL    HW131922   2.757   2.605   2.832  0.9511 -1.6155  0.3473
 6820SOL    HW231923   2.833   2.600   2.961  0.1793 -0.7259 -0.5754
 6821SOL     OW31924   2.695   2.612   4.278  0.1670 -0.2883 -1.0380
 6821SOL    HW131925   2.635   2.583   4.209  0.8663 -0.4604 -1.5685
 6821SOL    HW231926   2.658   2.699   4.289  0.0999 -0.9594  4.0954
 6822SOL     OW31927   4.208   3.726   6.256  0.3415  0.2365 -0.1141
 6822SOL    HW131928   4.262   3.744   6.179 -0.3613  1.7566 -0.2684
 6822SOL    HW231929   4.122   3.697   6.225 -0.4540  2.0602  0.4016
 6823SOL     OW31930   4.145   3.762  14.535 -0.1551 -0.1363 -0.2972
 6823SOL    HW131931   4.113   3.829  14.596  2.4404  0.8432 -0.0027
 6823SOL    HW231932   4.239   3.745  14.548 -0.1258 -0.4173 -0.8925
 6824SOL     OW31933   3.391   2.447   2.153 -0.4079 -0.4079  0.1239
 6824SOL    HW131934   3.301   2.423   2.133  0.1691 -3.1725  0.7828
 6824SOL    HW231935   3.400   2.406   2.239 -0.5428 -3.3333 -1.2681
 6825SOL     OW31936   2.010   0.652   6.151  0.0153  0.4347 -0.1961
 6825SOL    HW131937   1.931   0.706   6.152 -0.2374  0.0691 -0.3183
 6825SOL    HW231938   2.051   0.684   6.071 -0.8247  0.4231 -0.6257
 6826SOL     OW31939   2.130   2.474   6.140  0.2171 -0.7126 -0.1188
 6826SOL    HW131940   2.097   2.407   6.201 -1.4221  0.2447  0.0572
 6826SOL    HW231941   2.222   2.478   6.167 -0.3604 -0.0689  1.7482
 6827SOL     OW31942   0.285   0.222   1.873  0.2440 -0.2095  0.2217
 6827SOL    HW131943   0.227   0.204   1.947 -0.7238  0.0321 -0.4765
 6827SOL    HW231944   0.234   0.178   1.805 -0.6596  0.6347  0.3543
 6828SOL     OW31945   1.947   1.879   0.565  0.5035  0.0920 -0.1897
 6828SOL    HW131946   1.963   1.929   0.485 -1.7394 -0.3920 -0.9711
 6828SOL    HW231947   1.853   1.863   0.550  0.4695 -0.3211  0.4507
 6829SOL     OW31948   3.755   0.814   8.207 -0.2802 -0.2134  0.4629
 6829SOL    HW131949   3.755   0.731   8.255 -2.2673  1.1494  2.8159
 6829SOL    HW231950   3.789   0.880   8.267  0.2890  0.4258 -0.5740
 6830SOL     OW31951   3.613   1.424  12.337  0.0613  0.1298  0.0520
 6830SOL    HW131952   3.544   1.473  12.292  0.3929  0.4255 -0.1346
 6830SOL    HW231953   3.640   1.372  12.261 -1.2814 -0.4218 -0.0427
 6831SOL     OW31954   0.094   1.950   8.930 -0.9293  0.2521  0.0477
 6831SOL    HW131955   0.121   1.951   9.021 -2.6261 -0.7844  0.5474
 6831SOL    HW231956   0.012   1.901   8.933 -0.5963 -0.2589  0.8588
 6832SOL     OW31957   0.575   1.960  10.589 -0.1063 -0.1076 -0.2037
 6832SOL    HW131958   0.522   2.013  10.531 -1.1183  1.2495  1.9584
 6832SOL    HW231959   0.591   2.024  10.659 -0.6017 -3.0539  2.6205
 6833SOL     OW31960   4.675   2.033  13.640 -0.2032 -0.2910  0.3206
 6833SOL    HW131961   4.716   2.106  13.687 -1.3613  0.2776  0.4676
 6833SOL    HW231962   0.012   1.965  13.678 -0.0790 -1.4713 -1.9731
 6834SOL     OW31963   3.019   3.670   8.893  0.1868  0.5567  0.4383
 6834SOL    HW131964   3.065   3.701   8.815 -1.3280 -1.8283 -1.3760
 6834SOL    HW231965   2.940   3.725   8.884 -1.0031 -1.4515 -1.3654
 6835SOL     OW31966   2.554   0.656   6.226  0.5243 -0.1733  0.6486
 6835SOL    HW131967   2.575   0.582   6.284 -0.2960 -1.6884 -0.9812
 6835SOL    HW231968   2.595   0.728   6.274  0.8722 -0.3699  0.6448
 6836SOL     OW31969   0.611   3.303  17.468 -0.1562 -0.3317 -0.5813
 6836SOL    HW131970   0.699   3.268  17.450  0.2224  0.8893 -1.1249
 6836SOL    HW231971   0.618   3.399  17.468 -0.5351 -0.3013  0.6667
 6837SOL     OW31972   4.638   1.012   2.789  0.1825  0.1557 -0.0934
 6837SOL    HW131973   4.559   1.067   2.796  1.0316  1.2639  0.8589
 6837SOL    HW231974   4.635   0.973   2.877  0.9536 -1.8983 -0.9901
 6838SOL     OW31975   4.391   1.957  16.423  0.0275  0.0181  0.0615
 6838SOL    HW131976   4.403   1.863  16.434  1.7053  0.2003 -0.1325
 6838SOL    HW231977   4.345   1.986  16.502 -0.0074  2.6513 -0.9067
 6839SOL     OW31978   1.007   0.098   4.691 -0.4288  0.0131  0.0288
 6839SOL    HW131979   1.090   0.096   4.644 -0.4462  1.1057 -0.0604
 6839SOL    HW231980   0.950   0.089   4.615 -1.0270 -0.1768  0.4930
 6840SOL     OW31981   4.592   4.344  10.667  0.1905  0.0007 -0.0542
 6840SOL    HW131982   4.660   4.309  10.610 -0.4013  1.1136 -1.4260
 6840SOL    HW231983   4.518   4.357  10.609 -0.3621 -2.3188  0.1014
 6841SOL     OW31984   4.558   3.715   7.345  0.4136 -0.5603 -0.2977
 6841SOL    HW131985   4.611   3.676   7.415  1.2382  3.2069  1.1902
 6841SOL    HW231986   4.579   3.808   7.345 -4.0681  0.4265 -3.7184
 6842SOL     OW31987   3.071   0.238  10.385  0.0588  0.0675 -0.3672
 6842SOL    HW131988   3.120   0.272  10.461  1.5967 -1.7102 -0.5417
 6842SOL    HW231989   3.103   0.148  10.373  1.2172  0.4931 -0.4915
 6843SOL     OW31990   3.197   2.025   2.022  0.3859 -0.1152  0.0727
 6843SOL    HW131991   3.259   2.065   2.083  1.7756  0.5253 -1.7742
 6843SOL    HW231992   3.253   1.967   1.970  0.4327  2.5384 -2.8326
 6844SOL     OW31993   1.350   4.437  14.839  0.0458 -0.0294  0.2601
 6844SOL    HW131994   1.261   4.450  14.871 -0.4187  0.1462 -1.1095
 6844SOL    HW231995   1.385   4.520  14.806  1.0760  0.2584  2.0753
 6845SOL     OW31996   1.373   1.179   6.185 -0.0216  0.2259  0.5622
 6845SOL    HW131997   1.360   1.250   6.122  0.1853  0.1676  0.4553
 6845SOL    HW231998   1.401   1.108   6.127 -0.2908  0.6318 -0.0632
 6846SOL     OW31999   4.396   0.930   9.288 -0.0985  0.1564 -0.6850
 6846SOL    HW132000   4.437   0.890   9.211 -1.8456  0.2450 -1.6526
 6846SOL    HW232001   4.304   0.904   9.280  0.3454 -1.3734 -0.7562
 6847SOL     OW32002   1.980   0.723  13.195  0.2939 -0.4135 -0.3099
 6847SOL    HW132003   1.886   0.708  13.192  0.0422  1.2187 -0.5373
 6847SOL    HW232004   2.002   0.780  13.122  3.2589 -0.1579  0.7524
 6848SOL     OW32005   0.283   3.170   5.460  0.0039 -0.2480 -0.3585
 6848SOL    HW132006   0.305   3.109   5.530 -1.4101 -0.1399  0.1827
 6848SOL    HW232007   0.276   3.248   5.516 -1.6131 -0.7230  0.1025
 6849SOL     OW32008   1.124   3.771   4.622 -0.0788 -0.1088  0.9686
 6849SOL    HW132009   1.167   3.774   4.707  1.6313  1.7300  0.0276
 6849SOL    HW232010   1.204   3.758   4.571  0.2093  2.1469  0.8593
 6850SOL     OW32011   1.703   0.226  13.597  0.1469 -0.4983  0.2087
 6850SOL    HW132012   1.780   0.251  13.545  1.2512 -0.7653  1.6906
 6850SOL    HW232013   1.692   0.314  13.633  3.5126 -0.6360  1.6383
 6851SOL     OW32014   2.938   3.822   3.818 -0.0565  1.0805 -0.0312
 6851SOL    HW132015   2.852   3.792   3.845 -0.2408  0.6477 -1.0769
 6851SOL    HW232016   2.920   3.838   3.725 -1.3919  0.3957  0.1235
 6852SOL     OW32017   3.592   2.283   2.032 -0.1752  0.2074  0.3416
 6852SOL    HW132018   3.545   2.260   1.952  1.3716 -1.6597 -0.0169
 6852SOL    HW232019   3.528   2.339   2.075 -0.7067  1.6371 -2.3267
 6853SOL     OW32020   1.753   3.965   2.287 -0.0639  0.6898 -0.0887
 6853SOL    HW132021   1.734   4.034   2.351  0.1951  1.5134 -0.8963
 6853SOL    HW232022   1.667   3.945   2.251  0.1961  0.1262 -0.3983
 6854SOL     OW32023   1.961   0.903   7.124 -0.4907 -0.3028  0.0265
 6854SOL    HW132024   1.885   0.916   7.067 -2.2112  0.4271  2.4870
 6854SOL    HW232025   2.025   0.970   7.100 -0.9146 -0.1172 -0.5790
 6855SOL     OW32026   1.280   2.830   7.079  0.0525  0.7889  0.0142
 6855SOL    HW132027   1.293   2.762   7.145  1.6745  0.1589 -0.9551
 6855SOL    HW232028   1.189   2.857   7.094  0.1157  1.3066 -0.5315
 6856SOL     OW32029   0.433   2.346  14.335  0.1052  0.4181  0.0220
 6856SOL    HW132030   0.365   2.337  14.402  2.2055  0.6759  2.1802
 6856SOL    HW232031   0.507   2.290  14.358  1.5360  2.1265 -0.4649
 6857SOL     OW32032   2.925   1.366   4.740  0.5136 -0.4770  0.1824
 6857SOL    HW132033   2.837   1.369   4.703  1.3131 -1.4958 -1.7651
 6857SOL    HW232034   2.982   1.407   4.676  1.3695  1.3654  2.1304
 6858SOL     OW32035   2.176   3.447   1.005 -0.2486 -0.3840  0.2259
 6858SOL    HW132036   2.125   3.399   0.940 -0.6606  0.2553  0.0773
 6858SOL    HW232037   2.188   3.381   1.072 -2.9933  0.1576  1.2451
 6859SOL     OW32038   1.208   0.465   5.778 -0.5239  0.1506  0.1045
 6859SOL    HW132039   1.230   0.457   5.871  0.3198 -0.3212 -0.1412
 6859SOL    HW232040   1.171   0.554   5.775 -0.3180  0.1867 -1.4157
 6860SOL     OW32041   0.168   1.922   3.950 -0.0227  0.3261  0.7397
 6860SOL    HW132042   0.085   1.899   3.991  0.5821  0.0620  1.8198
 6860SOL    HW232043   0.152   2.013   3.927  0.7128 -0.1570 -1.6340
 6861SOL     OW32044   1.921   0.160  12.902  0.4823 -0.6999 -0.5752
 6861SOL    HW132045   1.891   0.161  12.811 -1.6017 -0.7078  0.1018
 6861SOL    HW232046   1.841   0.146  12.953 -0.3911  0.0051 -1.7446
 6862SOL     OW32047   2.287   2.975  14.175 -0.3484  0.3064  0.5277
 6862SOL    HW132048   2.233   2.996  14.099  0.2619  3.8951  1.0720
 6862SOL    HW232049   2.221   2.925  14.223  0.4974 -1.3017  0.0137
 6863SOL     OW32050   3.322   0.374   7.619  0.7541  0.0467 -0.5733
 6863SOL    HW132051   3.271   0.358   7.540 -0.3265 -0.7149  0.2749
 6863SOL    HW232052   3.415   0.379   7.596  0.0168 -0.6674 -3.6284
 6864SOL     OW32053   0.722   1.443   2.618 -0.5497  0.0449  0.2448
 6864SOL    HW132054   0.758   1.397   2.541  3.2622  0.5269  1.7599
 6864SOL    HW232055   0.664   1.378   2.658 -0.8341  0.7355  0.9531
 6865SOL     OW32056   4.410   2.580   9.704  0.5613 -0.2680  0.0453
 6865SOL    HW132057   4.467   2.619   9.770  1.1444 -2.5066  0.8798
 6865SOL    HW232058   4.439   2.489   9.711 -1.1262 -0.7211  1.3281
 6866SOL     OW32059   3.950   0.595   6.337  0.1166  0.0208 -0.3066
 6866SOL    HW132060   4.039   0.592   6.372  1.2122  0.2819 -3.0827
 6866SOL    HW232061   3.921   0.506   6.357 -1.7509  0.5557 -0.6087
 6867SOL     OW32062   1.369   0.126  12.031 -0.2027  0.0061 -0.1029
 6867SOL    HW132063   1.373   0.045  11.980 -0.3354 -0.1861  0.1966
 6867SOL    HW232064   1.284   0.114  12.073  0.8616  0.8460  2.3075
 6868SOL     OW32065   1.785   1.342   1.482 -0.0126 -0.2747 -0.0526
 6868SOL    HW132066   1.842   1.332   1.558  1.4118 -1.1748 -1.2479
 6868SOL    HW232067   1.810   1.427   1.445 -0.3149  0.0480  0.4916
 6869SOL     OW32068   2.011   0.610   7.491 -0.0060  0.1085  1.0256
 6869SOL    HW132069   2.090   0.586   7.540  1.1658  0.8845 -0.4904
 6869SOL    HW232070   1.987   0.525   7.453  4.5348 -0.2282 -1.1281
 6870SOL     OW32071   4.635   0.657   4.656  0.2548  0.5043  0.3393
 6870SOL    HW132072   0.003   0.676   4.618 -1.3527  2.1146 -2.4445
 6870SOL    HW232073   4.656   0.671   4.749  0.0433  2.7013  0.0548
 6871SOL     OW32074   2.682   2.974   3.466 -0.0025  0.3303  0.2691
 6871SOL    HW132075   2.614   3.035   3.436  0.0963 -0.1706 -0.9691
 6871SOL    HW232076   2.759   3.029   3.454  0.7629 -0.5381  1.2684
 6872SOL     OW32077   2.406   4.674   8.253 -0.4479  0.4361 -0.0455
 6872SOL    HW132078   2.382   0.014   8.325  0.4487  1.3677 -0.4961
 6872SOL    HW232079   2.320   4.635   8.241 -1.7370  2.1935  3.6681
 6873SOL     OW32080   3.945   3.576  10.604 -0.3443  0.5728 -0.2473
 6873SOL    HW132081   3.996   3.632  10.545  0.8318 -0.8456 -0.5694
 6873SOL    HW232082   3.986   3.490  10.593 -0.2146  0.7358 -1.0138
 6874SOL     OW32083   2.958   2.263  13.234 -0.2203  0.0415  0.1821
 6874SOL    HW132084   2.972   2.203  13.307  1.2097  1.8468  1.4093
 6874SOL    HW232085   3.021   2.228  13.171 -0.4803  2.6719 -1.5296
 6875SOL     OW32086   2.890   1.553   5.192  0.1029  0.0898 -0.0429
 6875SOL    HW132087   2.873   1.505   5.273 -2.6613  0.9272 -0.1155
 6875SOL    HW232088   2.855   1.642   5.196  3.5041  1.5086 -1.4178
 6876SOL     OW32089   2.604   1.514   4.977 -0.2211  0.0619 -0.6205
 6876SOL    HW132090   2.611   1.555   5.063  1.8350 -0.4292 -0.5501
 6876SOL    HW232091   2.693   1.533   4.950 -0.7260  0.7581 -1.8023
 6877SOL     OW32092   3.148   3.672  12.742 -0.1065 -0.3204 -0.0218
 6877SOL    HW132093   3.129   3.713  12.826  2.8517 -0.5406  0.7515
 6877SOL    HW232094   3.098   3.591  12.754 -1.3767  0.5654  0.6650
 6878SOL     OW32095   4.077   4.646   4.091 -0.0587  0.2767 -0.2900
 6878SOL    HW132096   4.121   4.673   4.172 -0.7892  1.0418 -0.1522
 6878SOL    HW232097   4.124   4.566   4.069 -2.8759 -1.1085 -1.2467
 6879SOL     OW32098   2.196   4.620   5.198  0.0805 -0.2319  0.7596
 6879SOL    HW132099   2.137   4.640   5.125 -0.4603 -0.3704  1.1599
 6879SOL    HW232100   2.173   4.529   5.218  1.0599 -0.3219  1.4625
 6880SOL     OW32101   3.858   3.257   6.546 -0.0656  0.6183 -1.0033
 6880SOL    HW132102   3.911   3.334   6.567 -1.4267  1.7826 -1.8352
 6880SOL    HW232103   3.863   3.269   6.451  3.2117  1.6191 -0.7185
 6881SOL     OW32104   1.074   4.141   2.828  0.2590  0.4172 -0.1879
 6881SOL    HW132105   1.113   4.078   2.768 -0.2409  1.0343 -1.1594
 6881SOL    HW232106   0.980   4.124   2.831  0.1495  0.9112 -0.8385
 6882SOL     OW32107   3.258   2.818   2.337  0.1970  0.4536  0.0062
 6882SOL    HW132108   3.323   2.786   2.275 -1.7074  0.0781 -1.8421
 6882SOL    HW232109   3.181   2.772   2.302  1.1226 -2.4623  1.8288
 6883SOL     OW32110   3.129   3.115  10.077  0.2875 -0.1753 -0.3573
 6883SOL    HW132111   3.045   3.155  10.056  0.3584 -0.7068 -1.7048
 6883SOL    HW232112   3.185   3.146  10.005 -0.3177  0.3723 -0.5980
 6884SOL     OW32113   0.348   1.895   2.097 -0.2049  0.6138 -0.4829
 6884SOL    HW132114   0.341   1.806   2.062  2.2474  0.9647 -1.8150
 6884SOL    HW232115   0.425   1.911   2.043 -1.4242  1.5690 -1.9292
 6885SOL     OW32116   4.241   0.305   8.055 -0.2394  0.1720  0.2512
 6885SOL    HW132117   4.305   0.343   7.995 -0.2365  1.6181  1.2049
 6885SOL    HW232118   4.170   0.305   7.990  0.3837  0.4578 -0.4327
 6886SOL     OW32119   0.979   0.149   8.598  0.0609 -0.1371  0.2273
 6886SOL    HW132120   0.945   0.214   8.536  1.2234 -0.7795 -1.0786
 6886SOL    HW232121   1.012   0.081   8.538  1.0546 -0.2444  0.9000
 6887SOL     OW32122   3.995   0.685   4.152  0.3888  0.0056 -0.0988
 6887SOL    HW132123   4.028   0.749   4.215 -0.7476  0.5587 -0.0630
 6887SOL    HW232124   3.957   0.623   4.215  3.2261 -0.4266  1.1590
 6888SOL     OW32125   3.186   2.226   8.564 -0.1493  0.0953  0.2066
 6888SOL    HW132126   3.246   2.278   8.618  0.2938 -0.0948 -0.1065
 6888SOL    HW232127   3.108   2.240   8.618 -0.2164 -0.8788  0.3522
 6889SOL     OW32128   1.909   0.097   4.456  0.2918  0.0258 -0.0740
 6889SOL    HW132129   1.965   0.082   4.380  0.1318 -0.7650 -0.0389
 6889SOL    HW232130   1.896   0.189   4.433  2.6228 -0.1558 -2.1182
 6890SOL     OW32131   3.089   3.777   0.255 -0.2083 -0.6811  0.0613
 6890SOL    HW132132   3.078   3.863   0.215  0.5281  0.5581  2.5689
 6890SOL    HW232133   3.012   3.774   0.311  0.1443  1.2985  0.6305
 6891SOL     OW32134   2.648   2.429   4.743  0.5113 -0.7232  0.3738
 6891SOL    HW132135   2.614   2.496   4.802  0.5816 -1.8085  1.6460
 6891SOL    HW232136   2.609   2.458   4.661  0.1970 -0.5175  0.5940
 6892SOL     OW32137   2.324   1.149   4.438  0.1548 -0.2194 -0.0835
 6892SOL    HW132138   2.254   1.192   4.487  0.1528 -0.5005  0.1591
 6892SOL    HW232139   2.393   1.153   4.504  0.2198 -0.0043 -0.1645
 6893SOL     OW32140   1.269   4.295   7.444  0.2910 -0.2917 -0.1137
 6893SOL    HW132141   1.311   4.270   7.527 -1.8037 -0.3743  0.9117
 6893SOL    HW232142   1.200   4.229   7.451 -0.8332  0.7203 -1.6967
 6894SOL     OW32143   4.025   1.347   2.635  0.5159 -0.5207 -0.3923
 6894SOL    HW132144   4.107   1.296   2.632 -0.4564 -1.9449 -2.7860
 6894SOL    HW232145   4.054   1.416   2.695  1.0647 -1.2111  0.1381
 6895SOL     OW32146   3.110   2.563   2.717 -0.4276 -0.3847  0.3954
 6895SOL    HW132147   3.085   2.471   2.705 -0.1758 -0.4429  0.3153
 6895SOL    HW232148   3.054   2.600   2.650  1.5176  2.1634  0.1882
 6896SOL     OW32149   2.215   4.222  14.867 -0.3257 -0.0772  0.0340
 6896SOL    HW132150   2.174   4.203  14.783  2.1541 -0.5721 -1.0665
 6896SOL    HW232151   2.279   4.152  14.878  0.5513  0.6708 -0.3281
 6897SOL     OW32152   0.818   3.604   3.105  0.2066 -0.0945  0.2662
 6897SOL    HW132153   0.905   3.597   3.065 -0.8369  0.1948 -2.0650
 6897SOL    HW232154   0.769   3.580   3.026  2.6259  1.1842 -1.6307
 6898SOL     OW32155   3.781   2.880   2.692  0.0269  0.3472  0.2925
 6898SOL    HW132156   3.870   2.847   2.682 -0.4217 -0.5163 -0.9551
 6898SOL    HW232157   3.743   2.799   2.727  1.5861  0.0962  1.4161
 6899SOL     OW32158   4.268   0.281   1.338 -0.1199  0.2181  0.0337
 6899SOL    HW132159   4.184   0.276   1.294  1.0483 -2.1303 -1.9239
 6899SOL    HW232160   4.339   0.242   1.286 -0.5944 -0.0717 -0.3929
 6900SOL     OW32161   0.701   0.222   5.400  0.9562  0.2244 -0.5625
 6900SOL    HW132162   0.617   0.237   5.358  1.2700  1.2745 -0.8215
 6900SOL    HW232163   0.722   0.137   5.361  1.0376  0.7031 -1.5466
 6901SOL     OW32164   2.759   1.002   0.084  0.2292  0.2365  0.1835
 6901SOL    HW132165   2.721   1.069   0.027 -2.9058  0.2467  2.3022
 6901SOL    HW232166   2.697   1.001   0.157  0.6593 -1.8277  0.5125
 6902SOL     OW32167   3.637   4.200   8.973  0.4278 -0.0052 -0.4158
 6902SOL    HW132168   3.699   4.260   8.932 -0.2233  0.6270 -0.4875
 6902SOL    HW232169   3.677   4.179   9.057  0.7683  0.9517 -0.3403
 6903SOL     OW32170   3.023   4.041   7.430 -0.4751 -0.2208  0.0308
 6903SOL    HW132171   3.083   3.970   7.452 -1.3543 -1.4603 -1.5493
 6903SOL    HW232172   3.058   4.057   7.342 -3.8418  2.3350 -0.8697
 6904SOL     OW32173   2.088   4.632  10.130  0.0370 -0.8642  0.5808
 6904SOL    HW132174   2.018   4.675  10.179  0.1787 -0.2078  0.2025
 6904SOL    HW232175   2.156   4.699  10.138 -1.1176  0.3150  0.4742
 6905SOL     OW32176   4.061   2.322   6.225 -0.1034  0.0955 -0.2998
 6905SOL    HW132177   3.995   2.378   6.266  0.4997 -0.1602  1.0120
 6905SOL    HW232178   4.100   2.283   6.303 -0.9061  2.0860  1.0825
 6906SOL     OW32179   3.035   0.282  13.514  0.1227 -0.2574  0.1208
 6906SOL    HW132180   3.067   0.371  13.500  1.1421 -0.7979 -0.9625
 6906SOL    HW232181   2.998   0.270  13.427 -1.2558  0.4692  0.6138
 6907SOL     OW32182   1.962   1.788  14.188  0.8275  0.0581  0.1455
 6907SOL    HW132183   1.900   1.844  14.235  0.2017  1.9199 -2.8863
 6907SOL    HW232184   1.975   1.724  14.257  0.2654 -0.5636 -0.3326
 6908SOL     OW32185   2.237   1.558   0.598 -0.2470 -0.1357 -0.0419
 6908SOL    HW132186   2.304   1.493   0.620  0.3884  0.2864 -0.7332
 6908SOL    HW232187   2.247   1.636   0.653 -0.7564  0.1551 -0.3593
 6909SOL     OW32188   1.410   2.578   6.497 -0.2972  0.3994  0.2188
 6909SOL    HW132189   1.439   2.509   6.557 -1.0214 -0.7951 -0.7873
 6909SOL    HW232190   1.491   2.580   6.446 -0.2461  1.0891  0.3329
 6910SOL     OW32191   2.028   0.001   2.094 -0.2675  0.1382  0.2153
 6910SOL    HW132192   2.059   4.693   2.007  0.3189  3.5195 -0.5613
 6910SOL    HW232193   2.059   4.650   2.153  0.6449 -0.2453 -0.7236
 6911SOL     OW32194   4.260   4.093   7.751  0.0769  0.1845  0.4890
 6911SOL    HW132195   4.332   4.140   7.792  0.8300 -2.1996  1.9405
 6911SOL    HW232196   4.210   4.169   7.721  0.8995  0.0903 -1.0699
 6912SOL     OW32197   3.772   1.248  12.139  0.3555 -0.1859 -0.4435
 6912SOL    HW132198   3.851   1.207  12.105  1.4340  0.6550  1.0858
 6912SOL    HW232199   3.728   1.287  12.063 -0.8554 -1.2259 -0.2853
 6913SOL     OW32200   2.318   3.577   2.129  0.0104  0.4673  0.3949
 6913SOL    HW132201   2.261   3.622   2.067  0.0192  0.9562  0.7390
 6913SOL    HW232202   2.285   3.487   2.127 -0.0201  0.4937 -0.2982
 6914SOL     OW32203   3.268   3.653   3.227 -0.7160  0.3421 -0.0458
 6914SOL    HW132204   3.194   3.705   3.259 -0.9122  1.1641 -1.8767
 6914SOL    HW232205   3.262   3.580   3.289 -0.4974 -0.7443 -1.3178
 6915SOL     OW32206   0.163   2.201   3.920 -0.3361 -1.0694  0.2138
 6915SOL    HW132207   0.122   2.258   3.855  0.0263  0.6139  1.4512
 6915SOL    HW232208   0.236   2.258   3.947 -2.7625  2.3493 -0.4371
 6916SOL     OW32209   3.374   0.587   2.905 -0.2972 -0.1579  0.6136
 6916SOL    HW132210   3.366   0.662   2.964 -2.3275 -0.2499  0.4567
 6916SOL    HW232211   3.305   0.612   2.843 -0.5704  0.2740  1.0967
 6917SOL     OW32212   1.334   2.470   6.226 -0.2534 -0.0474 -0.0094
 6917SOL    HW132213   1.333   2.475   6.322  1.9314 -1.3545  0.0742
 6917SOL    HW232214   1.238   2.468   6.220 -0.2365  0.9272 -0.4781
 6918SOL     OW32215   2.914   4.349  10.552 -0.0617  0.7790 -0.1286
 6918SOL    HW132216   2.984   4.368  10.614 -0.3673  3.3915 -0.5568
 6918SOL    HW232217   2.835   4.369  10.603 -0.1270  1.7939 -0.6118
 6919SOL     OW32218   0.692   2.001   8.202  0.2938  0.2099 -0.1108
 6919SOL    HW132219   0.621   2.042   8.251 -0.6276 -0.5273 -0.8427
 6919SOL    HW232220   0.775   2.045   8.218  0.3941  1.0401 -2.9806
 6920SOL     OW32221   0.336   4.381   7.411  0.3252  0.0339 -0.1787
 6920SOL    HW132222   0.414   4.365   7.358 -0.4778  1.2857 -1.7252
 6920SOL    HW232223   0.300   4.462   7.376 -0.3361  0.4317  1.4117
 6921SOL     OW32224   4.375   3.615   8.744 -0.6038 -0.6656  0.3997
 6921SOL    HW132225   4.335   3.572   8.820  1.3169  0.4658  2.0651
 6921SOL    HW232226   4.325   3.583   8.669  1.3802  1.3619 -1.7716
 6922SOL     OW32227   1.872   0.805  16.021  0.3234 -0.0789  0.9489
 6922SOL    HW132228   1.808   0.795  16.092 -3.0475  0.3480 -2.0118
 6922SOL    HW232229   1.816   0.783  15.946  1.5883  1.0562 -0.3365
 6923SOL     OW32230   2.906   3.281   0.191  0.0590 -0.4662 -0.3806
 6923SOL    HW132231   2.969   3.343   0.228 -1.8819  0.3680  1.5330
 6923SOL    HW232232   2.903   3.310   0.100  1.1206  2.0705  0.3939
 6924SOL     OW32233   2.067   4.709  11.802  0.0919 -0.2331 -0.2458
 6924SOL    HW132234   2.022   0.025  11.725 -1.1283 -0.7819  0.2155
 6924SOL    HW232235   2.148   4.679  11.761  0.7713 -0.3779  1.2148
 6925SOL     OW32236   4.278   1.538  13.988  0.6519  0.2034 -0.1323
 6925SOL    HW132237   4.234   1.489  13.918 -2.3519  2.4913  0.1372
 6925SOL    HW232238   4.315   1.466  14.039  0.9436 -0.0111 -0.6468
 6926SOL     OW32239   4.136   2.584   6.365  0.1347 -0.2559 -0.3818
 6926SOL    HW132240   4.055   2.555   6.407  1.6858 -1.1562  2.0400
 6926SOL    HW232241   4.134   2.679   6.376  2.8647 -0.1929 -0.3661
 6927SOL     OW32242   2.325   2.556   2.686 -0.2765  0.0015  0.0770
 6927SOL    HW132243   2.402   2.604   2.655 -1.1413  0.9288 -0.6046
 6927SOL    HW232244   2.320   2.494   2.614 -0.0136 -0.3818  0.3873
 6928SOL     OW32245   2.989   0.673   5.399  0.6551  0.0506  1.0806
 6928SOL    HW132246   2.905   0.703   5.434  1.0483  0.3219  1.7904
 6928SOL    HW232247   2.982   0.710   5.311  4.5752 -0.6136  0.5134
 6929SOL     OW32248   2.750   3.594  16.762  0.2221 -0.4072  0.3781
 6929SOL    HW132249   2.779   3.685  16.767  1.2062 -0.7385  0.6871
 6929SOL    HW232250   2.831   3.553  16.731  0.3129  1.7347 -2.1812
 6930SOL     OW32251   3.637   2.688   3.001  0.6390 -0.0345 -0.5708
 6930SOL    HW132252   3.671   2.670   2.914 -2.1536 -1.4125 -1.3706
 6930SOL    HW232253   3.660   2.603   3.038  0.8145  0.5681  0.7039
 6931SOL     OW32254   0.610   2.300  14.658 -0.3703 -0.1085  0.0443
 6931SOL    HW132255   0.654   2.285  14.574 -0.5434 -2.2119  0.3457
 6931SOL    HW232256   0.522   2.332  14.634 -1.0084 -1.1530  1.0061
 6932SOL     OW32257   4.075   0.282   2.167  0.4695 -0.3293 -0.9921
 6932SOL    HW132258   3.981   0.293   2.159  0.6015  0.9716 -0.6604
 6932SOL    HW232259   4.089   0.307   2.258 -1.2762  0.0715 -0.8460
 6933SOL     OW32260   3.076   1.439   1.032 -0.1431  0.5128  0.4245
 6933SOL    HW132261   3.097   1.362   1.085 -0.8002  0.3246  0.4129
 6933SOL    HW232262   3.151   1.496   1.046  1.1971 -1.1788  0.1010
 6934SOL     OW32263   1.024   0.362   1.974 -0.7138 -0.0367 -0.0340
 6934SOL    HW132264   1.067   0.360   1.889 -1.6977 -0.9833 -0.5159
 6934SOL    HW232265   0.984   0.276   1.961 -0.1959 -0.0919 -1.2150
 6935SOL     OW32266   1.307   4.213   3.956 -0.4004  0.0142 -0.7663
 6935SOL    HW132267   1.402   4.216   3.954 -0.2436 -2.6780  1.3802
 6935SOL    HW232268   1.298   4.180   4.046 -0.3695  1.3298 -0.2778
 6936SOL     OW32269   3.086   1.324  16.724  0.1515  0.3721  0.2777
 6936SOL    HW132270   3.146   1.257  16.755 -1.3371 -1.8409 -1.6172
 6936SOL    HW232271   3.102   1.398  16.783 -1.0419  0.3475  0.6185
 6937SOL     OW32272   1.952   3.926   9.881  0.6192  0.4219  0.4637
 6937SOL    HW132273   2.021   3.876   9.926  1.9979 -1.4428 -3.7360
 6937SOL    HW232274   1.974   4.016   9.904 -0.5423  0.4294  1.5714
 6938SOL     OW32275   1.199   0.495   1.109 -0.4865 -0.0139  0.0175
 6938SOL    HW132276   1.206   0.554   1.184  2.2321  2.1339 -1.8939
 6938SOL    HW232277   1.289   0.513   1.081 -0.3514  1.1688  1.2088
 6939SOL     OW32278   2.825   4.287  12.027  0.0035  0.4209 -0.8595
 6939SOL    HW132279   2.900   4.253  11.980 -1.3943 -3.3605 -0.3893
 6939SOL    HW232280   2.855   4.306  12.116 -1.8221 -0.9761  0.0620
 6940SOL     OW32281   4.214   2.398   4.773  0.4230 -0.1189  0.6425
 6940SOL    HW132282   4.237   2.351   4.853  2.9389 -0.3585 -0.1963
 6940SOL    HW232283   4.204   2.488   4.805 -1.1195  0.1066 -0.4772
 6941SOL     OW32284   2.265   0.464   2.662 -0.7091 -0.5259 -0.6031
 6941SOL    HW132285   2.294   0.381   2.624 -1.2578 -0.8983 -0.2052
 6941SOL    HW232286   2.171   0.448   2.665 -0.6126 -0.9419  0.2076
 6942SOL     OW32287   2.523   3.398   7.877  0.6030 -0.3373  0.0324
 6942SOL    HW132288   2.501   3.487   7.850  0.0841 -0.3113  0.5279
 6942SOL    HW232289   2.476   3.340   7.817  0.2989 -0.7208  0.6302
 6943SOL     OW32290   4.458   2.034  10.487  0.0276 -0.3878 -0.0344
 6943SOL    HW132291   4.480   1.951  10.530 -2.5409 -0.1996  1.5995
 6943SOL    HW232292   4.374   2.046  10.531  0.5157  1.4296  0.4362
 6944SOL     OW32293   2.663   4.570   5.284  0.0397  0.6821  0.4400
 6944SOL    HW132294   2.595   4.600   5.224 -2.2460 -1.1845  2.0817
 6944SOL    HW232295   2.603   4.532   5.348 -1.2944  4.0339  1.1971
 6945SOL     OW32296   0.573   3.252   7.565  0.0336  0.6116  0.0007
 6945SOL    HW132297   0.621   3.197   7.628 -1.7313 -2.2101 -1.1293
 6945SOL    HW232298   0.608   3.338   7.589  0.3687  0.5560 -0.2996
 6946SOL     OW32299   0.221   3.306   3.497 -0.0123  0.1125 -0.3915
 6946SOL    HW132300   0.131   3.301   3.528 -1.1493  1.5306 -3.3971
 6946SOL    HW232301   0.271   3.288   3.576  1.0974 -0.4733 -1.2204
 6947SOL     OW32302   2.271   4.113   6.426  0.1231 -0.0208  0.1638
 6947SOL    HW132303   2.298   4.045   6.365 -0.2340 -0.1440  0.1427
 6947SOL    HW232304   2.249   4.187   6.369  0.9582 -1.5037 -2.0807
 6948SOL     OW32305   3.829   1.857  12.694 -0.6964 -0.7598 -0.0271
 6948SOL    HW132306   3.856   1.939  12.733  1.8867 -2.1819  1.1751
 6948SOL    HW232307   3.754   1.886  12.641  0.4013  2.3963  0.1667
 6949SOL     OW32308   1.229   3.744   6.025 -0.1262  0.0055 -0.0872
 6949SOL    HW132309   1.206   3.825   6.070 -1.3779 -0.4937  0.1431
 6949SOL    HW232310   1.195   3.675   6.082  1.2787 -0.1476  0.5727
 6950SOL     OW32311   1.262   0.599   3.835 -0.2338 -0.4146  0.1464
 6950SOL    HW132312   1.204   0.565   3.902 -0.8314 -0.3553 -0.3486
 6950SOL    HW232313   1.331   0.533   3.838 -1.1820 -1.4009 -0.1090
 6951SOL     OW32314   0.094   2.277  17.443  0.3237  0.3521 -0.3380
 6951SOL    HW132315   0.075   2.358  17.490  0.0657  0.1705 -0.1292
 6951SOL    HW232316   0.056   2.213  17.503  1.4101  1.3498  1.4190
 6952SOL     OW32317   3.304   1.420   2.299  0.0410 -0.4355  0.6015
 6952SOL    HW132318   3.386   1.450   2.337  0.9938 -1.5386 -0.6088
 6952SOL    HW232319   3.237   1.440   2.364 -0.9482  0.9698 -0.8338
 6953SOL     OW32320   1.719   2.900   4.870 -0.3098  0.0541  0.1688
 6953SOL    HW132321   1.794   2.951   4.902 -0.3089 -0.0374  0.3144
 6953SOL    HW232322   1.652   2.894   4.939 -0.8031  0.1413 -0.3021
 6954SOL     OW32323   3.863   2.653   6.579 -0.9594 -0.1515  0.2376
 6954SOL    HW132324   3.818   2.701   6.649 -1.4418 -0.1302 -0.0870
 6954SOL    HW232325   3.875   2.728   6.520  1.1193 -0.6421  0.0371
 6955SOL     OW32326   4.210   1.647   5.251 -0.3846  0.3843 -0.0761
 6955SOL    HW132327   4.244   1.605   5.172  0.6136  1.5781 -0.2800
 6955SOL    HW232328   4.300   1.654   5.285 -0.3504 -0.9512  0.1253
 6956SOL     OW32329   1.722   1.149  10.833 -0.3009  0.5827  0.1404
 6956SOL    HW132330   1.710   1.138  10.927  0.6664 -0.2650  0.1649
 6956SOL    HW232331   1.781   1.224  10.834 -0.9906  1.1113  1.0147
 6957SOL     OW32332   0.198   0.826  11.147 -0.4029  0.6488  0.6406
 6957SOL    HW132333   0.274   0.833  11.090 -0.0626 -0.4276  0.9559
 6957SOL    HW232334   0.237   0.860  11.228 -0.2046 -2.2333  1.7714
 6958SOL     OW32335   4.078   3.272  10.097  0.2427  0.2442  0.0368
 6958SOL    HW132336   4.071   3.337  10.167 -0.4199 -0.4570  0.6234
 6958SOL    HW232337   4.017   3.309  10.033  0.6483 -1.3321 -1.2838
 6959SOL     OW32338   1.468   1.105  14.946  0.5646 -0.4999  0.1282
 6959SOL    HW132339   1.541   1.165  14.963 -0.6934  1.5088 -1.6037
 6959SOL    HW232340   1.453   1.116  14.852  1.6072 -1.9727 -0.2201
 6960SOL     OW32341   2.936   0.386   4.101  0.0774  0.3806 -0.1301
 6960SOL    HW132342   2.846   0.383   4.069 -0.1831 -2.5309  0.7972
 6960SOL    HW232343   2.979   0.341   4.028 -1.1123  0.5728 -0.9566
 6961SOL     OW32344   3.879   0.233  11.051 -0.1496 -0.7535 -0.5059
 6961SOL    HW132345   3.902   0.264  11.139 -3.2832  2.8060 -0.9189
 6961SOL    HW232346   3.788   0.204  11.064 -0.0619 -0.7932  0.0285
 6962SOL     OW32347   0.519   0.424  10.287 -0.0785  0.3803 -0.0093
 6962SOL    HW132348   0.501   0.518  10.296 -0.9258  0.0552  1.6539
 6962SOL    HW232349   0.591   0.432  10.224 -0.4142 -0.2289 -0.4749
 6963SOL     OW32350   3.427   1.966   9.368 -0.3698  0.0109  0.5596
 6963SOL    HW132351   3.374   1.892   9.398  1.2298 -1.3713  0.0180
 6963SOL    HW232352   3.368   1.998   9.301 -0.6416  1.0214  1.2859
 6964SOL     OW32353   3.046   1.434   7.841  0.2622 -0.3722  0.3534
 6964SOL    HW132354   3.057   1.527   7.859  1.8910  0.1773 -3.5413
 6964SOL    HW232355   2.986   1.430   7.766  0.5280  0.0159  0.1229
 6965SOL     OW32356   0.193   4.313   2.365  0.6704  0.1612 -0.6113
 6965SOL    HW132357   0.121   4.375   2.362  0.6222  0.1672  0.7540
 6965SOL    HW232358   0.183   4.266   2.448  1.2569 -0.5628 -0.9480
 6966SOL     OW32359   2.413   0.737   1.315 -0.9256 -0.8096  0.2766
 6966SOL    HW132360   2.322   0.740   1.344 -0.5260  3.8881  0.9778
 6966SOL    HW232361   2.389   0.671   1.250 -1.5880 -0.3223  0.0204
 6967SOL     OW32362   0.896   2.622   4.794 -0.0933 -0.1245 -0.0789
 6967SOL    HW132363   0.817   2.672   4.776 -0.3111  0.0600  1.3574
 6967SOL    HW232364   0.923   2.673   4.871 -0.8340  0.1536 -0.0045
 6968SOL     OW32365   0.873   2.533  16.360 -0.6668  0.0901  0.4005
 6968SOL    HW132366   0.924   2.541  16.279  1.2241  1.3968  1.7094
 6968SOL    HW232367   0.899   2.609  16.413 -0.5043  0.8482 -0.7705
 6969SOL     OW32368   0.805   1.152   3.408 -0.2241 -0.1903 -0.5476
 6969SOL    HW132369   0.840   1.163   3.496  0.4970  0.8768 -0.9693
 6969SOL    HW232370   0.719   1.120   3.437 -0.0636 -0.8047 -0.7496
 6970SOL     OW32371   3.142   1.189   7.395 -0.1236  0.0385  0.2196
 6970SOL    HW132372   3.184   1.132   7.459  1.7609  0.2005 -0.8674
 6970SOL    HW232373   3.105   1.117   7.343  0.7041 -0.3789  0.2172
 6971SOL     OW32374   1.245   3.626  14.878  0.1970  0.3954  0.4366
 6971SOL    HW132375   1.296   3.547  14.862  0.2748  1.1406 -3.0491
 6971SOL    HW232376   1.173   3.615  14.816  1.7159  0.6229 -1.3919
 6972SOL     OW32377   1.324   1.354   5.973 -0.0723 -0.6191 -0.1174
 6972SOL    HW132378   1.230   1.363   5.957  0.0304 -0.8586 -0.8678
 6972SOL    HW232379   1.350   1.325   5.885 -0.7577 -1.2393 -0.1184
 6973SOL     OW32380   3.287   3.928  11.000 -0.3139  0.6810  0.4043
 6973SOL    HW132381   3.207   3.971  10.969 -0.9682 -2.4148 -2.1582
 6973SOL    HW232382   3.338   3.906  10.922  0.8877  0.0758  1.3709
 6974SOL     OW32383   1.686   4.239   9.358  0.1472 -0.2666 -0.0679
 6974SOL    HW132384   1.780   4.239   9.377  0.7410 -0.8115 -3.0317
 6974SOL    HW232385   1.655   4.306   9.419  1.8497  0.5462 -0.0975
 6975SOL     OW32386   0.210   4.203   5.069 -1.5096  0.1349  0.7545
 6975SOL    HW132387   0.152   4.127   5.061 -0.2281 -0.5667 -2.1361
 6975SOL    HW232388   0.146   4.262   5.030 -0.8336  0.1731 -0.3166
 6976SOL     OW32389   3.002   1.396   2.056  0.2126 -0.5844  0.3316
 6976SOL    HW132390   2.954   1.464   2.104  0.4685  0.8166 -1.4080
 6976SOL    HW232391   3.081   1.448   2.045 -0.0055  0.0204  1.6377
 6977SOL     OW32392   3.546   4.454   9.232  0.2337  0.1786  0.6958
 6977SOL    HW132393   3.606   4.479   9.302 -0.0576  0.4474  0.8519
 6977SOL    HW232394   3.480   4.407   9.283 -0.8604  1.4379  0.4466
 6978SOL     OW32395   2.106   0.188   3.484  0.4475  0.6255  0.3644
 6978SOL    HW132396   2.110   0.177   3.389 -1.1031  0.4442  0.3056
 6978SOL    HW232397   2.196   0.177   3.511  0.4871  0.9775  0.3742
 6979SOL     OW32398   3.921   4.125  13.865 -0.4945  0.2955  0.5376
 6979SOL    HW132399   3.872   4.136  13.783 -0.3567  0.6463  0.4990
 6979SOL    HW232400   3.940   4.216  13.887  0.3447 -0.1892  1.7769
 6980SOL     OW32401   1.537   0.784   2.313 -0.5070  0.3209 -0.5453
 6980SOL    HW132402   1.444   0.806   2.302 -1.6758 -3.2965  2.2445
 6980SOL    HW232403   1.562   0.849   2.379 -1.1070 -0.5447  0.5327
 6981SOL     OW32404   1.005   4.119   5.838 -0.6301  0.6445 -0.4959
 6981SOL    HW132405   0.990   4.152   5.749 -2.0612 -2.2106 -1.3135
 6981SOL    HW232406   1.089   4.074   5.825 -1.8750 -0.9317 -3.1208
 6982SOL     OW32407   1.711   3.979   1.717 -0.2361  0.2088  0.1270
 6982SOL    HW132408   1.737   4.070   1.730 -1.6031  0.6042  0.0527
 6982SOL    HW232409   1.658   3.973   1.796  1.8402 -0.3361  1.4768
 6983SOL     OW32410   4.426   1.478  10.795 -0.4636 -0.3241 -0.0195
 6983SOL    HW132411   4.338   1.442  10.808 -0.8026  0.0776 -1.1758
 6983SOL    HW232412   4.420   1.480  10.700 -0.8449  1.7888  0.0473
 6984SOL     OW32413   4.647   0.423  17.095  0.1388  0.1149  1.0100
 6984SOL    HW132414   4.583   0.355  17.116  2.1551 -1.6744  1.3726
 6984SOL    HW232415   4.679   0.450  17.182 -1.8349  0.7207  1.5667
 6985SOL     OW32416   4.260   1.882   7.997  0.4781  0.2978  0.4002
 6985SOL    HW132417   4.242   1.923   7.912 -0.7549  0.8507  0.9370
 6985SOL    HW232418   4.198   1.810   8.007  2.0760 -1.2930 -1.0283
 6986SOL     OW32419   0.009   0.281  14.933  0.0441 -0.5162 -0.4115
 6986SOL    HW132420   4.715   0.359  14.987  1.3615  0.1268 -1.0530
 6986SOL    HW232421   4.651   0.292  14.876 -0.2426  0.8943  0.2527
 6987SOL     OW32422   2.249   1.889   0.086 -0.2578 -0.3066  0.3918
 6987SOL    HW132423   2.340   1.875   0.060  0.4973  1.3490  2.1165
 6987SOL    HW232424   2.247   1.832   0.163 -0.9671  0.8322  1.2080
 6988SOL     OW32425   4.395   3.018   1.940  0.2957 -0.2027 -0.0948
 6988SOL    HW132426   4.457   2.955   1.903 -1.4396 -0.6745 -2.2281
 6988SOL    HW232427   4.385   3.079   1.867 -0.6417 -0.8092 -0.4685
 6989SOL     OW32428   3.464   4.564  10.415  0.0254  0.3218  0.0535
 6989SOL    HW132429   3.393   4.599  10.361  0.0333  0.7419  0.3154
 6989SOL    HW232430   3.527   4.549  10.345  0.3474 -0.2056  0.4551
 6990SOL     OW32431   3.252   3.256   0.194 -0.5816 -0.5265 -0.1079
 6990SOL    HW132432   3.214   3.169   0.205  0.7253 -0.9906  0.6601
 6990SOL    HW232433   3.176   3.313   0.186 -0.4442 -0.0826  1.9039
 6991SOL     OW32434   3.991   1.814  12.235  0.0873 -0.5486  0.5727
 6991SOL    HW132435   4.035   1.734  12.206  2.5713  0.9788  0.1509
 6991SOL    HW232436   3.902   1.789  12.212 -0.0602  1.1083 -0.5983
 6992SOL     OW32437   3.800   3.224   8.349  0.0056  0.2729  0.7134
 6992SOL    HW132438   3.808   3.152   8.412  1.2253  1.2549  1.6747
 6992SOL    HW232439   3.706   3.213   8.336  0.2604 -1.0666 -0.0409
 6993SOL     OW32440   3.751   1.128   3.917  0.1216  0.4673 -0.0755
 6993SOL    HW132441   3.800   1.187   3.975 -0.2720 -0.6166  1.3308
 6993SOL    HW232442   3.746   1.053   3.976 -1.4162 -0.8132 -1.8410
 6994SOL     OW32443   0.812   4.365   6.985  0.3047  0.2257 -0.3228
 6994SOL    HW132444   0.826   4.271   7.001 -0.1243 -0.1170 -1.9224
 6994SOL    HW232445   0.851   4.410   7.059 -0.7244  1.0249 -0.2775
 6995SOL     OW32446   2.273   0.007   6.595 -0.3213  0.0758  0.2349
 6995SOL    HW132447   2.274   0.054   6.512 -0.1200 -0.0880  0.1461
 6995SOL    HW232448   2.202   4.660   6.588 -0.6691  0.5609 -0.6802
 6996SOL     OW32449   0.143   2.026   5.203  0.1073  0.0674  0.0191
 6996SOL    HW132450   0.214   1.962   5.213 -0.8286 -0.7469  1.5601
 6996SOL    HW232451   0.073   1.968   5.233  2.4337 -1.8284  1.7839
 6997SOL     OW32452   4.162   1.985   5.641 -0.3651  0.1836  0.4444
 6997SOL    HW132453   4.073   2.018   5.630 -0.3016  0.3713  0.4954
 6997SOL    HW232454   4.218   2.062   5.649 -0.2012  0.0174  0.9074
 6998SOL     OW32455   4.241   0.833  14.690  0.2700 -0.1343  0.0001
 6998SOL    HW132456   4.295   0.754  14.686 -0.2243 -0.4923  0.3497
 6998SOL    HW232457   4.301   0.888  14.640  0.2062 -0.5077 -0.4903
 6999SOL     OW32458   2.601   1.306   0.534 -0.1327  0.6073  0.5418
 6999SOL    HW132459   2.658   1.302   0.457 -2.2537 -0.6324 -0.9744
 6999SOL    HW232460   2.663   1.317   0.606  0.2334 -1.5294  0.5567
 7000SOL     OW32461   1.880   4.697   5.313 -0.1055  0.8120  0.5164
 7000SOL    HW132462   1.911   0.023   5.234  0.6208 -0.8732 -0.1094
 7000SOL    HW232463   1.832   0.054   5.350 -0.3028  0.2968  1.3051
 7001SOL     OW32464   2.110   3.941  11.594  0.3385 -0.7603 -0.3455
 7001SOL    HW132465   2.096   4.033  11.575  3.1320 -0.2130  0.3192
 7001SOL    HW232466   2.049   3.917  11.664  1.1604  1.6661  1.2150
 7002SOL     OW32467   3.508   3.657  16.332 -0.5805  0.4662 -0.0865
 7002SOL    HW132468   3.525   3.740  16.286 -1.1986  1.7897  2.0669
 7002SOL    HW232469   3.414   3.646  16.322 -0.3228 -1.3002 -0.5621
 7003SOL     OW32470   4.096   3.772  10.452  0.3392 -0.2456 -0.0904
 7003SOL    HW132471   4.144   3.777  10.370  1.3431  1.1043  0.5801
 7003SOL    HW232472   4.178   3.787  10.499 -0.2653  0.6215  0.6814
 7004SOL     OW32473   3.543   4.117   2.999 -0.6845 -0.4544 -0.1493
 7004SOL    HW132474   3.450   4.134   2.984 -1.2298 -3.3922 -0.0765
 7004SOL    HW232475   3.563   4.057   2.927  2.3119  0.8063 -0.3544
 7005SOL     OW32476   1.681   0.236   3.056  0.6240  0.1884  0.5436
 7005SOL    HW132477   1.726   0.239   3.141  0.4406  0.3326  0.6329
 7005SOL    HW232478   1.693   0.141   3.050 -3.2353 -0.2237 -0.3257
 7006SOL     OW32479   3.258   1.051   7.631  0.3523  0.3015  0.5027
 7006SOL    HW132480   3.235   0.959   7.619 -2.5910  1.1968 -0.7655
 7006SOL    HW232481   3.216   1.075   7.713 -1.6862  2.4242 -1.1207
 7007SOL     OW32482   1.342   2.317   0.766 -0.5862 -0.6266  0.6449
 7007SOL    HW132483   1.319   2.374   0.693 -0.9624  1.5412  2.4776
 7007SOL    HW232484   1.253   2.303   0.800 -0.9531 -0.5742 -0.2764
 7008SOL     OW32485   0.437   3.109   9.519 -0.3433  0.0746 -0.3665
 7008SOL    HW132486   0.407   3.049   9.451 -0.6898 -0.6715  0.4298
 7008SOL    HW232487   0.398   3.192   9.493 -1.0766 -0.5697 -1.3253
 7009SOL     OW32488   1.701   0.801   8.801  0.2506 -0.0718 -0.2417
 7009SOL    HW132489   1.754   0.781   8.725  0.0687 -2.9819  0.3911
 7009SOL    HW232490   1.622   0.748   8.789 -0.0833  0.5353 -0.7256
 7010SOL     OW32491   1.153   0.284  15.237  0.3112  1.1942  0.0151
 7010SOL    HW132492   1.171   0.325  15.321  0.3480 -0.4549  0.8145
 7010SOL    HW232493   1.231   0.306  15.187 -0.0225 -0.4343 -1.2285
 7011SOL     OW32494   2.480   1.648   3.467  0.3392  0.3454  0.6117
 7011SOL    HW132495   2.527   1.603   3.537  0.5274 -1.7051 -0.8238
 7011SOL    HW232496   2.387   1.647   3.491 -0.1727 -2.0881 -1.5214
 7012SOL     OW32497   1.825   4.184   4.717 -0.6335 -0.3465  0.1586
 7012SOL    HW132498   1.895   4.155   4.658  1.0554 -0.0255  2.0092
 7012SOL    HW232499   1.842   4.278   4.706 -2.7868 -0.0011 -0.2586
 7013SOL     OW32500   4.386   0.974   8.524 -0.7161 -0.1544  0.1520
 7013SOL    HW132501   4.402   1.068   8.530  0.7551 -0.4317  0.6633
 7013SOL    HW232502   4.419   0.951   8.437  1.4912  0.6317  0.7687
 7014SOL     OW32503   2.824   0.862   7.419 -0.0580  0.0656 -0.1443
 7014SOL    HW132504   2.844   0.881   7.511 -1.4326 -1.9090  0.5479
 7014SOL    HW232505   2.739   0.907   7.418 -0.5541 -0.9091 -1.3146
 7015SOL     OW32506   3.347   3.284  17.404 -0.7209  0.4086 -0.3812
 7015SOL    HW132507   3.261   3.310  17.437 -1.5742  0.7523 -2.8996
 7015SOL    HW232508   3.395   3.276  17.487 -0.7609 -1.8509 -0.5824
 7016SOL     OW32509   1.992   0.036   5.771  0.3147 -0.7863 -0.1646
 7016SOL    HW132510   2.056   4.683   5.765  0.9057 -0.2227 -0.4296
 7016SOL    HW232511   2.013   0.055   5.863  1.1904  1.1032 -0.7585
 7017SOL     OW32512   2.568   1.683  17.232 -0.1923  0.1530 -0.5755
 7017SOL    HW132513   2.654   1.650  17.259 -0.4613  0.3055  0.4610
 7017SOL    HW232514   2.518   1.671  17.313 -1.3704  2.0703 -1.0217
 7018SOL     OW32515   0.133   3.867   7.862 -0.2752  0.2265  0.4124
 7018SOL    HW132516   0.125   3.772   7.870 -0.0172  0.1545 -0.1089
 7018SOL    HW232517   0.178   3.878   7.946  1.2541  0.0444 -0.3680
 7019SOL     OW32518   2.575   1.427  16.894 -0.0466  0.0677 -0.0071
 7019SOL    HW132519   2.567   1.359  16.961  2.0419  0.3056  0.4771
 7019SOL    HW232520   2.666   1.455  16.898 -0.2392  0.4477  1.7249
 7020SOL     OW32521   4.652   2.128   4.778  0.7680 -0.0315 -0.1615
 7020SOL    HW132522   4.706   2.115   4.700 -0.6461  0.0817 -1.1667
 7020SOL    HW232523   4.601   2.046   4.777  0.1654  0.3435 -0.4462
 7021SOL     OW32524   3.564   2.538  14.032  0.0679 -0.0806 -0.1413
 7021SOL    HW132525   3.498   2.475  14.005 -0.5741 -0.1883  1.6980
 7021SOL    HW232526   3.546   2.610  13.971  0.1178 -1.4578 -1.7851
 7022SOL     OW32527   2.043   2.713   6.969  0.1456  0.5678 -0.0654
 7022SOL    HW132528   2.074   2.628   7.000 -0.8273  0.6888  1.2201
 7022SOL    HW232529   1.950   2.708   6.990  0.3719  1.2947  1.1455
 7023SOL     OW32530   3.059   1.188   4.871 -0.0779  0.3110  0.4822
 7023SOL    HW132531   3.055   1.132   4.793  0.3809  2.9207 -1.4130
 7023SOL    HW232532   3.010   1.259   4.830 -1.3595 -0.0098  1.4551
 7024SOL     OW32533   2.282   2.647   6.371 -0.0732  0.2915 -0.1011
 7024SOL    HW132534   2.277   2.576   6.435  2.2511  0.8214  0.6671
 7024SOL    HW232535   2.237   2.609   6.296  0.4053  0.4939 -0.4843
 7025SOL     OW32536   2.270   1.682  16.724  0.3566 -0.5632 -0.2005
 7025SOL    HW132537   2.284   1.651  16.635 -1.0859  1.2415 -1.0439
 7025SOL    HW232538   2.358   1.706  16.753 -0.6945 -0.1931  2.6631
 7026SOL     OW32539   3.236   1.105  16.765 -0.1165  0.1982 -0.0083
 7026SOL    HW132540   3.214   1.013  16.781 -0.5193  0.2252 -0.4070
 7026SOL    HW232541   3.307   1.094  16.702  0.6417 -0.2961  0.9309
 7027SOL     OW32542   3.680   1.779  12.902  0.1954 -0.3503  0.3664
 7027SOL    HW132543   3.750   1.755  12.841 -0.4630 -0.5281 -0.3162
 7027SOL    HW232544   3.720   1.762  12.987  0.1054 -3.1211 -0.1396
 7028SOL     OW32545   0.581   3.153   9.121  0.2429  0.4876 -0.4953
 7028SOL    HW132546   0.574   3.072   9.069 -0.9177 -0.2149  0.7554
 7028SOL    HW232547   0.554   3.116   9.205 -1.5925 -1.1814 -1.8069
 7029SOL     OW32548   0.363   2.848   5.237  0.1844  0.0616 -0.1400
 7029SOL    HW132549   0.290   2.853   5.299  0.4586 -0.2730  0.2100
 7029SOL    HW232550   0.439   2.834   5.294 -0.2045 -1.5148 -0.0242
 7030SOL     OW32551   2.443   3.015   2.778  0.2803  0.5416  0.1067
 7030SOL    HW132552   2.524   2.984   2.737  0.1663 -1.6171  1.5067
 7030SOL    HW232553   2.378   2.950   2.751  1.1656 -1.1640  2.0425
 7031SOL     OW32554   3.676   0.932  16.180 -0.0688 -0.4877 -0.0825
 7031SOL    HW132555   3.591   0.939  16.136  0.8279 -0.4914 -1.7704
 7031SOL    HW232556   3.741   0.946  16.112 -0.5783 -0.6015 -0.5911
 7032SOL     OW32557   3.958   1.707  15.973 -0.0259  0.1668  0.1984
 7032SOL    HW132558   3.917   1.759  16.042 -0.0384  0.4529 -0.0220
 7032SOL    HW232559   3.896   1.637  15.954 -2.0774  1.6615  1.3535
 7033SOL     OW32560   0.419   2.078   6.613  0.1670  0.5100 -0.1248
 7033SOL    HW132561   0.446   2.049   6.526  2.5254  1.2507  0.3560
 7033SOL    HW232562   0.333   2.036   6.619  0.6992 -0.2205  2.3206
 7034SOL     OW32563   3.654   0.727   2.137  0.2449 -0.6139  0.1471
 7034SOL    HW132564   3.587   0.773   2.088  1.2088 -0.4995 -1.0513
 7034SOL    HW232565   3.672   0.799   2.197  0.5887  0.1605 -0.9009
 7035SOL     OW32566   1.392   3.812   8.315 -0.9218 -0.4054  0.1092
 7035SOL    HW132567   1.407   3.719   8.331 -3.4110 -0.7545  0.3796
 7035SOL    HW232568   1.469   3.854   8.353 -0.8567  0.3581 -0.8678
 7036SOL     OW32569   4.589   1.929   3.729 -0.0701  0.4020 -0.1087
 7036SOL    HW132570   4.526   1.891   3.790  0.7221  0.8839  0.9922
 7036SOL    HW232571   4.541   1.906   3.649  2.8283 -2.4775 -0.9882
 7037SOL     OW32572   0.008   1.573   5.373 -0.2691 -0.8544 -0.4900
 7037SOL    HW132573   0.048   1.491   5.342  1.5841  0.0782 -0.5796
 7037SOL    HW232574   0.069   1.599   5.443  0.0825 -0.9211 -0.7727
 7038SOL     OW32575   2.735   1.965   2.887  0.8136 -0.3178 -0.3552
 7038SOL    HW132576   2.729   1.870   2.886 -0.1329 -0.2491 -1.4288
 7038SOL    HW232577   2.827   1.971   2.861  1.4310 -1.2050  1.6507
 7039SOL     OW32578   3.358   4.193  15.632 -0.2476  0.1318  0.7875
 7039SOL    HW132579   3.448   4.167  15.649  0.2715 -0.6101 -3.2564
 7039SOL    HW232580   3.335   4.142  15.555 -0.6184  4.4266 -1.9334
 7040SOL     OW32581   0.538   0.780   2.334 -0.0049 -0.3215  0.4605
 7040SOL    HW132582   0.564   0.825   2.254 -3.1439 -0.0374 -0.4080
 7040SOL    HW232583   0.596   0.706   2.350 -0.9027 -1.1036  0.1142
 7041SOL     OW32584   1.305   2.667   2.288  0.2988  0.9293  0.0313
 7041SOL    HW132585   1.327   2.643   2.198  0.7457 -0.1806  0.4292
 7041SOL    HW232586   1.379   2.628   2.335  1.3860  0.0333 -2.4522
 7042SOL     OW32587   3.880   1.158   7.655  0.3468  0.4033  0.0707
 7042SOL    HW132588   3.933   1.148   7.734  1.5247 -2.0349 -1.0153
 7042SOL    HW232589   3.877   1.253   7.644 -3.3723  0.2793  0.0741
 7043SOL     OW32590   1.837   2.645   6.529  0.0222 -0.1673  0.5900
 7043SOL    HW132591   1.786   2.632   6.450 -0.9845  0.2318  1.1771
 7043SOL    HW232592   1.791   2.586   6.588  0.4888  0.1457  1.2798
 7044SOL     OW32593   4.297   4.662   5.999  0.0457  0.3258 -0.2749
 7044SOL    HW132594   4.251   4.661   6.084  0.4976  1.1050 -0.0271
 7044SOL    HW232595   4.233   4.705   5.942  0.2067  2.5007  1.1901
 7045SOL     OW32596   4.682   0.085   1.886 -0.0410 -0.0459 -0.3445
 7045SOL    HW132597   4.600   0.064   1.931  0.5015 -1.4786 -0.0338
 7045SOL    HW232598   0.002   0.126   1.964 -1.2833 -0.4463  0.4691
 7046SOL     OW32599   1.134   1.153   6.323 -0.0245 -0.5151 -0.0817
 7046SOL    HW132600   1.154   1.070   6.367 -1.5312 -0.7286  0.1986
 7046SOL    HW232601   1.218   1.172   6.281  1.1257  0.6798  2.7859
 7047SOL     OW32602   1.544   1.176   6.718  0.7438 -0.5641 -0.3495
 7047SOL    HW132603   1.609   1.184   6.648 -2.0804  0.8090 -2.7968
 7047SOL    HW232604   1.585   1.249   6.766 -0.7890 -0.3319  0.5898
 7048SOL     OW32605   2.035   0.974   1.557  0.1359 -0.3316 -0.3823
 7048SOL    HW132606   1.990   0.955   1.639 -2.0143  1.1510 -1.2181
 7048SOL    HW232607   1.957   1.007   1.512  0.5652  1.1890 -0.0215
 7049SOL     OW32608   1.282   4.407   2.774  0.0860 -0.4483  0.2274
 7049SOL    HW132609   1.236   4.379   2.853  0.4370  0.1907  0.6496
 7049SOL    HW232610   1.338   4.331   2.755 -2.7631 -2.7039  0.8119
 7050SOL     OW32611   0.867   3.915   8.047 -0.0713 -0.6346  0.3334
 7050SOL    HW132612   0.847   3.999   8.088 -0.5441 -0.9057  0.6583
 7050SOL    HW232613   0.961   3.927   8.035  0.0074 -3.3969 -1.8526
 7051SOL     OW32614   3.718   3.388   6.042 -0.3457 -0.0283 -0.3730
 7051SOL    HW132615   3.733   3.482   6.048  0.0165 -0.1444  0.5697
 7051SOL    HW232616   3.757   3.376   5.956  1.9920  0.1260  0.6828
 7052SOL     OW32617   4.013   0.072  11.648 -0.2495 -0.1419  0.2282
 7052SOL    HW132618   3.987   0.032  11.731 -0.0430 -0.6026  0.0707
 7052SOL    HW232619   4.107   0.062  11.660 -0.6854 -3.8104  0.5029
 7053SOL     OW32620   3.124   1.240   4.110 -0.3434  0.3051 -0.2007
 7053SOL    HW132621   3.187   1.183   4.155 -0.5262  0.7329  0.5948
 7053SOL    HW232622   3.135   1.202   4.022  1.1831 -0.0828  0.1590
 7054SOL     OW32623   0.208   3.512  11.060 -0.3036  0.4111  0.0774
 7054SOL    HW132624   0.191   3.598  11.098 -1.0561  1.2041 -2.0402
 7054SOL    HW232625   0.300   3.494  11.078  0.5711  2.6181 -2.0865
 7055SOL     OW32626   0.067   4.139   7.877  0.1368 -0.0439  0.3501
 7055SOL    HW132627   0.079   4.192   7.956 -0.7384  1.9382 -0.8493
 7055SOL    HW232628   0.135   4.074   7.892 -1.5167 -1.0097  3.6455
 7056SOL     OW32629   4.477   1.427   6.275 -0.3525  0.0751  0.4653
 7056SOL    HW132630   4.413   1.395   6.338  1.2156 -0.8910  1.5818
 7056SOL    HW232631   4.553   1.378   6.307 -0.6989 -0.1032  1.0021
 7057SOL     OW32632   0.427   3.285   7.138  0.3855 -0.2896 -0.1814
 7057SOL    HW132633   0.332   3.298   7.141  0.2170 -1.4417 -0.3407
 7057SOL    HW232634   0.444   3.228   7.213  1.9123 -0.9673 -1.0378
 7058SOL     OW32635   4.193   2.643   1.474  0.5302 -0.0907  0.2680
 7058SOL    HW132636   4.167   2.593   1.397  0.9762 -1.3772  0.9408
 7058SOL    HW232637   4.183   2.729   1.433 -0.8086 -0.1837  0.4035
 7059SOL     OW32638   3.285   1.954   4.120  0.2462 -0.4751  0.2712
 7059SOL    HW132639   3.343   2.025   4.147  1.0728 -0.8052 -0.6113
 7059SOL    HW232640   3.317   1.881   4.172 -1.4045 -0.7684  0.8754
 7060SOL     OW32641   4.331   0.056   8.293 -0.1893 -0.9602  0.0100
 7060SOL    HW132642   4.412   0.087   8.252 -1.5537  2.0519 -0.3900
 7060SOL    HW232643   4.278   0.031   8.218 -2.2861  0.0900  1.1472
 7061SOL     OW32644   1.351   0.050   4.128  0.0747 -0.2633 -0.3489
 7061SOL    HW132645   1.349   0.133   4.176  0.0258 -1.2259  1.3009
 7061SOL    HW232646   1.331   4.696   4.188 -0.8115  0.6378  0.4292
 7062SOL     OW32647   3.558   2.918   9.035  0.2738  0.4490  0.3071
 7062SOL    HW132648   3.502   2.851   8.995 -0.4267  1.9028 -1.1670
 7062SOL    HW232649   3.588   2.871   9.112  0.3250 -3.2225 -1.9392
 7063SOL     OW32650   0.923   0.442   6.356 -0.3779  0.4503 -0.3212
 7063SOL    HW132651   0.874   0.499   6.296  0.5399  1.5110 -0.0669
 7063SOL    HW232652   0.882   0.357   6.339 -0.2747  0.2303  0.5178
 7064SOL     OW32653   3.653   3.265   5.256 -0.7702  0.7981 -0.3009
 7064SOL    HW132654   3.646   3.351   5.297  2.5668  1.0020 -0.1206
 7064SOL    HW232655   3.726   3.233   5.309 -1.2742  1.0574  0.5513
 7065SOL     OW32656   3.948   0.393   9.097 -0.0408 -0.1956 -0.2664
 7065SOL    HW132657   3.937   0.364   9.187 -0.1358 -0.9855 -0.5333
 7065SOL    HW232658   3.893   0.472   9.094  0.3468  0.0890  0.3434
 7066SOL     OW32659   0.439   3.031  12.108 -0.7703  0.1797 -0.6319
 7066SOL    HW132660   0.431   2.983  12.191 -2.5438  0.1026 -0.8463
 7066SOL    HW232661   0.441   3.120  12.143 -0.0623 -0.3316  0.6308
 7067SOL     OW32662   1.536   2.532  10.262 -0.4542 -0.4961  0.2498
 7067SOL    HW132663   1.610   2.500  10.210  0.8828  1.1572  1.1172
 7067SOL    HW232664   1.464   2.555  10.203 -0.7696 -0.6429  0.5776
 7068SOL     OW32665   0.267   3.349  13.477 -0.2772 -0.7523 -0.0736
 7068SOL    HW132666   0.253   3.397  13.396 -1.4664  1.1902  1.2754
 7068SOL    HW232667   0.319   3.273  13.453 -0.7881 -1.2598  0.4299
 7069SOL     OW32668   0.329   2.418  11.077 -0.5931  0.4060 -0.0015
 7069SOL    HW132669   0.248   2.379  11.108  0.0347 -0.7031  0.2292
 7069SOL    HW232670   0.335   2.374  10.992  1.0226 -1.5850  1.1562
 7070SOL     OW32671   2.349   0.905  10.957  0.3532 -0.0315 -0.4123
 7070SOL    HW132672   2.296   0.943  11.027  0.5645 -0.7607  0.1409
 7070SOL    HW232673   2.400   0.836  10.999 -0.2046 -0.0176  0.2928
 7071SOL     OW32674   0.096   4.286   3.685 -0.5210  0.4111 -0.1722
 7071SOL    HW132675   0.156   4.263   3.756 -0.4945  0.2023 -0.2626
 7071SOL    HW232676   0.070   4.374   3.714 -0.3009  0.0362  1.1787
 7072SOL     OW32677   1.254   4.133   9.002  0.1550 -0.1474 -0.5529
 7072SOL    HW132678   1.266   4.216   9.049  2.3469 -1.1007  0.5947
 7072SOL    HW232679   1.343   4.099   8.996 -0.1666 -1.2953  1.1815
 7073SOL     OW32680   2.247   2.614  11.591 -0.3400  0.1796  0.6693
 7073SOL    HW132681   2.165   2.641  11.551 -0.5396  1.6342  2.0682
 7073SOL    HW232682   2.203   2.576  11.668  1.3108  0.1540  1.6061
 7074SOL     OW32683   2.528   3.821   1.972 -0.4719  0.2682 -0.3440
 7074SOL    HW132684   2.569   3.800   2.056  0.9223  1.3802 -0.7673
 7074SOL    HW232685   2.585   3.764   1.921 -1.5940 -0.0811 -1.2065
 7075SOL     OW32686   1.838   1.822  12.172 -0.1212 -0.1108 -0.2954
 7075SOL    HW132687   1.755   1.823  12.124  1.0808 -0.8619 -2.3860
 7075SOL    HW232688   1.896   1.818  12.096  0.8032  1.3344  0.3394
 7076SOL     OW32689   2.244   2.503  17.501 -0.1158 -0.0725  0.5938
 7076SOL    HW132690   2.187   2.551  17.441  2.5293 -0.1362 -1.9473
 7076SOL    HW232691   2.204   2.419  17.480 -2.8808  1.6618 -1.1178
 7077SOL     OW32692   3.186   0.820   5.015 -0.7070 -0.7978 -0.5882
 7077SOL    HW132693   3.239   0.879   4.961  0.2774  0.1650  1.3901
 7077SOL    HW232694   3.114   0.877   5.042  0.9023  0.5193  0.9669
 7078SOL     OW32695   3.733   3.582   5.730 -0.0609 -0.6968 -0.8220
 7078SOL    HW132696   3.708   3.608   5.819 -1.1817  0.5068 -1.4981
 7078SOL    HW232697   3.654   3.536   5.702 -1.2482  1.6761 -1.3425
 7079SOL     OW32698   2.060   3.771   5.194 -0.1181  0.5779  0.2820
 7079SOL    HW132699   2.135   3.746   5.139 -0.8638  0.0409 -0.4746
 7079SOL    HW232700   1.997   3.784   5.124  2.3182  2.0735 -1.6164
 7080SOL     OW32701   3.580   1.883   2.122  0.1484 -0.6773 -0.3525
 7080SOL    HW132702   3.534   1.876   2.206  0.8266 -1.8767 -0.0793
 7080SOL    HW232703   3.631   1.802   2.127  0.6176 -0.2273  2.2507
 7081SOL     OW32704   3.896   0.813   3.691 -0.5880  0.2093 -0.5266
 7081SOL    HW132705   3.837   0.757   3.639  2.1207 -1.2615 -2.0054
 7081SOL    HW232706   3.890   0.896   3.644  1.0420 -0.2228 -1.4800
 7082SOL     OW32707   2.750   2.661   5.391  0.3653  0.5611  0.2074
 7082SOL    HW132708   2.823   2.695   5.443  0.0080  0.6412  0.6577
 7082SOL    HW232709   2.783   2.669   5.302  0.3785  0.6302  0.2185
 7083SOL     OW32710   3.683   0.586   3.141 -0.1162  0.2545  0.3539
 7083SOL    HW132711   3.612   0.527   3.168 -0.2015  1.5307  2.8856
 7083SOL    HW232712   3.706   0.540   3.060  0.5141  0.4305  0.4321
 7084SOL     OW32713   3.939   0.802   7.406  0.2094 -0.1160 -0.5131
 7084SOL    HW132714   3.978   0.720   7.436  0.5634  0.4213  0.5047
 7084SOL    HW232715   3.985   0.861   7.466  1.1924 -0.4455 -0.9352
 7085SOL     OW32716   0.463   3.620   1.910 -1.1024 -0.1325 -0.1107
 7085SOL    HW132717   0.502   3.575   1.985  0.2030  0.3816 -0.4877
 7085SOL    HW232718   0.430   3.547   1.857 -0.3520 -0.6008  0.0638
 7086SOL     OW32719   2.890   2.647   7.189 -0.2670  0.2247  0.0275
 7086SOL    HW132720   2.862   2.614   7.273  2.2237 -1.1579  0.3185
 7086SOL    HW232721   2.808   2.691   7.166  0.4118  0.6716 -1.5976
 7087SOL     OW32722   1.441   1.697   7.311  0.2451  0.5268  0.0361
 7087SOL    HW132723   1.422   1.717   7.402 -2.3725 -0.1981 -0.3584
 7087SOL    HW232724   1.382   1.759   7.269  1.2620  0.8409 -0.9556
 7088SOL     OW32725   3.996   0.932   0.396  0.1416  0.0125 -0.1855
 7088SOL    HW132726   4.056   0.964   0.463 -0.4928  0.8033  0.0051
 7088SOL    HW232727   3.922   0.902   0.450  0.3879  1.4913  0.9893
 7089SOL     OW32728   3.044   1.750  11.574 -0.0767  0.4945 -0.0976
 7089SOL    HW132729   3.017   1.698  11.499  0.3751 -0.9165  0.7166
 7089SOL    HW232730   3.026   1.838  11.541 -0.9365 -0.5091 -2.2850
 7090SOL     OW32731   0.412   1.737  11.021  0.5152 -0.1011 -0.4201
 7090SOL    HW132732   0.427   1.716  11.113 -1.1247  3.0547  0.5894
 7090SOL    HW232733   0.471   1.812  11.011  0.4369 -0.0344 -0.3864
 7091SOL     OW32734   3.111   4.341   5.249  0.7679 -0.1099 -0.6104
 7091SOL    HW132735   3.018   4.357   5.261  0.8143 -0.0970 -0.2738
 7091SOL    HW232736   3.150   4.372   5.331  2.0037  0.0035 -1.2352
 7092SOL     OW32737   4.638   2.057  15.541  0.1040  0.0678 -0.3745
 7092SOL    HW132738   4.555   2.062  15.493 -0.8477 -0.2157  1.2366
 7092SOL    HW232739   4.663   1.965  15.534  0.1175  0.0802 -0.4840
 7093SOL     OW32740   1.389   0.442   7.411 -0.2166  0.3497 -0.4192
 7093SOL    HW132741   1.329   0.462   7.338 -1.8835  1.5133  1.2524
 7093SOL    HW232742   1.471   0.476   7.377  0.8968 -1.7698  0.1561
 7094SOL     OW32743   0.450   2.882  10.906  0.2234 -0.0486 -0.2366
 7094SOL    HW132744   0.378   2.850  10.960  3.3979  0.6157  4.4662
 7094SOL    HW232745   0.451   2.978  10.915  1.0764 -0.1239  0.4375
 7095SOL     OW32746   1.969   3.355   2.860 -0.2782  0.1785  0.5214
 7095SOL    HW132747   1.922   3.423   2.909 -1.3857 -0.9017  0.9843
 7095SOL    HW232748   1.993   3.395   2.777  1.4719  0.3581  1.1248
 7096SOL     OW32749   3.122   2.900   4.600  0.2714 -0.2005  0.1771
 7096SOL    HW132750   3.135   2.902   4.695  1.8450  0.2130 -0.0393
 7096SOL    HW232751   3.123   2.993   4.578  3.0080 -0.3208 -0.3068
 7097SOL     OW32752   4.065   3.032  10.251 -0.0202  0.3085  0.0189
 7097SOL    HW132753   3.973   3.007  10.245 -0.0012  0.1364  0.4114
 7097SOL    HW232754   4.081   3.114  10.205  0.5724  0.4470  0.4660
 7098SOL     OW32755   2.440   0.481  17.651 -0.1933 -0.4214  0.1929
 7098SOL    HW132756   2.441   0.557  17.594 -0.2965  2.7630  4.4508
 7098SOL    HW232757   2.451   0.425  17.574  0.5123 -0.1875  0.1184
 7099SOL     OW32758   1.100   0.514   4.021 -0.4577  0.0980 -0.4107
 7099SOL    HW132759   1.110   0.419   4.028 -1.2000  0.2477  2.6573
 7099SOL    HW232760   1.018   0.518   4.070 -0.5814  1.8319 -0.7427
 7100SOL     OW32761   0.454   4.249   8.831  0.2969  0.4688  0.1368
 7100SOL    HW132762   0.475   4.166   8.875  0.3012  0.7036  0.5713
 7100SOL    HW232763   0.395   4.282   8.899  2.5022  0.9492  1.8147
 7101SOL     OW32764   0.746   0.728   1.626 -0.2266  0.3371  0.2590
 7101SOL    HW132765   0.800   0.800   1.661  0.5693  0.3632 -1.0107
 7101SOL    HW232766   0.782   0.646   1.660  1.0727  0.6682 -0.2964
 7102SOL     OW32767   1.423   2.667  11.350 -0.3830 -0.3236  0.3379
 7102SOL    HW132768   1.381   2.591  11.390  2.3358 -1.8181  0.3370
 7102SOL    HW232769   1.477   2.631  11.280 -1.0939 -1.0443  0.1582
 7103SOL     OW32770   2.412   1.396   0.701 -0.1091  0.3602 -0.2242
 7103SOL    HW132771   2.482   1.381   0.638  1.1642  2.5044  0.6823
 7103SOL    HW232772   2.425   1.324   0.764  0.1206  0.3157 -0.3248
 7104SOL     OW32773   4.431   2.808   6.342  1.0270 -0.0105 -0.1728
 7104SOL    HW132774   4.419   2.729   6.395 -1.3157  1.2546  1.1630
 7104SOL    HW232775   4.440   2.875   6.411 -0.1875  0.4840 -0.4972
 7105SOL     OW32776   4.579   1.951   8.344  0.1980 -0.0872 -0.0660
 7105SOL    HW132777   4.575   1.928   8.251  0.9998 -2.2210  0.4272
 7105SOL    HW232778   4.641   1.883   8.371  2.9277  1.6435 -2.0507
 7106SOL     OW32779   0.586   1.664   3.556 -0.6528  0.0150 -0.3405
 7106SOL    HW132780   0.581   1.641   3.463 -0.4868  0.4685 -0.4644
 7106SOL    HW232781   0.500   1.703   3.573 -0.1055  0.7306  0.7963
 7107SOL     OW32782   0.451   0.821  13.346 -0.0762 -0.2718  0.4769
 7107SOL    HW132783   0.425   0.731  13.329 -1.4747  0.6747 -2.5730
 7107SOL    HW232784   0.373   0.861  13.385 -0.4655 -0.9386  0.3705
 7108SOL     OW32785   2.685   4.138   0.178  0.3982  0.6214 -0.3456
 7108SOL    HW132786   2.657   4.075   0.110 -1.1297  1.3230 -0.3709
 7108SOL    HW232787   2.627   4.212   0.160 -1.6447 -0.1959  2.9424
 7109SOL     OW32788   2.856   3.172   5.759 -0.0190  0.0579 -0.6042
 7109SOL    HW132789   2.924   3.234   5.783 -0.2964  0.4467 -0.8086
 7109SOL    HW232790   2.783   3.234   5.750  0.9969  1.4809  1.0131
 7110SOL     OW32791   0.457   1.123  15.868  0.3737 -0.0731 -0.6999
 7110SOL    HW132792   0.466   1.157  15.779 -1.7567  0.6190 -0.6573
 7110SOL    HW232793   0.369   1.087  15.878 -0.0382  1.1588  0.1567
 7111SOL     OW32794   2.015   1.940  12.437 -0.1108 -0.1866  0.3963
 7111SOL    HW132795   1.973   1.952  12.352 -1.6440 -1.9765  0.8891
 7111SOL    HW232796   1.972   2.004  12.495  1.1120  1.2285 -0.2558
 7112SOL     OW32797   2.930   0.265   5.713 -0.1023  0.3914 -0.3952
 7112SOL    HW132798   2.903   0.291   5.625 -0.2021  2.1218  0.1600
 7112SOL    HW232799   2.844   0.243   5.750  0.2206 -2.0202 -1.0466
 7113SOL     OW32800   2.353   0.541  10.966 -0.1485  0.2491 -0.1862
 7113SOL    HW132801   2.437   0.580  10.987 -0.9638  1.0083  1.7150
 7113SOL    HW232802   2.376   0.480  10.896  1.7605  0.0953  0.6003
 7114SOL     OW32803   2.601   3.876  16.681  0.2025 -0.1072 -0.4680
 7114SOL    HW132804   2.670   3.877  16.748  0.1310 -1.2693 -0.3879
 7114SOL    HW232805   2.650   3.839  16.607 -0.1831  0.4069 -0.9892
 7115SOL     OW32806   3.802   1.426   6.290 -0.4869  0.2940  0.0556
 7115SOL    HW132807   3.738   1.480   6.243  0.4495 -1.5565 -3.3376
 7115SOL    HW232808   3.750   1.346   6.301 -0.4190  0.1540 -0.6657
 7116SOL     OW32809   2.957   3.160   5.371 -0.2559  0.3844  0.1763
 7116SOL    HW132810   2.949   3.077   5.324 -0.0212  0.5746 -0.2052
 7116SOL    HW232811   3.053   3.164   5.374 -0.3217  1.4992  0.8505
 7117SOL     OW32812   0.352   0.606   1.623  0.5317  0.8842  0.6779
 7117SOL    HW132813   0.280   0.604   1.686 -0.2626  0.9652 -0.2379
 7117SOL    HW232814   0.404   0.531   1.653 -0.1412 -0.5645 -1.7190
 7118SOL     OW32815   1.804   4.363  15.249  0.1316  0.5435  0.2488
 7118SOL    HW132816   1.885   4.390  15.293 -0.1930  0.6307  0.7877
 7118SOL    HW232817   1.801   4.436  15.187  1.2820  0.2065 -0.2205
 7119SOL     OW32818   3.562   2.553   4.377  0.6856 -0.8519 -0.6714
 7119SOL    HW132819   3.597   2.470   4.345  0.9004 -2.0671  2.6773
 7119SOL    HW232820   3.613   2.559   4.458  2.1344 -1.4350 -1.5364
 7120SOL     OW32821   0.549   0.879   1.894 -0.0254 -0.4012  0.1143
 7120SOL    HW132822   0.606   0.880   1.971  1.1127  1.2304 -0.7627
 7120SOL    HW232823   0.595   0.816   1.839  0.0925  1.6603 -2.1550
 7121SOL     OW32824   0.248   2.783   3.502 -0.9441  0.0216 -0.1405
 7121SOL    HW132825   0.341   2.760   3.499 -0.6220  1.5199 -1.8596
 7121SOL    HW232826   0.254   2.870   3.461 -1.8470  0.9877  1.7994
 7122SOL     OW32827   3.700   4.572  10.200 -0.0023 -0.9556 -0.3059
 7122SOL    HW132828   3.740   4.540  10.120  0.8981 -1.2722  0.2825
 7122SOL    HW232829   3.747   4.512  10.257  0.1439 -0.0723  0.5210
 7123SOL     OW32830   4.375   1.351   8.148  0.5669 -0.4357  0.1492
 7123SOL    HW132831   4.389   1.421   8.211 -2.1081 -1.2713  1.6552
 7123SOL    HW232832   4.465   1.327   8.124  0.1625  1.2233 -3.0662
 7124SOL     OW32833   0.093   1.371   3.009 -0.6702 -0.3375 -0.2276
 7124SOL    HW132834   0.146   1.304   2.967 -1.4966 -0.2404 -1.4026
 7124SOL    HW232835   0.102   1.354   3.103 -2.7583 -2.4557 -0.4058
 7125SOL     OW32836   2.718   1.320   7.460  0.0159 -0.1608  0.5334
 7125SOL    HW132837   2.626   1.341   7.447  0.2465 -1.0230 -2.5714
 7125SOL    HW232838   2.746   1.262   7.389  1.7197 -0.0266  1.0866
 7126SOL     OW32839   0.977   1.760   3.223 -0.0477 -0.3292  0.7006
 7126SOL    HW132840   0.956   1.678   3.268 -0.0874 -0.1918  0.9293
 7126SOL    HW232841   0.919   1.827   3.259  0.1053  0.0923  0.1613
 7127SOL     OW32842   1.684   0.839   3.607  0.0800 -0.2771  0.5439
 7127SOL    HW132843   1.777   0.845   3.630 -0.2157  2.5923  1.0621
 7127SOL    HW232844   1.671   0.921   3.559 -1.7388 -1.4410 -0.9309
 7128SOL     OW32845   1.826   2.219   6.147  0.3247  0.1086 -1.1862
 7128SOL    HW132846   1.807   2.146   6.088  2.2505 -0.8105 -0.6707
 7128SOL    HW232847   1.742   2.266   6.148  0.9327  1.1756 -0.6751
 7129SOL     OW32848   1.313   2.026  17.199 -0.3012 -0.1142  0.4964
 7129SOL    HW132849   1.311   2.113  17.238  2.0522  0.3913 -0.5191
 7129SOL    HW232850   1.230   1.992  17.234  0.2558 -0.9710  0.9986
 7130SOL     OW32851   2.063   0.839   8.045  0.9131  0.1005  0.5787
 7130SOL    HW132852   1.968   0.841   8.047  0.8872 -1.1960  0.4503
 7130SOL    HW232853   2.077   0.745   8.034  0.8312  0.1045  0.4466
 7131SOL     OW32854   4.470   1.645   2.395 -0.3471  0.4985 -0.0526
 7131SOL    HW132855   4.400   1.580   2.387 -0.5432  0.5084  1.5732
 7131SOL    HW232856   4.441   1.703   2.324 -0.4649  0.4893 -0.0131
 7132SOL     OW32857   1.103   2.521   5.940 -0.5046  0.4386 -0.0337
 7132SOL    HW132858   1.023   2.497   5.987 -1.0860  0.8817 -0.7989
 7132SOL    HW232859   1.085   2.484   5.853 -1.1699 -0.4267  0.4750
 7133SOL     OW32860   0.955   2.353   5.051 -0.1394 -0.3312 -0.7772
 7133SOL    HW132861   0.958   2.362   5.146  3.3587 -0.6951 -0.8549
 7133SOL    HW232862   0.860   2.349   5.037 -0.3703  1.3633  0.2870
 7134SOL     OW32863   2.481   2.620   3.258  0.2223 -0.0216  0.0255
 7134SOL    HW132864   2.554   2.678   3.281  0.3915  0.0387 -0.6696
 7134SOL    HW232865   2.518   2.562   3.192 -0.2335 -0.4654  0.1596
 7135SOL     OW32866   2.126   4.046   2.834  0.2706  0.2663 -0.9756
 7135SOL    HW132867   2.195   4.047   2.900  0.3542 -2.0798 -1.0196
 7135SOL    HW232868   2.155   4.117   2.777  2.0935 -0.4947 -0.9974
 7136SOL     OW32869   0.064   3.960   6.345 -0.0972  0.8112 -0.7167
 7136SOL    HW132870   0.039   4.029   6.284 -0.4315 -0.7056 -2.3014
 7136SOL    HW232871   0.041   3.888   6.285  0.1324 -0.3895  0.6472
 7137SOL     OW32872   2.581   0.830   8.364  0.2950 -0.0479 -0.2123
 7137SOL    HW132873   2.549   0.746   8.330 -0.1489  0.1873 -0.3841
 7137SOL    HW232874   2.615   0.810   8.451 -3.9497  2.2064  1.9653
 7138SOL     OW32875   4.223   3.279   7.089 -0.3041  0.2614 -0.3074
 7138SOL    HW132876   4.158   3.210   7.097 -1.7033  1.5407 -0.5568
 7138SOL    HW232877   4.286   3.245   7.152 -1.5169 -1.4070  0.0126
 7139SOL     OW32878   1.601   1.098   5.430 -0.9594 -0.5773 -0.0914
 7139SOL    HW132879   1.644   1.029   5.480 -0.8686 -0.4161  0.0522
 7139SOL    HW232880   1.525   1.127   5.479 -1.7934 -1.5740 -0.7869
 7140SOL     OW32881   3.064   3.524  17.576  0.1118 -0.4695 -0.6049
 7140SOL    HW132882   3.044   3.451  17.517 -3.3542 -0.2778  0.2920
 7140SOL    HW232883   3.021   3.604  17.545  1.2937 -0.7441 -3.0178
 7141SOL     OW32884   1.907   0.357   4.340 -0.3149  0.6159  0.0899
 7141SOL    HW132885   1.980   0.380   4.282 -0.6006  0.1349 -0.4669
 7141SOL    HW232886   1.838   0.418   4.315 -1.1333 -0.7131 -0.9524
 7142SOL     OW32887   0.131   1.940   3.633  0.6821  0.2575 -0.5840
 7142SOL    HW132888   0.040   1.938   3.661  1.0208 -1.1479  0.3958
 7142SOL    HW232889   0.114   2.015   3.576  1.0780  0.9768  0.2322
 7143SOL     OW32890   1.573   4.372   2.917  0.3779 -0.5482 -0.4661
 7143SOL    HW132891   1.634   4.416   2.858 -0.4395  1.7762  0.4250
 7143SOL    HW232892   1.536   4.305   2.859 -3.0340 -1.6358  2.9022
 7144SOL     OW32893   0.274   1.072   5.978  0.3135 -0.0617  0.0188
 7144SOL    HW132894   0.184   1.086   5.949 -0.4884  0.9218  2.9362
 7144SOL    HW232895   0.287   1.114   6.063  0.4983  0.6618 -0.3712
 7145SOL     OW32896   0.686   3.592   6.074  0.4774 -0.1542  0.5527
 7145SOL    HW132897   0.712   3.624   5.988  3.6875 -2.1982  0.7568
 7145SOL    HW232898   0.740   3.513   6.080  1.4861  0.5451  0.8146
 7146SOL     OW32899   0.815   4.371   6.211  0.1760 -0.0705  0.0666
 7146SOL    HW132900   0.750   4.302   6.202 -1.1691  1.4125 -1.4874
 7146SOL    HW232901   0.758   4.437   6.170  0.7285 -0.4717 -1.3418
 7147SOL     OW32902   1.461   2.955   5.611  0.2415  0.8699 -0.0783
 7147SOL    HW132903   1.377   2.912   5.628  0.6285 -0.7708 -2.3282
 7147SOL    HW232904   1.511   2.906   5.676  0.3956 -1.3816 -1.8972
 7148SOL     OW32905   1.386   3.916   3.151 -0.0953  0.2740  0.3022
 7148SOL    HW132906   1.421   3.892   3.065 -0.2114  2.7104 -0.4296
 7148SOL    HW232907   1.317   3.972   3.115  0.5076  0.0855 -1.1636
 7149SOL     OW32908   1.965   0.430  11.691  0.8560  0.1783  0.6861
 7149SOL    HW132909   1.941   0.519  11.717 -0.3242 -0.5657  2.1334
 7149SOL    HW232910   2.049   0.425  11.736  0.9969 -0.6899  0.3154
 7150SOL     OW32911   2.018   0.035   1.434 -0.1671 -0.6278  0.0516
 7150SOL    HW132912   1.955   4.701   1.384  0.4156 -1.1840 -0.1166
 7150SOL    HW232913   2.020   0.120   1.389 -1.9111 -1.8545 -2.3416
 7151SOL     OW32914   0.405   2.953   9.260  0.9534  0.1603 -0.2388
 7151SOL    HW132915   0.345   2.897   9.308  0.1275  0.0771 -1.3629
 7151SOL    HW232916   0.482   2.896   9.253  0.7501  0.0397 -1.6494
 7152SOL     OW32917   1.755   4.625   8.758  0.6228 -0.2892  0.5276
 7152SOL    HW132918   1.752   0.002   8.771  1.8487 -0.1289 -0.3445
 7152SOL    HW232919   1.729   4.595   8.845 -1.5706  2.2536  0.7225
 7153SOL     OW32920   2.286   2.339   2.456 -0.1618 -0.2216  0.1966
 7153SOL    HW132921   2.245   2.357   2.371  1.0572 -2.9456 -0.9711
 7153SOL    HW232922   2.213   2.295   2.498 -0.4018 -0.5723 -0.5807
 7154SOL     OW32923   3.604   3.415  11.902 -0.1741 -0.0194 -0.2080
 7154SOL    HW132924   3.651   3.489  11.942  1.0310 -0.4408 -0.8641
 7154SOL    HW232925   3.631   3.411  11.811 -1.0966  0.8751 -0.5278
 7155SOL     OW32926   2.267   4.169  11.526 -0.2244 -0.7631  0.7837
 7155SOL    HW132927   2.289   4.230  11.455 -2.2084  1.5493  2.1622
 7155SOL    HW232928   2.217   4.216  11.593  1.8192 -0.5265  2.1677
 7156SOL     OW32929   4.206   3.599  14.248 -0.4011 -0.0444  0.3954
 7156SOL    HW132930   4.194   3.691  14.226  0.6179 -0.2663 -1.0752
 7156SOL    HW232931   4.295   3.592  14.280  0.3793  0.6389 -1.6126
 7157SOL     OW32932   0.413   1.463   2.848  0.1508 -1.0469 -0.2843
 7157SOL    HW132933   0.455   1.458   2.762 -0.8149 -0.6264 -0.7812
 7157SOL    HW232934   0.445   1.384   2.890  0.2989  0.7130  2.8850
 7158SOL     OW32935   3.330   1.208   7.144  0.3422 -0.3395 -0.1420
 7158SOL    HW132936   3.350   1.227   7.235 -0.5937 -0.6048  0.1200
 7158SOL    HW232937   3.419   1.186   7.118  0.3375 -1.7207  1.0303
 7159SOL     OW32938   4.636   2.555   1.868  0.4217 -0.0045 -0.1836
 7159SOL    HW132939   4.667   2.476   1.823 -1.0701 -1.0312  0.5929
 7159SOL    HW232940   4.701   2.570   1.937 -0.6197 -2.3437  1.3036
 7160SOL     OW32941   1.887   0.405   2.014  0.2869 -0.4920 -0.5503
 7160SOL    HW132942   1.833   0.409   2.093 -0.3510 -0.8768 -0.9789
 7160SOL    HW232943   1.973   0.372   2.042  1.0981  2.4293  0.4183
 7161SOL     OW32944   1.245   1.045   7.109 -0.2182  0.2680  0.0095
 7161SOL    HW132945   1.268   1.084   7.193  0.6325  0.6547 -0.4090
 7161SOL    HW232946   1.258   0.954   7.137 -1.2625  0.2319  0.3747
 7162SOL     OW32947   0.842   4.315   2.494  0.3663 -0.1748 -0.7346
 7162SOL    HW132948   0.937   4.322   2.484  0.6804 -2.0348  0.9560
 7162SOL    HW232949   0.830   4.296   2.587  0.5152  0.2574 -0.6282
 7163SOL     OW32950   1.369   3.073   8.173  0.4986 -0.1273 -0.4811
 7163SOL    HW132951   1.285   3.038   8.205  0.8033  1.4819  2.0777
 7163SOL    HW232952   1.343   3.151   8.124 -0.2426 -0.3710 -0.4781
 7164SOL     OW32953   4.556   1.185   3.876  0.2138 -0.3354  0.4034
 7164SOL    HW132954   4.536   1.138   3.794  0.6132  0.4652 -0.1574
 7164SOL    HW232955   4.639   1.146   3.903  1.0321 -0.1510 -1.8116
 7165SOL     OW32956   1.457   0.048   3.513  0.1344 -0.8973 -0.6709
 7165SOL    HW132957   1.485   4.681   3.546 -2.1154 -0.8809  1.3143
 7165SOL    HW232958   1.421   0.097   3.587  1.1567 -4.1180  1.9381
 7166SOL     OW32959   4.620   1.332   1.205 -0.0178  0.1019 -0.2689
 7166SOL    HW132960   4.641   1.400   1.269  1.2833 -0.5438 -0.0143
 7166SOL    HW232961   4.527   1.350   1.217  0.5115  2.2698  0.6177
 7167SOL     OW32962   3.261   2.692   8.240 -0.0235 -0.3302 -0.1295
 7167SOL    HW132963   3.284   2.667   8.150  0.9591 -0.7446  0.2419
 7167SOL    HW232964   3.209   2.619   8.274  2.2419 -2.6666 -1.6389
 7168SOL     OW32965   0.427   0.882   1.558  0.3299 -0.0070  0.2858
 7168SOL    HW132966   0.442   0.848   1.646 -3.7877  0.5735  1.1908
 7168SOL    HW232967   0.450   0.804   1.508 -0.5127 -1.7652  2.6790
 7169SOL     OW32968   0.161   2.663  10.782  0.6842 -0.1920 -0.2989
 7169SOL    HW132969   0.190   2.573  10.793 -2.4022 -0.9525  1.5339
 7169SOL    HW232970   0.218   2.703  10.847  0.1414 -0.4480  0.3321
 7170SOL     OW32971   0.838   3.502   2.067  0.0171 -0.1970  0.3116
 7170SOL    HW132972   0.834   3.514   1.972 -1.0181  1.8111  0.6138
 7170SOL    HW232973   0.745   3.504   2.087  0.5151  1.4182  2.4984
 7171SOL     OW32974   4.212   4.286  14.160  0.5606  0.6747 -0.0453
 7171SOL    HW132975   4.226   4.201  14.200  1.1958  1.6074  1.7155
 7171SOL    HW232976   4.127   4.274  14.118  0.0832  1.4044  0.7242
 7172SOL     OW32977   2.630   0.638   8.000 -0.8663  0.2951 -0.6056
 7172SOL    HW132978   2.589   0.612   7.918 -1.7407 -0.4083  0.0488
 7172SOL    HW232979   2.669   0.723   7.979 -0.0033  0.1072  0.2043
 7173SOL     OW32980   3.627   4.465   6.972  0.3473 -0.5624  0.1888
 7173SOL    HW132981   3.538   4.472   7.005  1.0022  2.9873  1.1275
 7173SOL    HW232982   3.676   4.470   7.054  0.8217  2.2886 -0.2590
 7174SOL     OW32983   3.967   3.593   6.213 -0.2301  0.6284  0.0102
 7174SOL    HW132984   3.909   3.627   6.144  0.2296  1.0961 -0.1454
 7174SOL    HW232985   3.941   3.639   6.292  0.1376 -0.6275  0.8654
 7175SOL     OW32986   4.172   2.871   7.641 -0.2473  0.1567  0.3096
 7175SOL    HW132987   4.118   2.949   7.651 -1.4953 -0.6184 -0.3864
 7175SOL    HW232988   4.145   2.810   7.710 -1.4487  0.3856  0.0383
 7176SOL     OW32989   2.934   1.184   7.014  0.1785  0.1094  0.0416
 7176SOL    HW132990   2.879   1.194   6.936  1.5572 -2.2969 -1.2167
 7176SOL    HW232991   2.986   1.265   7.017  0.4953 -0.1689  2.2237
 7177SOL     OW32992   0.883   1.871   2.599 -0.2429  0.8691  0.5370
 7177SOL    HW132993   0.799   1.857   2.555  0.8927  0.3208 -1.4579
 7177SOL    HW232994   0.849   1.860   2.688  1.8309  3.1167  1.6029
 7178SOL     OW32995   0.996   1.438   7.802 -0.4417  0.0114  0.2558
 7178SOL    HW132996   0.997   1.344   7.787  2.3150 -0.0575  0.8361
 7178SOL    HW232997   1.013   1.470   7.713 -1.2947  1.7589  0.7230
 7179SOL     OW32998   0.681   3.553  11.896 -0.4559 -0.2796 -0.1718
 7179SOL    HW132999   0.703   3.621  11.833  1.1648 -1.5006 -0.9222
 7179SOL    HW233000   0.587   3.564  11.907 -0.3953 -0.9768  1.0397
 7180SOL     OW33001   3.404   0.828   2.030 -0.6918 -0.2013  0.5308
 7180SOL    HW133002   3.340   0.860   1.966 -0.1425 -0.0634  0.0527
 7180SOL    HW233003   3.386   0.891   2.100  1.3105  0.3621  0.5502
 7181SOL     OW33004   1.862   2.206   7.160 -0.0347 -0.2556  0.0913
 7181SOL    HW133005   1.898   2.156   7.233  0.4717 -2.0947 -1.4150
 7181SOL    HW233006   1.936   2.236   7.107 -0.7270  1.8004  0.2694
 7182SOL     OW33007   4.702   0.692   6.409 -0.5719  0.5330 -0.6453
 7182SOL    HW133008   4.653   0.738   6.341  1.8278  2.3991 -1.1216
 7182SOL    HW233009   4.658   0.718   6.490 -3.8274  0.3633 -2.3779
 7183SOL     OW33010   2.255   0.935   6.183 -0.2464 -0.4290 -0.5407
 7183SOL    HW133011   2.160   0.948   6.192 -0.0742 -0.9728  2.1589
 7183SOL    HW233012   2.283   0.981   6.262  2.3288 -0.1591 -1.6035
 7184SOL     OW33013   2.937   3.825   8.012 -0.2745 -0.1207 -0.4022
 7184SOL    HW133014   2.857   3.797   8.056 -0.2232 -0.1992 -0.3602
 7184SOL    HW233015   2.911   3.793   7.926 -2.1467 -1.4410  0.6607
 7185SOL     OW33016   0.182   2.814   2.649  0.2884  0.8819  0.0001
 7185SOL    HW133017   0.136   2.897   2.661  0.7155  1.0267  0.6548
 7185SOL    HW233018   0.213   2.820   2.558  0.7712  1.3839  0.1980
 7186SOL     OW33019   4.617   3.155   6.244 -0.3843 -0.0225  0.5147
 7186SOL    HW133020   4.552   3.196   6.187 -0.9920 -2.4293 -0.5244
 7186SOL    HW233021   4.698   3.153   6.194 -0.1499  0.0235  0.8939
 7187SOL     OW33022   2.559   4.161   4.459 -0.1669  0.2111 -0.6957
 7187SOL    HW133023   2.563   4.067   4.443  0.1322  0.5190 -2.5074
 7187SOL    HW233024   2.650   4.190   4.450 -1.4297  4.3806 -0.3765
 7188SOL     OW33025   4.678   1.619   2.980 -0.9014 -0.0388 -0.4814
 7188SOL    HW133026   0.011   1.621   2.898 -0.7431 -0.4839 -0.3942
 7188SOL    HW233027   0.006   1.549   3.027  0.1988  0.3937 -0.9020
 7189SOL     OW33028   3.326   0.065   1.033 -0.5572  0.1191 -0.1532
 7189SOL    HW133029   3.278   0.060   1.116 -3.1463 -0.7348 -1.7060
 7189SOL    HW233030   3.292   0.139   0.984  1.6880  0.6380 -0.9263
 7190SOL     OW33031   3.095   3.925   6.613  0.1323 -0.7854  0.0601
 7190SOL    HW133032   3.031   3.973   6.560  1.6205 -0.3041 -1.3074
 7190SOL    HW233033   3.044   3.894   6.688 -0.8158  2.5060  0.7931
 7191SOL     OW33034   0.437   4.417   1.086 -0.1408 -0.0061  0.0917
 7191SOL    HW133035   0.429   4.501   1.131  1.5715  0.2200 -0.0383
 7191SOL    HW233036   0.475   4.453   1.006  1.1324  2.2266  1.7120
 7192SOL     OW33037   2.129   4.477   8.231 -0.1197 -0.0881  0.4377
 7192SOL    HW133038   2.115   4.455   8.323 -1.8498  1.1121  0.4683
 7192SOL    HW233039   2.041   4.512   8.214  0.0948  0.4885  0.5352
 7193SOL     OW33040   2.809   0.597  15.392 -0.5019  0.2353  0.5526
 7193SOL    HW133041   2.883   0.639  15.348 -1.3964 -0.8559 -1.9625
 7193SOL    HW233042   2.857   0.518  15.418  0.1219  0.4883  0.1858
 7194SOL     OW33043   1.673   1.112  11.396  0.3390  0.3197 -0.3529
 7194SOL    HW133044   1.646   1.044  11.458 -2.8693  2.8050  0.9403
 7194SOL    HW233045   1.632   1.194  11.422  0.7994  0.2313  0.6669
 7195SOL     OW33046   3.246   2.525   2.443 -0.1744  0.5362  0.2056
 7195SOL    HW133047   3.185   2.588   2.406 -1.4475 -1.4106 -1.0426
 7195SOL    HW233048   3.201   2.441   2.448 -1.7850  1.4713  1.2810
 7196SOL     OW33049   3.845   4.285   4.606  0.4313 -0.0877  0.4105
 7196SOL    HW133050   3.833   4.322   4.519  1.8237 -2.1154 -0.6223
 7196SOL    HW233051   3.828   4.364   4.658 -0.8983  2.2732 -3.6153
 7197SOL     OW33052   3.391   1.025  16.543 -0.0188  0.1689  0.0754
 7197SOL    HW133053   3.457   0.955  16.545  0.7303  0.8568 -1.4930
 7197SOL    HW233054   3.319   0.961  16.543  0.9833 -0.9586 -0.3887
 7198SOL     OW33055   1.242   2.982  17.627 -0.8516  0.3417 -0.2567
 7198SOL    HW133056   1.190   2.902  17.619  1.4861 -1.3965  2.1946
 7198SOL    HW233057   1.192   3.027  17.559 -1.7434 -0.5530 -0.1941
 7199SOL     OW33058   2.984   2.604   9.786 -0.9032  0.2150 -0.1858
 7199SOL    HW133059   2.948   2.692   9.782  4.3701  2.3055 -0.6887
 7199SOL    HW233060   3.037   2.609   9.865  0.2910 -2.0663 -0.8213
 7200SOL     OW33061   1.753   2.951  11.689 -0.1877  0.1372 -0.2591
 7200SOL    HW133062   1.684   2.983  11.747  2.8893  0.6081  3.2068
 7200SOL    HW233063   1.704   2.872  11.668  0.0948  0.1535 -0.9731
 7201SOL     OW33064   3.422   1.913   5.789  0.0827  0.5556 -0.4783
 7201SOL    HW133065   3.398   1.936   5.699  1.0368 -0.1390 -0.9100
 7201SOL    HW233066   3.489   1.975   5.818 -0.8785  0.3155  2.2328
 7202SOL     OW33067   0.212   1.089  10.844 -0.1197 -0.2034  0.2921
 7202SOL    HW133068   0.271   1.049  10.781 -0.4330 -1.3066  0.6988
 7202SOL    HW233069   0.138   1.084  10.784 -1.0140 -0.1417  1.3804
 7203SOL     OW33070   0.675   3.895   3.592 -0.2491 -0.0316  0.1672
 7203SOL    HW133071   0.643   3.885   3.682  0.6033 -0.3185  0.4420
 7203SOL    HW233072   0.753   3.840   3.597  0.2994  0.9645  2.4990
 7204SOL     OW33073   0.904   0.128  11.123  0.1558 -0.0570 -0.5817
 7204SOL    HW133074   0.971   0.092  11.182  0.0441  0.8132  0.0706
 7204SOL    HW233075   0.912   0.223  11.131  2.2792 -0.2822 -0.0205
 7205SOL     OW33076   2.900   3.113   4.783 -0.1097 -0.0539 -0.5343
 7205SOL    HW133077   2.865   3.026   4.802 -0.2649  0.3393  0.9784
 7205SOL    HW233078   2.838   3.168   4.831 -2.3263 -1.8827 -1.2690
 7206SOL     OW33079   2.354   3.243   3.724  0.6800 -0.3528 -0.2593
 7206SOL    HW133080   2.449   3.249   3.738 -0.2167  1.7513  4.9904
 7206SOL    HW233081   2.322   3.198   3.802 -1.0968 -0.5991 -1.1305
 7207SOL     OW33082   2.393   4.174   2.696 -0.1953  0.4298  0.0664
 7207SOL    HW133083   2.462   4.170   2.762 -0.3735  2.5002  0.3749
 7207SOL    HW233084   2.428   4.126   2.621  1.1649 -1.1740  1.7360
 7208SOL     OW33085   4.434   0.308  13.247 -0.6539 -0.2615 -0.5538
 7208SOL    HW133086   4.418   0.248  13.174 -1.6924 -2.3036  1.3389
 7208SOL    HW233087   4.361   0.287  13.304 -0.6281 -0.9808 -0.7870
 7209SOL     OW33088   3.320   2.809   4.431  0.2434 -0.0475 -0.8481
 7209SOL    HW133089   3.345   2.739   4.491 -1.0427 -2.1417 -2.7521
 7209SOL    HW233090   3.248   2.852   4.477  0.9035 -1.1300  1.1986
 7210SOL     OW33091   0.205   0.473   3.157  0.1244  0.3106 -0.0055
 7210SOL    HW133092   0.180   0.404   3.097 -0.8118  0.1468  0.5788
 7210SOL    HW233093   0.252   0.530   3.095  0.2558  1.8470  1.4905
 7211SOL     OW33094   3.534   0.120  10.782 -0.0234  0.0687  0.0850
 7211SOL    HW133095   3.544   0.184  10.853 -1.8479  0.8932 -0.3912
 7211SOL    HW233096   3.581   0.164  10.711  1.0090 -1.9231 -0.4819
 7212SOL     OW33097   0.637   3.290   9.540 -0.2406 -0.4039 -0.1340
 7212SOL    HW133098   0.597   3.210   9.573 -0.1135 -1.0506 -1.5521
 7212SOL    HW233099   0.562   3.329   9.495  1.7604  0.6216 -2.5648
 7213SOL     OW33100   3.855   3.015   5.668 -0.0516  0.0328  0.3276
 7213SOL    HW133101   3.820   2.929   5.691 -1.2881  0.6429  0.7312
 7213SOL    HW233102   3.949   2.997   5.666  0.0459  0.6476 -0.7447
 7214SOL     OW33103   2.992   0.286   8.427  0.4551  0.5628 -0.3320
 7214SOL    HW133104   2.934   0.272   8.501 -0.6670 -0.2550 -1.3844
 7214SOL    HW233105   2.942   0.251   8.353 -0.9783  0.5694  0.6367
 7215SOL     OW33106   3.839   1.497   4.523 -0.0912 -0.2590 -0.1210
 7215SOL    HW133107   3.864   1.567   4.583  0.6422  0.0539 -0.7857
 7215SOL    HW233108   3.838   1.424   4.585  1.2336 -0.0350  0.1650
 7216SOL     OW33109   4.505   3.970   3.828  0.1318 -0.3254 -0.1028
 7216SOL    HW133110   4.530   3.902   3.890  1.7507  1.0763  0.8064
 7216SOL    HW233111   4.575   3.960   3.763  0.5205 -0.0653  0.2723
 7217SOL     OW33112   0.818   3.958   1.652 -0.1250  0.7268 -0.3631
 7217SOL    HW133113   0.863   4.021   1.708 -4.8632  3.6686  0.1169
 7217SOL    HW233114   0.836   3.993   1.565  0.5818  0.0127 -0.5151
 7218SOL     OW33115   3.082   1.465   3.013 -0.6699  0.5025  0.3104
 7218SOL    HW133116   3.082   1.546   2.962  1.0506 -0.7360 -1.6637
 7218SOL    HW233117   3.152   1.485   3.076 -0.2037 -1.9943  0.5862
 7219SOL     OW33118   0.865   3.206  12.284 -0.0660 -0.3247 -0.5189
 7219SOL    HW133119   0.826   3.275  12.231  0.4266  0.0730 -0.3709
 7219SOL    HW233120   0.921   3.154  12.226 -0.9005 -1.3854 -0.3887
 7220SOL     OW33121   3.268   2.574   9.617  0.1118  0.0004  0.5395
 7220SOL    HW133122   3.248   2.489   9.657 -0.4452 -0.9476 -1.7601
 7220SOL    HW233123   3.194   2.586   9.557  0.1244  0.1843  0.5631
 7221SOL     OW33124   4.189   0.243   6.407  0.3735  0.6452 -0.3763
 7221SOL    HW133125   4.209   0.308   6.473 -0.4841 -3.2441  3.7388
 7221SOL    HW233126   4.206   0.291   6.326  1.1893  1.5570  0.3335
 7222SOL     OW33127   1.161   2.389   1.865 -0.3310  0.6630  0.2431
 7222SOL    HW133128   1.141   2.411   1.775  0.3195  0.9717  0.1757
 7222SOL    HW233129   1.076   2.354   1.894 -0.0721 -1.1424 -1.1849
 7223SOL     OW33130   3.924   3.376   5.619 -0.4763 -0.1071 -0.2110
 7223SOL    HW133131   3.878   3.316   5.561 -0.7374 -0.6488  0.5617
 7223SOL    HW233132   3.848   3.425   5.649  1.3959  0.8544  2.9022
 7224SOL     OW33133   4.364   2.049   4.105  0.5722 -0.1390  0.2409
 7224SOL    HW133134   4.298   2.064   4.174  2.1024  2.1153  1.2181
 7224SOL    HW233135   4.448   2.057   4.150  1.5947 -2.2532 -1.3427
 7225SOL     OW33136   4.180   4.217   4.667  0.2036 -0.0410 -0.3312
 7225SOL    HW133137   4.218   4.300   4.638 -1.8167 -0.5086 -4.2908
 7225SOL    HW233138   4.097   4.216   4.620 -0.8318  1.1391  1.4616
 7226SOL     OW33139   1.686   1.574   7.270  0.1452  0.4823  0.3464
 7226SOL    HW133140   1.686   1.525   7.352  1.4066  0.0399  0.0812
 7226SOL    HW233141   1.603   1.620   7.280 -0.1531  0.2831 -1.1534
 7227SOL     OW33142   2.235   1.254   1.411 -0.3741  0.4164  0.5910
 7227SOL    HW133143   2.254   1.192   1.339 -1.3282  1.5767 -0.6534
 7227SOL    HW233144   2.312   1.245   1.468  0.7726  0.7536 -0.8890
 7228SOL     OW33145   4.626   4.566   8.016 -0.5092  0.1913 -0.6447
 7228SOL    HW133146   4.544   4.519   8.029  0.3662 -0.8242  1.2620
 7228SOL    HW233147   4.646   4.525   7.932 -0.5686  1.7288 -1.3978
 7229SOL     OW33148   1.283   2.210  12.684 -0.7738 -0.2903  1.1171
 7229SOL    HW133149   1.202   2.226  12.732 -0.5845  0.6695  1.1240
 7229SOL    HW233150   1.295   2.120  12.711 -2.3284 -0.5685  0.9059
 7230SOL     OW33151   3.076   2.146   3.660  0.5743  0.6381  1.0559
 7230SOL    HW133152   3.038   2.233   3.671  1.1208  1.1520 -1.1889
 7230SOL    HW233153   3.048   2.095   3.736  0.1711 -2.5141 -1.2084
 7231SOL     OW33154   1.047   1.650   0.223  0.2862  0.0594 -0.4890
 7231SOL    HW133155   1.113   1.673   0.289  0.5429 -0.5915 -0.5194
 7231SOL    HW233156   1.076   1.704   0.150 -0.2432  0.9236 -0.0566
 7232SOL     OW33157   3.389   4.562  14.155  0.1093  0.0953 -0.0684
 7232SOL    HW133158   3.412   4.556  14.248  2.5458  3.8539 -0.4199
 7232SOL    HW233159   3.396   4.653  14.124  2.9011  0.9253  3.0529
 7233SOL     OW33160   2.176   2.771   4.152  0.1971 -0.3278  0.4310
 7233SOL    HW133161   2.092   2.799   4.115  0.3536 -0.8493 -0.3109
 7233SOL    HW233162   2.230   2.850   4.150  0.7965 -0.7444  0.2074
 7234SOL     OW33163   1.264   2.689   4.212  0.4553 -0.0863 -0.2791
 7234SOL    HW133164   1.203   2.762   4.205  0.6800  0.1288  0.0425
 7234SOL    HW233165   1.336   2.713   4.154  0.5487  0.3908  0.0367
 7235SOL     OW33166   4.100   4.117   2.119 -0.4453  0.0111  0.1089
 7235SOL    HW133167   4.175   4.058   2.119 -0.6398 -0.2338  0.3703
 7235SOL    HW233168   4.031   4.051   2.129  0.9591 -1.2376  1.6376
 7236SOL     OW33169   0.210   3.125   9.137 -0.1232 -0.3885  0.1571
 7236SOL    HW133170   0.285   3.076   9.170  0.8143  1.8887  1.4092
 7236SOL    HW233171   0.160   3.135   9.217 -0.3272  1.1955 -0.1725
 7237SOL     OW33172   4.223   1.365  13.778 -0.6704 -0.2372 -0.2340
 7237SOL    HW133173   4.142   1.381  13.728 -0.0480 -1.3451 -1.6040
 7237SOL    HW233174   4.289   1.376  13.710 -0.7925  2.4134  0.0822
 7238SOL     OW33175   1.075   1.799   6.681 -0.2666 -0.0274  0.0130
 7238SOL    HW133176   1.059   1.706   6.662  1.2555 -0.1586 -0.6185
 7238SOL    HW233177   1.140   1.789   6.750 -0.5373  2.0333  0.5603
 7239SOL     OW33178   1.324   3.145   4.835 -0.0326 -0.6625 -0.3165
 7239SOL    HW133179   1.282   3.062   4.861 -0.2550 -0.4773 -0.0857
 7239SOL    HW233180   1.247   3.182   4.792 -0.7725 -2.2147 -0.3398
 7240SOL     OW33181   3.607   3.957   2.786 -0.7890 -0.2972 -0.4470
 7240SOL    HW133182   3.571   3.989   2.704 -1.4358  1.1095  0.3968
 7240SOL    HW233183   3.594   3.865   2.762 -0.6520 -0.2781 -0.5909
 7241SOL     OW33184   2.015   1.313   2.092  0.0455 -0.6193 -0.3168
 7241SOL    HW133185   1.921   1.330   2.086  0.7301  1.7964 -4.9040
 7241SOL    HW233186   2.029   1.294   2.185  0.0700 -0.8243 -0.3628
 7242SOL     OW33187   4.524   4.047  10.751 -0.1400 -0.7088  0.5296
 7242SOL    HW133188   4.527   4.003  10.836 -0.7270 -1.4048  0.1978
 7242SOL    HW233189   4.618   4.040  10.734 -0.9880 -3.1375 -3.3465
 7243SOL     OW33190   2.568   4.098  11.555 -0.2623 -0.2584  0.4274
 7243SOL    HW133191   2.505   4.049  11.608 -0.4754  0.3864  0.7622
 7243SOL    HW233192   2.554   4.059  11.469 -0.7441 -1.0540  0.8666
 7244SOL     OW33193   1.748   2.242   1.622  0.8532  0.3131 -0.3781
 7244SOL    HW133194   1.727   2.178   1.690 -1.2249  1.5356  0.1445
 7244SOL    HW233195   1.685   2.310   1.648  0.3180  0.4158 -1.9446
 7245SOL     OW33196   1.681   2.257   4.568  0.1083 -0.3702  0.0609
 7245SOL    HW133197   1.766   2.259   4.523  1.8966  2.4014  3.5858
 7245SOL    HW233198   1.620   2.259   4.495  0.8289 -0.3458 -0.5440
 7246SOL     OW33199   2.105   1.045   6.589 -0.3474 -0.2614  0.1064
 7246SOL    HW133200   2.151   1.076   6.510  0.8534 -0.1182  0.8625
 7246SOL    HW233201   2.121   1.108   6.659 -0.7172  1.3401 -1.2383
 7247SOL     OW33202   0.587   0.297   8.723  0.3700  0.4481 -0.4996
 7247SOL    HW133203   0.534   0.288   8.802 -0.7000  1.1514 -1.1312
 7247SOL    HW233204   0.661   0.337   8.769  0.8368 -0.3490 -0.5717
 7248SOL     OW33205   4.020   2.168   2.637  0.3844 -0.0612 -0.3715
 7248SOL    HW133206   4.104   2.122   2.637 -0.1112 -0.9314 -2.6202
 7248SOL    HW233207   4.055   2.255   2.620 -1.8692  1.2302  1.5084
 7249SOL     OW33208   1.699   2.044   1.842 -0.7841 -0.2297  0.2768
 7249SOL    HW133209   1.667   1.979   1.780 -0.2961  0.2651 -0.5068
 7249SOL    HW233210   1.772   1.995   1.881  3.0227  1.7734 -4.3561
 7250SOL     OW33211   4.058   0.071  13.993 -1.0314 -0.2450  0.0438
 7250SOL    HW133212   4.115   0.122  14.051 -0.8190 -1.8519  1.2356
 7250SOL    HW233213   4.051   0.131  13.919  1.7929 -0.3739 -0.3359
 7251SOL     OW33214   0.305   0.939   0.749  0.1808 -0.0854  0.8199
 7251SOL    HW133215   0.327   0.944   0.656 -0.2719 -1.5701  0.6291
 7251SOL    HW233216   0.351   0.857   0.767 -1.1970 -1.0080  0.1376
 7252SOL     OW33217   3.301   0.861   5.691  0.5859 -0.3620 -0.1567
 7252SOL    HW133218   3.342   0.793   5.638  2.9100  0.7018  0.2776
 7252SOL    HW233219   3.302   0.822   5.779  1.3094  0.3602  0.1569
 7253SOL     OW33220   1.009   4.571   4.250  0.6581  0.3603 -0.0196
 7253SOL    HW133221   0.915   4.555   4.252  0.4934  1.4105  0.9365
 7253SOL    HW233222   1.043   4.515   4.320 -0.5599 -1.2718 -0.7604
 7254SOL     OW33223   1.055   2.568  11.883  0.1643  0.0460  0.0511
 7254SOL    HW133224   1.099   2.580  11.799 -1.3506 -1.9172 -1.0215
 7254SOL    HW233225   1.030   2.477  11.865 -0.4638  0.0074  1.1318
 7255SOL     OW33226   0.629   2.887   4.080 -0.1787  0.7868  0.5218
 7255SOL    HW133227   0.660   2.805   4.043 -0.2585  0.5655  0.9526
 7255SOL    HW233228   0.536   2.864   4.090 -0.1096 -0.2897 -1.2514
 7256SOL     OW33229   1.778   3.530   2.506  0.7405  0.5495  0.1672
 7256SOL    HW133230   1.687   3.537   2.535  0.7054  0.9284 -0.0332
 7256SOL    HW233231   1.800   3.619   2.532  1.7061  0.0577  1.0215
 7257SOL     OW33232   0.923   0.639   6.768 -0.5948  0.4953 -0.3218
 7257SOL    HW133233   0.956   0.657   6.856 -1.7063 -0.8302  0.3589
 7257SOL    HW233234   0.829   0.641   6.784 -0.4466  1.6442  0.3939
 7258SOL     OW33235   4.702   2.294   2.668 -0.0383  0.5756  0.3620
 7258SOL    HW133236   4.672   2.293   2.578 -0.2512 -1.2119  0.4556
 7258SOL    HW233237   0.033   2.375   2.653  0.2208  0.6434  1.5417
 7259SOL     OW33238   3.676   0.525   4.612 -0.5081 -0.3316  0.4533
 7259SOL    HW133239   3.761   0.487   4.633 -0.6529 -2.1022 -2.2033
 7259SOL    HW233240   3.644   0.540   4.701 -1.1721 -1.5910  0.4277
 7260SOL     OW33241   0.352   3.242   7.785  0.0820  0.3583 -0.0518
 7260SOL    HW133242   0.369   3.298   7.710  0.1567  0.4019 -0.0026
 7260SOL    HW233243   0.438   3.207   7.806 -1.1431 -3.7541 -1.8220
 7261SOL     OW33244   3.041   3.669   4.374  0.4677 -0.5420 -0.6956
 7261SOL    HW133245   3.003   3.754   4.391  0.7323 -0.2354 -1.6432
 7261SOL    HW233246   3.071   3.683   4.285 -0.4013 -0.1164 -0.9191
 7262SOL     OW33247   3.704   3.206   3.834  0.1285  0.0069 -0.1448
 7262SOL    HW133248   3.635   3.174   3.892  0.5017 -0.9521 -0.2273
 7262SOL    HW233249   3.773   3.141   3.837 -1.3668 -1.5652  0.1664
 7263SOL     OW33250   0.542   0.801   7.929  0.1152 -0.5561  0.1145
 7263SOL    HW133251   0.453   0.830   7.952 -0.4026 -3.1119  1.3964
 7263SOL    HW233252   0.529   0.719   7.881 -0.7056  0.3348 -1.1760
 7264SOL     OW33253   0.051   0.086   2.459  0.2472  0.4836  0.3552
 7264SOL    HW133254   0.072   4.713   2.437 -1.0979  0.1240  0.5756
 7264SOL    HW233255   0.119   0.132   2.409 -0.7887  1.1711 -0.4351
 7265SOL     OW33256   4.393   2.014   6.602  0.1938  0.4380  0.8091
 7265SOL    HW133257   4.467   2.018   6.663  1.3685 -1.5196 -0.5101
 7265SOL    HW233258   4.326   2.052   6.659 -2.0039 -0.0829 -1.4631
 7266SOL     OW33259   3.675   4.424  12.013 -0.0521 -0.4405 -0.3198
 7266SOL    HW133260   3.643   4.338  11.986 -0.9626 -0.8066  1.9305
 7266SOL    HW233261   3.758   4.406  12.058 -0.0066  2.3268  0.7173
 7267SOL     OW33262   1.306   1.491   0.465  0.0503 -0.0494 -0.0638
 7267SOL    HW133263   1.272   1.420   0.411 -0.9499 -0.0960  0.6371
 7267SOL    HW233264   1.232   1.541   0.498  0.5057  0.4253  0.2508
 7268SOL     OW33265   4.208   4.299   3.629 -0.0480  0.5640 -0.3403
 7268SOL    HW133266   4.228   4.221   3.680  0.8035  1.3385  0.5223
 7268SOL    HW233267   4.293   4.342   3.624  0.1067  0.2971  0.0555
 7269SOL     OW33268   3.644   3.413   7.264 -0.2539 -0.4719 -0.1894
 7269SOL    HW133269   3.604   3.457   7.189 -0.3442 -0.6409 -0.2434
 7269SOL    HW233270   3.684   3.492   7.301 -1.7861 -0.6873  1.9737
 7270SOL     OW33271   4.461   2.934   5.401 -0.0364  0.1535 -0.2117
 7270SOL    HW133272   4.524   2.893   5.341  0.4823 -0.7365  0.9304
 7270SOL    HW233273   4.421   2.994   5.338  0.6062 -0.1393 -0.8988
 7271SOL     OW33274   2.145   3.179   2.965 -0.1506 -0.1561 -0.5109
 7271SOL    HW133275   2.207   3.192   2.893  0.8181  0.4013  0.4285
 7271SOL    HW233276   2.093   3.256   2.944  0.4642  0.1519 -0.8877
 7272SOL     OW33277   4.549   1.311   4.446 -0.3677 -0.1117  0.3973
 7272SOL    HW133278   4.536   1.242   4.381 -0.5431  1.9829 -1.8368
 7272SOL    HW233279   4.486   1.290   4.514 -1.3114 -0.8183 -0.7029
 7273SOL     OW33280   1.453   3.279  13.193  0.3355 -0.3272 -0.0099
 7273SOL    HW133281   1.392   3.213  13.226  0.1050 -0.7731 -1.3078
 7273SOL    HW233282   1.530   3.222  13.185  1.5556  1.3440 -0.1023
 7274SOL     OW33283   1.600   1.167   4.781  0.2981  0.3060 -0.2062
 7274SOL    HW133284   1.513   1.170   4.822  0.3108 -0.4209 -0.1256
 7274SOL    HW233285   1.652   1.114   4.842  0.5085  1.0680  0.2683
 7275SOL     OW33286   0.921   3.253   8.683  1.0013 -0.0796  0.0233
 7275SOL    HW133287   0.873   3.193   8.626  0.8463 -0.4692  0.5606
 7275SOL    HW233288   0.866   3.258   8.761  0.5174  1.6402 -0.4285
 7276SOL     OW33289   1.782   2.395   3.347 -0.4884 -0.7868  0.4891
 7276SOL    HW133290   1.719   2.431   3.286 -1.1745  0.4343  1.9286
 7276SOL    HW233291   1.852   2.461   3.344 -2.1394  0.9980  1.3252
 7277SOL     OW33292   4.318   4.068  10.312  0.0524 -0.2514  0.2077
 7277SOL    HW133293   4.369   4.066  10.232 -0.3288  0.8503 -0.0692
 7277SOL    HW233294   4.237   4.107  10.279  0.2362 -0.9066 -1.0185
 7278SOL     OW33295   2.209   3.370   8.959  0.6100 -0.3069 -0.5131
 7278SOL    HW133296   2.152   3.318   9.016  2.7728 -1.5315  0.5304
 7278SOL    HW233297   2.168   3.456   8.964 -0.1914 -0.7087 -0.2043
 7279SOL     OW33298   2.827   4.471   9.995 -0.5120 -0.2587 -0.0857
 7279SOL    HW133299   2.742   4.442   9.963 -0.4710 -0.3353 -0.1258
 7279SOL    HW233300   2.874   4.388   9.999  0.7389  0.3557 -1.8269
 7280SOL     OW33301   3.489   4.195   6.666  0.5747 -0.2840 -0.4491
 7280SOL    HW133302   3.420   4.152   6.716  0.4478 -0.4622 -0.7815
 7280SOL    HW233303   3.501   4.143   6.587  0.7630  0.6757 -1.0520
 7281SOL     OW33304   3.326   1.395   3.606  0.1425 -0.4838  0.0607
 7281SOL    HW133305   3.356   1.405   3.515  0.5639  1.4289  0.4107
 7281SOL    HW233306   3.287   1.481   3.618 -1.0766 -1.0029 -0.1089
 7282SOL     OW33307   0.772   0.849   7.569 -0.0838  0.1469  0.3415
 7282SOL    HW133308   0.848   0.900   7.596 -0.2613  0.1290  0.8724
 7282SOL    HW233309   0.801   0.760   7.590  0.0057  0.6405  2.3345
 7283SOL     OW33310   4.442   1.636   5.414  0.5609 -0.4450 -0.0978
 7283SOL    HW133311   4.410   1.568   5.473  1.2201 -1.4024 -0.8505
 7283SOL    HW233312   4.534   1.613   5.426  0.2475 -1.0645  1.1580
 7284SOL     OW33313   2.309   1.443   6.328  0.0661  0.3199  0.1005
 7284SOL    HW133314   2.291   1.363   6.278  1.0777 -0.6302  1.2524
 7284SOL    HW233315   2.353   1.498   6.264  2.4854 -0.1860  1.3159
 7285SOL     OW33316   0.505   4.153   4.112 -0.1101 -0.2380 -0.3292
 7285SOL    HW133317   0.433   4.090   4.119 -0.5832  0.4996  1.3280
 7285SOL    HW233318   0.577   4.102   4.148  0.6635  0.4309 -0.9361
 7286SOL     OW33319   3.530   0.352   8.798  0.4643  0.3465  0.0660
 7286SOL    HW133320   3.469   0.401   8.853 -0.9730 -1.6183  0.1981
 7286SOL    HW233321   3.609   0.365   8.850  0.4935 -0.1949  0.1525
 7287SOL     OW33322   3.834   2.000   5.007  0.0912 -0.0030  0.5220
 7287SOL    HW133323   3.783   2.041   4.937 -0.3385  1.1431  1.5218
 7287SOL    HW233324   3.920   2.013   4.966  0.2986  1.1865  1.3323
 7288SOL     OW33325   3.148   2.595  10.189 -0.4584 -0.3624 -0.0236
 7288SOL    HW133326   3.192   2.657  10.247  0.5755 -2.6128  1.5802
 7288SOL    HW233327   3.216   2.590  10.122  2.5995 -0.3387  3.1034
 7289SOL     OW33328   3.363   2.344   8.720  0.1628  0.0782  0.0659
 7289SOL    HW133329   3.425   2.304   8.781 -0.7091 -1.1027  0.1633
 7289SOL    HW233330   3.384   2.437   8.728 -4.1066  1.2495 -2.6056
 7290SOL     OW33331   3.794   0.873   3.011  0.3248  0.2698 -0.2775
 7290SOL    HW133332   3.824   0.908   2.927  0.6836  2.0004  0.5616
 7290SOL    HW233333   3.881   0.846   3.038 -0.0536  0.1863  0.8227
 7291SOL     OW33334   3.563   2.866   1.909  0.4955 -0.2561  0.2124
 7291SOL    HW133335   3.473   2.899   1.906  0.0355 -1.5467 -0.3067
 7291SOL    HW233336   3.554   2.821   1.825 -0.3629 -0.1919  0.2647
 7292SOL     OW33337   3.834   0.204   1.903  0.0832  0.4637  0.6343
 7292SOL    HW133338   3.809   0.186   1.993  2.1699 -0.7661  0.9584
 7292SOL    HW233339   3.818   0.123   1.853  1.1957  1.7045 -1.7625
 7293SOL     OW33340   3.124   1.853  16.699 -0.4128  0.2754  0.1407
 7293SOL    HW133341   3.191   1.785  16.705 -1.3345 -0.4088  2.5582
 7293SOL    HW233342   3.072   1.822  16.625 -1.2321  3.2741 -0.5502
 7294SOL     OW33343   4.539   1.970  10.941 -0.4589 -0.0669  0.4529
 7294SOL    HW133344   4.456   1.923  10.951  0.0634 -1.4378 -1.7428
 7294SOL    HW233345   4.507   2.038  10.883  1.5878  0.7218  0.2621
 7295SOL     OW33346   1.098   4.132  15.485 -0.3199 -0.3797  0.3594
 7295SOL    HW133347   1.078   4.081  15.564  0.3471 -1.0328  0.1080
 7295SOL    HW233348   1.170   4.182  15.522 -0.2676  1.0658 -1.7683
 7296SOL     OW33349   0.894   3.855   5.224 -0.5447 -0.0998 -0.0366
 7296SOL    HW133350   0.950   3.932   5.228 -2.5460  1.3309  0.7847
 7296SOL    HW233351   0.930   3.812   5.302  1.9312  0.0214 -1.1214
 7297SOL     OW33352   0.677   1.061   4.642  0.1509 -0.1418 -0.3211
 7297SOL    HW133353   0.600   1.049   4.699  1.4990 -0.8783  1.3620
 7297SOL    HW233354   0.692   0.974   4.605  2.3580  1.0370 -2.1615
 7298SOL     OW33355   3.355   0.491   8.988  0.2858  0.1663 -0.5952
 7298SOL    HW133356   3.297   0.437   9.042 -0.1198 -0.3101 -1.5174
 7298SOL    HW233357   3.328   0.574   9.027  0.9947 -0.4742  1.2490
 7299SOL     OW33358   1.670   0.612   7.419 -0.4901 -0.7145  0.3961
 7299SOL    HW133359   1.727   0.664   7.363 -0.3898  2.4754  3.4782
 7299SOL    HW233360   1.722   0.535   7.444 -0.7159 -2.0381 -3.1983
 7300SOL     OW33361   1.338   3.427  14.355  0.2797  0.0226 -0.5180
 7300SOL    HW133362   1.296   3.499  14.308  2.1873  3.2927  2.7796
 7300SOL    HW233363   1.424   3.424  14.313  0.4470  1.6881 -0.2914
 7301SOL     OW33364   1.861   1.692   2.707  0.2701  0.4047 -0.1349
 7301SOL    HW133365   1.827   1.609   2.675  0.4618  0.6233 -0.9204
 7301SOL    HW233366   1.907   1.724   2.629 -0.6726 -1.0930 -1.3017
 7302SOL     OW33367   3.106   0.128   2.592 -0.0817  0.2790  0.6837
 7302SOL    HW133368   3.050   0.077   2.651 -0.3090  0.0213  0.2428
 7302SOL    HW233369   3.047   0.136   2.517  0.9109 -1.1218 -0.2359
 7303SOL     OW33370   2.907   1.829   1.810 -0.5798  0.0784 -0.3602
 7303SOL    HW133371   2.902   1.848   1.716  1.7008  1.4904 -0.1916
 7303SOL    HW233372   2.977   1.765   1.820 -1.0624 -0.3261  0.4226
 7304SOL     OW33373   4.336   0.544   6.805 -0.3504  0.0012  0.0234
 7304SOL    HW133374   4.369   0.621   6.851 -2.4118  0.7881  0.1803
 7304SOL    HW233375   4.250   0.540   6.847  0.1210 -0.7634  0.9198
 7305SOL     OW33376   3.400   3.800   5.098 -0.3583 -0.1259  0.4444
 7305SOL    HW133377   3.326   3.752   5.134 -1.5393  0.1026 -1.7103
 7305SOL    HW233378   3.476   3.757   5.139 -1.4828 -0.6102  2.0207
 7306SOL     OW33379   3.808   2.932   7.590 -0.2685  0.0696  0.2158
 7306SOL    HW133380   3.858   3.005   7.625  1.8572 -0.5132 -1.6293
 7306SOL    HW233381   3.749   2.986   7.538 -0.4434 -1.7173 -1.4688
 7307SOL     OW33382   2.708   3.924  17.306 -0.1251  0.4239 -0.1958
 7307SOL    HW133383   2.647   3.997  17.313 -0.1062  0.7259 -3.2554
 7307SOL    HW233384   2.671   3.874  17.234 -0.7087  0.8032 -0.1551
 7308SOL     OW33385   3.862   1.858   0.563  0.4261  0.4108 -0.1871
 7308SOL    HW133386   3.882   1.846   0.471  0.5683  0.7885 -0.2014
 7308SOL    HW233387   3.810   1.937   0.550  0.9181  1.0477  1.7912
 7309SOL     OW33388   4.033   3.982   5.557 -0.6424  0.2310 -0.5828
 7309SOL    HW133389   4.036   4.076   5.540  1.4652  0.1896 -0.4062
 7309SOL    HW233390   4.061   3.978   5.649  1.3427  0.9748 -1.1632
 7310SOL     OW33391   3.850   0.716  13.104 -0.1544 -0.7359 -0.5350
 7310SOL    HW133392   3.785   0.648  13.090  0.5850 -1.3074 -1.2437
 7310SOL    HW233393   3.862   0.705  13.198  0.4031  0.4689 -0.4653
 7311SOL     OW33394   2.239   0.301  14.000  0.5686 -0.2196 -0.4777
 7311SOL    HW133395   2.242   0.217  14.046 -0.9803 -0.8186 -1.4872
 7311SOL    HW233396   2.309   0.296  13.935 -0.5728 -2.2124 -1.5451
 7312SOL     OW33397   1.625   0.496   9.489 -0.1664  0.4237  0.2548
 7312SOL    HW133398   1.538   0.457   9.483  0.4175 -0.2267 -3.9416
 7312SOL    HW233399   1.653   0.508   9.398 -0.7653 -0.7563 -0.0759
 7313SOL     OW33400   0.143   3.602  17.050 -0.5640 -0.3565  0.1967
 7313SOL    HW133401   0.230   3.608  17.012 -0.1718 -2.5889  0.7359
 7313SOL    HW233402   0.148   3.512  17.080  0.4038 -0.2111  0.4834
 7314SOL     OW33403   4.612   2.872   2.850 -0.2530  0.5773 -0.0532
 7314SOL    HW133404   4.609   2.928   2.773 -0.6605 -1.0270 -1.2117
 7314SOL    HW233405   4.704   2.891   2.869  0.1228 -2.3193  1.0328
 7315SOL     OW33406   4.432   4.280   6.596 -0.2272 -0.0221  0.5483
 7315SOL    HW133407   4.504   4.254   6.538 -0.9644  0.6850 -0.6964
 7315SOL    HW233408   4.377   4.327   6.533 -0.0470 -0.9228 -0.2720
 7316SOL     OW33409   1.119   3.323  16.267 -0.3718 -0.6076  0.4887
 7316SOL    HW133410   1.099   3.253  16.205 -1.9094  1.4358 -1.3214
 7316SOL    HW233411   1.184   3.277  16.321 -0.5150 -0.1361  1.0656
 7317SOL     OW33412   3.191   4.239   9.041 -0.3382 -0.0661  0.1876
 7317SOL    HW133413   3.133   4.304   9.081 -0.2657  1.3497 -1.9665
 7317SOL    HW233414   3.267   4.294   9.022  0.7125 -2.2543 -2.0317
 7318SOL     OW33415   4.600   2.794   5.187 -0.3395 -0.1427 -0.2658
 7318SOL    HW133416   4.564   2.825   5.105 -0.2363  0.2132 -0.1746
 7318SOL    HW233417   4.648   2.714   5.165 -0.4746 -0.1444 -0.5571
 7319SOL     OW33418   1.958   1.112   8.197  0.3840 -0.3890  0.3338
 7319SOL    HW133419   1.920   1.042   8.250  0.1028 -1.3640 -1.1425
 7319SOL    HW233420   1.890   1.176   8.216 -0.2598 -1.4315  1.5954
 7320SOL     OW33421   1.124   4.489   5.219 -0.3069  0.2908 -0.0863
 7320SOL    HW133422   1.135   4.568   5.273  1.3998 -0.6230  0.9382
 7320SOL    HW233423   1.075   4.524   5.145 -0.7817 -0.3944 -0.0930
 7321SOL     OW33424   1.912   4.278  13.770 -1.2441  0.3326 -0.4878
 7321SOL    HW133425   1.896   4.340  13.698  1.7950 -0.8302 -2.1540
 7321SOL    HW233426   2.007   4.273  13.764 -1.1041  0.9701  1.2880
 7322SOL     OW33427   0.454   2.062  14.740  0.0254 -0.7982  0.2056
 7322SOL    HW133428   0.361   2.056  14.761 -0.1311 -2.6476 -1.0005
 7322SOL    HW233429   0.438   2.084  14.649  0.1500  0.3933  0.4751
 7323SOL     OW33430   1.832   0.920   4.344  0.4075  0.0452  0.1781
 7323SOL    HW133431   1.819   0.989   4.279  0.2084  0.2873  0.4748
 7323SOL    HW233432   1.926   0.929   4.361  0.0518 -0.7763  2.5379
 7324SOL     OW33433   3.881   4.716   4.685 -0.5101 -0.4494  0.0636
 7324SOL    HW133434   3.800   0.030   4.725 -0.7132 -0.3938 -0.3957
 7324SOL    HW233435   3.892   0.062   4.614 -1.2299 -1.4701 -0.9520
 7325SOL     OW33436   0.162   2.836   6.157  0.0385 -0.1449  0.3708
 7325SOL    HW133437   0.142   2.849   6.065  0.0660  1.3920  0.5732
 7325SOL    HW233438   0.255   2.814   6.165  0.1727  0.4322  0.3805
 7326SOL     OW33439   0.167   3.671   8.848 -0.0732  0.1747  0.1028
 7326SOL    HW133440   0.073   3.657   8.833  0.5136 -2.0002 -1.5386
 7326SOL    HW233441   0.194   3.588   8.809  1.6859  0.3268  1.0003
 7327SOL     OW33442   3.494   2.021   3.004  0.2299  0.2817  0.2649
 7327SOL    HW133443   3.421   2.080   2.988  0.9185  0.9816 -0.2868
 7327SOL    HW233444   3.568   2.059   2.957 -1.5563  0.1897 -2.6089
 7328SOL     OW33445   0.758   1.588   4.304  0.2029  0.4405  0.2684
 7328SOL    HW133446   0.709   1.571   4.224 -0.8058  0.6154  0.8581
 7328SOL    HW233447   0.795   1.671   4.273 -1.0846  0.3565 -1.4592
 7329SOL     OW33448   1.015   3.107   4.478  0.0503  0.5954 -0.2092
 7329SOL    HW133449   1.088   3.071   4.427 -0.6769  1.0047 -1.5440
 7329SOL    HW233450   0.965   3.147   4.407  0.4323  0.2181 -0.6870
 7330SOL     OW33451   2.620   3.841   3.527  0.5849 -0.2139  0.4136
 7330SOL    HW133452   2.706   3.874   3.498 -0.5402  0.3953 -2.2159
 7330SOL    HW233453   2.644   3.764   3.579 -1.2601 -0.4546  0.8828
 7331SOL     OW33454   2.167   2.008   0.713 -0.1568 -0.5282 -0.2831
 7331SOL    HW133455   2.106   1.957   0.659 -0.5844 -0.8712  0.5238
 7331SOL    HW233456   2.104   2.056   0.767  0.6678  0.8061 -0.5100
 7332SOL     OW33457   2.488   4.455   5.471  0.9519  0.2322 -0.1903
 7332SOL    HW133458   2.409   4.432   5.520  1.0131  1.6413  0.5631
 7332SOL    HW233459   2.490   4.387   5.404  0.2637  0.6989 -0.6834
 7333SOL     OW33460   2.896   4.377   4.126  0.1722  0.2394 -0.3382
 7333SOL    HW133461   2.883   4.356   4.033  0.5615 -0.6627 -0.1861
 7333SOL    HW233462   2.978   4.330   4.141 -0.9971 -1.4541  0.7127
 7334SOL     OW33463   4.572   3.679   0.987  0.5974 -0.0418  0.6172
 7334SOL    HW133464   4.513   3.607   0.965  1.1870 -0.7168  1.2940
 7334SOL    HW233465   4.637   3.625   1.030 -0.3571 -1.7848 -0.1363
 7335SOL     OW33466   3.052   1.177   8.416  0.2326 -0.0045  0.7342
 7335SOL    HW133467   2.960   1.155   8.400 -0.2104  1.8243  0.7674
 7335SOL    HW233468   3.058   1.121   8.493 -0.8195 -0.6764  0.3335
 7336SOL     OW33469   3.370   3.488   4.810  0.1000 -0.4711 -0.1127
 7336SOL    HW133470   3.346   3.567   4.858  2.6484 -0.8126  1.6960
 7336SOL    HW233471   3.368   3.515   4.718  2.2576  2.8774  0.8207
 7337SOL     OW33472   1.367   1.891   5.116 -0.6196 -0.4509 -0.0555
 7337SOL    HW133473   1.352   1.962   5.053 -0.8383 -1.1214 -0.7682
 7337SOL    HW233474   1.462   1.886   5.123 -0.3517 -0.0311 -3.1891
 7338SOL     OW33475   3.076   4.148   6.385 -0.7216 -0.3477 -0.3290
 7338SOL    HW133476   3.090   4.194   6.468 -1.7270  1.2722 -1.0644
 7338SOL    HW233477   3.007   4.199   6.345  1.6766  1.5829 -1.9884
 7339SOL     OW33478   0.676   2.151   2.476 -0.0128 -0.1055 -0.3321
 7339SOL    HW133479   0.621   2.106   2.540 -0.7334  2.8903  1.1786
 7339SOL    HW233480   0.681   2.087   2.406  1.8800 -0.0836 -0.2097
 7340SOL     OW33481   2.998   2.864   8.042 -0.0587  0.0906 -0.3378
 7340SOL    HW133482   2.980   2.840   8.133  1.5682  1.4315  0.3616
 7340SOL    HW233483   3.036   2.950   8.063 -0.8634  0.5634 -0.8236
 7341SOL     OW33484   1.521   3.077   5.316 -0.1377  0.2953  0.3570
 7341SOL    HW133485   1.430   3.057   5.338  0.2491 -1.3082  0.5260
 7341SOL    HW233486   1.559   2.998   5.356  0.2644 -1.4773 -3.4884
 7342SOL     OW33487   4.184   2.201   0.079 -0.2616  0.3613  0.3386
 7342SOL    HW133488   4.125   2.196   0.154 -1.3969  3.4953 -0.3090
 7342SOL    HW233489   4.266   2.209   0.127  1.2560 -1.2059 -2.0519
 7343SOL     OW33490   1.416   3.526   8.363 -0.2883 -0.3194  0.3076
 7343SOL    HW133491   1.335   3.512   8.315  0.4972  1.8349 -1.6654
 7343SOL    HW233492   1.387   3.478   8.440 -1.4060 -1.0333 -0.5676
 7344SOL     OW33493   2.051   1.741   3.838 -0.2340 -0.3052 -0.3808
 7344SOL    HW133494   2.116   1.784   3.782 -0.9513  3.2670  1.4835
 7344SOL    HW233495   1.990   1.815   3.847 -1.2141 -1.1006 -0.5203
 7345SOL     OW33496   2.279   0.770   8.442 -0.0835  0.1825  0.1585
 7345SOL    HW133497   2.261   0.676   8.436  1.7526 -0.2455  1.3956
 7345SOL    HW233498   2.259   0.791   8.351 -0.6069 -0.4669  0.1134
 7346SOL     OW33499   3.880   0.304   3.125 -0.0691  0.2410 -0.4907
 7346SOL    HW133500   3.958   0.283   3.072 -0.3630  0.6141 -1.0788
 7346SOL    HW233501   3.920   0.369   3.183  3.9424 -2.3505 -0.3135
 7347SOL     OW33502   2.047   1.361   7.087 -0.1112  0.0841  0.2618
 7347SOL    HW133503   2.035   1.378   7.180 -0.3247  2.3090 -0.1720
 7347SOL    HW233504   2.001   1.438   7.053  0.0166  1.1002  2.3751
 7348SOL     OW33505   1.685   1.814   0.489  0.1283 -0.0719 -0.2322
 7348SOL    HW133506   1.679   1.720   0.507  0.5453  0.4630  2.6594
 7348SOL    HW233507   1.589   1.816   0.486  0.0531 -0.1773  2.0834
 7349SOL     OW33508   3.840   1.264   3.397 -0.3876 -1.1736 -0.0249
 7349SOL    HW133509   3.929   1.294   3.380  0.5168 -3.9171 -0.0439
 7349SOL    HW233510   3.803   1.243   3.311  0.5856  0.0424 -0.7503
 7350SOL     OW33511   2.665   1.660   6.408  0.1591 -0.0514  0.1583
 7350SOL    HW133512   2.724   1.735   6.406 -1.5105  1.2470 -0.4634
 7350SOL    HW233513   2.678   1.631   6.318  0.1282 -0.0048  0.1394
 7351SOL     OW33514   0.878   0.520   4.808  0.1606  0.1895  0.1541
 7351SOL    HW133515   0.820   0.497   4.880 -1.1934  0.2735 -0.9043
 7351SOL    HW233516   0.949   0.457   4.818  0.7458  0.6303 -1.1425
 7352SOL     OW33517   1.733   1.111   3.827 -0.0078  0.0944  0.6015
 7352SOL    HW133518   1.759   1.141   3.740 -2.0109  0.7914  0.2393
 7352SOL    HW233519   1.640   1.133   3.822  0.1391  0.2907 -1.3582
 7353SOL     OW33520   0.788   1.730   1.987 -0.1342 -0.0277  0.5511
 7353SOL    HW133521   0.833   1.664   1.936 -0.0102  0.6522 -0.2205
 7353SOL    HW233522   0.784   1.694   2.075  0.6528 -2.2228 -0.3259
 7354SOL     OW33523   4.287   0.880   6.698 -0.4438  0.4053 -0.1856
 7354SOL    HW133524   4.363   0.847   6.651 -2.4355 -2.9402 -1.0531
 7354SOL    HW233525   4.218   0.875   6.631  0.4998  1.6585 -1.2574
 7355SOL     OW33526   4.667   3.735   4.712 -0.1135  0.0296 -0.1632
 7355SOL    HW133527   4.614   3.770   4.783 -1.1893 -2.2879  0.1754
 7355SOL    HW233528   0.030   3.715   4.760  0.3729 -1.8490 -1.7506
 7356SOL     OW33529   2.555   3.975   5.086 -0.3687 -0.4451 -0.6264
 7356SOL    HW133530   2.588   3.974   4.996  1.1906 -1.4711 -0.0516
 7356SOL    HW233531   2.467   4.013   5.086  0.1877  0.8866  3.6093
 7357SOL     OW33532   3.602   1.953   5.515  0.1538  0.0388  0.6072
 7357SOL    HW133533   3.640   2.017   5.455  0.3329 -1.4720 -0.9005
 7357SOL    HW233534   3.515   1.954   5.476 -0.3737  0.2136  1.7779
 7358SOL     OW33535   4.664   2.623  15.871  0.5653  0.1332 -0.2818
 7358SOL    HW133536   4.607   2.676  15.926  0.4555 -1.0104  0.7019
 7358SOL    HW233537   4.717   2.693  15.831  2.6668  0.3625  2.9268
 7359SOL     OW33538   1.512   4.254   6.616  0.7620  0.9789  0.2689
 7359SOL    HW133539   1.567   4.315   6.567  0.7218  1.9440  1.4163
 7359SOL    HW233540   1.552   4.168   6.601 -1.1033  0.7083 -2.9905
 7360SOL     OW33541   0.782   0.297  15.338  0.2660 -0.1818  0.3197
 7360SOL    HW133542   0.851   0.329  15.396 -0.4635  2.4541 -0.2478
 7360SOL    HW233543   0.793   0.206  15.367  1.2105  0.3585  1.6781
 7361SOL     OW33544   3.081   0.421   2.144  0.0339  0.6069 -0.2749
 7361SOL    HW133545   3.089   0.423   2.049 -1.5863  2.4633 -0.3749
 7361SOL    HW233546   3.162   0.465   2.169  1.3839 -2.3526  0.4528
 7362SOL     OW33547   0.242   0.942  10.033 -0.3462 -0.1810  0.0708
 7362SOL    HW133548   0.326   0.915   9.997 -0.2469  0.6798 -0.3628
 7362SOL    HW233549   0.195   0.959   9.951  0.8556 -0.3053 -0.6438
 7363SOL     OW33550   4.126   4.294   7.643  0.2899 -0.5605  0.0335
 7363SOL    HW133551   4.087   4.358   7.584 -0.9627 -0.5328  0.8974
 7363SOL    HW233552   4.062   4.280   7.712 -0.0239 -1.6936 -0.4875
 7364SOL     OW33553   2.524   3.126   0.172 -0.6098  0.1284  0.3911
 7364SOL    HW133554   2.544   3.032   0.179 -0.2797  0.1604 -0.1198
 7364SOL    HW233555   2.576   3.168   0.241  1.5182 -1.7245 -0.0854
 7365SOL     OW33556   1.339   4.332   7.893  0.2646 -0.2070  0.3078
 7365SOL    HW133557   1.371   4.292   7.812  3.3400 -0.5718  1.7200
 7365SOL    HW233558   1.401   4.292   7.953 -1.7658  0.0554  2.5865
 7366SOL     OW33559   3.933   1.958   6.051  0.3621 -0.2762 -0.5118
 7366SOL    HW133560   4.025   1.936   6.065 -0.0509 -1.0244  1.0450
 7366SOL    HW233561   3.946   2.036   5.997  0.8393  0.1093  0.1582
 7367SOL     OW33562   3.841   3.448   9.363 -0.2922  0.4149 -0.0633
 7367SOL    HW133563   3.835   3.461   9.268  1.1915 -2.1320 -0.5201
 7367SOL    HW233564   3.865   3.538   9.383 -0.4003 -0.0399  2.1103
 7368SOL     OW33565   2.062   0.912   5.321  0.5982  0.0758 -0.0194
 7368SOL    HW133566   2.156   0.895   5.321  0.1902 -2.2928 -0.0131
 7368SOL    HW233567   2.052   0.992   5.372  0.1325  0.7996 -1.2592
 7369SOL     OW33568   2.591   2.015   3.238  0.0119 -0.3093  0.1580
 7369SOL    HW133569   2.615   1.935   3.191 -1.5564  0.6126 -2.1947
 7369SOL    HW233570   2.648   2.079   3.196 -2.0519  1.0638 -0.5129
 7370SOL     OW33571   0.772   1.174   1.988  0.1983 -0.2802  0.1946
 7370SOL    HW133572   0.738   1.243   1.931  0.7572 -0.7376 -0.6781
 7370SOL    HW233573   0.850   1.218   2.022 -0.5834  0.3521  1.2066
 7371SOL     OW33574   2.900   3.067  10.322 -0.1270 -0.2845  0.3894
 7371SOL    HW133575   2.960   3.097  10.253 -0.5276 -1.1667 -0.3514
 7371SOL    HW233576   2.954   2.995  10.355 -2.7012 -2.1943  0.3938
 7372SOL     OW33577   3.125   0.583   1.906  0.6045  0.5616  0.1168
 7372SOL    HW133578   3.129   0.673   1.939 -0.9143  0.3021  1.0086
 7372SOL    HW233579   3.074   0.591   1.826 -3.5697  0.6534  2.7710
 7373SOL     OW33580   4.061   0.139  15.372 -0.3374 -0.1627  0.2120
 7373SOL    HW133581   4.151   0.166  15.390 -0.5197  0.6333 -0.0600
 7373SOL    HW233582   4.073   0.051  15.336  0.2854  0.8461 -2.0568
 7374SOL     OW33583   1.474   4.120   2.397  0.3708 -0.4867  0.6466
 7374SOL    HW133584   1.394   4.165   2.369  0.8309  0.1636  0.3988
 7374SOL    HW233585   1.485   4.072   2.315  0.2575  1.5223 -0.5320
 7375SOL     OW33586   2.504   4.612   8.792 -0.2252  0.2459 -0.3909
 7375SOL    HW133587   2.458   4.554   8.853  1.9933  0.8274  1.8195
 7375SOL    HW233588   2.551   4.669   8.852 -0.2772 -0.2396  0.1155
 7376SOL     OW33589   2.456   0.431   3.905  0.3174 -0.1311 -0.6011
 7376SOL    HW133590   2.470   0.523   3.883 -2.4609  1.0433  2.5908
 7376SOL    HW233591   2.379   0.418   3.850 -0.7472  0.6262  0.7059
 7377SOL     OW33592   1.013   0.514   7.488  0.5222 -0.3640  0.2762
 7377SOL    HW133593   0.956   0.550   7.555 -1.5547 -2.2087 -0.5061
 7377SOL    HW233594   1.094   0.539   7.533 -0.0960 -3.0261  2.8753
 7378SOL     OW33595   0.621   2.533   5.285  0.8316  0.2643 -0.4448
 7378SOL    HW133596   0.637   2.508   5.194  0.8322 -0.1378 -0.3343
 7378SOL    HW233597   0.584   2.452   5.319  0.5203  1.2549  1.6115
 7379SOL     OW33598   4.547   0.127   1.418 -0.4670 -0.0470 -0.1998
 7379SOL    HW133599   4.636   0.096   1.408 -0.4843  0.1939 -1.1215
 7379SOL    HW233600   4.527   0.110   1.510  1.2045  3.0908  0.7279
 7380SOL     OW33601   2.381   4.173   7.692 -0.1999  0.3248 -0.5311
 7380SOL    HW133602   2.447   4.236   7.722 -0.5625  1.1844 -1.5580
 7380SOL    HW233603   2.330   4.223   7.629  1.0076  2.4648  0.1715
 7381SOL     OW33604   1.607   2.149   6.465 -0.3390 -0.1125 -0.1613
 7381SOL    HW133605   1.530   2.143   6.408  1.0071 -0.1120 -1.9821
 7381SOL    HW233606   1.568   2.163   6.551 -0.7132 -1.6415 -0.0763
 7382SOL     OW33607   3.984   1.546  10.804 -0.4410  0.0457 -0.4346
 7382SOL    HW133608   3.899   1.580  10.778 -0.2120  0.4591 -0.6537
 7382SOL    HW233609   4.043   1.597  10.748 -1.0947  0.1124 -1.0504
 7383SOL     OW33610   2.740   2.636   6.448 -0.7122 -0.5453  0.2193
 7383SOL    HW133611   2.824   2.657   6.488  0.1403 -1.3392 -1.1714
 7383SOL    HW233612   2.677   2.654   6.518 -1.0998  1.0983 -0.5392
 7384SOL     OW33613   0.735   2.479  14.834 -0.7198 -0.2300  0.5310
 7384SOL    HW133614   0.686   2.426  14.771 -2.9794  1.3232  0.9695
 7384SOL    HW233615   0.784   2.410  14.878  2.1260  1.1211 -0.5522
 7385SOL     OW33616   0.027   3.157   9.678  0.0926  0.0051 -0.1169
 7385SOL    HW133617   0.084   3.222   9.718  0.2021  0.8417 -1.6221
 7385SOL    HW233618   4.692   3.136   9.755  0.5176  3.8535  1.1858
 7386SOL     OW33619   3.290   0.048   9.143  0.2103 -0.0790  0.0666
 7386SOL    HW133620   3.326   4.703   9.206 -0.1066  0.8998  1.2213
 7386SOL    HW233621   3.292   0.001   9.060  1.1399  1.1188 -0.5982
 7387SOL     OW33622   3.023   1.367  17.115 -0.0973 -0.4330  0.0555
 7387SOL    HW133623   3.064   1.289  17.080  0.4376  0.3229 -0.9962
 7387SOL    HW233624   3.085   1.437  17.094  0.9526 -1.8351 -1.4581
 7388SOL     OW33625   4.514   0.169   4.376  0.7206  0.3283  0.0866
 7388SOL    HW133626   4.553   0.219   4.305 -0.5260  0.8319 -0.2381
 7388SOL    HW233627   4.598   0.154   4.419  0.3703 -0.7062  0.4127
 7389SOL     OW33628   1.354   4.600   6.594  0.1127 -0.1098 -0.4236
 7389SOL    HW133629   1.363   4.599   6.689  0.2987 -1.9845 -0.4702
 7389SOL    HW233630   1.269   4.639   6.573 -0.2938 -1.3798 -1.0967
 7390SOL     OW33631   2.596   4.338   7.735 -0.7400 -0.5694  0.4725
 7390SOL    HW133632   2.663   4.323   7.802 -0.9322  0.1762  0.8381
 7390SOL    HW233633   2.632   4.395   7.667  1.8537 -1.3633  1.1954
 7391SOL     OW33634   3.131   3.369  15.670 -0.2201  0.2636  0.3662
 7391SOL    HW133635   3.125   3.450  15.619 -0.9468 -0.1373 -0.2001
 7391SOL    HW233636   3.113   3.303  15.603  0.8406 -0.6014  0.9357
 7392SOL     OW33637   2.857   4.266   7.504  0.5237  0.2199  0.3453
 7392SOL    HW133638   2.918   4.197   7.481 -0.8151 -1.2692  1.2846
 7392SOL    HW233639   2.898   4.345   7.469  0.7637 -0.3438 -0.6613
 7393SOL     OW33640   0.392   2.044  10.388  0.2427 -0.5101  0.2958
 7393SOL    HW133641   0.333   2.119  10.387  1.7926  0.6404 -4.2469
 7393SOL    HW233642   0.332   1.980  10.427 -0.6838  0.4187  0.4123
 7394SOL     OW33643   2.789   3.539   3.968  0.1980  0.3946 -0.6690
 7394SOL    HW133644   2.743   3.620   3.945  2.5563  1.7404 -0.6086
 7394SOL    HW233645   2.793   3.557   4.062 -1.2885 -0.2214 -0.4854
 7395SOL     OW33646   1.990   3.089   4.266  0.0117  0.5666 -0.0120
 7395SOL    HW133647   1.972   3.059   4.177 -0.8643  2.3220 -0.4277
 7395SOL    HW233648   1.908   3.061   4.305  1.5362  1.1087  3.6152
 7396SOL     OW33649   4.584   0.233   8.267  0.0362  0.6623 -0.5740
 7396SOL    HW133650   4.594   0.228   8.172  1.9689  1.7690 -0.4190
 7396SOL    HW233651   4.519   0.303   8.273 -1.4863 -0.8793  0.8423
 7397SOL     OW33652   2.123   3.238   5.236 -0.0828  0.1092 -0.2040
 7397SOL    HW133653   2.131   3.197   5.322  1.3602  0.1686 -0.2938
 7397SOL    HW233654   2.095   3.327   5.257  0.0386 -0.0305  0.5703
 7398SOL     OW33655   0.349   0.340   0.945  0.3483 -0.2622  0.1973
 7398SOL    HW133656   0.344   0.436   0.946 -1.1329 -0.3046 -2.2185
 7398SOL    HW233657   0.440   0.333   0.918  0.2953  0.0998 -0.0809
 7399SOL     OW33658   3.467   2.150   9.565  0.0295  0.0646  0.1415
 7399SOL    HW133659   3.451   2.088   9.494 -1.9633  0.6924  0.0288
 7399SOL    HW233660   3.421   2.106   9.636  1.8241  1.1892  2.0095
 7400SOL     OW33661   0.261   0.950   4.111  0.2152 -0.3483  0.5087
 7400SOL    HW133662   0.344   0.996   4.100 -1.1573  1.5890 -1.9336
 7400SOL    HW233663   0.290   0.859   4.119  1.5610 -0.0835 -1.3249
 7401SOL     OW33664   0.562   3.001   3.472 -0.1120  0.3703 -0.0510
 7401SOL    HW133665   0.563   3.055   3.393  1.5463  0.9548  0.3811
 7401SOL    HW233666   0.583   2.919   3.426  0.7192  0.1683  0.6965
 7402SOL     OW33667   1.532   4.385  12.487  0.5770 -0.2106 -0.0688
 7402SOL    HW133668   1.598   4.443  12.449  1.0292  0.1071  1.1784
 7402SOL    HW233669   1.454   4.419  12.443 -1.0296 -1.4141  1.8599
 7403SOL     OW33670   1.013   1.583   2.486 -0.3123 -0.0926 -0.2972
 7403SOL    HW133671   0.951   1.518   2.518  0.8179 -0.5515  0.9569
 7403SOL    HW233672   1.098   1.541   2.472 -0.8281 -0.9793 -0.7316
 7404SOL     OW33673   1.704   4.143  15.133  0.2865  0.4690  0.0804
 7404SOL    HW133674   1.717   4.224  15.183 -0.5607  0.2701  0.6220
 7404SOL    HW233675   1.647   4.182  15.065  1.4672  1.1570 -0.5118
 7405SOL     OW33676   1.130   3.754   9.598  0.3056 -0.4400 -0.1894
 7405SOL    HW133677   1.112   3.670   9.639  0.2886 -1.6469 -2.7023
 7405SOL    HW233678   1.225   3.751   9.602  0.2876  0.6571  0.9856
 7406SOL     OW33679   4.161   1.960  10.554  0.0299  0.8615 -0.6238
 7406SOL    HW133680   4.150   1.946  10.461 -1.8508  1.3358 -0.4651
 7406SOL    HW233681   4.123   2.046  10.576 -4.7279 -2.0811  2.5622
 7407SOL     OW33682   2.943   2.089   1.379  0.2034 -0.2013  0.0575
 7407SOL    HW133683   2.897   2.069   1.461 -0.7508  0.6553 -0.2662
 7407SOL    HW233684   2.908   2.026   1.317 -1.6552  2.0511 -1.1726
 7408SOL     OW33685   4.326   2.384   3.174 -0.5088 -0.0709 -0.2559
 7408SOL    HW133686   4.326   2.392   3.078  0.9685 -0.4546 -0.2790
 7408SOL    HW233687   4.237   2.414   3.194 -2.0243 -2.1024 -3.8836
 7409SOL     OW33688   0.610   0.686   7.186  0.0886  0.1477  0.3523
 7409SOL    HW133689   0.575   0.602   7.216 -1.2735  0.9343  0.9839
 7409SOL    HW233690   0.604   0.750   7.257  0.7439  0.2306  0.3288
 7410SOL     OW33691   1.891   1.354   0.051 -0.1398 -0.4214  0.4728
 7410SOL    HW133692   1.869   1.437   0.094 -2.5734 -1.7312  1.7936
 7410SOL    HW233693   1.934   1.388  17.647  0.9632 -1.2407  0.7342
 7411SOL     OW33694   0.595   3.777   1.638 -0.5483 -0.7783 -0.2864
 7411SOL    HW133695   0.576   3.757   1.729  2.2944  0.9592  0.6791
 7411SOL    HW233696   0.665   3.841   1.647 -1.0449 -0.1839 -0.5835
 7412SOL     OW33697   3.458   4.237   3.963  0.1777  0.2668 -0.1960
 7412SOL    HW133698   3.541   4.195   3.986  1.5377  1.8538 -2.1242
 7412SOL    HW233699   3.465   4.238   3.867 -2.1619  0.3217 -0.3539
 7413SOL     OW33700   3.015   2.509  11.665  0.1680  0.2822  0.7283
 7413SOL    HW133701   2.940   2.451  11.677 -0.1622  0.2212 -1.6184
 7413SOL    HW233702   3.005   2.548  11.752 -0.0863  0.3608  0.6652
 7414SOL     OW33703   4.082   0.826   6.889  0.2973  0.2459 -0.1401
 7414SOL    HW133704   4.150   0.832   6.822 -1.0504  0.5847 -1.4717
 7414SOL    HW233705   4.075   0.731   6.897  0.7265  0.2748  0.5719
 7415SOL     OW33706   1.014   4.146  16.157 -0.0490 -0.3063 -0.4372
 7415SOL    HW133707   0.932   4.181  16.190 -0.3756  0.0257 -1.6107
 7415SOL    HW233708   1.025   4.077  16.223  2.8484  2.5709  2.0908
 7416SOL     OW33709   2.002   2.411   9.578 -0.0136  0.0835 -0.2070
 7416SOL    HW133710   2.068   2.418   9.509 -0.2466  0.2743 -0.4112
 7416SOL    HW233711   2.046   2.352   9.640 -1.8581 -0.0654  0.9512
 7417SOL     OW33712   1.190   2.124  16.081  0.0467 -0.5547 -0.0631
 7417SOL    HW133713   1.229   2.164  16.004  0.1242  0.5470  0.5534
 7417SOL    HW233714   1.101   2.157  16.074 -0.1368 -1.5608 -2.7430
 7418SOL     OW33715   4.002   3.573  11.522 -0.3009 -0.0269  0.5517
 7418SOL    HW133716   4.063   3.521  11.469 -1.1499  0.3532 -0.7969
 7418SOL    HW233717   4.060   3.635  11.566 -3.3855  2.2660  1.3988
 7419SOL     OW33718   3.981   4.027  12.526  0.0538  0.1170 -0.0665
 7419SOL    HW133719   3.979   3.933  12.544 -1.0450  0.1579  0.0182
 7419SOL    HW233720   4.073   4.052  12.537 -0.1038  1.0454 -0.8184
 7420SOL     OW33721   4.436   2.010   7.021  0.7066 -0.2091  0.4161
 7420SOL    HW133722   4.501   1.959   6.973  3.2490  2.0490  1.4650
 7420SOL    HW233723   4.418   2.081   6.960  0.4847 -1.2636 -0.7559
 7421SOL     OW33724   4.588   1.654  13.148  0.3666  0.2601  0.6566
 7421SOL    HW133725   4.501   1.695  13.144 -0.1073 -0.9171 -0.7937
 7421SOL    HW233726   4.640   1.716  13.200  1.2140  1.2018 -1.3151
 7422SOL     OW33727   3.333   2.028  16.946 -0.2054 -0.4294 -0.1626
 7422SOL    HW133728   3.269   1.969  16.906 -1.5434 -0.0109  1.3576
 7422SOL    HW233729   3.354   2.095  16.881 -1.5604  0.6670  0.5457
 7423SOL     OW33730   1.486   3.168  14.171 -0.1129  0.5099 -0.0898
 7423SOL    HW133731   1.476   3.175  14.076 -0.7297  1.9697  0.0791
 7423SOL    HW233732   1.561   3.226  14.182  0.0875  0.9449 -3.7013
 7424SOL     OW33733   2.728   4.539   7.506  0.5662  0.0867 -0.0255
 7424SOL    HW133734   2.661   4.592   7.549  0.3954 -0.5685  0.5052
 7424SOL    HW233735   2.777   4.609   7.463  0.3502  0.1279 -0.2071
 7425SOL     OW33736   4.469   4.283   7.093 -0.9008  0.0831  0.2955
 7425SOL    HW133737   4.383   4.260   7.057  0.9573  2.1203 -5.4295
 7425SOL    HW233738   4.437   4.351   7.153  1.6345  0.8070  0.8013
 7426SOL     OW33739   1.677   2.655   7.985 -0.6331 -0.0199  0.6574
 7426SOL    HW133740   1.688   2.705   8.066  0.4953 -0.6837  0.9216
 7426SOL    HW233741   1.635   2.720   7.929 -1.2605 -3.2517 -2.6722
 7427SOL     OW33742   2.573   0.097   8.950  0.4063  0.2832  0.2343
 7427SOL    HW133743   2.498   0.139   8.907  0.9570  0.8094 -0.2142
 7427SOL    HW233744   2.634   0.159   8.911 -2.5176  2.8658 -0.2936
 7428SOL     OW33745   0.840   3.557   6.511 -0.4006 -0.1831  0.1135
 7428SOL    HW133746   0.828   3.467   6.541 -0.5924  0.2093  1.2493
 7428SOL    HW233747   0.749   3.581   6.498 -0.7145 -1.6177 -0.3280
 7429SOL     OW33748   2.482   1.343   8.013  0.4671 -0.0026  0.0254
 7429SOL    HW133749   2.465   1.257   8.051  0.5364 -0.1799 -0.3424
 7429SOL    HW233750   2.578   1.341   8.015  0.4165 -1.0273  1.5510
 7430SOL     OW33751   1.157   0.903   4.732  0.2664  0.2676 -0.0609
 7430SOL    HW133752   1.165   0.967   4.803  2.3590 -0.6600  0.5337
 7430SOL    HW233753   1.075   0.862   4.760 -0.9357  2.0362 -0.9485
 7431SOL     OW33754   3.193   1.521   3.892  0.1322  0.2023 -1.0743
 7431SOL    HW133755   3.185   1.558   3.980  1.7561  1.0637 -1.2923
 7431SOL    HW233756   3.281   1.552   3.870 -1.1451  3.7300 -1.2213
 7432SOL     OW33757   2.092   1.525   2.610 -0.0760 -0.0799  0.0254
 7432SOL    HW133758   2.023   1.462   2.586 -0.7883  0.3447  0.9489
 7432SOL    HW233759   2.161   1.460   2.623 -0.7186 -0.9593 -1.0005
 7433SOL     OW33760   3.980   4.697   1.715 -0.3208  0.0087  0.2326
 7433SOL    HW133761   4.044   4.642   1.760 -0.3515  0.0427  0.3194
 7433SOL    HW233762   4.031   0.029   1.651  0.3558 -3.1505 -1.6858
 7434SOL     OW33763   4.072   0.934  14.854 -0.2293  0.2314 -0.1635
 7434SOL    HW133764   4.157   0.913  14.815 -1.3104 -0.4751 -2.1612
 7434SOL    HW233765   4.037   1.000  14.793  0.5003  0.9468  0.1873
 7435SOL     OW33766   0.942   1.096   6.936  0.5173 -0.0045  0.0735
 7435SOL    HW133767   1.018   1.154   6.937  1.4303 -1.2056  1.4270
 7435SOL    HW233768   0.956   1.040   7.013  0.4950 -0.8395 -0.5328
 7436SOL     OW33769   0.645   4.580  14.622 -0.1567 -0.6804 -0.4116
 7436SOL    HW133770   0.576   4.521  14.653 -0.4520  0.3432  0.8846
 7436SOL    HW233771   0.725   4.538  14.654  0.0584 -0.7673 -1.0611
 7437SOL     OW33772   1.849   1.530   7.020 -0.6189  0.5245  0.8252
 7437SOL    HW133773   1.868   1.623   7.005  2.9576 -0.4410 -0.6757
 7437SOL    HW233774   1.800   1.537   7.102 -1.2941 -0.9078  0.5291
 7438SOL     OW33775   0.001   0.139   3.403 -0.1085 -0.5255 -0.2859
 7438SOL    HW133776   0.010   0.061   3.458 -1.0357  0.2756  1.0094
 7438SOL    HW233777   0.014   0.214   3.461  0.6512 -1.3151  0.5698
 7439SOL     OW33778   0.927   1.803   8.676 -0.1546  0.0241  0.7244
 7439SOL    HW133779   0.935   1.708   8.675  1.8451  0.2000 -0.5491
 7439SOL    HW233780   1.019   1.825   8.690  0.5285 -1.5470 -1.2482
 7440SOL     OW33781   0.592   2.922   6.397 -0.3102 -0.1223  0.1075
 7440SOL    HW133782   0.533   2.853   6.429  0.2992 -0.1471  1.1676
 7440SOL    HW233783   0.615   2.974   6.473 -0.7117  1.5090 -0.8887
 7441SOL     OW33784   4.361   2.285   1.209  0.7500 -0.1647 -0.1942
 7441SOL    HW133785   4.375   2.211   1.149  0.9238  1.8916 -2.6780
 7441SOL    HW233786   4.315   2.347   1.153 -0.7609 -1.1842 -0.0905
 7442SOL     OW33787   0.846   3.667   2.426  0.0581  0.1405 -0.0083
 7442SOL    HW133788   0.854   3.740   2.365 -0.9811 -0.3533 -0.7336
 7442SOL    HW233789   0.883   3.607   2.361 -0.4345  0.2715 -0.4080
 7443SOL     OW33790   3.352   1.679   4.813 -0.3767 -0.3047  0.4498
 7443SOL    HW133791   3.261   1.693   4.838 -0.5536 -0.4515 -0.1126
 7443SOL    HW233792   3.382   1.618   4.880 -2.4251 -0.2322  1.4455
 7444SOL     OW33793   3.204   2.214   3.944  0.2765  0.1874  0.6791
 7444SOL    HW133794   3.250   2.181   4.021  0.4818  1.3097  1.0368
 7444SOL    HW233795   3.136   2.154   3.913  0.3265  0.5228 -0.0769
 7445SOL     OW33796   1.814   3.961   6.357 -0.2640 -0.1715 -0.4107
 7445SOL    HW133797   1.854   3.983   6.441 -2.4330  1.3818  0.2261
 7445SOL    HW233798   1.841   4.037   6.305 -1.9217  1.2120  0.7207
 7446SOL     OW33799   0.669   0.071   9.033  0.6713  0.3454 -0.1369
 7446SOL    HW133800   0.627   0.049   8.949  0.6526 -0.0183 -0.0321
 7446SOL    HW233801   0.597   0.080   9.095  0.6807  1.3364 -0.2736
 7447SOL     OW33802   1.496   0.347   1.742  0.3186 -0.3774 -0.2449
 7447SOL    HW133803   1.490   0.409   1.669 -1.2492  1.0623  1.1272
 7447SOL    HW233804   1.585   0.314   1.725  0.0935 -2.0124  1.8550
 7448SOL     OW33805   0.665   1.807   6.433 -0.3208 -0.0891 -0.2628
 7448SOL    HW133806   0.687   1.837   6.521  3.7852  2.3663 -2.0994
 7448SOL    HW233807   0.634   1.721   6.459  1.1156 -1.1103 -1.8843
 7449SOL     OW33808   2.275   2.027   6.843  0.2450  0.5594 -0.0811
 7449SOL    HW133809   2.240   1.960   6.784 -1.4397  1.0218  0.4003
 7449SOL    HW233810   2.365   2.015   6.812  1.1371 -0.6390  2.9241
 7450SOL     OW33811   4.245   4.157  10.609  0.3242  0.8490 -0.5750
 7450SOL    HW133812   4.247   4.194  10.697  0.6948 -0.0718 -0.1932
 7450SOL    HW233813   4.158   4.183  10.580  0.9985  1.1405 -2.3317
 7451SOL     OW33814   0.238   4.303   6.101  0.1934 -0.2312 -0.2107
 7451SOL    HW133815   0.192   4.223   6.128 -3.0447  0.6896 -3.0630
 7451SOL    HW233816   0.301   4.294   6.173  0.8333 -0.9012 -0.8496
 7452SOL     OW33817   1.170   3.728   8.552 -0.0029 -0.0891  0.2124
 7452SOL    HW133818   1.103   3.662   8.574  2.2900 -1.8562  1.8940
 7452SOL    HW233819   1.247   3.704   8.603  0.0895 -2.3904 -1.0032
 7453SOL     OW33820   1.676   4.651   3.014  0.0803 -0.0086  0.1815
 7453SOL    HW133821   1.593   4.641   2.968  1.1134 -1.0794 -1.3965
 7453SOL    HW233822   1.655   4.601   3.093 -0.4746 -2.2035 -1.3600
 7454SOL     OW33823   0.677   2.946   5.441 -0.5076  0.5756 -0.0022
 7454SOL    HW133824   0.582   2.948   5.452 -0.2684  1.4304  1.8225
 7454SOL    HW233825   0.712   2.877   5.498  0.7991  1.0411 -0.2315
 7455SOL     OW33826   2.807   0.301   3.459 -0.6346 -0.1682  1.1626
 7455SOL    HW133827   2.881   0.361   3.445 -0.8379  0.3367  2.2850
 7455SOL    HW233828   2.758   0.337   3.533  1.1240  1.3221  1.6076
 7456SOL     OW33829   0.966   4.426   9.203  0.1079 -0.1272  0.1799
 7456SOL    HW133830   0.897   4.490   9.187 -3.1235 -4.0214 -1.3065
 7456SOL    HW233831   0.914   4.346   9.194 -0.2246  0.0634  0.4298
 7457SOL     OW33832   4.605   2.368   5.382 -0.0195 -0.3637 -0.7805
 7457SOL    HW133833   4.591   2.275   5.396 -0.2505 -0.1995  0.0759
 7457SOL    HW233834   4.623   2.408   5.467  1.0510  2.7914 -2.4803
 7458SOL     OW33835   0.868   1.719   3.906 -0.0415  0.0479  0.3013
 7458SOL    HW133836   0.803   1.657   3.938  1.6700 -1.4808  0.7707
 7458SOL    HW233837   0.935   1.660   3.872 -2.4096 -1.4615 -1.6787
 7459SOL     OW33838   2.463   3.384   6.467  0.2968  0.1105  0.0941
 7459SOL    HW133839   2.553   3.411   6.452  0.1797 -0.5525 -1.8614
 7459SOL    HW233840   2.423   3.465   6.435 -1.3561 -0.8027 -0.1374
 7460SOL     OW33841   2.606   3.592  14.734 -0.4674 -0.0473 -0.5008
 7460SOL    HW133842   2.659   3.522  14.695 -0.1866  0.7744 -1.5963
 7460SOL    HW233843   2.636   3.665  14.679 -0.6936  0.2066 -0.2834
 7461SOL     OW33844   1.711   1.893  15.259  0.1991  0.4005 -0.8048
 7461SOL    HW133845   1.712   1.815  15.203 -0.8735  1.2384 -2.0059
 7461SOL    HW233846   1.621   1.922  15.244 -1.1208 -2.8482  0.9514
 7462SOL     OW33847   2.359   2.909   3.788 -0.3457  0.6272 -0.2779
 7462SOL    HW133848   2.266   2.889   3.774 -0.5684  1.0463  0.6255
 7462SOL    HW233849   2.356   2.976   3.856 -0.2365  0.9018 -0.5432
 7463SOL     OW33850   2.801   1.844   6.035  0.0769 -0.2233  0.3341
 7463SOL    HW133851   2.838   1.893   5.961  0.6052 -3.6671 -1.6816
 7463SOL    HW233852   2.795   1.923   6.088 -0.9089 -0.7240  0.9754
 7464SOL     OW33853   4.333   4.030   6.052 -0.1731 -0.0787  0.1787
 7464SOL    HW133854   4.297   4.014   6.140 -1.6563 -0.0882 -0.4298
 7464SOL    HW233855   4.375   4.115   6.064 -0.7354  0.2456 -0.1413
 7465SOL     OW33856   4.082   4.399   0.997 -0.7556  0.5693  0.1110
 7465SOL    HW133857   4.070   4.331   0.930  1.3931  0.8418 -0.5275
 7465SOL    HW233858   4.076   4.478   0.944  0.9819  1.1868  0.8458
 7466SOL     OW33859   1.206   0.982   8.422  0.0742  0.3173  0.3337
 7466SOL    HW133860   1.185   1.065   8.465  1.1702  1.0349 -0.4895
 7466SOL    HW233861   1.299   0.968   8.437 -0.2422 -0.1268  1.8269
 7467SOL     OW33862   2.828   2.630   3.592  0.0518  0.0407  0.3968
 7467SOL    HW133863   2.808   2.635   3.685  1.4134 -1.9901  0.7958
 7467SOL    HW233864   2.872   2.713   3.575 -0.0076  0.2308  1.1713
 7468SOL     OW33865   1.948   1.403  16.632 -0.0987  0.7205  0.2849
 7468SOL    HW133866   1.867   1.429  16.588  0.4648 -0.9685 -1.7245
 7468SOL    HW233867   2.008   1.396  16.558 -0.1758  1.2625  0.1729
 7469SOL     OW33868   4.643   2.100  11.641 -0.1861 -0.6547  0.3182
 7469SOL    HW133869   4.711   2.158  11.676  0.3237 -1.6652  1.0064
 7469SOL    HW233870   4.677   2.082  11.554  1.1224 -0.3929  0.7841
 7470SOL     OW33871   1.572   0.580  12.581  0.6435 -0.5188 -0.1298
 7470SOL    HW133872   1.555   0.522  12.656  0.8675 -1.2709 -0.6574
 7470SOL    HW233873   1.655   0.618  12.611 -0.1190  0.1126  1.1551
 7471SOL     OW33874   2.910   4.359   9.400 -0.1648  0.1049 -0.8871
 7471SOL    HW133875   2.997   4.320   9.402 -0.7973 -1.3373 -2.3275
 7471SOL    HW233876   2.903   4.387   9.309  0.6752  2.2895 -0.2797
 7472SOL     OW33877   0.552   1.767   4.197  0.1587 -0.0645  0.2956
 7472SOL    HW133878   0.542   1.827   4.124  2.8616  0.2917  0.2116
 7472SOL    HW233879   0.575   1.818   4.275 -1.8028 -1.1118  1.5754
 7473SOL     OW33880   3.758   2.592   8.954  0.0848  0.2187 -0.0261
 7473SOL    HW133881   3.758   2.660   8.886  0.8145 -0.0141 -0.2547
 7473SOL    HW233882   3.668   2.599   8.985  0.8385 -1.9128  2.5764
 7474SOL     OW33883   1.824   1.050   4.084 -0.5479 -0.3884 -0.4759
 7474SOL    HW133884   1.796   1.070   3.994  1.0718  1.6278 -0.5471
 7474SOL    HW233885   1.852   0.959   4.090  0.8200  0.1199  0.8113
 7475SOL     OW33886   1.161   3.285   8.819 -0.1102 -0.4042  0.4375
 7475SOL    HW133887   1.158   3.214   8.755 -2.8471 -0.1682  0.2653
 7475SOL    HW233888   1.069   3.309   8.833  0.0590  0.9861 -0.8602
 7476SOL     OW33889   3.454   3.617   0.549  0.2043  0.6193 -0.7309
 7476SOL    HW133890   3.494   3.542   0.506  2.8722  1.0077  1.0513
 7476SOL    HW233891   3.485   3.608   0.640 -1.6211 -1.6115 -0.3421
 7477SOL     OW33892   1.864   2.138  12.289 -0.1733 -0.0136  0.5077
 7477SOL    HW133893   1.881   2.185  12.370 -0.0310  0.0629  0.4352
 7477SOL    HW233894   1.810   2.189  12.229 -1.5821 -1.6319  0.3908
 7478SOL     OW33895   3.172   0.947   7.059  0.0674 -0.2324  0.5152
 7478SOL    HW133896   3.204   1.035   7.073 -0.7240  0.3624 -1.3549
 7478SOL    HW233897   3.146   0.925   7.149  1.7505  0.4234  1.1532
 7479SOL     OW33898   4.323   3.321   5.840 -0.6279 -0.0662  0.8730
 7479SOL    HW133899   4.322   3.283   5.752  2.1796 -2.5761  1.9586
 7479SOL    HW233900   4.244   3.276   5.871 -3.0216  2.2984 -1.7415
 7480SOL     OW33901   0.056   2.905   5.593 -0.0268  0.1237 -0.1305
 7480SOL    HW133902   0.062   3.001   5.585 -0.4232  0.0332 -1.5491
 7480SOL    HW233903   0.024   2.890   5.682 -1.7004 -1.5483 -1.0045
 7481SOL     OW33904   2.542   4.352   4.222 -0.0064  0.0609 -0.5520
 7481SOL    HW133905   2.513   4.294   4.153  0.0938 -4.1171  2.9342
 7481SOL    HW233906   2.552   4.284   4.289 -2.5163 -0.7458 -1.0033
 7482SOL     OW33907   3.613   1.104   6.542  0.2547  0.0426 -0.5508
 7482SOL    HW133908   3.555   1.133   6.611 -1.4491 -4.2713 -0.1673
 7482SOL    HW233909   3.629   1.015   6.571 -0.5110  0.4121  0.9847
 7483SOL     OW33910   0.993   4.388  14.083 -0.0877 -0.2500  0.1036
 7483SOL    HW133911   0.941   4.430  14.152 -0.4025 -0.3251 -0.0843
 7483SOL    HW233912   0.983   4.294  14.100 -1.7077 -0.2138 -0.6471
 7484SOL     OW33913   3.533   1.008   7.769  0.0664  0.2057  0.3881
 7484SOL    HW133914   3.443   0.995   7.739 -0.3925  0.4262  1.6545
 7484SOL    HW233915   3.560   1.088   7.723 -1.9746  2.6602  3.5002
 7485SOL     OW33916   1.837   0.627   0.778  0.4480 -0.1555 -0.5730
 7485SOL    HW133917   1.810   0.632   0.686 -2.2257 -1.7460  0.1368
 7485SOL    HW233918   1.927   0.594   0.773 -1.0160 -4.3342  1.0811
 7486SOL     OW33919   0.113   2.147   3.209 -0.3741 -0.2781 -0.0368
 7486SOL    HW133920   0.026   2.178   3.185 -1.4018 -1.8973  1.6908
 7486SOL    HW233921   0.122   2.063   3.165 -1.5337 -0.5889  0.3096
 7487SOL     OW33922   2.988   1.404  14.481  0.2456 -0.5095 -0.2300
 7487SOL    HW133923   3.002   1.442  14.394  3.1054 -0.2406  0.3516
 7487SOL    HW233924   3.030   1.320  14.460  0.9371 -0.4229  0.8371
 7488SOL     OW33925   0.414   1.164   4.450  0.1953  0.1128  0.2327
 7488SOL    HW133926   0.326   1.151   4.415 -0.0929  2.1269  0.1892
 7488SOL    HW233927   0.415   1.260   4.443 -3.2115  0.1370  0.0614
 7489SOL     OW33928   4.647   2.758   8.802  0.2260 -0.2744 -0.0570
 7489SOL    HW133929   4.702   2.776   8.726 -1.0162  1.5138 -0.5323
 7489SOL    HW233930   4.654   2.842   8.847  2.2414 -0.5250  0.1229
 7490SOL     OW33931   1.698   4.597  12.381  0.6969 -0.0044  1.1260
 7490SOL    HW133932   1.740   4.655  12.444  0.1727  1.0583  0.5027
 7490SOL    HW233933   1.618   4.647  12.367  0.1904 -1.0619  0.1884
 7491SOL     OW33934   0.682   0.048   2.338  0.3555  0.2065  0.1951
 7491SOL    HW133935   0.711   0.092   2.418  0.3249 -1.6070  1.1874
 7491SOL    HW233936   0.759   0.004   2.302  0.4972 -0.7120  1.6043
 7492SOL     OW33937   4.437   3.635  14.629 -0.3139  0.0684 -0.2850
 7492SOL    HW133938   4.421   3.543  14.653  0.9316  0.0098  0.2832
 7492SOL    HW233939   4.409   3.678  14.709 -1.5372  0.4248 -0.8967
 7493SOL     OW33940   0.403   2.778   1.110 -0.3786 -0.1386  0.5274
 7493SOL    HW133941   0.452   2.826   1.177 -1.2535  0.1414  0.9719
 7493SOL    HW233942   0.465   2.731   1.055 -0.0580 -0.0605  0.8143
 7494SOL     OW33943   3.739   0.497   0.579  0.1867  0.1307 -0.0254
 7494SOL    HW133944   3.664   0.511   0.522  0.1392 -1.1922 -0.2782
 7494SOL    HW233945   3.737   0.574   0.636  1.2857  0.6592 -0.7034
 7495SOL     OW33946   1.148   2.825   4.759  0.6156  0.1137 -0.4582
 7495SOL    HW133947   1.069   2.875   4.779 -0.4075 -2.2086  1.3853
 7495SOL    HW233948   1.109   2.737   4.755  1.8212 -0.3759 -1.2121
 7496SOL     OW33949   3.009   2.076  11.672 -0.3994  0.2069  0.5451
 7496SOL    HW133950   2.993   2.019  11.596  0.9604 -0.3635  0.6917
 7496SOL    HW233951   3.084   2.130  11.646 -0.3057  0.1004  0.5954
 7497SOL     OW33952   0.014   4.515   3.809  0.0481 -0.9199 -0.3770
 7497SOL    HW133953   4.671   4.493   3.879 -1.3042  1.8821 -0.6706
 7497SOL    HW233954   0.081   4.561   3.859 -0.2514 -0.4486 -0.4162
 7498SOL     OW33955   3.456   3.242  12.103  0.3069  0.0351  0.1828
 7498SOL    HW133956   3.486   3.281  12.021 -0.6565  1.2476  0.4058
 7498SOL    HW233957   3.537   3.209  12.141 -0.9268 -1.0327  1.9168
 7499SOL     OW33958   1.349   2.244   2.051  0.3703  0.2195  0.6499
 7499SOL    HW133959   1.280   2.298   2.014  1.4162 -0.4315 -2.2411
 7499SOL    HW233960   1.344   2.169   1.991  0.7515  0.5787  0.1678
 7500SOL     OW33961   0.896   4.452   7.226 -0.2174  0.0512  0.5074
 7500SOL    HW133962   0.839   4.421   7.296  1.8289 -2.9038  0.8642
 7500SOL    HW233963   0.918   4.538   7.262 -2.7609  0.9222 -0.0223
 7501SOL     OW33964   2.654   3.785   6.675  0.8970 -0.2275 -0.2395
 7501SOL    HW133965   2.738   3.752   6.706  0.2339 -1.0343  0.6906
 7501SOL    HW233966   2.678   3.876   6.661  2.0188 -0.6204 -0.9085
 7502SOL     OW33967   1.144   4.558  13.703  0.1825  0.3897 -0.6617
 7502SOL    HW133968   1.067   4.513  13.737  1.9265 -1.9415  0.1281
 7502SOL    HW233969   1.210   4.489  13.696  1.0244  0.9693  1.7153
 7503SOL     OW33970   2.123   2.253   7.862  0.4653  0.6421 -0.2335
 7503SOL    HW133971   2.196   2.238   7.802 -0.6731 -2.0366 -0.9227
 7503SOL    HW233972   2.083   2.328   7.817 -3.9006 -2.1219 -0.9041
 7504SOL     OW33973   2.475   0.238   0.126  0.2595 -0.1216  0.7690
 7504SOL    HW133974   2.453   0.303   0.059 -0.2278 -0.7979  0.2781
 7504SOL    HW233975   2.464   0.293   0.204 -3.4856 -1.5096  1.2703
 7505SOL     OW33976   2.234   2.233   1.901 -0.1779 -0.8723  0.1042
 7505SOL    HW133977   2.140   2.221   1.903 -0.1823 -0.5272  2.0322
 7505SOL    HW233978   2.253   2.193   1.986  0.1803 -0.2528  0.3202
 7506SOL     OW33979   4.055   0.849   3.407  0.6720  0.1151 -0.3286
 7506SOL    HW133980   4.097   0.879   3.327  1.1612 -2.1688 -0.9355
 7506SOL    HW233981   4.021   0.768   3.369  4.3561 -0.7962 -1.7712
 7507SOL     OW33982   1.769   1.882   7.567  0.1701  0.0579 -0.3251
 7507SOL    HW133983   1.791   1.842   7.483 -1.4623 -0.9496 -0.2781
 7507SOL    HW233984   1.834   1.852   7.630  0.9368  0.8992 -0.7171
 7508SOL     OW33985   0.939   1.517   1.884  0.5864  0.2176 -0.5659
 7508SOL    HW133986   0.953   1.458   1.809 -1.4861 -0.3741 -0.4819
 7508SOL    HW233987   0.999   1.588   1.861  0.2481  0.1370 -1.6965
 7509SOL     OW33988   3.799   1.492  15.362 -0.2115 -0.8892  0.1855
 7509SOL    HW133989   3.887   1.525  15.345 -0.6443 -0.7787 -1.8781
 7509SOL    HW233990   3.805   1.402  15.328 -0.7716 -0.9772  0.3210
 7510SOL     OW33991   0.663   0.738   5.239 -0.3227  0.2105 -0.0592
 7510SOL    HW133992   0.599   0.771   5.175  0.7377  1.1492 -0.6380
 7510SOL    HW233993   0.670   0.817   5.293 -2.3840  0.4166 -0.0892
 7511SOL     OW33994   3.517   3.874   0.943  0.1311  0.1956 -0.3889
 7511SOL    HW133995   3.576   3.937   0.901  0.5404 -0.5260 -0.8903
 7511SOL    HW233996   3.541   3.793   0.899  0.7952 -1.1332  2.4575
 7512SOL     OW33997   2.902   3.748   6.751  0.5371  0.1645  0.2429
 7512SOL    HW133998   2.974   3.687   6.736 -1.4883 -1.4596 -2.5675
 7512SOL    HW233999   2.911   3.773   6.844  0.2519 -0.8729  0.5444
 7513SOL     OW34000   3.199   4.144   2.643  0.0020 -0.0581  0.7156
 7513SOL    HW134001   3.171   4.206   2.710 -0.8312 -1.3218  1.5413
 7513SOL    HW234002   3.263   4.205   2.607 -0.3207  0.3189  0.7883
 7514SOL     OW34003   3.303   3.023  12.091  0.1287 -0.4691 -0.5377
 7514SOL    HW134004   3.346   3.109  12.088 -0.1957 -0.3427 -1.5889
 7514SOL    HW234005   3.310   3.021  12.187 -1.0237 -0.2697 -0.4414
 7515SOL     OW34006   2.324   3.122   2.452  0.4521  0.1304  0.4273
 7515SOL    HW134007   2.295   3.181   2.521 -0.0766 -0.8669  1.0595
 7515SOL    HW234008   2.280   3.039   2.472 -1.5854  1.5625  1.7899
 7516SOL     OW34009   1.781   1.930   3.485 -0.0459 -0.2387 -0.0393
 7516SOL    HW134010   1.843   1.999   3.508 -1.1436  1.1858 -1.3429
 7516SOL    HW234011   1.755   1.915   3.576 -1.6502 -0.7219 -0.5778
 7517SOL     OW34012   3.135   1.326   1.683 -0.1776  0.1664 -0.2175
 7517SOL    HW134013   3.185   1.256   1.723  2.7562  2.9312  0.9638
 7517SOL    HW234014   3.207   1.377   1.644 -1.1198  0.9691 -0.9179
 7518SOL     OW34015   3.589   1.742   3.007  0.5272 -0.6745  0.0366
 7518SOL    HW134016   3.592   1.728   2.912  1.5532  1.6357 -0.2663
 7518SOL    HW234017   3.553   1.830   3.018  0.8072 -0.4456 -0.9129
 7519SOL     OW34018   2.867   1.327   0.022  0.0006 -0.2717 -0.3934
 7519SOL    HW134019   2.962   1.336   0.022  0.0094 -0.2817 -2.4574
 7519SOL    HW234020   2.856   1.299   0.113 -0.5875  2.3499  0.3604
 7520SOL     OW34021   0.526   0.268   0.739 -0.5907 -0.7861 -0.2373
 7520SOL    HW134022   0.580   0.260   0.661 -1.7030  1.4509 -1.2518
 7520SOL    HW234023   0.449   0.220   0.708 -0.1146 -0.6835 -1.5730
 7521SOL     OW34024   4.436   0.288   4.823  0.3019  0.0792  0.7357
 7521SOL    HW134025   4.464   0.320   4.737 -0.7136  1.7962  1.0432
 7521SOL    HW234026   4.384   0.363   4.853  1.5536 -0.3525  3.9961
 7522SOL     OW34027   3.858   0.660   1.990 -0.3791  0.1849  0.0113
 7522SOL    HW134028   3.776   0.656   2.038 -0.9308 -2.2225 -1.1265
 7522SOL    HW234029   3.821   0.633   1.906 -1.1767 -0.8749  0.7112
 7523SOL     OW34030   3.825   0.920  17.108  0.1795  0.1299 -0.3466
 7523SOL    HW134031   3.829   0.978  17.032 -3.0903  3.0022  1.7378
 7523SOL    HW234032   3.791   0.964  17.186  1.5563 -0.4504  0.5755
 7524SOL     OW34033   2.579   0.333   2.501 -0.1377  0.3175  0.0304
 7524SOL    HW134034   2.543   0.327   2.590  0.6718  3.8798  0.5793
 7524SOL    HW234035   2.535   0.263   2.453  1.1952  1.4756 -2.8568
 7525SOL     OW34036   3.212   1.160  17.021  0.1444 -0.0221 -0.0643
 7525SOL    HW134037   3.253   1.101  17.085  1.5227  1.3494  0.3315
 7525SOL    HW234038   3.218   1.105  16.943  0.7242 -2.3594  1.6027
 7526SOL     OW34039   0.435   4.159  12.853  0.0555  0.2552 -0.3010
 7526SOL    HW134040   0.421   4.167  12.759  0.0638  0.2191 -0.3051
 7526SOL    HW234041   0.345   4.173  12.883  0.4447  2.2293 -0.0252
 7527SOL     OW34042   3.911   3.663   7.995  0.0608 -0.5338 -0.0622
 7527SOL    HW134043   3.869   3.748   8.004  1.6083  0.0352  1.8337
 7527SOL    HW234044   3.986   3.688   8.050  2.1102  1.2791 -3.7007
 7528SOL     OW34045   2.164   3.124  17.582 -0.1914  0.1844  1.0509
 7528SOL    HW134046   2.082   3.075  17.571 -0.0019 -0.6226  3.3920
 7528SOL    HW234047   2.177   3.138   0.001  3.9942 -1.1890  0.6744
 7529SOL     OW34048   2.503   4.602   6.133 -0.5114  0.4985 -0.0427
 7529SOL    HW134049   2.482   4.522   6.182 -0.2960  0.9057  0.7154
 7529SOL    HW234050   2.499   4.566   6.045 -0.0415  2.5857 -0.9198
 7530SOL     OW34051   2.596   0.940   8.961 -0.2943  0.1400 -0.2184
 7530SOL    HW134052   2.621   0.959   8.871 -2.1941 -0.0285 -0.7904
 7530SOL    HW234053   2.673   0.895   8.995  0.4374  0.1038 -1.9305
 7531SOL     OW34054   2.114   2.018  14.114 -0.1417 -0.0678  0.0919
 7531SOL    HW134055   2.193   1.964  14.114 -0.3991 -0.4433 -0.5682
 7531SOL    HW234056   2.046   1.951  14.111 -0.1062 -0.1125  0.2701
 7532SOL     OW34057   3.864   1.402   6.660  0.1124  0.1702 -0.0225
 7532SOL    HW134058   3.873   1.490   6.697 -1.5228  1.2854 -2.3045
 7532SOL    HW234059   3.769   1.392   6.668 -0.1232  2.6890  0.2715
 7533SOL     OW34060   2.045   1.413  14.143 -0.1547 -0.3510  0.0663
 7533SOL    HW134061   2.047   1.461  14.061  0.1653 -1.0910 -0.3586
 7533SOL    HW234062   1.952   1.416  14.166 -0.4048 -1.7633 -0.7472
 7534SOL     OW34063   2.339   1.783   5.863  0.3101 -0.4263  0.0797
 7534SOL    HW134064   2.244   1.780   5.860  0.3081  0.3177 -0.6187
 7534SOL    HW234065   2.354   1.842   5.938 -0.6847 -1.9767  1.4999
 7535SOL     OW34066   3.370   4.334  16.135  0.2155  0.0034 -0.0026
 7535SOL    HW134067   3.364   4.247  16.097 -2.3660 -0.3141  1.0889
 7535SOL    HW234068   3.456   4.361  16.104  0.0917 -2.1416 -2.1528
 7536SOL     OW34069   4.507   2.359   6.611 -0.8744  0.5650  0.1515
 7536SOL    HW134070   4.571   2.291   6.591  1.4799  3.1861 -1.2771
 7536SOL    HW234071   4.449   2.320   6.676 -4.3385  0.5056 -2.9610
 7537SOL     OW34072   2.343   4.706   4.551 -0.4846 -0.3083 -0.0386
 7537SOL    HW134073   2.410   4.658   4.503 -0.8296  0.3662 -1.1903
 7537SOL    HW234074   2.265   4.653   4.538  0.5899 -1.5469 -1.4224
 7538SOL     OW34075   0.313   1.709   7.736  0.4407 -0.4050  0.3401
 7538SOL    HW134076   0.251   1.744   7.672  0.4038 -0.8883  0.1108
 7538SOL    HW234077   0.340   1.779   7.795 -0.6253  0.1099  0.2090
 7539SOL     OW34078   2.490   2.490  15.026 -0.0257  0.7536 -0.2495
 7539SOL    HW134079   2.400   2.460  15.041  0.1211 -0.0974 -1.0541
 7539SOL    HW234080   2.532   2.420  15.076  1.0751  3.0781  2.0375
 7540SOL     OW34081   0.415   4.192  14.569  0.1699 -0.3436  0.0425
 7540SOL    HW134082   0.391   4.182  14.477  2.8520  1.4453 -0.8463
 7540SOL    HW234083   0.350   4.250  14.608  0.7450 -0.0042  0.4838
 7541SOL     OW34084   0.999   1.971   3.773 -0.1413  0.2956  0.4023
 7541SOL    HW134085   0.987   1.935   3.685 -1.3700 -0.7860  1.0073
 7541SOL    HW234086   1.056   1.907   3.817 -0.2238 -0.5091 -0.6633
 7542SOL     OW34087   1.441   4.170   2.779  0.2277  0.2039 -0.2558
 7542SOL    HW134088   1.415   4.100   2.838  0.1885  2.2938  2.2270
 7542SOL    HW234089   1.516   4.130   2.735 -0.3461  0.0236 -1.0508
 7543SOL     OW34090   0.103   0.174   7.279 -0.1433 -0.1088  0.6020
 7543SOL    HW134091   0.047   0.197   7.206 -0.0122 -0.9773  0.2236
 7543SOL    HW234092   0.189   0.188   7.239 -1.1199  1.3178 -0.9834
 7544SOL     OW34093   3.404   1.212   6.355  0.2084 -0.5128  0.3886
 7544SOL    HW134094   3.415   1.166   6.438 -1.4031 -2.3358 -0.4180
 7544SOL    HW234095   3.488   1.197   6.312  0.1948  1.8756 -0.4434
 7545SOL     OW34096   3.292   1.651  16.734  0.2297 -0.5343  0.4376
 7545SOL    HW134097   3.376   1.620  16.768 -0.0153 -0.8548  0.7682
 7545SOL    HW234098   3.283   1.617  16.645 -0.5362  2.2450 -0.5390
 7546SOL     OW34099   1.339   3.523   7.240  0.0543  1.0016 -0.1813
 7546SOL    HW134100   1.331   3.495   7.149  0.2907 -0.0568  0.1306
 7546SOL    HW234101   1.311   3.613   7.224  1.4361  1.2087 -1.3829
 7547SOL     OW34102   1.398   0.253   7.593 -0.3531 -0.2312  0.1473
 7547SOL    HW134103   1.322   0.288   7.639  0.0409  0.3633  0.3469
 7547SOL    HW234104   1.404   0.323   7.528 -1.8741  1.0819  1.4145
 7548SOL     OW34105   2.027   0.356   3.233  0.4747  0.2075  0.2875
 7548SOL    HW134106   2.059   0.398   3.313  2.1500 -3.0905  1.3627
 7548SOL    HW234107   1.944   0.322   3.268  0.0383  0.7688 -0.2052
 7549SOL     OW34108   0.184   2.847  11.708 -0.1841 -0.2423  0.5648
 7549SOL    HW134109   0.228   2.906  11.770 -0.2753 -0.4448  0.8212
 7549SOL    HW234110   0.139   2.788  11.768  0.2289  1.7523  2.8077
 7550SOL     OW34111   1.254   2.076   2.600  0.1000 -0.1834  0.3178
 7550SOL    HW134112   1.334   2.025   2.617 -0.2808 -1.1109 -0.6585
 7550SOL    HW234113   1.194   2.005   2.577  1.5280 -1.7841  1.4691
 7551SOL     OW34114   0.209   2.230   0.861  0.1522  0.6628  0.0271
 7551SOL    HW134115   0.179   2.227   0.770  0.8477 -3.5708 -0.0873
 7551SOL    HW234116   0.267   2.154   0.865 -0.9637 -0.1435  1.1491
 7552SOL     OW34117   4.282   0.241   5.901 -0.3493  0.4528  0.0273
 7552SOL    HW134118   4.190   0.254   5.881 -0.3651 -0.4602 -0.4850
 7552SOL    HW234119   4.321   0.221   5.816  0.3116 -0.6999  0.5881
 7553SOL     OW34120   0.737   3.767   5.848  0.2266  0.1328  0.3584
 7553SOL    HW134121   0.703   3.829   5.783  1.1060  0.0485 -0.1821
 7553SOL    HW234122   0.799   3.821   5.897 -1.5829  2.2877  0.2803
 7554SOL     OW34123   2.714   1.938  10.462  1.0566 -0.0220 -0.2832
 7554SOL    HW134124   2.742   1.910  10.374  1.4819  0.7515 -0.3940
 7554SOL    HW234125   2.633   1.889  10.476  0.6669  0.6458 -0.2077
 7555SOL     OW34126   3.294   0.186   5.899 -0.3609 -0.0128  0.8433
 7555SOL    HW134127   3.295   0.104   5.948 -0.5303 -1.8087 -2.1469
 7555SOL    HW234128   3.251   0.155   5.820  0.9366  0.5043 -0.0688
 7556SOL     OW34129   0.221   2.279  11.458 -0.2318  0.3508 -0.0798
 7556SOL    HW134130   0.206   2.257  11.550 -2.1091  0.0921 -0.4408
 7556SOL    HW234131   0.188   2.194  11.428 -0.5771  0.7428 -0.8147
 7557SOL     OW34132   1.857   2.126   6.786 -0.0161 -0.2297  0.1355
 7557SOL    HW134133   1.889   2.174   6.862  1.2100 -1.2402  0.2567
 7557SOL    HW234134   1.764   2.123   6.810  0.1896  0.7175  1.0410
 7558SOL     OW34135   3.042   0.174   6.315  0.0422  0.1247  0.3148
 7558SOL    HW134136   3.019   0.179   6.408  1.2583  0.7339  0.5834
 7558SOL    HW234137   3.065   0.266   6.305  0.1985  0.3537  2.7546
 7559SOL     OW34138   4.363   1.660   8.596 -0.2321  0.1401 -0.1635
 7559SOL    HW134139   4.386   1.598   8.526  0.3201  1.3851 -1.0755
 7559SOL    HW234140   4.420   1.633   8.668  1.1094  2.8416 -0.2264
 7560SOL     OW34141   3.500   2.913   3.267 -0.0880  0.0758  0.0114
 7560SOL    HW134142   3.460   2.851   3.206  1.9669 -0.8504 -0.3880
 7560SOL    HW234143   3.534   2.981   3.208 -0.0921  1.2894  1.4113
 7561SOL     OW34144   1.448   3.058   6.248 -0.2572 -0.2491  0.1198
 7561SOL    HW134145   1.403   3.135   6.280  0.3389 -0.1465  0.7129
 7561SOL    HW234146   1.392   2.991   6.287 -0.3039 -1.1333 -1.4441
 7562SOL     OW34147   1.727   3.852   3.023  0.1026 -0.0019 -0.3219
 7562SOL    HW134148   1.821   3.837   3.007  0.1671  0.4443 -0.3591
 7562SOL    HW234149   1.723   3.936   3.070  0.6910  0.9066 -1.9078
 7563SOL     OW34150   4.358   0.826   2.074 -0.0542  0.1822 -0.0878
 7563SOL    HW134151   4.310   0.879   2.137 -1.2285 -0.3094 -0.5724
 7563SOL    HW234152   4.284   0.789   2.026 -1.2467  1.4615  0.7660
 7564SOL     OW34153   3.094   1.781  17.097 -0.1911  0.4937 -0.1673
 7564SOL    HW134154   3.086   1.862  17.047 -1.1981 -0.2291 -1.1853
 7564SOL    HW234155   3.010   1.784  17.144 -0.4250  1.8254 -0.6716
 7565SOL     OW34156   2.477   0.161   9.468  0.5472  0.3971  0.2282
 7565SOL    HW134157   2.501   0.152   9.376  1.1064 -0.2990  0.4430
 7565SOL    HW234158   2.486   0.256   9.482  2.8239 -0.1632  2.5856
 7566SOL     OW34159   1.091   2.247   4.131 -0.1809 -0.0980  0.3603
 7566SOL    HW134160   1.100   2.226   4.038 -0.0790  0.2604  0.2891
 7566SOL    HW234161   1.039   2.326   4.123 -1.8187 -1.0142  2.0807
 7567SOL     OW34162   3.641   2.197   4.016 -0.4231  0.1470 -0.2783
 7567SOL    HW134163   3.724   2.157   3.989 -0.7113 -0.3901 -0.3536
 7567SOL    HW234164   3.586   2.154   3.951 -2.1567  0.7386  0.8011
 7568SOL     OW34165   1.858   0.152   3.607  0.1099 -0.1305 -0.2086
 7568SOL    HW134166   1.943   0.153   3.563  0.5598  1.1032  0.6868
 7568SOL    HW234167   1.852   0.248   3.611 -0.8029 -0.1053 -2.0711
 7569SOL     OW34168   3.784   3.771   7.256  0.1000 -0.0313 -0.1094
 7569SOL    HW134169   3.760   3.855   7.215  1.2482 -0.7253 -2.1958
 7569SOL    HW234170   3.876   3.768   7.230 -0.5792  1.8429 -2.7854
 7570SOL     OW34171   1.526   4.546   3.233  0.1571  0.2603  0.1949
 7570SOL    HW134172   1.498   4.461   3.266 -2.1347  0.1961 -1.9202
 7570SOL    HW234173   1.438   4.570   3.206  0.0987  0.2721  0.4014
 7571SOL     OW34174   2.450   2.045   2.923  0.6436  0.3681  0.0353
 7571SOL    HW134175   2.412   1.987   2.989  0.7724  1.5535  1.1411
 7571SOL    HW234176   2.540   2.013   2.920 -0.0161 -1.4599 -0.3427
 7572SOL     OW34177   2.491   1.514   4.294  0.3409  0.2376 -0.2839
 7572SOL    HW134178   2.581   1.526   4.264  0.1222  0.8341 -0.6865
 7572SOL    HW234179   2.463   1.602   4.321  0.7816  0.6988 -1.3344
 7573SOL     OW34180   0.165   1.682  10.731 -0.4929  1.0685 -0.6250
 7573SOL    HW134181   0.141   1.596  10.695 -0.3502  0.8070 -0.0973
 7573SOL    HW234182   0.260   1.678  10.727 -0.3990  1.2030  1.6874
 7574SOL     OW34183   1.755   0.144   5.616 -0.2450  0.0461 -0.2011
 7574SOL    HW134184   1.823   0.090   5.656  1.0597  0.4434 -1.8791
 7574SOL    HW234185   1.694   0.167   5.686 -1.3766 -0.3541 -1.0515
 7575SOL     OW34186   4.494   0.149   3.022  0.1264  0.2505 -0.0554
 7575SOL    HW134187   4.421   0.155   3.083 -0.6580 -1.5078 -0.8095
 7575SOL    HW234188   4.468   0.078   2.963 -1.6135  0.7037  0.1611
 7576SOL     OW34189   0.691   3.052   6.607 -0.1381 -0.4441  0.5443
 7576SOL    HW134190   0.698   3.106   6.686  2.0547  2.0289 -1.3248
 7576SOL    HW234191   0.740   2.974   6.632  0.8716 -0.2936 -0.9620
 7577SOL     OW34192   3.967   2.598   4.401  0.5168  0.1456  0.5889
 7577SOL    HW134193   3.958   2.667   4.335 -0.3168  0.0480  0.6083
 7577SOL    HW234194   3.901   2.627   4.464  0.1705 -0.5060  0.5146
 7578SOL     OW34195   4.666   1.815   6.183  0.6142 -0.3319 -0.5343
 7578SOL    HW134196   4.623   1.855   6.108  0.4165 -2.3706 -1.4976
 7578SOL    HW234197   4.601   1.757   6.225  1.1432 -0.4561  0.1175
 7579SOL     OW34198   2.042   3.170  14.469  0.3880 -0.0600 -0.6920
 7579SOL    HW134199   2.076   3.091  14.510 -2.4652 -0.9613 -0.0657
 7579SOL    HW234200   1.948   3.167  14.486  0.1755  1.4711 -1.5455
 7580SOL     OW34201   1.446   3.169  15.434 -0.5289  0.2968 -0.0303
 7580SOL    HW134202   1.514   3.161  15.367  1.5152  1.1273  1.9503
 7580SOL    HW234203   1.500   3.145  15.508  3.0921 -0.0774 -2.8022
 7581SOL     OW34204   2.072   2.644   7.998 -0.0246 -0.5583  0.8844
 7581SOL    HW134205   2.075   2.659   8.092  0.9987 -2.9071  1.2330
 7581SOL    HW234206   1.980   2.620   7.992 -0.1693  0.5361 -1.4789
 7582SOL     OW34207   3.281   3.327  12.472  0.9777  0.2783  0.4213
 7582SOL    HW134208   3.342   3.345  12.544  2.8071 -1.6607 -0.6753
 7582SOL    HW234209   3.194   3.338  12.510 -0.9226  0.2575 -3.9841
 7583SOL     OW34210   0.858   3.153  13.788 -0.6853  0.1030 -0.0119
 7583SOL    HW134211   0.874   3.241  13.755 -0.8600 -0.1327 -0.7243
 7583SOL    HW234212   0.771   3.145  13.748 -0.0752 -2.3346 -0.8472
 7584SOL     OW34213   2.019   2.082   4.928  0.1150 -0.1770 -0.1894
 7584SOL    HW134214   2.101   2.041   4.956 -0.1384 -0.3599  0.3074
 7584SOL    HW234215   2.048   2.126   4.849  1.0030 -0.1019  0.1746
 7585SOL     OW34216   1.296   1.664   6.937 -0.1158  0.1603 -0.5549
 7585SOL    HW134217   1.345   1.742   6.961 -1.8210  1.4447 -1.2861
 7585SOL    HW234218   1.361   1.596   6.956 -0.6586 -0.7468 -1.9279
 7586SOL     OW34219   2.455   0.313   2.055  0.2145 -0.5676 -0.2245
 7586SOL    HW134220   2.400   0.267   1.991 -2.4885 -0.6281  2.1218
 7586SOL    HW234221   2.529   0.255   2.076  2.3565  0.9295 -3.6618
 7587SOL     OW34222   4.199   3.229   5.273  0.0149 -0.3373  0.0609
 7587SOL    HW134223   4.287   3.208   5.241  0.0774  0.3276 -0.1894
 7587SOL    HW234224   4.177   3.315   5.239 -0.2002 -0.4189 -0.0068
 7588SOL     OW34225   0.269   3.067   0.768 -0.3992 -0.4488  0.0648
 7588SOL    HW134226   0.349   3.038   0.812 -0.4663 -0.1863  0.3624
 7588SOL    HW234227   0.301   3.151   0.734  0.5794  0.2254  2.6430
 7589SOL     OW34228   2.619   0.732   2.602 -0.3179 -1.0462 -0.3409
 7589SOL    HW134229   2.703   0.768   2.629  0.5876 -2.4010 -1.3343
 7589SOL    HW234230   2.659   0.645   2.601  0.5090 -0.6657 -0.4860
 7590SOL     OW34231   2.489   2.172  16.105 -0.9231  1.0551 -0.1179
 7590SOL    HW134232   2.529   2.258  16.117 -0.3377  0.3127  3.4622
 7590SOL    HW234233   2.438   2.179  16.186 -0.9690 -1.9438  0.0872
 7591SOL     OW34234   2.371   3.758   7.986  0.0203 -0.1771 -0.0799
 7591SOL    HW134235   2.318   3.834   8.012 -1.4559 -0.7737 -1.3904
 7591SOL    HW234236   2.378   3.702   8.064 -2.6831  0.7643  0.8198
 7592SOL     OW34237   0.045   2.108   5.820  0.3282 -0.4712  0.6803
 7592SOL    HW134238   0.055   2.138   5.729  1.8647  1.2332  1.4144
 7592SOL    HW234239   0.087   2.022   5.813  1.0749 -0.0769  0.2557
 7593SOL     OW34240   4.087   4.443   1.559 -0.6087 -0.5091 -0.3053
 7593SOL    HW134241   4.028   4.513   1.534 -0.8119 -0.9957 -1.1880
 7593SOL    HW234242   4.030   4.373   1.526  0.8964 -2.2346  0.7627
 7594SOL     OW34243   2.028   3.896   8.198  0.6628 -0.1794  0.2843
 7594SOL    HW134244   1.961   3.960   8.224  0.3950 -0.5741  0.5697
 7594SOL    HW234245   2.035   3.894   8.103 -3.5231 -1.4629 -0.0127
 7595SOL     OW34246   3.977   3.558  16.159  0.1483  0.0569 -0.3173
 7595SOL    HW134247   4.023   3.479  16.185 -0.9951 -0.1440  1.1222
 7595SOL    HW234248   4.053   3.613  16.175 -0.3531  0.1850  1.6109
 7596SOL     OW34249   0.366   0.951   8.859  0.4079  0.2943  0.0163
 7596SOL    HW134250   0.454   0.987   8.847  0.7205  0.0969  1.6955
 7596SOL    HW234251   0.367   0.961   8.954 -1.1360  0.8834 -0.0290
 7597SOL     OW34252   3.702   0.280  15.036  0.0630  0.5419 -0.1096
 7597SOL    HW134253   3.654   0.199  15.020  1.9412 -0.6920  0.4977
 7597SOL    HW234254   3.687   0.324  14.952  2.1232 -1.7706 -1.6694
 7598SOL     OW34255   4.397   2.152   8.461  0.5826  0.0585  0.3431
 7598SOL    HW134256   4.404   2.065   8.423 -3.3776  0.2711 -0.8922
 7598SOL    HW234257   4.334   2.198   8.405  0.8451  1.2444  1.0259
 7599SOL     OW34258   3.811   2.372   9.549  0.6257 -0.1270  0.1073
 7599SOL    HW134259   3.788   2.422   9.627 -0.0943  1.1446 -0.9258
 7599SOL    HW234260   3.860   2.297   9.585 -0.0889 -1.0720 -0.9161
 7600SOL     OW34261   2.125   1.593  12.111  0.2307 -0.6309 -0.4081
 7600SOL    HW134262   2.090   1.539  12.040 -1.5687  0.5249 -0.4213
 7600SOL    HW234263   2.155   1.676  12.073  0.2937 -0.6414 -0.3809
 7601SOL     OW34264   3.849   2.549  13.005  0.5946 -0.1602  0.1076
 7601SOL    HW134265   3.908   2.478  12.978 -0.4894 -0.3477 -1.7124
 7601SOL    HW234266   3.767   2.529  12.960  1.3689 -0.3096 -1.2368
 7602SOL     OW34267   2.942   0.997   5.057  0.1701 -0.2902 -0.0132
 7602SOL    HW134268   2.989   1.053   5.118  0.0699  1.2416 -1.3673
 7602SOL    HW234269   2.973   1.034   4.975 -2.6249  1.5734 -0.2137
 7603SOL     OW34270   2.226   1.533   5.586  0.3423  0.6291 -0.0128
 7603SOL    HW134271   2.279   1.526   5.506 -0.0748  1.9585 -0.3894
 7603SOL    HW234272   2.183   1.447   5.588 -1.7634  1.6862 -1.1315
 7604SOL     OW34273   2.575   3.316   4.379 -0.1921  0.0789 -0.1579
 7604SOL    HW134274   2.563   3.302   4.473  1.3683 -0.1325  0.0053
 7604SOL    HW234275   2.668   3.341   4.375 -0.6335  1.7428 -0.1775
 7605SOL     OW34276   2.939   2.785   5.535 -0.0451  0.0916 -0.3013
 7605SOL    HW134277   2.882   2.857   5.563  1.2306  0.8507  0.3401
 7605SOL    HW234278   2.936   2.730   5.613  0.1663  1.4728  0.6757
 7606SOL     OW34279   1.210   3.868   7.548  0.6913 -0.3941  0.5340
 7606SOL    HW134280   1.176   3.825   7.626  1.8055  0.3902  1.4700
 7606SOL    HW234281   1.255   3.795   7.506  0.6219 -0.1989  0.1243
 7607SOL     OW34282   2.040   3.347   4.779 -0.1064  0.4953  0.0925
 7607SOL    HW134283   2.048   3.252   4.787  0.0626  0.3276 -2.0208
 7607SOL    HW234284   2.086   3.368   4.698  0.9629  0.1471  0.6157
 7608SOL     OW34285   1.301   2.647   7.250  0.9504 -0.4390  0.4526
 7608SOL    HW134286   1.356   2.652   7.328  2.0416 -0.2772 -0.3291
 7608SOL    HW234287   1.251   2.568   7.269 -2.5467  1.3246 -1.4702
 7609SOL     OW34288   1.448   2.558  10.597  0.0117  0.1123 -0.0402
 7609SOL    HW134289   1.437   2.551  10.692 -1.1063  2.6923  0.0440
 7609SOL    HW234290   1.421   2.650  10.585  0.2181  0.1622 -0.1059
 7610SOL     OW34291   2.646   2.315  16.891  0.0718 -0.5552 -0.1781
 7610SOL    HW134292   2.612   2.244  16.945 -0.3901  0.0502  0.3193
 7610SOL    HW234293   2.720   2.264  16.857 -0.8908 -0.4409 -2.4757
 7611SOL     OW34294   1.412   0.876   0.474  0.4876  0.4551  0.6269
 7611SOL    HW134295   1.363   0.891   0.393 -0.9805  1.9805  1.7926
 7611SOL    HW234296   1.345   0.848   0.537  0.3059  1.1591  0.7397
 7612SOL     OW34297   2.699   2.630  11.796 -0.8969 -0.5918 -0.3210
 7612SOL    HW134298   2.726   2.708  11.748 -0.0049 -0.9903 -0.4713
 7612SOL    HW234299   2.603   2.631  11.795 -0.8553 -0.3970 -3.3161
 7613SOL     OW34300   0.805   1.334  12.653  0.3522 -0.2498 -0.0273
 7613SOL    HW134301   0.819   1.289  12.570  0.4542  1.1551 -0.7599
 7613SOL    HW234302   0.837   1.423  12.638 -2.7707  0.8056 -0.3090
 7614SOL     OW34303   4.048   3.599   8.400  0.4114 -0.6039 -0.1901
 7614SOL    HW134304   3.963   3.642   8.408  0.6127 -0.3738  0.7044
 7614SOL    HW234305   4.055   3.627   8.308 -0.7737  1.2120  0.2739
 7615SOL     OW34306   1.661   2.155   8.268 -0.0590 -0.9464  0.1309
 7615SOL    HW134307   1.639   2.248   8.272  0.1279 -0.8878 -0.1200
 7615SOL    HW234308   1.756   2.169   8.274  0.2751 -3.1191  0.1113
 7616SOL     OW34309   2.794   3.908  10.810 -0.3231  0.1789  0.3481
 7616SOL    HW134310   2.706   3.882  10.838 -0.0189 -0.5837  0.6010
 7616SOL    HW234311   2.787   4.000  10.784 -1.0928 -0.2761 -1.0049
 7617SOL     OW34312   4.705   2.622   0.905 -0.0313 -0.0940 -0.4403
 7617SOL    HW134313   0.070   2.598   0.864 -0.8309  1.3450 -2.9172
 7617SOL    HW234314   4.709   2.593   0.996 -1.5205 -1.7238 -0.8820
 7618SOL     OW34315   3.598   1.280  16.825 -0.1425  0.2867 -0.1822
 7618SOL    HW134316   3.513   1.312  16.856 -0.7639 -3.2096  1.7066
 7618SOL    HW234317   3.589   1.255  16.733  0.7494 -3.9553  0.8949
 7619SOL     OW34318   3.386   4.066  16.785 -0.3518  0.7680 -0.0306
 7619SOL    HW134319   3.443   4.092  16.713  2.9597 -2.8131  1.3578
 7619SOL    HW234320   3.454   4.044  16.849  0.8482 -0.2465 -1.6736
 7620SOL     OW34321   3.687   4.610  16.625 -0.6229  0.0655 -0.2421
 7620SOL    HW134322   3.596   4.638  16.626 -1.2152 -1.9818  2.0042
 7620SOL    HW234323   3.695   4.587  16.717 -0.7072  0.5426 -0.1181
 7621SOL     OW34324   0.962   1.891  12.989 -1.0103 -0.1434  0.1281
 7621SOL    HW134325   0.942   1.861  12.900 -0.8556  0.2850 -0.0529
 7621SOL    HW234326   0.991   1.810  13.032 -3.4670 -1.6963 -1.1882
 7622SOL     OW34327   0.337   0.742   9.482  0.1816 -0.2905 -0.0118
 7622SOL    HW134328   0.418   0.700   9.510 -0.3863 -0.8614  0.7821
 7622SOL    HW234329   0.353   0.833   9.507 -2.2739 -0.2364  1.3433
 7623SOL     OW34330   2.866   1.448   2.765  0.0335  0.0754 -0.4827
 7623SOL    HW134331   2.881   1.375   2.825 -0.4224  0.1960 -0.2223
 7623SOL    HW234332   2.869   1.405   2.679 -1.4675  0.5703 -0.7806
 7624SOL     OW34333   4.695   1.800   7.205  0.3322  0.0495  0.5610
 7624SOL    HW134334   4.652   1.829   7.286 -2.8450 -0.6985 -0.8466
 7624SOL    HW234335   4.624   1.814   7.143 -1.4759 -0.3608  2.5284
 7625SOL     OW34336   1.079   3.237   5.436 -0.1585 -0.3739  0.2419
 7625SOL    HW134337   0.985   3.248   5.424 -0.1327 -1.0250 -0.5706
 7625SOL    HW234338   1.095   3.216   5.528  0.9824 -1.7219 -0.2570
 7626SOL     OW34339   3.113   2.753   7.830  0.3241  0.9316  0.3941
 7626SOL    HW134340   3.121   2.670   7.877  0.8464  1.1327  0.6593
 7626SOL    HW234341   3.076   2.806   7.900 -1.4844  1.7823 -1.2136
 7627SOL     OW34342   1.267   1.955  11.456 -0.3333 -0.0366 -0.0866
 7627SOL    HW134343   1.271   1.880  11.514  0.3410  0.5205  0.5761
 7627SOL    HW234344   1.282   1.906  11.375 -2.6212  0.4664 -0.8239
 7628SOL     OW34345   2.811   1.563   8.657 -0.1106 -0.0781 -0.4443
 7628SOL    HW134346   2.834   1.521   8.574  1.4655  0.3918 -0.2420
 7628SOL    HW234347   2.767   1.491   8.702 -2.0915  0.5987 -1.2980
 7629SOL     OW34348   1.309   4.626   9.889  0.1381 -0.3481 -0.2134
 7629SOL    HW134349   1.245   4.593   9.827  0.6040 -2.8163  0.6219
 7629SOL    HW234350   1.397   4.602   9.860 -0.3183 -0.1328 -1.7283
 7630SOL     OW34351   2.226   3.317  15.212 -0.4060  0.5185 -0.5257
 7630SOL    HW134352   2.308   3.303  15.261 -1.5212 -1.4407  0.7694
 7630SOL    HW234353   2.242   3.295  15.120 -1.3644  0.0990 -0.5932
 7631SOL     OW34354   0.508   4.552   8.753 -0.0272 -0.4511 -0.1924
 7631SOL    HW134355   0.518   4.576   8.846  0.8197 -2.4277  0.2332
 7631SOL    HW234356   0.536   4.631   8.708 -1.6870 -0.9275 -2.0617
 7632SOL     OW34357   4.054   0.062   3.831  0.2481 -0.0699 -0.2881
 7632SOL    HW134358   4.104   0.023   3.759  1.5163  3.0508 -1.0865
 7632SOL    HW234359   4.094   0.030   3.912  0.7165  0.0463 -0.4720
 7633SOL     OW34360   2.228   1.205  14.218  0.2256  0.0789  0.2320
 7633SOL    HW134361   2.265   1.179  14.134 -0.2378  2.4155 -0.6977
 7633SOL    HW234362   2.164   1.275  14.204 -0.8138 -0.9236  0.0138
 7634SOL     OW34363   4.167   4.109  11.379 -0.1002  0.2104 -0.3314
 7634SOL    HW134364   4.184   4.203  11.382  0.6941  0.0321  1.0204
 7634SOL    HW234365   4.144   4.098  11.472 -1.2995 -1.7269 -0.8577
 7635SOL     OW34366   2.947   4.438  15.780 -0.0708  0.0504  0.0331
 7635SOL    HW134367   2.966   4.514  15.725  0.6999 -0.0766  0.1302
 7635SOL    HW234368   2.856   4.416  15.759 -0.2439 -0.9967  1.8362
 7636SOL     OW34369   1.156   1.215   7.728  0.1448 -0.3393 -0.5698
 7636SOL    HW134370   1.236   1.209   7.781  0.3016 -1.0791 -0.8920
 7636SOL    HW234371   1.171   1.301   7.687  2.3784 -0.5824 -0.2631
 7637SOL     OW34372   0.284   3.550  10.055 -0.1138  0.3008  0.1727
 7637SOL    HW134373   0.302   3.472  10.106  1.2772  0.8262  0.4938
 7637SOL    HW234374   0.337   3.535   9.976 -0.8719  0.5986 -0.3990
 7638SOL     OW34375   2.623   0.336  16.832 -1.0050  0.4309  0.7097
 7638SOL    HW134376   2.650   0.379  16.913 -1.3391  0.8046  0.6253
 7638SOL    HW234377   2.704   0.354  16.783 -1.0037 -1.2973  0.0750
 7639SOL     OW34378   3.537   1.277   4.621 -0.2406  0.2477 -0.0688
 7639SOL    HW134379   3.624   1.263   4.657 -0.0004  1.4326 -0.1831
 7639SOL    HW234380   3.484   1.285   4.701  0.1510 -0.7431  0.2803
 7640SOL     OW34381   0.243   2.583   2.772 -0.2439 -0.1711  0.4898
 7640SOL    HW134382   0.234   2.677   2.756  0.9118 -0.0390  0.6492
 7640SOL    HW234383   0.266   2.592   2.865  4.0889 -2.2561 -0.3699
 7641SOL     OW34384   2.972   1.539  16.001 -0.2717 -1.0965 -0.7234
 7641SOL    HW134385   2.953   1.506  15.914  0.6065  2.5909 -2.2838
 7641SOL    HW234386   2.882   1.527  16.033 -0.6419 -0.1973 -1.4705
 7642SOL     OW34387   2.124   3.040  10.086 -0.9879  0.1724  0.4431
 7642SOL    HW134388   2.179   3.110  10.051 -0.2932  0.6937  2.5517
 7642SOL    HW234389   2.046   3.088  10.116 -0.7160  0.2591  1.0089
 7643SOL     OW34390   3.556   3.106  10.488 -0.0408  0.5029  0.1762
 7643SOL    HW134391   3.544   3.115  10.583  0.8155  1.9418  0.1614
 7643SOL    HW234392   3.469   3.100  10.450  0.2815 -3.3753  0.1241
 7644SOL     OW34393   0.992   3.101   7.660 -0.2759  0.0365 -0.3243
 7644SOL    HW134394   0.926   3.041   7.623  0.1372 -2.6232  3.2913
 7644SOL    HW234395   1.025   3.057   7.738  0.1427  0.3970 -0.3016
 7645SOL     OW34396   1.971   2.062   0.080  0.1852  0.2052 -0.1981
 7645SOL    HW134397   1.877   2.080   0.085 -0.2771 -2.7089  1.3256
 7645SOL    HW234398   1.984   2.042  17.661 -2.2156  0.8221 -0.6686
 7646SOL     OW34399   0.676   0.957   6.548  0.5164  0.0047 -0.0711
 7646SOL    HW134400   0.705   1.043   6.576 -1.3101  0.5199  0.2306
 7646SOL    HW234401   0.591   0.942   6.589  0.5713 -0.6412 -0.1924
 7647SOL     OW34402   4.375   0.665  16.236  0.6000 -0.1477  0.4465
 7647SOL    HW134403   4.460   0.641  16.199  0.6667  0.7551  0.0268
 7647SOL    HW234404   4.405   0.710  16.315  0.8269  3.3522 -1.6411
 7648SOL     OW34405   2.839   1.692   3.389  0.0961 -0.1475  0.6079
 7648SOL    HW134406   2.915   1.739   3.353 -0.5508  0.7367  0.3992
 7648SOL    HW234407   2.764   1.716   3.335 -0.6979  0.4609  1.9934
 7649SOL     OW34408   4.086   2.180  16.091  0.2190 -0.3811  0.5728
 7649SOL    HW134409   4.037   2.111  16.137 -0.2545 -0.6767 -0.3720
 7649SOL    HW234410   4.173   2.165  16.130  1.1391 -0.8427 -1.6732
 7650SOL     OW34411   3.981   2.045   1.272 -0.0119  0.3870  0.5695
 7650SOL    HW134412   4.012   1.987   1.202  0.2921 -0.8677  1.7320
 7650SOL    HW234413   3.963   1.986   1.345 -1.2557 -3.5660 -2.9177
 7651SOL     OW34414   4.505   0.878  15.437 -0.2747 -0.0613  0.1143
 7651SOL    HW134415   4.540   0.963  15.464  1.2892 -0.4695 -0.5931
 7651SOL    HW234416   4.471   0.853  15.523  0.2247 -2.1179 -0.2912
 7652SOL     OW34417   1.949   0.636   1.538  0.1535  0.6472  0.2242
 7652SOL    HW134418   1.876   0.699   1.538  1.9525  2.7168 -0.7229
 7652SOL    HW234419   1.960   0.624   1.632  0.2937  1.9131  0.3660
 7653SOL     OW34420   0.208   1.447   7.766  0.3592 -0.3960  0.1320
 7653SOL    HW134421   0.185   1.461   7.858 -0.6912 -2.2521  0.1677
 7653SOL    HW234422   0.254   1.526   7.741 -1.4155  0.7545  0.4814
 7654SOL     OW34423   4.025   3.353   5.880 -0.0203 -0.0591 -0.5518
 7654SOL    HW134424   4.074   3.425   5.840 -0.2051  0.2886 -0.1619
 7654SOL    HW234425   3.993   3.318   5.797  2.2915 -0.0067 -1.4504
 7655SOL     OW34426   1.043   0.194   3.107 -0.3650  0.1139 -0.0930
 7655SOL    HW134427   1.128   0.205   3.065 -0.1960  0.9472  0.4654
 7655SOL    HW234428   1.022   0.103   3.086 -2.1493  0.1697  1.4642
 7656SOL     OW34429   3.304   1.714  12.001  0.6929  0.1468  0.3686
 7656SOL    HW134430   3.307   1.808  12.018  0.7695  0.2983 -0.4587
 7656SOL    HW234431   3.217   1.717  11.961 -0.2137  1.0725  2.4140
 7657SOL     OW34432   2.860   2.372   4.289  0.0102  0.1200 -0.1083
 7657SOL    HW134433   2.777   2.421   4.285 -1.1381 -1.8055 -0.1215
 7657SOL    HW234434   2.861   2.348   4.196 -1.7587  2.0424 -0.6432
 7658SOL     OW34435   4.365   0.661   7.606 -0.2225  0.3422  0.0062
 7658SOL    HW134436   4.421   0.673   7.682  0.2609  0.5445 -0.3829
 7658SOL    HW234437   4.402   0.720   7.540 -2.3694  1.7146  0.0267
 7659SOL     OW34438   0.428   4.682   4.221 -0.4455 -0.4220 -0.1770
 7659SOL    HW134439   0.442   4.714   4.132  1.1049  2.0122  0.9326
 7659SOL    HW234440   0.471   4.598   4.206 -1.6532 -0.7059 -2.1339
 7660SOL     OW34441   0.351   1.751   3.653  0.3561 -0.4404 -0.4545
 7660SOL    HW134442   0.264   1.783   3.630  0.4389  0.8326  1.0645
 7660SOL    HW234443   0.341   1.738   3.747  0.9807 -0.8007 -0.4372
 7661SOL     OW34444   1.181   0.450   9.062  0.0313  0.0891 -0.0924
 7661SOL    HW134445   1.139   0.536   9.057 -1.2495 -0.6234 -1.4642
 7661SOL    HW234446   1.272   0.482   9.066  0.4848 -0.8732 -2.9273
 7662SOL     OW34447   0.149   2.207   0.592 -0.7365 -0.1240  0.1416
 7662SOL    HW134448   0.229   2.252   0.565 -1.9042  0.9935 -1.4632
 7662SOL    HW234449   0.081   2.270   0.568 -0.5307 -0.3861 -1.1187
 7663SOL     OW34450   4.088   1.132   4.329 -0.4386 -0.1577 -1.1950
 7663SOL    HW134451   3.997   1.122   4.301 -1.2169  0.3345  1.1248
 7663SOL    HW234452   4.111   1.039   4.335  1.4972  0.4639  0.9855
 7664SOL     OW34453   1.974   0.622   5.712 -0.7796 -0.1743 -0.0389
 7664SOL    HW134454   2.039   0.675   5.759  0.8838 -1.5610 -0.7827
 7664SOL    HW234455   2.014   0.634   5.625  1.9941 -1.3311  1.0974
 7665SOL     OW34456   4.310   0.529   4.831 -0.3628  0.2367 -0.1385
 7665SOL    HW134457   4.314   0.594   4.761 -0.1297  1.7453  1.2801
 7665SOL    HW234458   4.275   0.585   4.900 -1.9473 -0.1077 -0.6763
 7666SOL     OW34459   2.741   2.189   3.119  0.3638  0.0357  0.4331
 7666SOL    HW134460   2.757   2.262   3.179 -1.9638  0.0284  1.0495
 7666SOL    HW234461   2.730   2.233   3.034  1.7356 -0.3495  0.0547
 7667SOL     OW34462   2.597   3.988   9.615 -0.2482 -0.0800 -0.6299
 7667SOL    HW134463   2.636   4.057   9.560 -0.5530  0.7361  0.1828
 7667SOL    HW234464   2.604   4.021   9.704  1.4921 -0.6226 -0.5741
 7668SOL     OW34465   1.451   3.201  15.856 -0.3962 -0.1603  0.5539
 7668SOL    HW134466   1.411   3.142  15.793  1.7355 -1.6680  0.6154
 7668SOL    HW234467   1.458   3.282  15.806  2.6160 -0.7697  0.0278
 7669SOL     OW34468   3.897   2.849   3.054 -0.2858  0.7297 -0.4485
 7669SOL    HW134469   3.893   2.859   3.149 -0.8961 -0.8573 -0.3217
 7669SOL    HW234470   3.826   2.788   3.035  1.6437 -1.9331  0.9720
 7670SOL     OW34471   0.388   3.134   3.953  0.3498  0.1364  0.4478
 7670SOL    HW134472   0.394   3.199   4.023  3.5435  0.0714  0.2295
 7670SOL    HW234473   0.302   3.097   3.972  0.7589 -0.0971  1.8648
 7671SOL     OW34474   3.631   1.110  17.649 -0.1544 -0.1661  0.1649
 7671SOL    HW134475   3.685   1.102   0.053 -1.2942  0.3679  1.0022
 7671SOL    HW234476   3.630   1.023  17.608  2.5863 -1.0439  1.9700
 7672SOL     OW34477   0.529   4.081  16.240 -0.9164 -0.1116 -0.0873
 7672SOL    HW134478   0.598   4.125  16.191  0.4506  0.7643  2.6196
 7672SOL    HW234479   0.540   4.099  16.333  3.0145  1.2729 -0.8201
 7673SOL     OW34480   2.066   3.064   8.902 -0.7111 -0.3983 -0.6295
 7673SOL    HW134481   2.037   3.092   8.815 -0.9668 -1.2767 -0.8259
 7673SOL    HW234482   2.004   3.114   8.955  0.3587  1.2810 -0.9410
 7674SOL     OW34483   0.470   3.595   3.116  0.2420 -0.1073  0.2558
 7674SOL    HW134484   0.387   3.554   3.138  0.6594 -0.5809  0.9640
 7674SOL    HW234485   0.509   3.527   3.060  1.9928 -0.0045  1.3521
 7675SOL     OW34486   2.107   0.539   2.252 -0.7423  0.0295  0.1129
 7675SOL    HW134487   2.125   0.516   2.161  0.1831  0.9239  0.0765
 7675SOL    HW234488   2.125   0.456   2.295 -1.0001 -0.0468  0.0781
 7676SOL     OW34489   4.369   0.599   7.185 -0.5783  0.1087  0.1530
 7676SOL    HW134490   4.279   0.620   7.206 -0.8540  0.8693 -1.7941
 7676SOL    HW234491   4.382   0.654   7.108 -2.0616 -1.2427 -1.0464
 7677SOL     OW34492   3.931   4.312  12.086 -0.1827  0.0075 -0.7394
 7677SOL    HW134493   4.020   4.338  12.062 -0.2842 -0.0345 -1.1633
 7677SOL    HW234494   3.932   4.219  12.110  0.5820  0.6076  1.4920
 7678SOL     OW34495   0.097   1.068   3.933  0.2324 -0.0110 -0.1239
 7678SOL    HW134496   0.143   1.030   4.009 -0.7890  0.2648  0.6354
 7678SOL    HW234497   0.110   1.158   3.963  0.4210 -0.1871  0.3136
 7679SOL     OW34498   2.294   2.036   4.984 -0.0835 -0.1416  0.0273
 7679SOL    HW134499   2.303   2.037   4.888  0.7141 -0.3725  0.0993
 7679SOL    HW234500   2.380   2.010   5.016 -0.3740 -2.6730 -1.1945
 7680SOL     OW34501   3.853   0.091   6.417 -0.0297 -0.1037  0.3567
 7680SOL    HW134502   3.876   0.006   6.379 -1.0315 -0.0880 -0.3047
 7680SOL    HW234503   3.758   0.085   6.403 -0.1886 -2.9775  2.6665
 7681SOL     OW34504   0.083   3.139   9.397 -0.1361 -0.7678 -0.0617
 7681SOL    HW134505   0.087   3.233   9.384 -1.4000 -0.5770  0.9365
 7681SOL    HW234506   0.054   3.130   9.487 -0.8646  1.4125 -0.0985
 7682SOL     OW34507   2.636   0.351   9.607 -0.1042  0.2851 -0.1121
 7682SOL    HW134508   2.707   0.352   9.543 -0.0432  2.0618 -0.0008
 7682SOL    HW234509   2.630   0.259   9.633  0.5763  0.7504  1.7574
 7683SOL     OW34510   2.491   1.438   2.958  0.2014  0.5167 -0.5272
 7683SOL    HW134511   2.451   1.448   3.044 -0.3411 -0.9009 -0.6263
 7683SOL    HW234512   2.559   1.377   2.987 -0.0484  0.5392  0.1069
 7684SOL     OW34513   4.369   3.171   4.713 -0.3080 -0.4408  0.0616
 7684SOL    HW134514   4.399   3.262   4.718 -1.2333 -0.1434  0.2037
 7684SOL    HW234515   4.446   3.119   4.736  1.1244  1.1142 -1.2459
 7685SOL     OW34516   3.844   2.801   7.336  0.4221 -0.5153 -0.1490
 7685SOL    HW134517   3.845   2.855   7.415  2.4803 -0.9033  0.0938
 7685SOL    HW234518   3.824   2.859   7.263 -0.3176 -0.4531  0.0999
 7686SOL     OW34519   4.199   1.143   8.196  0.3391 -0.0101 -0.3427
 7686SOL    HW134520   4.283   1.187   8.181  0.6471 -0.8885 -1.1611
 7686SOL    HW234521   4.218   1.051   8.178  0.4640 -0.3811  1.7241
 7687SOL     OW34522   2.536   0.612  13.706 -0.0598  0.5478  0.1883
 7687SOL    HW134523   2.624   0.650  13.714 -0.2036  1.0261 -0.5187
 7687SOL    HW234524   2.496   0.620  13.793 -3.4006  2.0244 -1.4702
 7688SOL     OW34525   0.541   2.227   7.416 -0.0205  1.0678  0.1444
 7688SOL    HW134526   0.557   2.321   7.423 -0.3712  1.2692 -1.7497
 7688SOL    HW234527   0.589   2.187   7.489  0.8640  4.2868  1.3196
 7689SOL     OW34528   3.268   2.038   3.207 -0.5945  0.1751  0.1044
 7689SOL    HW134529   3.319   2.033   3.125  0.7618  0.0935  0.9514
 7689SOL    HW234530   3.244   2.130   3.215 -0.6870  0.1270  0.3452
 7690SOL     OW34531   2.773   1.380   6.463 -0.4191 -0.5878  0.7336
 7690SOL    HW134532   2.804   1.464   6.498 -1.6605 -1.2141  3.2831
 7690SOL    HW234533   2.854   1.335   6.439  0.4139 -0.0690  2.6040
 7691SOL     OW34534   2.374   2.717   5.146 -0.0184 -0.4344  1.0694
 7691SOL    HW134535   2.353   2.639   5.197 -0.1017 -0.7092  0.6233
 7691SOL    HW234536   2.336   2.779   5.207  0.5131  0.3920  0.5650
 7692SOL     OW34537   0.475   3.982   2.870 -0.0534 -0.3692 -0.1523
 7692SOL    HW134538   0.519   3.948   2.792  1.4537 -0.5907  0.7862
 7692SOL    HW234539   0.443   3.898   2.903  0.5045 -0.4993  0.0523
 7693SOL     OW34540   1.828   0.072   2.373 -0.1702 -0.4098 -0.0472
 7693SOL    HW134541   1.920   0.097   2.376 -0.4967  0.7357  0.3588
 7693SOL    HW234542   1.793   0.098   2.458 -0.6648  1.0709 -0.7146
 7694SOL     OW34543   4.598   0.879  10.287 -0.1671 -0.0099  0.1810
 7694SOL    HW134544   4.581   0.881  10.382 -0.0247  0.0870  0.2034
 7694SOL    HW234545   4.674   0.936  10.289  1.8493 -2.6563 -1.0640
 7695SOL     OW34546   3.126   3.443   7.071 -0.2789 -0.4893  0.3232
 7695SOL    HW134547   3.157   3.494   7.145 -2.7424  0.6641  0.5857
 7695SOL    HW234548   3.070   3.384   7.122 -2.5578 -0.2339 -1.8256
 7696SOL     OW34549   0.920   2.262   2.432  0.1241  0.4268  0.6641
 7696SOL    HW134550   0.956   2.202   2.498 -1.2515 -2.1799 -0.9612
 7696SOL    HW234551   0.828   2.237   2.432 -0.2093  1.6023  2.9360
 7697SOL     OW34552   2.518   3.657  15.337 -0.0682  0.4680 -0.2501
 7697SOL    HW134553   2.518   3.665  15.241  1.3939 -2.1294 -0.4579
 7697SOL    HW234554   2.424   3.652  15.353  0.1782 -0.7019  0.8154
 7698SOL     OW34555   0.086   1.487   3.780  0.1399  0.1163  0.4459
 7698SOL    HW134556   0.128   1.571   3.798 -2.1161  1.5037 -0.7810
 7698SOL    HW234557   0.018   1.479   3.848  0.4861  0.0188  0.7805
 7699SOL     OW34558   4.264   0.811   4.953 -0.0405  0.3146 -0.0959
 7699SOL    HW134559   4.211   0.795   5.032 -0.3238 -0.5514 -0.4652
 7699SOL    HW234560   4.346   0.831   4.999 -1.9439  1.7145  2.6755
 7700SOL     OW34561   0.355   2.786   3.809  0.3852  0.4212 -0.0963
 7700SOL    HW134562   0.377   2.751   3.723 -1.9750 -0.5854 -0.2847
 7700SOL    HW234563   0.268   2.822   3.788  1.1176  2.0114 -0.3871
 7701SOL     OW34564   4.706   0.880   8.357  0.5378 -0.1295 -0.0883
 7701SOL    HW134565   4.681   0.817   8.424  1.2995  0.5138  0.8043
 7701SOL    HW234566   0.069   0.835   8.330 -1.2030 -3.3961  0.0799
 7702SOL     OW34567   0.230   3.242   8.046  0.3950  0.2945 -0.2156
 7702SOL    HW134568   0.139   3.272   8.047 -0.1224 -1.1739 -1.9986
 7702SOL    HW234569   0.252   3.245   7.953  3.6410  0.7188  0.5745
 7703SOL     OW34570   1.068   2.384   6.263  0.1400 -0.1191  0.6069
 7703SOL    HW134571   1.031   2.334   6.190 -0.7394  0.4939  0.6271
 7703SOL    HW234572   1.056   2.314   6.326  1.2041 -0.5052  0.3780
 7704SOL     OW34573   3.008   2.589   2.969  0.3569  0.1730 -0.0052
 7704SOL    HW134574   3.069   2.663   2.979  1.0689 -0.4371  0.1289
 7704SOL    HW234575   3.042   2.562   2.884 -1.5426  1.9629 -1.3276
 7705SOL     OW34576   0.469   0.217  16.674 -0.2348 -0.5040 -0.3353
 7705SOL    HW134577   0.433   0.268  16.747  1.2398  0.5226 -0.3329
 7705SOL    HW234578   0.545   0.180  16.720 -0.0599 -1.8668 -1.7367
 7706SOL     OW34579   0.257   3.785   6.523  0.4148 -0.2083  0.0901
 7706SOL    HW134580   0.206   3.826   6.453 -0.3370 -2.6694 -0.7957
 7706SOL    HW234581   0.345   3.821   6.510 -0.8057  2.9823  0.6067
 7707SOL     OW34582   3.931   0.732   8.791  0.2783 -0.3860  0.0016
 7707SOL    HW134583   3.975   0.660   8.746 -0.0849 -0.0171 -0.9368
 7707SOL    HW234584   3.926   0.701   8.881 -0.7847  0.7525  0.3406
 7708SOL     OW34585   0.192   3.975   4.769  0.3155  0.2292 -0.0526
 7708SOL    HW134586   0.116   3.938   4.813  0.3550 -0.0892 -0.2539
 7708SOL    HW234587   0.226   3.897   4.725 -1.0469 -0.2855 -0.2162
 7709SOL     OW34588   4.097   2.403   2.912  0.2170  0.0867 -1.2619
 7709SOL    HW134589   4.187   2.427   2.892  0.9792 -0.8437  1.0757
 7709SOL    HW234590   4.059   2.415   2.825 -0.1818 -1.0029 -1.2343
 7710SOL     OW34591   2.330   0.797   0.458 -0.1279  0.0825  0.0512
 7710SOL    HW134592   2.345   0.888   0.480 -1.9942  0.5291 -0.4697
 7710SOL    HW234593   2.331   0.800   0.362 -0.7516  1.5903  0.0903
 7711SOL     OW34594   0.042   1.377   8.663  0.2349  0.4436 -0.0792
 7711SOL    HW134595   0.105   1.437   8.624 -0.4484 -0.3032 -2.3534
 7711SOL    HW234596   0.041   1.292   8.618 -2.8952 -0.4484  1.6386
 7712SOL     OW34597   0.278   0.115   6.995 -0.0178  0.1324 -0.3068
 7712SOL    HW134598   0.330   0.103   7.075 -2.4319  1.7868  1.4797
 7712SOL    HW234599   0.210   0.052   7.019 -1.7445  2.7666  1.5698
 7713SOL     OW34600   0.336   3.848   1.399 -0.2062  0.0738 -0.2565
 7713SOL    HW134601   0.262   3.869   1.343 -1.4920 -2.8558  0.3649
 7713SOL    HW234602   0.314   3.892   1.482 -0.1016 -2.7700  1.2830
 7714SOL     OW34603   2.241   0.905   2.249 -0.2397 -0.4158 -0.6041
 7714SOL    HW134604   2.190   0.824   2.240  1.9581 -2.3175  4.1019
 7714SOL    HW234605   2.280   0.893   2.336 -0.6569  0.0234 -0.3583
 7715SOL     OW34606   1.970   2.080  10.518  0.6355  0.3353 -0.7571
 7715SOL    HW134607   2.017   2.132  10.453 -1.8831  2.3485 -0.9354
 7715SOL    HW234608   2.001   2.130  10.593  1.0395  0.3754 -0.9537
 7716SOL     OW34609   1.199   0.955   7.637 -0.2250  0.0843 -0.1233
 7716SOL    HW134610   1.231   0.965   7.727 -0.3099  1.2314 -0.2235
 7716SOL    HW234611   1.115   1.000   7.644 -0.9787 -1.2384 -0.5480
 7717SOL     OW34612   3.691   2.487   4.924  0.1063  0.4978 -0.4654
 7717SOL    HW134613   3.629   2.451   4.860  0.2012  0.5779 -0.6024
 7717SOL    HW234614   3.762   2.490   4.861  0.3535 -0.5827 -0.2404
 7718SOL     OW34615   3.883   2.545  12.653 -0.4023 -0.0319 -0.0443
 7718SOL    HW134616   3.943   2.582  12.717 -1.6834 -0.3978  1.3907
 7718SOL    HW234617   3.822   2.619  12.643  0.4957  0.4475 -1.9086
 7719SOL     OW34618   2.129   0.105   7.524 -0.0584  0.4908  0.9984
 7719SOL    HW134619   2.212   0.124   7.480  0.4755 -1.4322  1.1642
 7719SOL    HW234620   2.116   0.012   7.504 -1.4846  0.3463  2.6537
 7720SOL     OW34621   2.740   3.351   3.489  0.2030 -0.6698 -0.5386
 7720SOL    HW134622   2.798   3.309   3.426  1.8290  0.3990  0.2509
 7720SOL    HW234623   2.760   3.298   3.567 -1.3033 -0.6180 -0.1149
 7721SOL     OW34624   2.346   2.280   8.211 -0.5877  0.6673  0.5883
 7721SOL    HW134625   2.313   2.351   8.157 -1.5034  0.5107  0.9409
 7721SOL    HW234626   2.307   2.202   8.170 -1.1025  1.4498 -0.4116
 7722SOL     OW34627   3.986   1.630   7.790  0.2832 -0.5107  0.9458
 7722SOL    HW134628   4.069   1.617   7.835  0.1724 -0.5016  1.1521
 7722SOL    HW234629   3.955   1.706   7.839  1.8038  0.7828 -0.1214
 7723SOL     OW34630   3.842   0.265   5.274 -0.6429 -0.0250  0.0811
 7723SOL    HW134631   3.828   0.237   5.365  0.7135 -1.8393 -0.2625
 7723SOL    HW234632   3.837   0.185   5.221 -0.4456  0.5000 -0.7285
 7724SOL     OW34633   0.727   0.478  10.117 -0.0923 -0.1375 -0.0288
 7724SOL    HW134634   0.684   0.452  10.036 -0.4276  1.7724 -0.4576
 7724SOL    HW234635   0.767   0.392  10.134 -1.4742 -0.8271 -0.3240
 7725SOL     OW34636   4.105   1.389   5.353 -0.6393  0.3128  0.4112
 7725SOL    HW134637   4.137   1.473   5.319 -3.8240  0.9362 -1.0854
 7725SOL    HW234638   4.016   1.407   5.383 -0.8341  1.8442 -1.0771
 7726SOL     OW34639   2.450   2.761  17.129 -0.6124 -0.0916  0.1053
 7726SOL    HW134640   2.507   2.800  17.196 -0.0689  2.0569 -1.6225
 7726SOL    HW234641   2.495   2.678  17.117  0.1982  0.2942  0.4270
 7727SOL     OW34642   0.136   4.338   8.080  0.6562 -0.0626 -0.3843
 7727SOL    HW134643   0.188   4.393   8.021 -0.0844  0.3266 -0.6619
 7727SOL    HW234644   0.134   4.390   8.160  1.2603  0.6833 -0.8499
 7728SOL     OW34645   1.832   3.403   4.455 -0.5175  0.0812 -0.8686
 7728SOL    HW134646   1.765   3.353   4.407 -1.3227  1.1239 -0.8379
 7728SOL    HW234647   1.906   3.387   4.397 -0.3065  2.6491 -1.3273
 7729SOL     OW34648   3.790   2.111   0.177  0.1152  0.1552 -0.7013
 7729SOL    HW134649   3.696   2.097   0.167 -0.1267  0.5915  1.1340
 7729SOL    HW234650   3.794   2.206   0.188  2.3571  0.0456 -0.5595
 7730SOL     OW34651   3.552   0.214   2.058  0.3268  0.3816  0.1224
 7730SOL    HW134652   3.505   0.242   2.137 -1.1357  0.0131 -0.6090
 7730SOL    HW234653   3.610   0.288   2.040  0.4878  0.1405 -0.3520
 7731SOL     OW34654   4.460   1.745   2.818 -0.1788  0.4750 -0.2337
 7731SOL    HW134655   4.550   1.763   2.791 -0.8215  2.5418 -1.0472
 7731SOL    HW234656   4.443   1.836   2.844 -2.2757  0.6785 -2.2811
 7732SOL     OW34657   1.503   4.205   3.685 -0.7630  0.1954  0.9033
 7732SOL    HW134658   1.496   4.244   3.598  3.0914 -0.1904  0.3950
 7732SOL    HW234659   1.520   4.292   3.721  0.7764  0.6229 -0.8169
 7733SOL     OW34660   4.480   4.191   4.523 -0.0439 -0.1278 -0.6905
 7733SOL    HW134661   4.540   4.139   4.470 -0.3371 -0.1824 -0.9662
 7733SOL    HW234662   4.402   4.199   4.468 -0.1205  2.0727 -0.2572
 7734SOL     OW34663   1.071   1.636   8.367  0.4680 -0.1031  0.4435
 7734SOL    HW134664   1.052   1.601   8.453  0.3940  0.8163  0.8089
 7734SOL    HW234665   1.014   1.580   8.314 -0.7911  0.1187  1.5860
 7735SOL     OW34666   2.218   1.803   5.342 -0.0561  0.2057 -0.4567
 7735SOL    HW134667   2.145   1.807   5.405 -1.4497  0.4171 -2.0973
 7735SOL    HW234668   2.265   1.724   5.369  1.4757  1.6545  1.0784
 7736SOL     OW34669   2.028   4.653  13.051  0.0200  0.1812  0.1360
 7736SOL    HW134670   2.009   4.651  13.145  1.2704 -0.4878  0.3870
 7736SOL    HW234671   2.024   0.024  13.017  1.2606  1.1656  2.5690
 7737SOL     OW34672   1.994   4.331  17.636 -0.1854  0.8106 -0.1428
 7737SOL    HW134673   2.058   4.363  17.572 -0.7505  2.3909  0.0827
 7737SOL    HW234674   1.996   4.410   0.017  1.7079  0.2765  0.5523
 7738SOL     OW34675   3.671   4.145   9.996  0.6051  0.6690  0.2774
 7738SOL    HW134676   3.718   4.090  10.059 -0.2752  2.8575  2.8667
 7738SOL    HW234677   3.579   4.121   9.986  0.6618  1.0817 -1.1676
 7739SOL     OW34678   1.767   0.167   8.805 -0.3274 -0.0073  0.0546
 7739SOL    HW134679   1.711   0.215   8.867 -0.9634 -1.3502  0.5046
 7739SOL    HW234680   1.848   0.218   8.806  0.2463 -0.9518  0.8452
 7740SOL     OW34681   0.206   2.834  16.926  0.1793 -0.2088  0.4424
 7740SOL    HW134682   0.290   2.800  16.955  0.7355  1.5460  0.8600
 7740SOL    HW234683   0.239   2.915  16.888 -0.2028  0.1052  0.7947
 7741SOL     OW34684   4.590   1.077  14.026 -0.1798 -0.6744  0.2557
 7741SOL    HW134685   4.666   1.102  13.973 -2.6271 -3.0693 -4.4188
 7741SOL    HW234686   4.517   1.107  13.973 -2.0182 -0.6244  2.8235
 7742SOL     OW34687   3.438   1.005   4.818  0.0813 -0.1001  0.0180
 7742SOL    HW134688   3.437   1.094   4.852 -1.9099 -0.4808  0.9264
 7742SOL    HW234689   3.525   0.985   4.853 -0.2255 -0.5484  0.5284
 7743SOL     OW34690   1.023   3.542   9.345 -0.0103  0.7915  0.2475
 7743SOL    HW134691   0.969   3.618   9.367 -2.2522 -1.1092  1.2469
 7743SOL    HW234692   0.976   3.487   9.408  1.3575  0.5508  1.0738
 7744SOL     OW34693   0.926   1.073   7.598  0.4058  0.3610 -0.3055
 7744SOL    HW134694   0.958   1.084   7.688  0.2289 -0.2268 -0.1693
 7744SOL    HW234695   0.894   1.162   7.580  0.6019 -0.3113 -3.9422
 7745SOL     OW34696   0.664   3.566   9.370 -0.1234 -0.0026  0.0802
 7745SOL    HW134697   0.651   3.635   9.304  1.7182  2.1483  1.9911
 7745SOL    HW234698   0.667   3.488   9.314  0.8016  0.9943 -1.2678
 7746SOL     OW34699   2.641   2.168   7.256  0.2913 -0.6377  0.2328
 7746SOL    HW134700   2.601   2.218   7.326 -2.6955  0.1599 -2.0118
 7746SOL    HW234701   2.567   2.169   7.195 -0.0689 -1.0300  0.6673
 7747SOL     OW34702   0.190   3.590   5.554  0.0801  0.1986 -0.3609
 7747SOL    HW134703   0.107   3.550   5.577  0.2055 -0.1051 -0.4401
 7747SOL    HW234704   0.164   3.667   5.504 -0.3938 -0.5818 -1.3103
 7748SOL     OW34705   2.011   1.628  12.357  0.5513  0.1654 -0.2130
 7748SOL    HW134706   2.056   1.636  12.273 -0.9613 -0.0012 -1.0336
 7748SOL    HW234707   2.022   1.534  12.372 -3.2406 -0.2880 -0.2088
 7749SOL     OW34708   2.983   0.188  11.549  0.2477  0.7196  0.1168
 7749SOL    HW134709   3.068   0.186  11.594 -0.2925  2.2383  1.2149
 7749SOL    HW234710   2.984   0.100  11.511  1.7017  0.0425  1.6996
 7750SOL     OW34711   3.789   2.601   2.790  0.2595 -0.3376  0.6050
 7750SOL    HW134712   3.812   2.518   2.832 -0.4498  0.5572  2.7588
 7750SOL    HW234713   3.834   2.585   2.707 -2.3564  0.6322 -1.0165
 7751SOL     OW34714   1.803   0.374  13.143 -0.4025  0.2974  0.0810
 7751SOL    HW134715   1.810   0.366  13.048 -1.0151 -1.6757  0.2031
 7751SOL    HW234716   1.744   0.449  13.153  1.1226  1.4180  0.5224
 7752SOL     OW34717   3.034   4.716  13.479 -0.5632 -0.4208 -0.0561
 7752SOL    HW134718   3.041   0.092  13.495 -1.0467 -0.8656  2.6588
 7752SOL    HW234719   3.090   4.708  13.402 -1.2046 -0.2390 -0.5417
 7753SOL     OW34720   1.222   0.236   1.799 -0.1231  0.0472 -0.4895
 7753SOL    HW134721   1.207   0.149   1.761 -2.1628  0.0842  0.2334
 7753SOL    HW234722   1.315   0.223   1.821 -0.3503 -0.0508  0.4110
 7754SOL     OW34723   4.453   0.945   7.853  0.2545 -0.2340 -0.0965
 7754SOL    HW134724   4.373   0.925   7.902  0.5504 -1.3490 -0.0754
 7754SOL    HW234725   4.468   0.861   7.810 -1.2974  0.1242 -1.3473
 7755SOL     OW34726   2.573   3.494   9.343  0.0710 -0.1912 -0.2387
 7755SOL    HW134727   2.631   3.464   9.413 -1.1814  0.2910  0.9999
 7755SOL    HW234728   2.593   3.588   9.346 -0.3543 -0.0635 -1.2774
 7756SOL     OW34729   3.358   3.595   1.261 -0.5845 -0.2386 -0.3959
 7756SOL    HW134730   3.450   3.577   1.282 -1.0261 -1.7728  0.2059
 7756SOL    HW234731   3.346   3.647   1.341  2.9180  1.5789 -1.0480
 7757SOL     OW34732   0.899   3.433  15.601  0.1984  0.2331  0.2402
 7757SOL    HW134733   0.848   3.445  15.681 -0.4914 -0.2297 -0.1269
 7757SOL    HW234734   0.869   3.343  15.586 -2.4655  0.9296  1.3834
 7758SOL     OW34735   3.206   0.163  16.899 -0.1364  0.2682 -0.2173
 7758SOL    HW134736   3.291   0.123  16.921 -0.5565 -0.1643  0.5987
 7758SOL    HW234737   3.235   0.252  16.879 -0.2644  0.7607  1.8426
 7759SOL     OW34738   0.880   0.755   3.011  0.2780 -0.2323 -0.7755
 7759SOL    HW134739   0.870   0.826   3.075 -1.1023 -1.1745  0.0588
 7759SOL    HW234740   0.823   0.783   2.939  0.1796  0.2141 -0.5203
 7760SOL     OW34741   2.275   0.557  10.591 -0.1809  0.2526 -0.2266
 7760SOL    HW134742   2.265   0.631  10.651  2.1199  0.3354  0.0541
 7760SOL    HW234743   2.344   0.506  10.633  0.3798  0.4041 -0.9452
 7761SOL     OW34744   0.639   4.109   4.490 -0.0285 -0.1332 -0.0371
 7761SOL    HW134745   0.709   4.160   4.449  1.1722 -2.9826 -1.5925
 7761SOL    HW234746   0.568   4.170   4.509  0.5084  0.6424 -0.5431
 7762SOL     OW34747   1.834   0.123   7.336 -0.1642  0.0079  0.2749
 7762SOL    HW134748   1.918   0.092   7.371  0.0607 -1.6273 -1.7066
 7762SOL    HW234749   1.795   0.038   7.313  1.7376 -1.2591  1.6484
 7763SOL     OW34750   2.329   1.004  14.788 -0.6129 -0.2786 -0.7173
 7763SOL    HW134751   2.242   1.029  14.818  0.1866  0.9079  0.6221
 7763SOL    HW234752   2.350   0.936  14.852 -0.1960  0.0269 -0.5274
 7764SOL     OW34753   3.524   0.414   1.220 -0.2637 -0.7809  0.2725
 7764SOL    HW134754   3.460   0.449   1.282 -2.6761 -2.1788 -1.4435
 7764SOL    HW234755   3.493   0.324   1.212  3.2309 -1.9804  0.0646
 7765SOL     OW34756   4.475   0.650  15.295  0.3527  0.4113  0.3763
 7765SOL    HW134757   4.484   0.732  15.345 -0.6637 -0.7931  2.5392
 7765SOL    HW234758   4.445   0.685  15.211  0.0140  1.0003  0.7375
 7766SOL     OW34759   1.422   0.953   6.002  0.1386  0.1312  0.1949
 7766SOL    HW134760   1.332   0.927   6.024 -0.8504  2.5635 -0.8782
 7766SOL    HW234761   1.440   0.886   5.936 -2.7320 -0.3942 -0.0562
 7767SOL     OW34762   2.000   2.443   4.241 -0.4894 -0.3151 -0.7372
 7767SOL    HW134763   2.041   2.515   4.290  0.9664 -1.0163 -0.9233
 7767SOL    HW234764   1.962   2.497   4.173  0.6578  0.7757 -0.5061
 7768SOL     OW34765   1.607   3.604   5.954 -0.4427  0.0413 -0.3616
 7768SOL    HW134766   1.534   3.551   5.986 -0.8886 -0.1691 -1.7641
 7768SOL    HW234767   1.598   3.682   6.009  0.0770  1.4329 -2.2705
 7769SOL     OW34768   2.679   4.000  14.032  0.0526  0.0440  0.0534
 7769SOL    HW134769   2.728   3.922  14.060 -0.1762 -0.0113  0.3016
 7769SOL    HW234770   2.590   3.970  14.015  0.0127  0.5703 -0.6203
 7770SOL     OW34771   4.381   1.838   5.743 -0.0274 -0.0136 -0.2707
 7770SOL    HW134772   4.385   1.768   5.679 -2.7057 -1.2394  0.9321
 7770SOL    HW234773   4.307   1.891   5.715 -1.0953 -0.0471  2.4623
 7771SOL     OW34774   0.638   0.092   3.618 -0.7022  0.4653  0.7493
 7771SOL    HW134775   0.697   0.165   3.635 -1.5452  0.8754  1.9157
 7771SOL    HW234776   0.552   0.127   3.642 -1.1057 -1.1248  1.6488
 7772SOL     OW34777   2.089   0.653   0.650 -0.4388  0.1082 -0.4975
 7772SOL    HW134778   2.156   0.616   0.591 -0.3251 -1.8073  0.8234
 7772SOL    HW234779   2.036   0.700   0.586 -0.4444  0.1286 -0.4774
 7773SOL     OW34780   0.158   4.187   1.254 -0.1478 -0.4363 -0.1437
 7773SOL    HW134781   0.111   4.209   1.334 -1.7157 -3.1587 -0.3538
 7773SOL    HW234782   0.150   4.093   1.244 -1.3116 -0.3613  0.1026
 7774SOL     OW34783   3.641   0.113   6.092 -0.0764 -0.5864 -0.1590
 7774SOL    HW134784   3.594   0.089   6.012  0.7198  2.7499 -1.6338
 7774SOL    HW234785   3.636   0.208   6.079 -2.0612 -0.6784 -0.0552
 7775SOL     OW34786   1.401   2.028   8.596 -0.1918 -0.2722 -0.5141
 7775SOL    HW134787   1.324   2.073   8.632  0.8663  0.7282  0.4782
 7775SOL    HW234788   1.444   2.024   8.682  1.1343  0.2527 -1.1558
 7776SOL     OW34789   3.218   3.199   6.546 -0.0006 -0.3614 -0.5183
 7776SOL    HW134790   3.265   3.183   6.464 -1.6442  0.2330 -1.5627
 7776SOL    HW234791   3.193   3.290   6.537 -1.0567 -0.6099 -0.0638
 7777SOL     OW34792   2.321   3.620   0.858 -0.3700 -0.2973  0.1075
 7777SOL    HW134793   2.264   3.562   0.908  0.9050 -1.8445 -0.2255
 7777SOL    HW234794   2.285   3.626   0.770 -1.4444  0.1652  0.5754
 7778SOL     OW34795   2.089   2.520  11.806 -0.3750  0.3743  0.2551
 7778SOL    HW134796   2.028   2.590  11.785  0.6381  1.1834  0.0242
 7778SOL    HW234797   2.115   2.548  11.894 -0.8000 -0.1674  0.5550
 7779SOL     OW34798   0.709   0.337   6.084 -0.3887 -0.5863 -0.5959
 7779SOL    HW134799   0.621   0.301   6.095 -0.0193 -1.6899 -1.2171
 7779SOL    HW234800   0.753   0.271   6.138  0.2969  0.3427 -0.0239
 7780SOL     OW34801   0.717   0.212   3.896 -0.3864 -0.6786 -0.2658
 7780SOL    HW134802   0.788   0.201   3.833  1.7845 -2.4089  2.4345
 7780SOL    HW234803   0.695   0.301   3.867  3.3274  0.2467 -0.2814
 7781SOL     OW34804   0.399   2.699   0.198  0.1319 -0.6746  0.0062
 7781SOL    HW134805   0.442   2.775   0.157  1.4561 -0.5088  1.7163
 7781SOL    HW234806   0.399   2.730   0.288 -3.0071  3.3307 -1.3618
 7782SOL     OW34807   3.839   3.590   5.332  0.5434 -0.4028  0.1964
 7782SOL    HW134808   3.890   3.652   5.384  0.6634 -0.4891  0.1831
 7782SOL    HW234809   3.800   3.538   5.402 -0.2015  0.3440  0.3260
 7783SOL     OW34810   1.152   0.160   8.296 -0.2679 -0.1118 -0.5172
 7783SOL    HW134811   1.212   0.126   8.363 -0.6193 -0.5739 -0.4362
 7783SOL    HW234812   1.175   0.253   8.294 -0.8367  0.1198  4.2681
 7784SOL     OW34813   1.279   3.485   3.461 -0.3699  0.5894 -0.2128
 7784SOL    HW134814   1.338   3.422   3.420 -1.2318  0.2372 -0.9102
 7784SOL    HW234815   1.309   3.561   3.412  0.5919  0.8929  0.8291
 7785SOL     OW34816   0.156   3.575   7.913 -0.1814 -0.0170  0.1396
 7785SOL    HW134817   0.079   3.528   7.945  0.9774 -2.2793 -0.3839
 7785SOL    HW234818   0.227   3.538   7.965 -0.3402 -1.4884 -0.6825
 7786SOL     OW34819   2.755   0.141   9.988  0.7013 -0.3472 -0.4323
 7786SOL    HW134820   2.702   0.061   9.991 -0.1983  0.3224  1.4552
 7786SOL    HW234821   2.697   0.205  10.030  0.4508 -0.0040 -1.2970
 7787SOL     OW34822   0.204   3.686   7.348 -0.0702 -0.0115 -0.6889
 7787SOL    HW134823   0.152   3.664   7.425  1.8429 -1.1433  0.2562
 7787SOL    HW234824   0.267   3.746   7.388  0.1922 -1.1055  0.5221
 7788SOL     OW34825   3.842   2.002   4.599 -0.1351  0.0398 -0.1168
 7788SOL    HW134826   3.937   1.999   4.592 -0.2492 -0.1184 -1.6733
 7788SOL    HW234827   3.819   1.928   4.656  1.6122  0.9898  1.7945
 7789SOL     OW34828   4.062   1.558  15.472  0.7603  0.1938  0.4044
 7789SOL    HW134829   4.145   1.581  15.513  1.6932  1.0260 -1.9680
 7789SOL    HW234830   4.066   1.601  15.386  2.0388 -1.1624 -0.2140
 7790SOL     OW34831   3.262   4.261  11.128  0.1151 -0.2259 -0.2956
 7790SOL    HW134832   3.267   4.169  11.152 -1.1089 -0.2737 -0.1965
 7790SOL    HW234833   3.343   4.291  11.168 -0.4026  1.2069 -0.3122
 7791SOL     OW34834   3.148   1.125   1.027  0.2748 -0.3558  0.2056
 7791SOL    HW134835   3.096   1.097   1.102  0.1668 -0.4350  0.1005
 7791SOL    HW234836   3.216   1.058   1.026  1.6398  1.0237 -0.0173
 7792SOL     OW34837   2.798   2.639  14.792 -0.3998  0.9267  0.3583
 7792SOL    HW134838   2.837   2.595  14.867  1.8310 -1.3492 -2.1232
 7792SOL    HW234839   2.873   2.636  14.731  0.1786  0.9374  1.0733
 7793SOL     OW34840   4.151   4.039  14.781  0.2355 -0.4418 -0.1119
 7793SOL    HW134841   4.206   4.095  14.837 -0.4588  0.6914 -0.5520
 7793SOL    HW234842   4.132   4.087  14.700  1.6321 -0.5584 -0.5019
 7794SOL     OW34843   4.354   0.713   4.643  0.5836  0.3861 -0.1245
 7794SOL    HW134844   4.375   0.782   4.580  1.2615  0.5432  0.2695
 7794SOL    HW234845   4.441   0.676   4.661  1.6043  3.4709  1.1512
 7795SOL     OW34846   2.856   1.773   3.082 -0.5616 -0.0998 -0.1356
 7795SOL    HW134847   2.767   1.779   3.118  0.2401 -0.7174  1.9402
 7795SOL    HW234848   2.900   1.844   3.129 -0.8996  0.2787 -0.3830
 7796SOL     OW34849   0.035   3.889   5.752 -0.3660 -0.5425 -0.0216
 7796SOL    HW134850   4.698   3.906   5.830  0.0636 -1.0938  0.4007
 7796SOL    HW234851   0.097   3.962   5.756 -0.1803 -0.7494  1.1149
 7797SOL     OW34852   3.849   1.151  16.591 -0.4370 -0.0705  0.1196
 7797SOL    HW134853   3.825   1.083  16.527  1.7268 -0.4913 -0.2507
 7797SOL    HW234854   3.780   1.216  16.580 -1.0683 -0.5107  1.4488
 7798SOL     OW34855   2.731   1.626   1.900  0.4454  0.4875  0.2406
 7798SOL    HW134856   2.753   1.719   1.895  0.6427  0.5653  3.0443
 7798SOL    HW234857   2.799   1.592   1.957 -0.6382 -1.5230  0.3255
 7799SOL     OW34858   3.805   4.174   5.224 -0.0315 -0.2610  0.3075
 7799SOL    HW134859   3.773   4.103   5.280 -5.0125 -0.2535 -2.5367
 7799SOL    HW234860   3.731   4.226   5.193 -0.3366  0.0999  1.6451
 7800SOL     OW34861   1.584   1.816   1.736  0.5691  0.1549 -0.4934
 7800SOL    HW134862   1.622   1.800   1.649  0.9257 -0.7630 -0.1645
 7800SOL    HW234863   1.572   1.727   1.771 -3.0158  0.5333 -0.7269
 7801SOL     OW34864   2.626   3.746   7.007 -0.0579 -0.0230 -0.0085
 7801SOL    HW134865   2.679   3.822   6.985  0.4938 -0.5253 -0.4028
 7801SOL    HW234866   2.684   3.701   7.069 -0.3217 -0.2115  0.0998
 7802SOL     OW34867   0.069   0.694   2.337  0.5340  0.0894  0.2591
 7802SOL    HW134868   4.705   0.647   2.357 -0.5928  1.5017 -1.0134
 7802SOL    HW234869   0.130   0.644   2.391  1.1878 -0.2370 -0.7725
 7803SOL     OW34870   3.162   0.379   7.193  0.0736  0.1950 -0.5666
 7803SOL    HW134871   3.141   0.471   7.181  2.1925  0.8404  0.6650
 7803SOL    HW234872   3.248   0.379   7.152  0.7114 -0.9613  0.7407
 7804SOL     OW34873   3.594   3.584  16.793 -0.7921  0.2768 -0.2645
 7804SOL    HW134874   3.566   3.495  16.812 -0.5050 -0.2026 -2.1887
 7804SOL    HW234875   3.671   3.558  16.743 -1.1524  0.5737 -0.9717
 7805SOL     OW34876   4.261   0.094   9.240  0.0423  0.3709  0.1880
 7805SOL    HW134877   4.246   0.145   9.161 -0.9805  1.1179  0.8643
 7805SOL    HW234878   4.317   0.152   9.292 -1.2807  0.4990  1.4582
 7806SOL     OW34879   2.580   1.707   8.614  0.1992 -0.3977 -0.4013
 7806SOL    HW134880   2.559   1.638   8.550  1.7319 -0.8263 -0.4421
 7806SOL    HW234881   2.664   1.675   8.647  1.5349  2.3568 -1.1247
 7807SOL     OW34882   3.466   1.412  15.852  0.1998  0.0429 -0.0964
 7807SOL    HW134883   3.433   1.493  15.891 -0.1490  0.1873 -0.6993
 7807SOL    HW234884   3.385   1.371  15.821 -0.3720  0.6939  0.5528
 7808SOL     OW34885   3.225   2.450  16.334 -0.2276  0.3861  0.1470
 7808SOL    HW134886   3.168   2.508  16.284 -0.6537 -0.6637 -0.5768
 7808SOL    HW234887   3.303   2.462  16.280  0.1643  1.0225  0.8493
 7809SOL     OW34888   1.393   0.031  12.669 -0.2696 -0.5183  0.2915
 7809SOL    HW134889   1.489   0.029  12.668 -0.2504  0.6816 -0.9162
 7809SOL    HW234890   1.379   0.126  12.666  2.7245 -0.1730 -3.2516
 7810SOL     OW34891   0.739   0.578  15.250  0.4592 -0.4668  0.3884
 7810SOL    HW134892   0.720   0.497  15.298 -0.0466  0.8153  2.3702
 7810SOL    HW234893   0.680   0.642  15.290 -0.0132 -0.6894  0.0449
 7811SOL     OW34894   1.387   4.474  13.091  0.3296  0.0179 -0.0920
 7811SOL    HW134895   1.371   4.558  13.134  0.4784 -0.2798  0.5348
 7811SOL    HW234896   1.301   4.465  13.049  0.3846  1.8842 -0.6199
 7812SOL     OW34897   2.519   0.880   1.851 -0.4285  0.4860  0.0994
 7812SOL    HW134898   2.579   0.943   1.813  2.3451 -1.0241  1.9573
 7812SOL    HW234899   2.436   0.926   1.838 -1.2857 -0.4881  1.9801
 7813SOL     OW34900   0.568   0.529   2.879 -0.4383  0.1143  0.2302
 7813SOL    HW134901   0.655   0.494   2.861 -0.3042  0.4553  0.2127
 7813SOL    HW234902   0.552   0.511   2.971  1.5793 -0.9950  0.3650
 7814SOL     OW34903   0.945   4.569   1.707 -0.1328  0.0825  0.2466
 7814SOL    HW134904   0.970   4.487   1.665  3.7321  1.4452 -0.1498
 7814SOL    HW234905   0.851   4.555   1.710 -0.0823 -0.0492  1.2693
 7815SOL     OW34906   3.538   3.908  16.199 -0.3070 -0.1882  0.0206
 7815SOL    HW134907   3.513   3.920  16.108  0.1769  2.5024  0.2508
 7815SOL    HW234908   3.544   3.999  16.229 -0.8860 -0.8284  2.1484
 7816SOL     OW34909   0.406   3.492  12.455 -0.5417  0.0358  0.5105
 7816SOL    HW134910   0.494   3.514  12.485 -0.2703 -0.7444  0.2835
 7816SOL    HW234911   0.396   3.397  12.458 -0.7606 -0.0025 -1.2490
 7817SOL     OW34912   1.856   0.638   7.717 -0.1736  0.1541 -0.3340
 7817SOL    HW134913   1.777   0.597   7.680  0.5474 -1.3481 -0.2226
 7817SOL    HW234914   1.908   0.636   7.636 -2.0665 -0.6916 -1.5403
 7818SOL     OW34915   4.250   3.885   0.063  0.3128  0.1511 -0.1154
 7818SOL    HW134916   4.232   3.919  17.649  1.1610 -0.2853 -0.4546
 7818SOL    HW234917   4.277   3.963   0.111 -2.3444  0.2639  1.2318
 7819SOL     OW34918   4.641   3.317   2.442 -0.4807  0.0672 -0.0569
 7819SOL    HW134919   4.668   3.333   2.352 -0.9351  0.2130 -0.1707
 7819SOL    HW234920   4.549   3.344   2.435 -0.0471  1.0052 -2.0810
 7820SOL     OW34921   4.501   4.207   2.290 -0.4607 -0.6909 -0.8177
 7820SOL    HW134922   4.531   4.128   2.334 -0.6310  0.0132  0.5730
 7820SOL    HW234923   4.448   4.247   2.358 -0.3021 -1.6788 -0.1207
 7821SOL     OW34924   4.077   3.663   2.962  0.0792  0.0410  0.2410
 7821SOL    HW134925   4.007   3.606   2.930  0.2076  0.5789 -1.0017
 7821SOL    HW234926   4.130   3.596   3.004 -0.4843  1.2540  2.8850
 7822SOL     OW34927   3.011   2.214   1.982  0.7420  0.7039  0.1913
 7822SOL    HW134928   2.986   2.193   1.892 -2.2521 -1.9756  1.6314
 7822SOL    HW234929   3.073   2.142   1.992  1.7656  1.9579  2.9682
 7823SOL     OW34930   1.813   2.790   4.564  0.2570 -0.0439 -0.2738
 7823SOL    HW134931   1.844   2.702   4.584 -0.0818 -0.3990 -1.3126
 7823SOL    HW234932   1.791   2.823   4.651  0.7348 -1.2741  0.3143
 7824SOL     OW34933   0.377   4.650   3.316  0.5844  0.1160  0.4733
 7824SOL    HW134934   0.335   4.714   3.259  0.7475 -2.5751 -2.6621
 7824SOL    HW234935   0.366   4.574   3.259  1.5196  0.1939  0.1821
 7825SOL     OW34936   4.331   1.622  10.544  0.1159  0.9923 -0.0601
 7825SOL    HW134937   4.308   1.534  10.513 -0.0286  0.0318  2.7519
 7825SOL    HW234938   4.257   1.647  10.599  0.1180 -1.0195  0.8593
 7826SOL     OW34939   0.219   2.403  10.736  0.0260 -0.2179  0.1534
 7826SOL    HW134940   0.215   2.328  10.795  0.2818 -1.3802 -1.3070
 7826SOL    HW234941   0.224   2.346  10.659  0.4938 -1.4770  1.1223
 7827SOL     OW34942   2.771   4.234   4.819 -0.0980  0.4908 -0.0853
 7827SOL    HW134943   2.825   4.313   4.815  0.2842  0.2390  0.1326
 7827SOL    HW234944   2.716   4.260   4.893 -1.2208  0.6193 -0.9686
 7828SOL     OW34945   0.090   3.093   6.035  0.5586 -0.4265  0.0871
 7828SOL    HW134946   0.070   3.148   5.959  0.0999  1.4735  1.5831
 7828SOL    HW234947   0.182   3.078   6.013  0.5774  1.3522 -0.9914
 7829SOL     OW34948   3.178   3.248   2.700  0.2686 -0.4801  0.1673
 7829SOL    HW134949   3.265   3.283   2.680 -1.0006  1.2430 -2.1461
 7829SOL    HW234950   3.144   3.244   2.611  0.8490 -2.5300  0.0312
 7830SOL     OW34951   2.144   0.524  13.327 -0.3258 -0.0153  0.2613
 7830SOL    HW134952   2.194   0.523  13.245  1.7792 -1.8059  1.5756
 7830SOL    HW234953   2.079   0.586  13.293  0.3668  2.0752  2.7862
 7831SOL     OW34954   3.698   0.065   8.523  0.1908  0.0648  0.0779
 7831SOL    HW134955   3.793   0.066   8.532  0.2856  1.8722 -1.1141
 7831SOL    HW234956   3.696   0.042   8.430 -1.6391  1.2399 -0.1713
 7832SOL     OW34957   4.609   2.281   0.282 -0.5949  0.2049 -0.2226
 7832SOL    HW134958   4.521   2.253   0.308  0.4768 -2.3673  0.5835
 7832SOL    HW234959   4.610   2.375   0.299 -0.1343  0.4244 -1.4570
 7833SOL     OW34960   2.967   2.711  11.907  0.2486  0.1065  0.4767
 7833SOL    HW134961   2.987   2.665  11.989  0.6181 -0.2986  0.1592
 7833SOL    HW234962   2.876   2.683  11.896 -0.0073  1.1920 -0.1984
 7834SOL     OW34963   1.468   3.452  15.737  0.3421  0.0034  0.1195
 7834SOL    HW134964   1.378   3.475  15.713  0.4652  0.1415 -0.2241
 7834SOL    HW234965   1.509   3.538  15.725  0.9296 -0.1350  1.1651
 7835SOL     OW34966   0.178   2.531   5.441 -0.2224  0.7759 -0.0264
 7835SOL    HW134967   0.270   2.535   5.468  0.2931  0.1321 -1.6870
 7835SOL    HW234968   0.168   2.613   5.392  2.5192  0.8849 -0.4242
 7836SOL     OW34969   2.905   0.785   4.625 -0.4353  0.4118 -0.1130
 7836SOL    HW134970   2.904   0.701   4.672 -0.0486  0.4415 -0.0490
 7836SOL    HW234971   2.865   0.761   4.542  1.8120  0.3753 -1.1735
 7837SOL     OW34972   2.149   2.505   3.518  0.8662  0.1106  0.0917
 7837SOL    HW134973   2.160   2.417   3.480 -0.6065  1.4657 -3.5251
 7837SOL    HW234974   2.241   2.528   3.533  1.5614 -1.6335 -1.3977
 7838SOL     OW34975   3.661   3.489  10.581 -0.1662  0.2227 -1.0032
 7838SOL    HW134976   3.666   3.440  10.663  2.3867 -0.8540 -1.7854
 7838SOL    HW234977   3.743   3.538  10.589 -0.3112  0.5046 -1.2516
 7839SOL     OW34978   1.378   3.012   6.579 -0.4828  0.4818  0.3528
 7839SOL    HW134979   1.356   3.026   6.671  0.7617  0.1018  0.7085
 7839SOL    HW234980   1.325   2.936   6.554 -0.7140  0.8474 -0.2906
 7840SOL     OW34981   3.517   3.767  15.691  0.0692 -0.5561  0.0929
 7840SOL    HW134982   3.423   3.774  15.674  0.1553  0.8104  0.1625
 7840SOL    HW234983   3.533   3.677  15.662 -1.0394 -0.7369  0.0546
 7841SOL     OW34984   3.142   4.116   4.456  0.0016  0.2756 -0.5363
 7841SOL    HW134985   3.161   4.056   4.384  1.3350  1.1338 -0.8927
 7841SOL    HW234986   3.161   4.063   4.534 -0.4862  0.8868  0.0091
 7842SOL     OW34987   3.309   1.229   8.393 -0.0945 -0.2036  0.1417
 7842SOL    HW134988   3.222   1.193   8.406 -0.0458 -0.5524 -0.5042
 7842SOL    HW234989   3.334   1.187   8.311  2.4767  1.7308 -0.0701
 7843SOL     OW34990   2.408   1.637  17.009 -0.1561 -0.1388  0.7850
 7843SOL    HW134991   2.465   1.643  17.086 -0.6661 -0.5605  1.1877
 7843SOL    HW234992   2.458   1.571  16.962 -1.3752 -0.5396  0.0631
 7844SOL     OW34993   0.929   4.150  12.500 -0.2418  0.4414 -0.4716
 7844SOL    HW134994   0.970   4.237  12.499  2.3844 -0.8276 -1.3951
 7844SOL    HW234995   1.003   4.099  12.530 -1.8562 -1.4276  0.3364
 7845SOL     OW34996   3.248   2.680  11.602  0.3079 -0.0035  0.0220
 7845SOL    HW134997   3.166   2.632  11.613 -0.4688  1.1393 -0.8261
 7845SOL    HW234998   3.229   2.765  11.641 -1.4366 -0.3213 -0.1264
 7846SOL     OW34999   3.723   3.857  16.828  0.2521  0.1383  0.1957
 7846SOL    HW135000   3.778   3.815  16.762  0.9465  0.8028  0.3442
 7846SOL    HW235001   3.705   3.781  16.883 -0.2661  0.4157  0.4086
 7847SOL     OW35002   2.530   3.515   1.126  0.7976  0.6677  0.6378
 7847SOL    HW135003   2.616   3.513   1.170  2.0712 -0.2394 -1.8875
 7847SOL    HW235004   2.541   3.437   1.072 -0.6588  0.7981  0.1488
 7848SOL     OW35005   1.695   3.859   9.103  0.8326 -0.1202  0.2780
 7848SOL    HW135006   1.633   3.874   9.174 -0.2562  1.2749 -0.9627
 7848SOL    HW235007   1.639   3.799   9.053 -0.8404  2.1391 -0.5552
 7849SOL     OW35008   1.734   3.123  15.786  0.2096 -0.0203  0.0185
 7849SOL    HW135009   1.731   3.197  15.724  1.2841 -0.0482 -0.0759
 7849SOL    HW235010   1.706   3.167  15.866 -0.5349 -0.6891  0.1273
 7850SOL     OW35011   0.401   3.161  10.962 -0.6991  0.0583 -0.4829
 7850SOL    HW135012   0.314   3.201  10.963 -1.4937 -1.6660 -1.2510
 7850SOL    HW235013   0.442   3.217  10.897 -0.3339  0.3864  0.0317
 7851SOL     OW35014   1.568   0.811  12.269 -0.3306  0.5323 -0.1689
 7851SOL    HW135015   1.652   0.766  12.269 -1.1394 -0.9808 -0.3370
 7851SOL    HW235016   1.573   0.890  12.215  2.5452 -0.4996 -1.3910
 7852SOL     OW35017   2.690   0.451   8.417 -0.1913 -0.3823  1.2160
 7852SOL    HW135018   2.645   0.514   8.360 -1.1208 -0.4886  1.8189
 7852SOL    HW235019   2.778   0.482   8.399 -1.5852  0.8880 -3.4129
 7853SOL     OW35020   1.028   1.608  13.998  0.1174  0.8989  0.0435
 7853SOL    HW135021   1.039   1.548  13.924  0.6190 -2.6751  3.0085
 7853SOL    HW235022   0.943   1.649  13.983 -0.6567 -0.3253  1.0321
 7854SOL     OW35023   3.508   0.665   7.594 -0.6983 -0.1452 -0.7873
 7854SOL    HW135024   3.551   0.689   7.512  2.8593 -1.3546  0.7122
 7854SOL    HW235025   3.551   0.581   7.608 -1.0926 -0.0990  0.6857
 7855SOL     OW35026   3.260   2.207  12.459  0.3333 -0.4209 -0.4024
 7855SOL    HW135027   3.269   2.112  12.466 -0.6356 -0.4520  0.4188
 7855SOL    HW235028   3.306   2.227  12.377  2.7960  1.0918  1.3547
 7856SOL     OW35029   2.799   2.529   2.301  0.7620  0.1523 -0.4255
 7856SOL    HW135030   2.716   2.576   2.308 -0.5879 -2.4488  0.6448
 7856SOL    HW235031   2.786   2.465   2.230 -0.3335  0.3935 -0.4409
 7857SOL     OW35032   2.557   1.659  10.487 -0.1193 -0.4528 -0.3539
 7857SOL    HW135033   2.554   1.568  10.455 -2.6868 -0.7668  0.7470
 7857SOL    HW235034   2.623   1.642  10.555  0.9186  1.8590 -0.8060
 7858SOL     OW35035   0.250   0.688   4.635 -0.7211  0.4198  0.4054
 7858SOL    HW135036   0.334   0.642   4.639 -1.2837 -0.8481 -2.4148
 7858SOL    HW235037   0.238   0.694   4.540 -0.2298 -3.5480  0.1232
 7859SOL     OW35038   3.841   2.918   9.731 -0.7880 -0.4637 -0.1636
 7859SOL    HW135039   3.755   2.951   9.759 -1.1585 -1.4665 -0.1408
 7859SOL    HW235040   3.834   2.957   9.643 -0.4792 -0.2896 -0.1071
 7860SOL     OW35041   2.547   1.307   8.501  0.2378 -0.1817 -0.1004
 7860SOL    HW135042   2.500   1.226   8.482  0.1455 -0.4418  1.2094
 7860SOL    HW235043   2.485   1.342   8.565 -1.4757 -1.5362 -1.0098
 7861SOL     OW35044   3.043   1.738   6.979 -0.8681 -0.1341 -0.2063
 7861SOL    HW135045   3.128   1.779   6.993 -0.1574 -1.4396 -0.7215
 7861SOL    HW235046   3.073   1.656   6.938 -2.6705 -0.3072 -1.2246
 7862SOL     OW35047   3.485   2.405   2.779  0.1302  0.1465  0.0992
 7862SOL    HW135048   3.544   2.395   2.853 -0.0114 -2.3520 -0.1513
 7862SOL    HW235049   3.402   2.380   2.818 -0.0744  1.7151  0.6818
 7863SOL     OW35050   2.408   1.147   5.229  0.2339  0.2031  0.3487
 7863SOL    HW135051   2.492   1.192   5.241  0.2056  0.3743 -0.0814
 7863SOL    HW235052   2.352   1.201   5.174  2.0348 -1.7735 -3.4499
 7864SOL     OW35053   0.309   0.211   4.406 -0.1127  0.3920  0.2380
 7864SOL    HW135054   0.228   0.162   4.398 -0.2331  1.1200 -2.7745
 7864SOL    HW235055   0.285   0.236   4.496  0.0961  1.7301 -0.0842
 7865SOL     OW35056   2.936   2.407  15.412  0.1777 -0.3646  0.0650
 7865SOL    HW135057   2.912   2.492  15.376  0.5235 -0.0378  0.5992
 7865SOL    HW235058   3.000   2.369  15.351  1.6143  1.4316  0.4548
 7866SOL     OW35059   3.415   2.038  17.404  0.5216  0.1266 -0.5808
 7866SOL    HW135060   3.419   2.073  17.315 -0.4325  2.6848  0.3593
 7866SOL    HW235061   3.460   1.956  17.387  0.2349 -0.2632  0.5421
 7867SOL     OW35062   3.706   1.259   7.474 -0.5382  0.1017 -0.5597
 7867SOL    HW135063   3.756   1.208   7.538 -1.9207  0.8946  1.1300
 7867SOL    HW235064   3.631   1.278   7.529  0.6799 -0.6214  1.3549
 7868SOL     OW35065   2.045   1.110   2.298  0.4689 -0.3260 -0.8724
 7868SOL    HW135066   2.116   1.047   2.294 -0.2766 -1.3579  2.8097
 7868SOL    HW235067   1.972   1.056   2.269 -0.0439  0.0660 -0.3216
 7869SOL     OW35068   3.480   3.273   8.629 -0.3073 -0.0736  0.3113
 7869SOL    HW135069   3.498   3.199   8.687  0.9175  1.2524  1.5711
 7869SOL    HW235070   3.557   3.329   8.624 -0.8118  0.7333  1.7255
 7870SOL     OW35071   3.561   2.495   5.155  0.1121  0.1071 -0.0503
 7870SOL    HW135072   3.608   2.509   5.073  0.9809 -0.1345  0.4146
 7870SOL    HW235073   3.573   2.400   5.153 -1.6346 -0.1371  0.6736
 7871SOL     OW35074   1.174   1.662   1.758 -0.0379  0.8443 -0.4192
 7871SOL    HW135075   1.230   1.696   1.828 -0.4647 -2.1947  1.3973
 7871SOL    HW235076   1.125   1.737   1.725 -0.2938  1.2296  0.8323
 7872SOL     OW35077   1.999   4.357  10.124  0.2064 -0.0136 -0.0414
 7872SOL    HW135078   1.906   4.365  10.141 -0.0176 -2.7256 -0.0261
 7872SOL    HW235079   2.030   4.444  10.150  2.3624 -0.3579 -1.4331
 7873SOL     OW35080   2.993   4.375  11.345  0.1628  0.4040 -0.2512
 7873SOL    HW135081   2.910   4.341  11.377  0.5605 -2.1969 -1.9395
 7873SOL    HW235082   3.061   4.307  11.349 -0.4401 -0.3247 -2.3651
 7874SOL     OW35083   3.801   3.895   8.081 -0.2653  0.3960 -0.0222
 7874SOL    HW135084   3.707   3.898   8.099 -0.4827  0.7479 -1.2740
 7874SOL    HW235085   3.821   3.989   8.074  0.0181  0.2921 -0.5618
 7875SOL     OW35086   3.747   4.542   1.752 -0.2487  0.0866 -0.6135
 7875SOL    HW135087   3.720   4.570   1.665 -3.7209 -1.1073  0.0593
 7875SOL    HW235088   3.836   4.577   1.756 -0.0838 -0.4766  0.6036
 7876SOL     OW35089   2.914   4.524   3.000  0.5423 -0.2349  0.1104
 7876SOL    HW135090   2.877   4.557   3.082 -0.5417  0.6133 -0.7329
 7876SOL    HW235091   2.997   4.483   3.027  1.5017  2.3396  1.0218
 7877SOL     OW35092   1.550   0.562   2.485  0.5098 -0.6007  0.4654
 7877SOL    HW135093   1.478   0.569   2.547 -0.3484 -1.9530 -0.3892
 7877SOL    HW235094   1.527   0.633   2.426 -0.9556 -3.5378 -2.4970
 7878SOL     OW35095   2.890   3.257   7.493  0.5764 -0.2674 -0.1741
 7878SOL    HW135096   2.835   3.179   7.503  0.1893 -0.1309 -1.1721
 7878SOL    HW235097   2.934   3.246   7.577 -1.6110  2.4419  1.3339
 7879SOL     OW35098   2.251   2.305  14.614 -0.6378 -0.1930  0.5218
 7879SOL    HW135099   2.184   2.288  14.681 -1.8161 -0.8099 -0.8195
 7879SOL    HW235100   2.228   2.253  14.537 -1.9192 -0.5679  1.1699
 7880SOL     OW35101   1.066   2.509   6.761  0.3261 -0.3533 -0.2969
 7880SOL    HW135102   1.121   2.559   6.701  0.1796  0.0725 -0.0761
 7880SOL    HW235103   0.980   2.539   6.731  0.6254  2.6186  1.7366
 7881SOL     OW35104   4.162   0.401  12.026 -0.0744  0.0454 -0.2932
 7881SOL    HW135105   4.127   0.409  11.937 -1.4019 -1.8331  0.0507
 7881SOL    HW235106   4.096   0.455  12.069  1.3909  2.1436 -0.7039
 7882SOL     OW35107   2.646   0.298  15.469  0.2532 -0.0981 -0.6059
 7882SOL    HW135108   2.671   0.382  15.509 -1.1375  0.3531 -0.7020
 7882SOL    HW235109   2.635   0.326  15.378 -1.5283 -0.7527 -0.5941
 7883SOL     OW35110   0.721   3.605  15.176 -0.0021  0.4213 -0.2490
 7883SOL    HW135111   0.672   3.570  15.101  0.9369  1.4601 -1.3497
 7883SOL    HW235112   0.742   3.523  15.221  0.3682 -0.1835 -1.5238
 7884SOL     OW35113   1.582   2.264   2.445 -0.4341  0.4041  0.0605
 7884SOL    HW135114   1.640   2.224   2.510  0.5470  0.4708 -0.7779
 7884SOL    HW235115   1.535   2.329   2.498 -0.5474 -1.0631  1.7335
 7885SOL     OW35116   3.644   1.549  13.451 -0.2763 -0.3883  0.3452
 7885SOL    HW135117   3.635   1.489  13.525 -1.0236 -0.9126 -0.1577
 7885SOL    HW235118   3.611   1.488  13.384 -1.6836 -0.3141  0.9657
 7886SOL     OW35119   2.275   1.380   2.057 -0.2021  0.0382 -0.2217
 7886SOL    HW135120   2.181   1.363   2.047 -0.1116 -0.0990 -0.8510
 7886SOL    HW235121   2.290   1.327   2.135 -1.1492  0.8062  0.4948
 7887SOL     OW35122   3.500   0.701  16.340 -0.0832  0.0291 -0.1685
 7887SOL    HW135123   3.483   0.778  16.286 -0.1484 -0.6941 -1.1906
 7887SOL    HW235124   3.516   0.743  16.425  0.6211  0.4447 -0.5018
 7888SOL     OW35125   1.345   4.438   2.060 -0.0125  0.1681 -0.2869
 7888SOL    HW135126   1.258   4.402   2.045 -0.4642  0.7068  1.0229
 7888SOL    HW235127   1.356   4.421   2.154 -0.6351  2.3974  0.1848
 7889SOL     OW35128   1.561   0.275   7.073  0.7578  0.1854  0.2395
 7889SOL    HW135129   1.564   0.185   7.103 -1.6342  0.5566  1.5936
 7889SOL    HW235130   1.639   0.317   7.111  0.5042 -1.3350  2.3928
 7890SOL     OW35131   3.840   0.851   7.918 -0.0779  0.7006 -0.6015
 7890SOL    HW135132   3.779   0.883   7.984 -0.6367 -1.1339 -0.2126
 7890SOL    HW235133   3.788   0.856   7.838  0.7819  3.2475 -1.0089
 7891SOL     OW35134   1.683   4.326   2.416  0.1046  0.5143 -0.2268
 7891SOL    HW135135   1.616   4.257   2.420  0.6182  0.1399  2.1599
 7891SOL    HW235136   1.660   4.379   2.340 -0.9036 -0.4564 -0.6090
 7892SOL     OW35137   0.023   4.622   0.573  0.7622 -0.1806 -0.3293
 7892SOL    HW135138   0.000   4.576   0.654 -1.0641  1.2081 -0.0629
 7892SOL    HW235139   4.695   4.572   0.505  1.9801 -1.3640 -0.2709
 7893SOL     OW35140   3.487   1.976  10.369 -0.6753 -0.7395  0.1982
 7893SOL    HW135141   3.415   2.038  10.380  0.2972  0.5255 -0.6834
 7893SOL    HW235142   3.548   2.033  10.323 -0.1752 -1.2573  0.2138
 7894SOL     OW35143   2.646   3.307   8.678  0.4293  0.2278 -0.7026
 7894SOL    HW135144   2.614   3.275   8.594  1.7212 -4.4410  0.6295
 7894SOL    HW235145   2.594   3.262   8.745  2.1910  0.3551  0.7368
 7895SOL     OW35146   0.109   3.573   3.101 -0.3503  0.0370 -1.1262
 7895SOL    HW135147   0.166   3.541   3.171 -1.1478  0.6586 -0.2002
 7895SOL    HW235148   0.030   3.527   3.130  0.7924 -1.0120  0.3355
 7896SOL     OW35149   3.188   2.254  11.279 -0.5398  0.2667 -0.2332
 7896SOL    HW135150   3.258   2.189  11.283  1.3659  2.3739  1.0263
 7896SOL    HW235151   3.164   2.254  11.372  0.8198  2.0786  0.1273
 7897SOL     OW35152   0.931   1.804   9.041  0.8874 -0.0891 -0.6029
 7897SOL    HW135153   0.844   1.818   9.004  0.4122 -0.1061  0.4864
 7897SOL    HW235154   0.988   1.839   8.973 -0.0155  0.0761 -1.2630
 7898SOL     OW35155   3.885   3.861  17.184  0.1829  0.0516 -0.0176
 7898SOL    HW135156   3.887   3.916  17.106 -1.0375 -1.0054 -0.8002
 7898SOL    HW235157   3.798   3.887  17.216 -0.1236  0.3834 -1.0951
 7899SOL     OW35158   1.120   4.267   2.567 -0.4853 -1.1034  0.1571
 7899SOL    HW135159   1.143   4.191   2.621 -0.4801 -2.1590 -1.3163
 7899SOL    HW235160   1.171   4.337   2.606 -0.8271 -1.7443  1.7433
 7900SOL     OW35161   4.227   4.347   3.162  0.5713  0.7736 -0.1625
 7900SOL    HW135162   4.214   4.430   3.208  1.4633 -0.6194  2.6492
 7900SOL    HW235163   4.172   4.283   3.207  2.6252 -0.7547  0.1970
 7901SOL     OW35164   4.239   3.753  10.224 -0.4481  0.1727  0.4532
 7901SOL    HW135165   4.246   3.840  10.185  4.0760 -0.9133 -1.2527
 7901SOL    HW235166   4.318   3.753  10.278  0.3628 -1.4032 -0.7175
 7902SOL     OW35167   2.068   3.838   4.915 -0.1595 -0.1468 -0.0178
 7902SOL    HW135168   1.975   3.839   4.895 -0.3655  1.8296  1.0032
 7902SOL    HW235169   2.090   3.746   4.927  1.7974  0.2304 -0.6198
 7903SOL     OW35170   0.109   2.903   3.720  0.1235  0.4926  0.1674
 7903SOL    HW135171   0.129   2.856   3.638 -1.2079 -0.4048  0.3474
 7903SOL    HW235172   0.015   2.918   3.709 -0.1992  0.1815  2.5224
 7904SOL     OW35173   0.164   4.403   5.851 -0.3408  0.2646 -0.4572
 7904SOL    HW135174   0.154   4.494   5.881 -1.7206 -0.2376  0.6244
 7904SOL    HW235175   0.190   4.373   5.939 -1.3529  0.4511 -0.0972
 7905SOL     OW35176   2.360   1.403   2.694 -0.2503  0.0280  0.2839
 7905SOL    HW135177   2.427   1.457   2.735 -1.2002 -0.0018  1.8593
 7905SOL    HW235178   2.327   1.357   2.771 -1.7128  0.0008 -0.3428
 7906SOL     OW35179   2.759   0.689   7.200  0.4048 -0.0869 -0.5515
 7906SOL    HW135180   2.731   0.762   7.146  0.9174 -0.2548 -1.0386
 7906SOL    HW235181   2.779   0.730   7.284  0.5585 -0.8135 -0.2326
 7907SOL     OW35182   4.577   2.169   3.160 -0.8235 -0.2088 -0.0387
 7907SOL    HW135183   4.520   2.232   3.206 -2.8494 -1.2050 -1.1771
 7907SOL    HW235184   4.574   2.218   3.078  0.2955 -1.9381 -1.0783
 7908SOL     OW35185   0.603   0.606   6.707 -0.0372 -0.5320 -0.1882
 7908SOL    HW135186   0.664   0.532   6.714 -0.0295 -0.3723  1.6506
 7908SOL    HW235187   0.539   0.585   6.775  0.3989 -0.5960  0.2023
 7909SOL     OW35188   2.299   3.232   2.737 -0.5662  1.1419  0.1319
 7909SOL    HW135189   2.226   3.181   2.704 -1.0298  0.2629  2.5564
 7909SOL    HW235190   2.368   3.168   2.753 -1.9629 -0.4063 -0.0646
 7910SOL     OW35191   2.593   0.861   3.552  0.0488  0.2083 -1.0750
 7910SOL    HW135192   2.500   0.881   3.544  0.5358  2.9835  0.1811
 7910SOL    HW235193   2.631   0.949   3.562  1.5221 -0.4625 -0.7121
 7911SOL     OW35194   0.906   1.327   5.341 -0.1867 -0.5202 -0.0019
 7911SOL    HW135195   0.938   1.291   5.423 -1.9483 -1.7016  0.1648
 7911SOL    HW235196   0.811   1.328   5.351 -0.1216  0.6977  0.5257
 7912SOL     OW35197   4.349   0.796  10.197  0.2385 -0.3378 -0.2973
 7912SOL    HW135198   4.435   0.838  10.203 -0.2994  0.5867  0.9475
 7912SOL    HW235199   4.296   0.867  10.234 -0.1825 -1.4252  1.1801
 7913SOL     OW35200   0.853   2.215  14.189 -0.3030 -0.5936 -0.1520
 7913SOL    HW135201   0.851   2.121  14.170 -0.5416 -0.2763 -1.7361
 7913SOL    HW235202   0.942   2.210  14.223 -0.4346  1.3576  0.4760
 7914SOL     OW35203   2.038   0.782   2.997 -0.3215  0.1511  0.4565
 7914SOL    HW135204   2.110   0.722   2.978 -0.6477 -0.3682  0.8760
 7914SOL    HW235205   1.963   0.744   2.952  0.8095  0.4590 -1.7076
 7915SOL     OW35206   4.149   2.713   4.057 -0.3539 -0.1141 -0.0840
 7915SOL    HW135207   4.116   2.633   4.017  1.4781 -1.3655  0.9028
 7915SOL    HW235208   4.080   2.729   4.122 -0.6235 -1.0407 -0.1398
 7916SOL     OW35209   4.662   1.908   4.103  1.0426 -0.0553 -0.0438
 7916SOL    HW135210   4.697   1.859   4.177  0.1893 -0.4588  0.0820
 7916SOL    HW235211   4.595   1.854   4.062  0.7417  2.0116 -2.2984
 7917SOL     OW35212   1.811   1.316   7.390  0.4214 -0.1233 -0.0218
 7917SOL    HW135213   1.729   1.346   7.429  0.2476 -0.7345  0.0809
 7917SOL    HW235214   1.786   1.229   7.357  2.1402 -0.8805  0.6865
 7918SOL     OW35215   0.009   1.120   5.926  0.1571 -0.0580  0.1377
 7918SOL    HW135216   4.701   1.143   5.837 -0.3394 -0.9237  0.0563
 7918SOL    HW235217   4.691   1.032   5.939  0.0508  0.2311  1.7307
 7919SOL     OW35218   3.414   3.945  12.716 -0.1272 -0.1680 -0.2425
 7919SOL    HW135219   3.428   3.954  12.811 -0.9318  0.4447 -0.1854
 7919SOL    HW235220   3.392   4.035  12.691 -2.3838 -0.1426  1.7887
 7920SOL     OW35221   1.080   1.203   0.329 -0.2801  0.5669  1.0336
 7920SOL    HW135222   1.049   1.119   0.295 -0.6171  0.4976  1.5075
 7920SOL    HW235223   1.091   1.185   0.422  1.1430 -1.4804  0.4610
 7921SOL     OW35224   0.713   0.811   3.981  0.6039 -0.4089  0.4548
 7921SOL    HW135225   0.742   0.788   3.892  0.7268  0.0720  0.3711
 7921SOL    HW235226   0.675   0.727   4.008 -1.0827  0.3062  0.3036
 7922SOL     OW35227   1.831   4.703   1.229  0.6168 -0.4566 -0.4031
 7922SOL    HW135228   1.843   4.685   1.136  0.4246 -0.0919 -0.4973
 7922SOL    HW235229   1.746   0.027   1.228  0.6533 -0.3782 -0.2028
 7923SOL     OW35230   0.387   0.024   2.877 -0.0503  0.5749  0.1203
 7923SOL    HW135231   0.374   0.114   2.906 -0.5100  0.1430  1.2519
 7923SOL    HW235232   0.295   0.003   2.861 -0.4146  1.3868  1.2190
 7924SOL     OW35233   3.547   4.027   2.527  0.1716 -0.7808  0.0414
 7924SOL    HW135234   3.476   3.970   2.498  0.6784 -0.1334 -2.4135
 7924SOL    HW235235   3.534   4.081   2.449  1.1518 -1.1105 -0.3514
 7925SOL     OW35236   3.152   0.869  16.940  0.5357 -0.3574 -0.3539
 7925SOL    HW135237   3.091   0.800  16.913  0.3909 -0.4911  0.3192
 7925SOL    HW235238   3.183   0.844  17.027 -1.4579  1.0691  0.7622
 7926SOL     OW35239   0.748   1.286   8.109  0.2352  0.0024 -0.1289
 7926SOL    HW135240   0.657   1.311   8.127  0.4991  0.7335  0.1576
 7926SOL    HW235241   0.751   1.249   8.021 -0.5436  0.8410 -0.5021
 7927SOL     OW35242   2.059   0.265  13.166 -0.6847 -0.0908 -0.5823
 7927SOL    HW135243   1.966   0.272  13.148 -0.5739  0.7300 -0.8214
 7927SOL    HW235244   2.068   0.344  13.219  3.4132 -1.5063  0.8642
 7928SOL     OW35245   2.666   0.390   9.879  0.2284  0.0809  0.4856
 7928SOL    HW135246   2.657   0.402   9.785 -0.2225 -3.3259  0.0773
 7928SOL    HW235247   2.693   0.299   9.866  1.1241  0.6426 -1.6231
 7929SOL     OW35248   0.475   2.503  13.470  0.2263  0.1182 -0.0815
 7929SOL    HW135249   0.441   2.453  13.544 -0.2367  1.1855  0.4257
 7929SOL    HW235250   0.402   2.476  13.415 -0.3284  0.8976  0.2677
 7930SOL     OW35251   3.060   4.615   9.360  0.2251 -0.3276  0.2869
 7930SOL    HW135252   3.038   4.604   9.452 -1.2910 -4.2283 -0.5558
 7930SOL    HW235253   3.155   4.626   9.361  0.6199 -3.7641  0.3275
 7931SOL     OW35254   1.967   2.342  12.469 -0.0051  0.2552 -0.9749
 7931SOL    HW135255   1.950   2.412  12.532  1.8087 -0.9716  0.8535
 7931SOL    HW235256   2.041   2.380  12.421 -0.1249  1.8052  0.0604
 7932SOL     OW35257   1.659   2.776   6.772  0.2611  0.3939  0.3602
 7932SOL    HW135258   1.605   2.716   6.825  3.3631 -1.8249  1.0062
 7932SOL    HW235259   1.711   2.711   6.726 -0.7269  0.1224 -0.3815
 7933SOL     OW35260   0.729   0.336   3.517  0.1922  0.0574  0.2388
 7933SOL    HW135261   0.768   0.279   3.451 -0.3812 -0.3114  0.2165
 7933SOL    HW235262   0.674   0.389   3.460  1.2491  1.0653  0.1680
 7934SOL     OW35263   0.657   2.830  13.663 -0.2405 -0.3475  0.0483
 7934SOL    HW135264   0.573   2.814  13.620  1.4297  0.0985 -3.3617
 7934SOL    HW235265   0.659   2.753  13.721  2.2261 -1.7775 -1.9377
 7935SOL     OW35266   2.838   1.593  16.859  0.5812 -0.1266 -0.8252
 7935SOL    HW135267   2.926   1.567  16.888  0.1162 -1.9941 -1.0915
 7935SOL    HW235268   2.837   1.681  16.897 -2.4451 -0.1540 -0.8577
 7936SOL     OW35269   2.214   3.627  11.553  0.4398 -0.3166  0.5113
 7936SOL    HW135270   2.121   3.613  11.573 -0.2857 -0.7633 -3.1022
 7936SOL    HW235271   2.250   3.641  11.640 -1.2108  1.9397  0.8284
 7937SOL     OW35272   0.339   1.746   5.009 -0.2294  0.2050 -0.1517
 7937SOL    HW135273   0.416   1.753   4.953 -0.5710  0.3933 -0.6071
 7937SOL    HW235274   0.273   1.795   4.960 -0.5455 -0.3090 -0.2519
 7938SOL     OW35275   2.582   3.348  11.659 -0.2373 -0.8846 -0.0095
 7938SOL    HW135276   2.587   3.439  11.631 -2.2186 -0.7121  0.1927
 7938SOL    HW235277   2.664   3.343  11.708 -1.1353 -1.4742  1.4327
 7939SOL     OW35278   4.419   4.122   4.781  0.0788  0.1863 -0.5746
 7939SOL    HW135279   4.324   4.122   4.769  0.0435  0.6444 -0.3018
 7939SOL    HW235280   4.451   4.162   4.700  1.6304  0.0960  0.0032
 7940SOL     OW35281   2.966   0.962   4.258  0.4101 -0.2721 -0.1437
 7940SOL    HW135282   3.014   0.909   4.321  0.1176 -2.8918 -2.1331
 7940SOL    HW235283   3.008   0.936   4.176  2.3298  1.6654  0.2282
 7941SOL     OW35284   1.428   0.474   6.935 -0.5740 -0.4278 -0.0075
 7941SOL    HW135285   1.419   0.448   6.843  0.3556 -2.8689  0.5896
 7941SOL    HW235286   1.474   0.398   6.968 -0.6776 -0.1607  0.7405
 7942SOL     OW35287   3.877   0.156   5.535  0.9242 -0.2286  0.0751
 7942SOL    HW135288   3.835   0.209   5.602  0.1223  1.6797 -1.9291
 7942SOL    HW235289   3.804   0.099   5.515  1.1317 -0.7559  0.8303
 7943SOL     OW35290   1.617   3.411   6.292 -0.2207  0.2137 -0.8070
 7943SOL    HW135291   1.543   3.459   6.255 -2.0614 -1.9222  0.0734
 7943SOL    HW235292   1.576   3.325   6.297 -1.2237  0.6149 -2.0165
 7944SOL     OW35293   1.473   0.358   5.383 -0.2966 -0.3114 -0.4440
 7944SOL    HW135294   1.387   0.327   5.411  0.2317  0.6589  2.1742
 7944SOL    HW235295   1.496   0.418   5.453  0.0572  0.1797 -0.9764
 7945SOL     OW35296   1.100   4.096   7.444 -0.3873  0.6182 -0.0474
 7945SOL    HW135297   1.013   4.056   7.444 -0.4472  0.7675  0.9933
 7945SOL    HW235298   1.152   4.018   7.461 -2.8194 -0.8849  0.3965
 7946SOL     OW35299   4.690   1.802   5.220 -0.0974  0.1689 -0.0247
 7946SOL    HW135300   0.024   1.736   5.266  0.4183  1.6606  1.5338
 7946SOL    HW235301   4.659   1.765   5.137  0.8318  1.5148 -0.9878
 7947SOL     OW35302   3.977   2.179   8.157 -0.6176  0.0937 -0.7210
 7947SOL    HW135303   4.044   2.177   8.089 -1.4123  2.3413 -1.5623
 7947SOL    HW235304   3.931   2.257   8.128  2.4638  1.8130 -1.0227
 7948SOL     OW35305   3.771   2.319   8.921 -0.4679  0.0681 -0.1458
 7948SOL    HW135306   3.863   2.303   8.903 -1.4123 -0.7718 -4.2859
 7948SOL    HW235307   3.766   2.410   8.949  1.1124  0.1815 -0.2261
 7949SOL     OW35308   1.222   2.040   7.776 -0.2132 -0.2457  0.5035
 7949SOL    HW135309   1.237   1.975   7.845  1.0496  0.2635  0.7105
 7949SOL    HW235310   1.131   2.027   7.750  0.3849 -2.1852 -0.6465
 7950SOL     OW35311   2.026   2.308   6.318  0.0081  0.1339  0.7735
 7950SOL    HW135312   1.978   2.320   6.400  2.3591  2.4318  1.7885
 7950SOL    HW235313   1.959   2.277   6.256  1.1453 -3.4466  1.3579
 7951SOL     OW35314   2.360   3.364   8.469  0.2260 -0.1682  0.2719
 7951SOL    HW135315   2.367   3.325   8.556  1.0630 -0.1672  0.1988
 7951SOL    HW235316   2.321   3.447   8.496  3.0039  0.6440  1.8355
 7952SOL     OW35317   4.165   3.300   3.806  0.2396  0.5704  0.0745
 7952SOL    HW135318   4.201   3.352   3.878 -0.4227  0.3510  0.5669
 7952SOL    HW235319   4.091   3.358   3.786 -1.2110 -0.3262  2.8760
 7953SOL     OW35320   2.505   2.848   4.657  0.1157  0.3168 -0.3453
 7953SOL    HW135321   2.493   2.767   4.706 -0.2941  0.4495 -0.2280
 7953SOL    HW235322   2.586   2.825   4.611 -0.6482  0.5460 -1.8017
 7954SOL     OW35323   4.141   0.873   8.003  0.3393 -0.2414 -0.1930
 7954SOL    HW135324   4.200   0.801   7.979  0.1949  0.0478 -1.3996
 7954SOL    HW235325   4.088   0.884   7.925  0.9528 -1.3383 -0.7702
 7955SOL     OW35326   3.267   4.406   8.318  0.2991 -0.2097  0.6857
 7955SOL    HW135327   3.228   4.441   8.399 -4.3400  0.8561 -2.0224
 7955SOL    HW235328   3.232   4.462   8.250 -0.0393  0.1196  1.1314
 7956SOL     OW35329   2.285   3.691  16.476 -1.0055  0.3678  0.4928
 7956SOL    HW135330   2.341   3.614  16.479  0.0176  1.1864  2.0699
 7956SOL    HW235331   2.207   3.666  16.426 -0.1060 -0.5562 -0.4514
 7957SOL     OW35332   3.199   2.942   3.262  0.7238  0.1124 -0.1522
 7957SOL    HW135333   3.295   2.949   3.257  0.8326 -2.2949 -1.4355
 7957SOL    HW235334   3.181   3.032   3.287  0.1157 -0.2881  0.8747
 7958SOL     OW35335   4.596   0.092  11.221 -0.0295 -0.0709 -0.2056
 7958SOL    HW135336   4.631   0.053  11.141 -3.2157 -0.6410 -1.3292
 7958SOL    HW235337   4.575   0.181  11.191  3.3701 -0.0454 -2.4610
 7959SOL     OW35338   0.271   2.714   0.816  0.5264  0.2102  0.1054
 7959SOL    HW135339   0.288   2.761   0.897  0.6965 -0.3711  0.4096
 7959SOL    HW235340   0.275   2.625   0.852  0.4496 -0.6129 -1.9055
 7960SOL     OW35341   4.116   0.834   4.361  0.9765 -0.0744 -0.7658
 7960SOL    HW135342   4.048   0.817   4.426  0.5627  2.8402 -0.4689
 7960SOL    HW235343   4.193   0.848   4.416  0.6904  2.6593 -1.0963
 7961SOL     OW35344   0.561   0.153   5.167 -0.1000 -0.2382 -0.1598
 7961SOL    HW135345   0.608   0.154   5.084  1.3318 -0.1784  0.6541
 7961SOL    HW235346   0.507   0.075   5.154  0.4705 -0.3949 -1.5790
 7962SOL     OW35347   2.998   4.383   4.834 -0.2449  0.0378  0.0443
 7962SOL    HW135348   3.043   4.300   4.850 -0.8161 -0.6009 -1.5742
 7962SOL    HW235349   3.063   4.449   4.859  0.7015 -1.0925  0.5487
 7963SOL     OW35350   0.198   1.892  17.410 -0.2766 -0.1097  0.0612
 7963SOL    HW135351   0.124   1.915  17.466  0.1723  2.9017 -0.5665
 7963SOL    HW235352   0.273   1.922  17.462 -0.2784 -0.5502  0.3217
 7964SOL     OW35353   3.123   1.859   6.276 -0.1361  0.0196  0.1704
 7964SOL    HW135354   3.055   1.924   6.296  0.4966  0.3704  1.1661
 7964SOL    HW235355   3.155   1.894   6.193  0.5075  1.1148  0.8779
 7965SOL     OW35356   1.628   2.703   7.230  0.1397 -0.2443  0.0977
 7965SOL    HW135357   1.602   2.666   7.314 -2.0431 -0.1154 -0.5335
 7965SOL    HW235358   1.569   2.778   7.232  1.0647  0.5318 -1.6326
 7966SOL     OW35359   4.363   1.636   6.086  1.1795  0.1431  0.4698
 7966SOL    HW135360   4.383   1.573   6.017  1.2340 -0.6177  1.1733
 7966SOL    HW235361   4.413   1.595   6.157  0.5611 -1.7979 -0.2089
 7967SOL     OW35362   1.000   0.510   3.759 -0.5749  0.1603  0.1800
 7967SOL    HW135363   0.990   0.447   3.831 -0.0765  0.5793  0.6176
 7967SOL    HW235364   1.091   0.540   3.761 -0.9120  1.2220 -1.1435
 7968SOL     OW35365   4.347   2.636  11.978  0.0037 -1.1768 -0.3846
 7968SOL    HW135366   4.275   2.599  11.928 -1.1911  0.9331 -0.2128
 7968SOL    HW235367   4.304   2.678  12.052  0.5826 -0.3432 -0.5244
 7969SOL     OW35368   1.351   2.404   5.784 -0.0945 -0.3089 -0.3359
 7969SOL    HW135369   1.336   2.458   5.706  2.4259  2.7294  1.2706
 7969SOL    HW235370   1.272   2.420   5.835  0.0073 -0.9025  0.0130
 7970SOL     OW35371   1.639   3.720   1.631 -0.0447 -0.3038 -0.8337
 7970SOL    HW135372   1.664   3.810   1.650 -1.1008 -0.0711 -0.5507
 7970SOL    HW235373   1.721   3.685   1.597 -0.3595 -0.3022 -1.6004
 7971SOL     OW35374   3.386   2.186   4.159 -0.1022  0.5146 -0.0823
 7971SOL    HW135375   3.466   2.198   4.108  0.3743  2.6689  1.1554
 7971SOL    HW235376   3.392   2.249   4.231 -4.1451 -0.8636  1.4712
 7972SOL     OW35377   1.399   0.665   2.946  0.6476 -0.4048  0.4106
 7972SOL    HW135378   1.433   0.624   3.025 -0.1840  1.4771  1.7474
 7972SOL    HW235379   1.447   0.748   2.949 -0.5499  0.2998 -0.0408
 7973SOL     OW35380   3.795   0.423   8.262  0.0762  0.3009  0.5473
 7973SOL    HW135381   3.821   0.468   8.181  0.1039  1.1856  1.0403
 7973SOL    HW235382   3.869   0.364   8.277 -0.4636 -1.0302 -2.0858
 7974SOL     OW35383   1.118   0.021   2.482  0.3406 -0.2838  0.0662
 7974SOL    HW135384   1.101   0.106   2.522 -0.6725  0.5972 -2.2322
 7974SOL    HW235385   1.214   0.030   2.486  0.6430 -3.0991 -0.7101
 7975SOL     OW35386   0.611   4.235   3.348  0.1913  0.5580  0.2465
 7975SOL    HW135387   0.672   4.166   3.374  1.2017  0.4078 -2.4686
 7975SOL    HW235388   0.528   4.194   3.372 -0.7726  0.5632 -3.0377
 7976SOL     OW35389   0.217   4.298   2.938  0.5789  0.1581  0.3420
 7976SOL    HW135390   0.126   4.317   2.912  1.1213 -0.1643 -1.8167
 7976SOL    HW235391   0.237   4.374   2.992  0.5457 -0.3001  1.0052
 7977SOL     OW35392   1.957   2.826   2.756 -0.9046 -0.5126  0.0216
 7977SOL    HW135393   1.989   2.859   2.672  0.3836 -0.3566  0.5698
 7977SOL    HW235394   1.942   2.904   2.809  1.2508 -0.2437  0.2461
 7978SOL     OW35395   2.053   0.376   6.816  0.0253 -0.5850  0.5859
 7978SOL    HW135396   2.010   0.414   6.893  0.1052 -1.7920  1.2272
 7978SOL    HW235397   2.083   0.457   6.777  2.1934 -1.2109  0.9903
 7979SOL     OW35398   0.075   3.438   1.102 -0.9239 -0.1813  0.3662
 7979SOL    HW135399   0.163   3.402   1.100 -0.8304  0.0957 -0.6212
 7979SOL    HW235400   0.022   3.359   1.113 -0.7326 -0.2151  1.0728
 7980SOL     OW35401   1.744   4.636   1.556  0.0556  0.0540  0.0748
 7980SOL    HW135402   1.693   4.558   1.534  0.0951  0.0843 -0.1291
 7980SOL    HW235403   1.729   4.635   1.651  2.1169 -0.4138  0.3848
 7981SOL     OW35404   2.717   1.946  14.253  0.7335  0.0313  0.0292
 7981SOL    HW135405   2.747   1.957  14.344  1.5821 -2.3121  0.0245
 7981SOL    HW235406   2.733   2.034  14.219  0.5753 -0.1982 -0.6404
 7982SOL     OW35407   4.204   2.361   2.160  1.1936 -0.3888  0.5090
 7982SOL    HW135408   4.288   2.391   2.125  0.9570  1.4754  1.5209
 7982SOL    HW235409   4.159   2.359   2.075 -0.8334 -1.3931  1.5965
 7983SOL     OW35410   1.962   2.461   3.840 -0.5625  0.5348  0.4400
 7983SOL    HW135411   2.035   2.497   3.891  0.2452 -1.5859  0.7792
 7983SOL    HW235412   1.932   2.523   3.774  0.4570  1.4177  0.8097
 7984SOL     OW35413   4.328   1.648   6.570 -0.2185 -0.4683  0.4923
 7984SOL    HW135414   4.379   1.629   6.492 -0.1249 -2.2429  0.9967
 7984SOL    HW235415   4.404   1.644   6.627 -0.3518  1.3205  0.8221
 7985SOL     OW35416   0.974   3.471   2.299  0.0082  0.1090  0.6193
 7985SOL    HW135417   0.938   3.490   2.212 -0.4378 -0.8236  0.6061
 7985SOL    HW235418   0.996   3.379   2.283  0.3972  0.7867 -2.7505
 7986SOL     OW35419   3.193   3.952   8.596  0.6649  0.1367 -0.5121
 7986SOL    HW135420   3.238   4.037   8.606  1.3620 -0.3887  0.8598
 7986SOL    HW235421   3.162   3.973   8.508  1.1914 -0.9031 -0.9356
 7987SOL     OW35422   4.600   3.315   9.003  0.1228  0.0699  0.1021
 7987SOL    HW135423   4.592   3.407   9.026 -0.0116 -0.1245  0.8122
 7987SOL    HW235424   4.627   3.319   8.911 -0.6268 -1.4067 -0.1726
 7988SOL     OW35425   2.313   4.326  15.488  0.7735  0.1443  0.4170
 7988SOL    HW135426   2.408   4.324  15.482  0.8697  0.9727  1.6305
 7988SOL    HW235427   2.311   4.261  15.558 -2.7862  0.5385  0.7044
 7989SOL     OW35428   2.986   0.508   5.056  0.1969  0.2774 -0.6806
 7989SOL    HW135429   2.995   0.428   5.108 -1.4986  0.4275 -0.1446
 7989SOL    HW235430   3.054   0.485   4.993 -1.6704 -0.8146 -2.2998
 7990SOL     OW35431   2.697   1.214   2.968 -0.1329  0.6758  0.0885
 7990SOL    HW135432   2.679   1.155   2.895  1.8270  0.5182 -0.2479
 7990SOL    HW235433   2.740   1.164   3.036  1.6052  0.6621 -1.0333
 7991SOL     OW35434   1.601   3.341   5.478  0.2789 -0.7187  0.4368
 7991SOL    HW135435   1.558   3.298   5.405  3.7006 -1.6125 -1.0537
 7991SOL    HW235436   1.521   3.365   5.525 -0.5440  0.6910 -1.6809
 7992SOL     OW35437   2.084   0.127   2.440  0.5550  0.4813 -0.2570
 7992SOL    HW135438   2.124   0.048   2.476 -0.8456  0.5287  1.4211
 7992SOL    HW235439   2.161   0.180   2.417  2.4866 -1.8141  0.8576
 7993SOL     OW35440   0.213   4.251   2.085  0.2179  0.1498  0.0586
 7993SOL    HW135441   0.125   4.270   2.054 -0.3255 -0.2904  1.3416
 7993SOL    HW235442   0.200   4.246   2.179  0.9165  1.2758  0.2140
 7994SOL     OW35443   0.969   2.739  17.086  0.2207 -0.3828  0.5833
 7994SOL    HW135444   0.887   2.746  17.036  1.4070 -0.5984 -1.3704
 7994SOL    HW235445   0.935   2.773  17.169  1.7947 -0.0377  1.0760
 7995SOL     OW35446   3.924   4.004   4.590 -0.6123  0.8199 -0.6563
 7995SOL    HW135447   3.894   4.095   4.595  2.5315  1.8299 -0.1478
 7995SOL    HW235448   3.932   3.972   4.680  1.0028  0.1796 -1.0303
 7996SOL     OW35449   1.546   1.931   8.802 -0.1648  0.0177 -0.3945
 7996SOL    HW135450   1.621   1.912   8.746  0.1169 -2.0293  0.6740
 7996SOL    HW235451   1.508   1.844   8.815  0.2091  0.1819  1.7751
 7997SOL     OW35452   2.972   1.557   9.011  0.2741  1.0050  0.3937
 7997SOL    HW135453   2.942   1.622   8.946  0.2833  1.8338  1.2205
 7997SOL    HW235454   3.053   1.598   9.040  1.7654 -0.8741 -1.0930
 7998SOL     OW35455   2.023   1.588  14.359 -0.2559  0.6364  0.0643
 7998SOL    HW135456   2.113   1.562  14.343 -1.4910 -3.4773 -0.1021
 7998SOL    HW235457   1.974   1.524  14.307  0.5336 -0.8302  1.1130
 7999SOL     OW35458   1.992   2.293  10.727 -0.0841  0.6317 -0.4336
 7999SOL    HW135459   1.995   2.387  10.741 -1.0389  0.1435  2.9789
 7999SOL    HW235460   1.921   2.259  10.782 -0.5553  0.3268 -1.2246
 8000SOL     OW35461   0.457   4.400   2.280 -0.1315  0.3456  0.0600
 8000SOL    HW135462   0.368   4.371   2.300  0.1916 -1.1674 -0.7229
 8000SOL    HW235463   0.445   4.484   2.324 -1.2293  0.2521 -0.0570
 8001SOL     OW35464   0.084   4.703  12.822 -0.3242 -0.0941  0.7435
 8001SOL    HW135465   0.170   0.012  12.854 -0.5280  2.1005 -0.4778
 8001SOL    HW235466   0.033   4.689  12.902 -1.2738  2.8684  0.6771
 8002SOL     OW35467   3.931   2.510   3.130  0.2668 -0.5227  0.5107
 8002SOL    HW135468   4.008   2.483   3.080 -1.3783  0.6032 -2.6293
 8002SOL    HW235469   3.968   2.532   3.215 -0.8889  0.7051  0.6881
 8003SOL     OW35470   3.458   3.557   6.613 -0.0661 -0.0067 -0.5626
 8003SOL    HW135471   3.418   3.532   6.695  0.8054 -2.3772 -0.8747
 8003SOL    HW235472   3.502   3.474   6.598  2.1455  0.2822  4.3421
 8004SOL     OW35473   2.498   1.871  17.660 -0.0285 -1.0160  0.6281
 8004SOL    HW135474   2.528   1.784  17.634  0.1744 -0.6596 -0.3463
 8004SOL    HW235475   2.576   1.927  17.660 -0.9503  0.2648  1.4011
 8005SOL     OW35476   0.450   2.842  16.258  0.2774  0.1641 -0.6268
 8005SOL    HW135477   0.427   2.876  16.172  1.9155  2.3341 -0.2007
 8005SOL    HW235478   0.387   2.882  16.318 -0.7706 -1.8143 -0.3881
 8006SOL     OW35479   1.069   4.088   6.602  0.0363 -0.3363  0.7542
 8006SOL    HW135480   1.140   4.030   6.576  0.2668 -0.7967  2.4366
 8006SOL    HW235481   1.123   4.164   6.624 -0.4197  0.6508 -1.5496
 8007SOL     OW35482   3.279   1.802   6.723  0.5390 -0.0153  0.2161
 8007SOL    HW135483   3.216   1.874   6.724  0.8212  0.2703 -1.2909
 8007SOL    HW235484   3.220   1.727   6.713  0.4134  0.1913 -0.6107
 8008SOL     OW35485   2.254   4.262   5.537 -0.2940  0.1449  0.0082
 8008SOL    HW135486   2.278   4.209   5.461  0.6493  0.0844  0.3454
 8008SOL    HW235487   2.186   4.208   5.578  2.2725 -2.9553  0.1614
 8009SOL     OW35488   1.186   2.949   2.314 -0.6048  0.5345 -0.0692
 8009SOL    HW135489   1.265   2.895   2.318 -0.5563  0.7086  1.3347
 8009SOL    HW235490   1.165   2.956   2.221  0.4778 -0.4133 -0.3758
 8010SOL     OW35491   1.214   0.009   1.655 -0.1555 -0.1825  0.4339
 8010SOL    HW135492   1.298   4.681   1.655  0.4924  1.0301 -0.9307
 8010SOL    HW235493   1.154   4.652   1.643  0.0822 -0.4949  1.1765
 8011SOL     OW35494   3.528   0.310   2.521  1.0647 -0.1878 -0.0653
 8011SOL    HW135495   3.584   0.232   2.513 -1.8342 -2.3401  0.3227
 8011SOL    HW235496   3.511   0.313   2.615  0.6391  2.5677 -0.2533
 8012SOL     OW35497   3.671   1.802  16.792  0.3945 -0.2510  0.3231
 8012SOL    HW135498   3.623   1.722  16.814  0.4081 -0.4869 -0.5044
 8012SOL    HW235499   3.640   1.860  16.861  0.2764  0.1094 -0.0326
 8013SOL     OW35500   2.904   4.415   3.386  0.1400 -0.1994  0.4097
 8013SOL    HW135501   2.890   4.488   3.327 -0.6890 -0.3026  0.4815
 8013SOL    HW235502   2.897   4.343   3.323  1.6287  0.6161 -0.6593
 8014SOL     OW35503   4.526   4.619   1.028 -0.5132 -0.0692 -0.2111
 8014SOL    HW135504   4.532   4.694   1.087  1.9045 -1.4825  1.3661
 8014SOL    HW235505   4.511   4.549   1.091 -2.8514  0.4497 -0.2012
 8015SOL     OW35506   1.566   3.700  17.451  0.0985 -0.1897 -0.7590
 8015SOL    HW135507   1.548   3.695  17.545  0.7640 -0.9896 -0.6646
 8015SOL    HW235508   1.657   3.669  17.450  0.4908  0.9784 -0.3051
 8016SOL     OW35509   2.700   0.923  15.379 -0.2351 -0.0919  1.1123
 8016SOL    HW135510   2.606   0.913  15.394 -0.0824 -2.2482  0.6577
 8016SOL    HW235511   2.736   0.966  15.456 -0.7714  0.0795  1.2656
 8017SOL     OW35512   3.624   1.322  16.553 -0.3547  0.2166  0.0669
 8017SOL    HW135513   3.610   1.305  16.460 -0.8104  1.0707 -0.0299
 8017SOL    HW235514   3.592   1.413  16.555  1.1746  0.7539  0.3475
 8018SOL     OW35515   1.829   3.183   6.634 -0.1508  0.4622 -0.3936
 8018SOL    HW135516   1.756   3.135   6.594 -0.6783 -0.2779  1.4932
 8018SOL    HW235517   1.891   3.112   6.648 -1.1851 -0.2075  0.6940
 8019SOL     OW35518   0.250   2.333   5.716  0.3205 -0.6414 -0.3839
 8019SOL    HW135519   0.253   2.336   5.812 -0.3134  2.2064 -0.4603
 8019SOL    HW235520   0.319   2.397   5.697  1.6848 -1.8055  0.6375
 8020SOL     OW35521   1.889   3.648   1.570  0.6125 -0.0286 -0.4626
 8020SOL    HW135522   1.915   3.681   1.484 -1.2751  1.2565 -0.5436
 8020SOL    HW235523   1.959   3.584   1.581  0.5660 -0.1188 -0.6837
 8021SOL     OW35524   3.817   1.350   2.485  0.5366 -0.3748  0.0776
 8021SOL    HW135525   3.879   1.330   2.556  0.2732  1.0456  0.7032
 8021SOL    HW235526   3.881   1.405   2.439 -1.7794  0.4966 -2.1131
 8022SOL     OW35527   0.100   1.905  10.914  0.2008  0.4694  1.1377
 8022SOL    HW135528   0.005   1.907  10.928  0.3774 -1.8467  2.6191
 8022SOL    HW235529   0.104   1.813  10.888  1.7210  0.9687 -0.3904
 8023SOL     OW35530   4.660   4.488   7.399 -0.1024  0.1871 -0.1685
 8023SOL    HW135531   4.649   4.418   7.465 -0.1008 -0.3185 -0.7051
 8023SOL    HW235532   4.638   4.560   7.458  0.0390  1.2564 -1.4486
 8024SOL     OW35533   2.498   4.424   2.370  0.1171 -0.8637 -0.2264
 8024SOL    HW135534   2.562   4.353   2.364  1.2491 -0.0271  2.0361
 8024SOL    HW235535   2.418   4.371   2.361 -0.5927 -0.2772  2.7049
 8025SOL     OW35536   2.093   1.696   2.045 -0.4416 -0.5018 -0.4794
 8025SOL    HW135537   2.178   1.658   2.023  0.2272  0.4667  0.4016
 8025SOL    HW235538   2.084   1.662   2.135  0.8968 -3.7476 -1.5656
 8026SOL     OW35539   4.493   0.917   3.723 -0.5654 -0.5257  0.1509
 8026SOL    HW135540   4.404   0.932   3.691  0.2269 -1.3737 -2.4797
 8026SOL    HW235541   4.516   0.839   3.673  0.8002  1.3758 -2.1941
 8027SOL     OW35542   2.338   2.242   3.557  0.4188 -0.5479  0.2068
 8027SOL    HW135543   2.278   2.283   3.619  0.4167 -0.3282  0.0610
 8027SOL    HW235544   2.314   2.151   3.576 -0.6731 -0.7144 -1.9349
 8028SOL     OW35545   2.030   2.854   1.335  0.1925 -0.5061  0.2880
 8028SOL    HW135546   2.062   2.841   1.245 -1.8826  0.1939 -0.5571
 8028SOL    HW235547   1.944   2.814   1.343  0.3675 -0.6623  1.3233
 8029SOL     OW35548   2.002   0.410  10.501 -0.2386  0.0162  0.2686
 8029SOL    HW135549   2.052   0.363  10.435  0.8788  2.4618 -0.6423
 8029SOL    HW235550   1.940   0.341  10.525  0.6629 -0.4449  1.3024
 8030SOL     OW35551   4.380   2.518  16.165 -0.3984 -0.9693  0.4230
 8030SOL    HW135552   4.288   2.524  16.141  0.2748  2.2983 -1.3026
 8030SOL    HW235553   4.409   2.431  16.137 -2.5833 -1.7740  0.7403
 8031SOL     OW35554   3.021   2.407   5.400  0.9426  0.0603  0.0544
 8031SOL    HW135555   3.048   2.484   5.351  1.9412  0.8938  1.9210
 8031SOL    HW235556   3.093   2.419   5.462  0.6135  2.2247 -0.0178
 8032SOL     OW35557   1.297   2.385   4.584  0.2596 -0.6463 -0.3167
 8032SOL    HW135558   1.347   2.330   4.523  1.9341 -0.2920  0.7307
 8032SOL    HW235559   1.317   2.475   4.557  0.6057 -1.3081 -2.2775
 8033SOL     OW35560   0.410   2.791   0.466 -0.0966  0.3823  0.2943
 8033SOL    HW135561   0.434   2.752   0.550  2.6915 -2.1489 -1.6970
 8033SOL    HW235562   0.315   2.803   0.473 -0.5821 -2.9163 -0.7090
 8034SOL     OW35563   4.636   4.494   9.553  0.1589 -0.2853 -0.2483
 8034SOL    HW135564   4.632   4.536   9.639 -0.5077  1.1495 -0.9767
 8034SOL    HW235565   4.709   4.542   9.514 -0.4032 -1.0652 -2.2086
 8035SOL     OW35566   2.634   1.060   1.682  1.3193 -0.6741  0.1114
 8035SOL    HW135567   2.681   1.090   1.605  2.1100  1.9621  1.6293
 8035SOL    HW235568   2.688   1.109   1.744  0.4472  0.5545 -0.0970
 8036SOL     OW35569   4.477   2.238  16.037  0.6943 -0.4673  0.4564
 8036SOL    HW135570   4.405   2.190  16.079 -1.6750  2.9079  0.2741
 8036SOL    HW235571   4.551   2.197  16.081 -0.9255 -3.8367  0.0246
 8037SOL     OW35572   2.096   2.641   8.634 -0.3251 -0.1302  0.2188
 8037SOL    HW135573   2.002   2.641   8.651 -0.5072  1.0888 -0.7570
 8037SOL    HW235574   2.102   2.561   8.582 -0.9197 -1.4843  2.2384
 8038SOL     OW35575   1.090   1.797  17.674 -0.4546 -0.3325  0.7854
 8038SOL    HW135576   1.011   1.834  17.633  0.1148 -0.3901 -0.3591
 8038SOL    HW235577   1.146   1.831  17.605 -2.3492  0.5630 -0.3197
 8039SOL     OW35578   4.375   1.403   3.303  0.4372  0.5493 -0.2829
 8039SOL    HW135579   4.447   1.343   3.326  0.2269  0.0152 -1.0133
 8039SOL    HW235580   4.357   1.355   3.222 -1.0299 -1.1605  1.0437
 8040SOL     OW35581   0.337   1.718  15.317  0.1273 -0.4494 -0.3977
 8040SOL    HW135582   0.262   1.776  15.325  0.5275  0.2117 -1.4414
 8040SOL    HW235583   0.370   1.705  15.406 -0.5521 -0.6099 -0.1715
 8041SOL     OW35584   3.813   0.250   2.733 -0.3193 -0.3521 -0.7479
 8041SOL    HW135585   3.734   0.218   2.690 -1.8978  1.9729  0.3776
 8041SOL    HW235586   3.878   0.183   2.714 -0.7818 -2.2656  4.3235
 8042SOL     OW35587   3.109   3.637   5.813  0.4301  0.9731 -0.1629
 8042SOL    HW135588   3.063   3.698   5.755  0.6540  0.2065 -1.1444
 8042SOL    HW235589   3.063   3.651   5.896 -0.5398  0.7879 -0.6632
 8043SOL     OW35590   1.237   4.622   7.824 -0.5159 -0.0745 -0.8834
 8043SOL    HW135591   1.281   4.537   7.833  1.3872  0.7633 -2.1299
 8043SOL    HW235592   1.272   4.659   7.743 -3.2437  3.0267 -0.6647
 8044SOL     OW35593   4.285   4.091   6.373  0.5812 -0.3704 -0.8061
 8044SOL    HW135594   4.318   4.009   6.410  1.9560  0.4321 -0.2492
 8044SOL    HW235595   4.194   4.072   6.398  1.2909  1.2502  3.0674
 8045SOL     OW35596   2.990   0.596   3.865 -0.1157  0.3368 -0.3581
 8045SOL    HW135597   2.934   0.642   3.927  0.9107 -0.0268  0.8445
 8045SOL    HW235598   2.997   0.510   3.908  0.8810 -0.2069 -1.6275
 8046SOL     OW35599   2.565   2.729   1.956 -0.0271  0.5331 -0.0758
 8046SOL    HW135600   2.537   2.694   2.040 -0.4556  2.3130  0.5163
 8046SOL    HW235601   2.525   2.816   1.945 -0.6657  0.3613  0.9663
 8047SOL     OW35602   4.263   3.512   8.538 -0.1688 -0.0326  0.8352
 8047SOL    HW135603   4.342   3.532   8.489 -0.2788  1.1605  1.1574
 8047SOL    HW235604   4.192   3.546   8.483  1.4716  1.0145 -0.6132
 8048SOL     OW35605   4.464   2.510   7.626 -0.7942 -0.0633 -0.0871
 8048SOL    HW135606   4.540   2.554   7.587  0.3971 -0.6130  1.6258
 8048SOL    HW235607   4.448   2.441   7.562  0.9748  1.0340 -1.7315
 8049SOL     OW35608   1.240   3.341  15.347  0.0823  0.3239 -0.2572
 8049SOL    HW135609   1.240   3.371  15.438 -0.7488  0.1914 -0.2123
 8049SOL    HW235610   1.320   3.289  15.353  0.2011  0.4976 -0.3504
 8050SOL     OW35611   3.014   3.643   5.447 -0.1440 -0.4046  0.6258
 8050SOL    HW135612   2.980   3.564   5.490 -0.4511 -1.4510 -1.5270
 8050SOL    HW235613   2.937   3.663   5.393 -0.6395 -0.6642  1.2316
 8051SOL     OW35614   0.869   3.263  17.363 -0.5645  0.4137  0.2583
 8051SOL    HW135615   0.906   3.191  17.414 -1.4027 -1.5058 -1.8176
 8051SOL    HW235616   0.870   3.217  17.279  1.6751  3.6201 -1.4670
 8052SOL     OW35617   0.783   3.119   6.856  0.1012  0.3881  0.0220
 8052SOL    HW135618   0.845   3.046   6.858 -1.0969 -0.6201 -0.1617
 8052SOL    HW235619   0.755   3.137   6.945  3.6784 -0.6784  1.3841
 8053SOL     OW35620   3.150   1.507   6.807  0.2868  0.0087  0.0008
 8053SOL    HW135621   3.245   1.508   6.794  0.1090  3.5282 -1.0739
 8053SOL    HW235622   3.139   1.462   6.890 -0.5627 -0.8062 -0.5564
 8054SOL     OW35623   3.393   0.524   9.778  0.4462 -0.1456 -0.3734
 8054SOL    HW135624   3.336   0.449   9.764 -2.7545  2.6097 -1.9622
 8054SOL    HW235625   3.339   0.573   9.840 -0.8814  1.3747 -2.7374
 8055SOL     OW35626   2.533   4.259   5.764  0.8156  0.2533 -0.2440
 8055SOL    HW135627   2.513   4.185   5.707  0.7019 -0.5546  0.8433
 8055SOL    HW235628   2.477   4.234   5.838  2.4687 -0.3303  0.8174
 8056SOL     OW35629   3.800   2.818   8.512  1.1699 -0.1096  0.4437
 8056SOL    HW135630   3.778   2.912   8.512 -0.9680 -0.6107  0.2299
 8056SOL    HW235631   3.714   2.778   8.496  0.4259  0.5334  2.8497
 8057SOL     OW35632   1.723   3.881   2.007 -0.3597 -0.0534 -0.7461
 8057SOL    HW135633   1.789   3.869   1.938  1.0491 -0.6678  0.6906
 8057SOL    HW235634   1.741   3.800   2.055  0.1065  1.1840  1.1445
 8058SOL     OW35635   2.194   2.865  17.133 -0.2199 -0.0481  0.5401
 8058SOL    HW135636   2.158   2.902  17.052 -2.0724 -0.0836  1.3424
 8058SOL    HW235637   2.285   2.841  17.116 -0.2932  0.4684 -0.5670
 8059SOL     OW35638   3.032   4.500   7.386 -0.0721 -0.4009 -0.0201
 8059SOL    HW135639   2.992   4.580   7.421 -0.9647  0.2679 -2.5955
 8059SOL    HW235640   3.113   4.545   7.364 -1.2549  0.9969 -1.5010
 8060SOL     OW35641   4.587   0.566   9.009  0.2021 -0.0630 -0.5443
 8060SOL    HW135642   4.541   0.509   8.947  0.1377 -1.9601  1.2412
 8060SOL    HW235643   4.526   0.557   9.082  1.7218 -1.6128  0.5632
 8061SOL     OW35644   0.170   1.913   8.675  0.3199 -0.1560  0.4100
 8061SOL    HW135645   0.121   1.921   8.757  0.5823 -3.1553  0.8439
 8061SOL    HW235646   0.248   1.967   8.691  1.4734 -1.8427  0.4586
 8062SOL     OW35647   2.778   0.542   7.487 -0.0688 -0.4432  0.1096
 8062SOL    HW135648   2.752   0.593   7.564  0.7251 -0.6958  0.5518
 8062SOL    HW235649   2.697   0.548   7.437  1.5692  1.4969 -2.2920
 8063SOL     OW35650   0.505   2.276  11.702  0.1304 -0.5043 -0.6975
 8063SOL    HW135651   0.459   2.351  11.739  1.8733 -0.0406  0.4914
 8063SOL    HW235652   0.567   2.321  11.645  1.1743  2.8614  3.1245
 8064SOL     OW35653   0.217   2.162   7.790 -0.3931  0.1457 -0.4470
 8064SOL    HW135654   0.297   2.110   7.783 -0.1331  0.0187  3.5713
 8064SOL    HW235655   0.224   2.205   7.875  0.4395 -1.5161  0.3270
 8065SOL     OW35656   4.353   3.063  16.521 -0.2301  0.0406 -0.1349
 8065SOL    HW135657   4.365   3.155  16.498 -0.9336 -0.1722 -1.3501
 8065SOL    HW235658   4.261   3.045  16.507 -0.2261  0.3072 -0.5043
 8066SOL     OW35659   2.620   4.393   7.316 -0.0598  0.4153  0.1465
 8066SOL    HW135660   2.664   4.436   7.388 -0.9264  2.7279 -0.7066
 8066SOL    HW235661   2.614   4.305   7.353 -2.0018  0.1946 -0.6678
 8067SOL     OW35662   0.322   1.743   4.498 -0.7597  0.4086 -0.5645
 8067SOL    HW135663   0.293   1.796   4.424 -2.0004 -0.6889 -0.8793
 8067SOL    HW235664   0.311   1.655   4.463  1.9186 -0.7395  1.5070
 8068SOL     OW35665   0.313   1.408   8.444 -0.0374 -0.4811 -0.8752
 8068SOL    HW135666   0.325   1.324   8.490  0.9585  0.6838  1.0095
 8068SOL    HW235667   0.380   1.457   8.492 -1.9447 -0.6299  1.9172
 8069SOL     OW35668   2.795   3.823   3.271 -0.2373  0.1548 -0.2642
 8069SOL    HW135669   2.814   3.830   3.177 -1.0107  0.0882 -0.4211
 8069SOL    HW235670   2.774   3.731   3.287  0.7954 -0.3739 -2.0074
 8070SOL     OW35671   1.562   4.149   0.033  0.3852 -0.7545 -0.4950
 8070SOL    HW135672   1.615   4.218   0.073  0.5708 -0.7527 -0.7431
 8070SOL    HW235673   1.625   4.107  17.648  1.6474 -2.7035  2.1924
 8071SOL     OW35674   1.375   0.092   8.783 -0.0227 -0.1026  0.1840
 8071SOL    HW135675   1.319   0.159   8.821 -0.4019  0.0690 -0.6648
 8071SOL    HW235676   1.354   0.110   8.691 -0.1157  0.4238  0.3108
 8072SOL     OW35677   3.778   3.403  15.836 -0.2585  0.0536  0.0566
 8072SOL    HW135678   3.809   3.480  15.883  2.6158  1.1326 -3.6549
 8072SOL    HW235679   3.836   3.330  15.857 -0.9788 -0.9894 -1.6140
 8073SOL     OW35680   4.151   3.105   9.058 -0.1378 -0.0245 -0.0776
 8073SOL    HW135681   4.227   3.051   9.039 -1.0153 -0.7015 -1.6655
 8073SOL    HW235682   4.194   3.190   9.046 -0.7806  0.0108 -2.1679
 8074SOL     OW35683   4.685   3.867   0.799  0.3806  0.3638 -0.2503
 8074SOL    HW135684   4.630   3.811   0.853 -0.6930  0.3046 -1.3987
 8074SOL    HW235685   0.034   3.895   0.862 -0.4041  2.6083 -0.4118
 8075SOL     OW35686   1.525   1.496   2.273 -0.3693  0.2571 -0.7870
 8075SOL    HW135687   1.527   1.565   2.339  0.7581  0.1206 -0.6813
 8075SOL    HW235688   1.511   1.416   2.323 -1.2788  1.3390  0.6668
 8076SOL     OW35689   0.618   2.781   6.730  0.5182  0.1679  0.1773
 8076SOL    HW135690   0.549   2.832   6.688  0.9636 -0.0868 -0.8618
 8076SOL    HW235691   0.558   2.736   6.789  1.9200 -1.9768 -0.0173
 8077SOL     OW35692   0.599   4.037   9.517 -0.0118 -0.1578 -0.5747
 8077SOL    HW135693   0.574   4.024   9.425  3.4867 -0.6825 -1.4435
 8077SOL    HW235694   0.689   4.068   9.506  0.9122 -1.7357  2.4633
 8078SOL     OW35695   3.070   0.062   3.145  0.0508  0.2436  0.1876
 8078SOL    HW135696   3.088   0.081   3.053 -0.7604 -1.2232 -0.2847
 8078SOL    HW235697   3.160   0.036   3.164  0.5272 -0.2471 -2.6512
 8079SOL     OW35698   2.802   1.963   1.198 -0.0627 -0.1308  0.2871
 8079SOL    HW135699   2.727   2.020   1.182  1.4093  2.1543  1.5295
 8079SOL    HW235700   2.795   1.912   1.117  0.5681  2.9395 -1.7122
 8080SOL     OW35701   0.963   2.197   4.638  0.1469  0.1647  0.0488
 8080SOL    HW135702   1.038   2.139   4.627  0.7895  0.6998  1.6066
 8080SOL    HW235703   0.898   2.132   4.666  0.6123 -1.3002 -2.2171
 8081SOL     OW35704   4.391   1.426  11.155 -0.1875 -0.0119 -0.5772
 8081SOL    HW135705   4.434   1.425  11.069 -1.3600  2.0115 -1.1831
 8081SOL    HW235706   4.324   1.358  11.148 -0.1255 -0.1291 -0.0227
 8082SOL     OW35707   3.044   4.406  15.039 -0.0562  0.2000 -0.4462
 8082SOL    HW135708   2.983   4.402  15.113  0.2397 -2.8412 -0.3537
 8082SOL    HW235709   2.986   4.378  14.968  0.3286 -1.5711 -0.0571
 8083SOL     OW35710   2.885   3.373   5.195 -0.0605 -0.2323 -0.4219
 8083SOL    HW135711   2.908   3.304   5.257  1.1716  0.4088 -0.1683
 8083SOL    HW235712   2.962   3.382   5.140  0.2987 -1.0214 -0.0462
 8084SOL     OW35713   2.623   0.262   7.999  0.6572  0.2085 -0.9120
 8084SOL    HW135714   2.583   0.209   7.931 -0.0953 -0.1716 -0.1725
 8084SOL    HW235715   2.541   0.289   8.040 -0.0497 -3.6163  0.2265
 8085SOL     OW35716   2.127   2.548   7.370 -0.4575 -0.0309  0.1980
 8085SOL    HW135717   2.040   2.507   7.366  0.1588 -1.5130  1.8627
 8085SOL    HW235718   2.145   2.564   7.278 -1.2297  0.8695  0.2014
 8086SOL     OW35719   4.284   1.447   2.364  0.1092 -0.7971 -0.4669
 8086SOL    HW135720   4.301   1.396   2.284 -0.6507 -1.5028 -0.1810
 8086SOL    HW235721   4.188   1.448   2.363  0.1381  1.9295 -0.8622
 8087SOL     OW35722   1.004   3.610   5.387 -0.6379 -0.2809 -0.0122
 8087SOL    HW135723   1.078   3.549   5.392 -0.3473  0.0916  0.2637
 8087SOL    HW235724   1.017   3.668   5.462  1.3526 -2.2234  1.1531
 8088SOL     OW35725   3.063   2.143  12.772 -0.4156  0.0356  0.2721
 8088SOL    HW135726   3.061   2.089  12.851 -1.7180  0.3170  0.4180
 8088SOL    HW235727   3.117   2.084  12.720 -1.7558 -0.8907 -0.0589
 8089SOL     OW35728   3.741   0.172   7.698 -0.8270 -0.0626 -0.2245
 8089SOL    HW135729   3.780   0.164   7.612 -1.4501 -0.5015 -0.4687
 8089SOL    HW235730   3.714   0.083   7.721 -0.9763  0.2959  1.0337
 8090SOL     OW35731   4.690   4.074   6.834  0.5489  0.1850 -0.4416
 8090SOL    HW135732   4.687   4.150   6.893  3.0301 -0.8545  1.0231
 8090SOL    HW235733   4.672   4.114   6.749  2.1568 -0.2525 -0.9816
 8091SOL     OW35734   2.514   2.606   7.605  0.0532 -0.4052 -0.5579
 8091SOL    HW135735   2.533   2.563   7.689  1.6726 -0.2868 -0.8564
 8091SOL    HW235736   2.464   2.540   7.558  1.6965 -1.3613 -0.9800
 8092SOL     OW35737   1.377   3.326   7.784 -0.0055 -0.1386  0.0603
 8092SOL    HW135738   1.421   3.411   7.777 -0.4646 -0.0732 -2.3831
 8092SOL    HW235739   1.456   3.273   7.777  0.3664  0.2354  1.6059
 8093SOL     OW35740   0.673   3.878   7.207 -0.1088 -0.3274 -0.3313
 8093SOL    HW135741   0.619   3.802   7.187 -0.0133 -0.7403  0.9551
 8093SOL    HW235742   0.742   3.827   7.250  0.3305  2.3057  2.1615
 8094SOL     OW35743   0.255   0.871   4.848 -0.2960 -0.2191  0.5443
 8094SOL    HW135744   0.164   0.892   4.865 -0.3361 -0.8759  1.1520
 8094SOL    HW235745   0.246   0.803   4.781 -2.1981 -1.2912  1.8890
 8095SOL     OW35746   0.817   4.081  15.394 -0.1627  0.1122  0.3717
 8095SOL    HW135747   0.811   4.086  15.299 -2.6079 -2.2100  0.3881
 8095SOL    HW235748   0.908   4.103  15.414  0.8265 -1.8058 -1.9849
 8096SOL     OW35749   4.291   1.664   0.275  0.4082  0.2738 -0.8230
 8096SOL    HW135750   4.284   1.758   0.260  1.8780  0.3750 -0.8639
 8096SOL    HW235751   4.199   1.640   0.260  0.2920  0.0656  0.2300
 8097SOL     OW35752   3.127   0.520   5.675  0.4427 -0.2075  0.0768
 8097SOL    HW135753   3.215   0.492   5.650  0.5190  0.3519 -0.2827
 8097SOL    HW235754   3.103   0.571   5.597  1.3017 -0.4390 -0.3345
 8098SOL     OW35755   1.617   0.607   3.751 -0.3804 -0.0235 -0.9206
 8098SOL    HW135756   1.525   0.584   3.742 -0.4486 -1.0626  2.4412
 8098SOL    HW235757   1.635   0.646   3.665 -1.9462  2.3059 -0.2049
 8099SOL     OW35758   2.754   2.401   3.316 -1.2860  0.3975 -0.0458
 8099SOL    HW135759   2.676   2.404   3.371  0.3737  0.9214  2.2892
 8099SOL    HW235760   2.797   2.486   3.310 -2.2261  0.8789  0.1025
 8100SOL     OW35761   2.252   2.817   0.872 -0.5071  1.2824 -0.7264
 8100SOL    HW135762   2.321   2.882   0.884  1.2403 -0.7706  0.3292
 8100SOL    HW235763   2.265   2.780   0.784  3.1489  2.2303 -0.5442
 8101SOL     OW35764   0.464   3.969   8.560 -0.3729 -0.8573  0.4046
 8101SOL    HW135765   0.406   3.898   8.530  0.7402 -1.2751 -0.7492
 8101SOL    HW235766   0.404   4.044   8.558  1.3719  0.4873 -1.1098
 8102SOL     OW35767   2.325   1.182   5.507 -0.2423  0.3401 -0.5019
 8102SOL    HW135768   2.325   1.110   5.570 -0.4173  0.7361 -0.0516
 8102SOL    HW235769   2.344   1.138   5.425  1.2163  0.5183 -0.2568
 8103SOL     OW35770   3.406   0.320   2.279 -0.4743  0.6027  0.2691
 8103SOL    HW135771   3.376   0.411   2.271  0.5830  1.0395  1.2330
 8103SOL    HW235772   3.459   0.322   2.359 -1.2234 -2.0858  0.8358
 8104SOL     OW35773   4.413   2.913   7.835 -0.5517 -0.0132 -0.0991
 8104SOL    HW135774   4.467   2.838   7.859  1.2791  1.4424  0.3579
 8104SOL    HW235775   4.347   2.868   7.782  0.2832 -0.4287 -0.8000
 8105SOL     OW35776   2.528   0.147   9.781  0.1502 -0.0973 -0.3236
 8105SOL    HW135777   2.434   0.162   9.781  0.1120 -0.3228  0.5368
 8105SOL    HW235778   2.536   0.093   9.860  0.5735 -1.5435 -1.3653
 8106SOL     OW35779   0.877   3.538   5.167 -0.4464 -0.4527  0.8001
 8106SOL    HW135780   0.910   3.449   5.157  0.2457 -0.6458  4.7851
 8106SOL    HW235781   0.928   3.561   5.244  1.4936 -0.8801 -0.3575
 8107SOL     OW35782   3.597   3.031   4.644 -0.1207 -0.1403 -0.0961
 8107SOL    HW135783   3.574   3.115   4.604  0.1688  0.5411  1.1863
 8107SOL    HW235784   3.506   3.005   4.660  0.2499 -1.8211 -0.7084
 8108SOL     OW35785   4.449   1.140   2.370 -0.1739 -0.7803 -0.2153
 8108SOL    HW135786   4.521   1.190   2.408  0.5350 -1.9651  0.0156
 8108SOL    HW235787   4.459   1.163   2.278 -0.9653 -0.3462 -0.1894
 8109SOL     OW35788   3.746   1.173  13.280  0.2088 -0.3395 -0.6255
 8109SOL    HW135789   3.702   1.088  13.276 -1.5769  0.4489  2.0516
 8109SOL    HW235790   3.678   1.238  13.298  1.5531  0.4017  1.7310
 8110SOL     OW35791   3.121   0.070   5.697  0.5014  0.1731 -0.1496
 8110SOL    HW135792   3.071   4.706   5.694 -3.2579  2.4326  1.0572
 8110SOL    HW235793   3.050   0.132   5.714  1.4697  1.4559 -0.7612
 8111SOL     OW35794   3.103   1.793   3.311  0.1437 -0.2445  0.4396
 8111SOL    HW135795   3.088   1.863   3.247 -0.5224 -0.2454  0.5955
 8111SOL    HW235796   3.132   1.861   3.372 -0.4533 -1.2215  1.8015
 8112SOL     OW35797   3.391   1.386   1.354 -0.4803 -0.1844 -0.3156
 8112SOL    HW135798   3.325   1.316   1.357  0.5752 -1.2370 -1.7637
 8112SOL    HW235799   3.371   1.433   1.435 -0.0246 -0.7772  0.1318
 8113SOL     OW35800   1.618   2.463   9.943  0.1477  0.3291  0.4534
 8113SOL    HW135801   1.681   2.498  10.006 -2.4843 -2.5438  4.6330
 8113SOL    HW235802   1.573   2.541   9.912 -0.2839 -0.4589 -0.9374
 8114SOL     OW35803   0.154   0.984   4.556 -0.0247  0.4149 -0.0313
 8114SOL    HW135804   0.155   0.909   4.496 -1.7949  0.2423  0.1622
 8114SOL    HW235805   0.140   0.937   4.638  1.3580 -3.4494 -1.9967
 8115SOL     OW35806   1.211   1.191  11.227  0.4076 -0.2646 -0.1805
 8115SOL    HW135807   1.292   1.144  11.206  1.2083  1.7343 -1.6778
 8115SOL    HW235808   1.242   1.253  11.293  0.7588 -1.6247  0.9270
 8116SOL     OW35809   2.644   3.524   8.304 -0.2184 -0.4016  0.6418
 8116SOL    HW135810   2.697   3.505   8.382  0.7604 -0.2096  0.0204
 8116SOL    HW235811   2.662   3.453   8.243  0.4868 -0.6426  1.1371
 8117SOL     OW35812   0.579   4.000  14.462  0.2116 -0.1174  0.3537
 8117SOL    HW135813   0.577   3.926  14.522 -0.4886  0.7654  1.4138
 8117SOL    HW235814   0.521   4.061  14.508 -2.2148 -1.6535 -0.6774
 8118SOL     OW35815   1.429   0.227   9.131 -0.1665  0.1297 -0.0371
 8118SOL    HW135816   1.446   0.197   9.221 -0.5234 -2.6325 -0.8865
 8118SOL    HW235817   1.474   0.311   9.138 -1.1243  0.5945  0.5835
 8119SOL     OW35818   2.332   0.895   5.284  0.6291 -0.4556  0.5958
 8119SOL    HW135819   2.371   0.982   5.290  1.5491 -0.7739 -0.9531
 8119SOL    HW235820   2.386   0.855   5.216 -1.9039 -0.2912 -1.4635
 8120SOL     OW35821   1.557   0.351   8.702  0.1527  0.3645  0.0997
 8120SOL    HW135822   1.617   0.407   8.652 -0.0709 -1.4010 -2.0979
 8120SOL    HW235823   1.537   0.403   8.781 -1.4137  1.6879 -1.1508
 8121SOL     OW35824   1.346   0.526  15.152 -0.2037  0.2254 -0.0882
 8121SOL    HW135825   1.439   0.507  15.166 -0.1626  1.8004  1.8742
 8121SOL    HW235826   1.308   0.506  15.237  0.5795  0.4443  0.3182
 8122SOL     OW35827   2.276   3.657   4.717 -0.2816 -0.1997 -0.3523
 8122SOL    HW135828   2.211   3.601   4.674 -1.1884  1.3139 -0.9699
 8122SOL    HW235829   2.313   3.587   4.770  2.0530 -0.3037 -2.1403
 8123SOL     OW35830   2.749   2.182   4.042 -0.6809  0.3636  0.5960
 8123SOL    HW135831   2.788   2.114   4.097 -1.0594  0.2946  0.7811
 8123SOL    HW235832   2.797   2.262   4.062 -0.2007  0.3041 -0.2956
 8124SOL     OW35833   1.403   1.675   3.256 -0.2822  0.3156 -0.4165
 8124SOL    HW135834   1.376   1.711   3.341 -0.8911 -1.8716  0.3226
 8124SOL    HW235835   1.491   1.710   3.248  0.4693 -0.7810  3.2363
 8125SOL     OW35836   2.078   0.161  17.352  0.3612  0.5424  0.9727
 8125SOL    HW135837   1.998   0.146  17.403  1.0840  0.8176  2.1815
 8125SOL    HW235838   2.072   0.255  17.334  4.7043  0.9227  1.5569
 8126SOL     OW35839   2.155   0.080  11.470 -0.4504  0.1072 -0.1980
 8126SOL    HW135840   2.107   0.105  11.549 -0.1911  0.7069 -0.2303
 8126SOL    HW235841   2.125   0.146  11.407  0.9866  0.3116 -0.6661
 8127SOL     OW35842   3.970   0.997  10.270  0.0850  0.4813 -0.4513
 8127SOL    HW135843   3.951   0.904  10.282  1.8584  0.0166 -1.2558
 8127SOL    HW235844   4.052   1.016  10.315 -0.4445  1.6663  0.0103
 8128SOL     OW35845   1.071   0.101   2.047  0.8739 -0.1314 -0.2396
 8128SOL    HW135846   1.122   0.098   1.966 -0.3192 -0.5895 -0.9769
 8128SOL    HW235847   1.143   0.149   2.088  0.1510  1.3322 -0.6769
 8129SOL     OW35848   0.621   4.154   3.722  0.0278  0.1422 -0.0803
 8129SOL    HW135849   0.709   4.149   3.760 -0.2702  1.5339  0.7491
 8129SOL    HW235850   0.638   4.147   3.628 -0.8303  2.0882 -0.3608
 8130SOL     OW35851   0.146   3.226  15.851 -0.1826 -0.3155  0.3190
 8130SOL    HW135852   0.088   3.150  15.852 -1.5735  0.7018 -3.7691
 8130SOL    HW235853   0.232   3.190  15.871 -0.4999  0.4566  3.0817
 8131SOL     OW35854   3.914   2.065   2.870  0.2656 -0.1149  0.0232
 8131SOL    HW135855   3.939   2.093   2.782  1.7585 -2.3375 -0.2617
 8131SOL    HW235856   3.975   1.995   2.895  1.4886  0.2176 -2.0072
 8132SOL     OW35857   1.779   3.547   2.961 -0.7229 -0.2485  0.0840
 8132SOL    HW135858   1.715   3.617   2.949  0.4834  0.8380 -0.0158
 8132SOL    HW235859   1.767   3.543   3.056  1.7492  1.3878  0.4452
 8133SOL     OW35860   4.375   0.889   4.448 -0.0230  0.2460  0.2996
 8133SOL    HW135861   4.404   0.813   4.398 -0.1696  0.1852  0.3059
 8133SOL    HW235862   4.431   0.956   4.408  0.6575 -2.3650 -3.0751
 8134SOL     OW35863   0.033   1.295  11.395 -0.1216 -0.1309  0.2439
 8134SOL    HW135864   4.699   1.301  11.315 -1.8082 -0.8070  1.2762
 8134SOL    HW235865   0.053   1.202  11.391 -0.1946 -0.0573 -1.8576
 8135SOL     OW35866   3.419   2.431   8.236 -0.0655 -0.0081 -0.0572
 8135SOL    HW135867   3.340   2.473   8.268  0.9785  0.3460  2.0370
 8135SOL    HW235868   3.464   2.396   8.312 -0.3689 -1.1346 -0.3930
 8136SOL     OW35869   0.554   2.474   4.139 -0.2949  0.4183  0.0817
 8136SOL    HW135870   0.585   2.531   4.209 -0.4881  2.0477 -1.1493
 8136SOL    HW235871   0.608   2.397   4.159  1.4786  1.4667 -0.6679
 8137SOL     OW35872   3.981   3.757   7.597 -0.0679 -0.1599 -0.0435
 8137SOL    HW135873   4.035   3.701   7.652 -1.7396 -1.9591 -0.2305
 8137SOL    HW235874   3.947   3.819   7.662 -0.4948  0.4550 -0.8589
 8138SOL     OW35875   3.437   0.712   5.474 -0.5974 -0.4180 -0.0596
 8138SOL    HW135876   3.417   0.768   5.399  1.6543 -0.8198 -0.9535
 8138SOL    HW235877   3.410   0.621   5.459  2.2048 -1.4001  0.9232
 8139SOL     OW35878   2.147   4.361  13.394  0.0182 -0.2905  0.4620
 8139SOL    HW135879   2.241   4.360  13.412 -0.1563 -1.1847  1.3018
 8139SOL    HW235880   2.117   4.337  13.481  0.2704  0.7645  0.8330
 8140SOL     OW35881   1.903   3.220   1.623  0.4555 -0.2693  0.1627
 8140SOL    HW135882   1.825   3.267   1.653  1.2226  0.1102  1.5678
 8140SOL    HW235883   1.925   3.268   1.543 -0.2769  0.9665  0.7021
 8141SOL     OW35884   2.750   0.862  14.852 -0.4088  0.1882 -0.0079
 8141SOL    HW135885   2.785   0.940  14.895 -0.1606  1.2185 -2.0521
 8141SOL    HW235886   2.810   0.793  14.881 -1.4962 -0.4693  0.7043
 8142SOL     OW35887   1.023   1.260   7.235 -0.1080  0.3704  0.2777
 8142SOL    HW135888   0.998   1.199   7.305 -1.5495  0.1240 -0.4428
 8142SOL    HW235889   1.102   1.221   7.197 -0.8038  0.5225 -1.3357
 8143SOL     OW35890   4.488   4.347   5.022  0.0414 -0.1633  0.0176
 8143SOL    HW135891   4.447   4.302   4.948 -0.1533 -0.1831  0.1365
 8143SOL    HW235892   4.426   4.419   5.035  0.0201  0.0123 -1.0859
 8144SOL     OW35893   0.595   1.968   2.241  0.4784 -0.2533 -0.0862
 8144SOL    HW135894   0.585   1.987   2.148  1.1649 -0.2753 -0.1601
 8144SOL    HW235895   0.509   1.988   2.279  0.5883 -0.7643  0.4368
 8145SOL     OW35896   0.428   2.523   7.563  0.2676  0.4148 -0.2658
 8145SOL    HW135897   0.452   2.508   7.655 -3.1447 -0.5243  0.4818
 8145SOL    HW235898   0.482   2.587   7.517  1.3723  0.4942  1.1245
 8146SOL     OW35899   4.678   3.028   7.488  0.3372 -0.5167 -0.1372
 8146SOL    HW135900   4.678   3.114   7.530 -0.3657 -0.3452 -0.4972
 8146SOL    HW235901   0.041   3.035   7.439  0.5846  2.5899  0.7508
 8147SOL     OW35902   0.726   2.980  13.169 -0.0427  0.2101 -0.2194
 8147SOL    HW135903   0.715   2.996  13.262 -2.8003 -2.2059 -0.1175
 8147SOL    HW235904   0.641   2.939  13.154  0.6994 -1.0948 -0.9016
 8148SOL     OW35905   2.014   0.158   4.711  0.5310 -0.0479  0.2548
 8148SOL    HW135906   1.984   0.115   4.631  1.9458  0.3284 -0.4825
 8148SOL    HW235907   1.963   0.238   4.699 -0.3882 -0.5145  1.1130
 8149SOL     OW35908   1.971   0.832   3.557 -0.0842  0.3704 -0.0588
 8149SOL    HW135909   1.918   0.805   3.482 -1.3380  1.1867  0.5302
 8149SOL    HW235910   2.018   0.901   3.510  2.9343 -1.4696  0.2905
 8150SOL     OW35911   0.828   0.717  12.010 -0.4767  0.0920  0.1903
 8150SOL    HW135912   0.766   0.653  11.973 -2.5568  2.3793 -0.2978
 8150SOL    HW235913   0.880   0.662  12.069 -0.9750 -0.0088  0.5392
 8151SOL     OW35914   1.655   2.989   9.711 -0.2232  0.0670 -0.4380
 8151SOL    HW135915   1.629   2.927   9.779  0.8571 -0.8343 -0.8444
 8151SOL    HW235916   1.579   3.047   9.709 -0.2273  0.0961  1.5536
 8152SOL     OW35917   1.114   2.834  12.005  0.1685  0.0095 -0.4101
 8152SOL    HW135918   1.065   2.870  11.930  1.3774 -0.5950 -1.4903
 8152SOL    HW235919   1.091   2.747  11.972  0.3961 -1.1190  2.4412
 8153SOL     OW35920   0.544   3.422   3.848 -0.6013  0.6287  0.0926
 8153SOL    HW135921   0.487   3.428   3.924  0.8573  0.8483  1.1660
 8153SOL    HW235922   0.546   3.328   3.830  1.6485  0.6471  0.2128
 8154SOL     OW35923   2.641   1.314   3.326 -0.6442  0.2840 -0.2499
 8154SOL    HW135924   2.713   1.356   3.280  0.6421 -2.2330 -0.5493
 8154SOL    HW235925   2.563   1.334   3.274  0.7691  0.8174 -2.1156
 8155SOL     OW35926   3.450   3.965   7.714 -0.0112 -0.4770 -0.1063
 8155SOL    HW135927   3.467   3.914   7.794  0.7055  0.7657  0.5442
 8155SOL    HW235928   3.532   3.956   7.665  0.2989  0.1648  0.2917
 8156SOL     OW35929   1.294   0.046   5.517  0.2792  0.0924  0.0616
 8156SOL    HW135930   1.257   0.126   5.553  0.1174 -1.2048  2.7627
 8156SOL    HW235931   1.244   0.028   5.437  1.1251 -0.4442 -0.3478
 8157SOL     OW35932   0.871   0.173   6.276  0.2947  0.3039  0.7526
 8157SOL    HW135933   0.810   0.112   6.318 -0.9027 -0.5739 -2.2639
 8157SOL    HW235934   0.921   0.116   6.219  1.0731 -0.1271  1.8551
 8158SOL     OW35935   1.693   2.207   2.116 -0.4799 -0.2915 -0.9574
 8158SOL    HW135936   1.672   2.128   2.066  0.0648 -0.2690 -1.2211
 8158SOL    HW235937   1.760   2.238   2.055 -1.7950  2.8289 -0.7957
 8159SOL     OW35938   2.934   0.221   5.113  0.4879 -0.2628  0.4102
 8159SOL    HW135939   2.882   0.235   5.034  0.8305  0.7181  0.3648
 8159SOL    HW235940   2.861   0.195   5.169  1.1427 -0.8402  1.0010
 8160SOL     OW35941   0.847   2.861   3.096  1.2039  0.7699  0.3900
 8160SOL    HW135942   0.875   2.771   3.080  1.6408  0.5409  2.4118
 8160SOL    HW235943   0.758   2.867   3.062  2.1164 -0.8853 -2.2571
 8161SOL     OW35944   3.527   3.755   7.925  0.4097 -0.6249  0.0661
 8161SOL    HW135945   3.537   3.795   8.011 -1.1292 -0.3529  0.1169
 8161SOL    HW235946   3.437   3.724   7.917  0.6103 -1.3843  0.7727
 8162SOL     OW35947   0.634   2.652   3.929  0.0377 -0.2926 -0.2376
 8162SOL    HW135948   0.637   2.583   3.995  0.4119  0.5877  0.6778
 8162SOL    HW235949   0.538   2.657   3.932  0.1643  1.2730  1.4009
 8163SOL     OW35950   3.445   4.597   1.263 -0.1792 -0.3363  0.2910
 8163SOL    HW135951   3.400   4.680   1.272  0.0104 -0.3847  1.7646
 8163SOL    HW235952   3.366   4.546   1.282  0.2823 -0.4471  1.9846
 8164SOL     OW35953   2.364   0.526  15.488 -0.2722  0.1898  0.0502
 8164SOL    HW135954   2.294   0.497  15.546  0.0087 -0.6505 -0.0317
 8164SOL    HW235955   2.345   0.482  15.405  0.5173 -1.2922  0.6667
 8165SOL     OW35956   1.095   1.806   7.127 -0.1521 -0.4126  0.1660
 8165SOL    HW135957   1.011   1.827   7.086 -0.9607 -0.8722  1.5521
 8165SOL    HW235958   1.112   1.714   7.105  0.9840 -0.1909  0.1494
 8166SOL     OW35959   4.397   1.306  13.574 -0.2333  0.5653 -0.0675
 8166SOL    HW135960   4.362   1.234  13.522  0.0661  0.2770  0.1336
 8166SOL    HW235961   4.469   1.343  13.523 -0.4172 -0.8624 -1.3500
 8167SOL     OW35962   1.988   2.902   6.033  0.2556 -0.3791  0.0200
 8167SOL    HW135963   2.049   2.856   5.976  1.1414  0.5113  0.2273
 8167SOL    HW235964   1.901   2.885   5.998  0.1881  0.7140 -0.3374
 8168SOL     OW35965   2.003   3.405   2.586 -0.0026 -0.0530 -0.2382
 8168SOL    HW135966   1.909   3.415   2.570 -0.2284 -0.9884  0.4955
 8168SOL    HW235967   2.045   3.435   2.505  0.0590  0.4950 -0.0025
 8169SOL     OW35968   1.211   0.652   2.019  0.3858  0.2512  0.4291
 8169SOL    HW135969   1.187   0.560   2.011  0.9482  0.3745 -2.4595
 8169SOL    HW235970   1.307   0.655   2.019  0.4131 -0.6154  1.6230
 8170SOL     OW35971   4.533   4.025   7.221 -0.4935  0.3436  0.0926
 8170SOL    HW135972   4.530   4.120   7.210 -2.1086  0.2200 -0.5313
 8170SOL    HW235973   4.499   3.992   7.138 -1.4942  0.8551  0.3020
 8171SOL     OW35974   3.634   2.632  12.142  0.2093  0.0256  0.1702
 8171SOL    HW135975   3.570   2.690  12.101  0.2488  0.8234  1.2454
 8171SOL    HW235976   3.711   2.689  12.146  0.6694 -0.3711 -2.6101
 8172SOL     OW35977   3.294   4.357  10.799 -0.3556  0.0951  0.5534
 8172SOL    HW135978   3.262   4.355  10.889 -0.6431 -1.0063  0.4257
 8172SOL    HW235979   3.373   4.408  10.819 -0.1906 -0.0470  0.2665
 8173SOL     OW35980   2.520   0.674   3.755 -0.3997  0.5094 -0.2247
 8173SOL    HW135981   2.437   0.717   3.777 -0.1871  1.6159 -1.5974
 8173SOL    HW235982   2.560   0.724   3.683 -1.2548  0.4680 -0.7228
 8174SOL     OW35983   1.814   0.399   7.470 -0.3641  0.1576 -0.1331
 8174SOL    HW135984   1.868   0.340   7.523  0.5400 -0.0438 -1.2764
 8174SOL    HW235985   1.792   0.330   7.408 -1.1762 -2.1161  2.6415
 8175SOL     OW35986   1.070   1.534   7.030  0.3744  0.1920 -0.3537
 8175SOL    HW135987   1.095   1.444   7.011 -1.0879 -0.4385  0.7726
 8175SOL    HW235988   1.129   1.580   6.970  0.8429  0.9050  0.6524
 8176SOL     OW35989   3.839   1.237   4.375  0.0221  0.1095 -0.5298
 8176SOL    HW135990   3.857   1.302   4.443 -1.5144 -2.2624  2.1595
 8176SOL    HW235991   3.747   1.258   4.356 -0.6022 -0.6449  1.6634
 8177SOL     OW35992   2.377   1.669   3.984 -0.1010 -0.3818 -0.2201
 8177SOL    HW135993   2.358   1.597   3.924 -1.6906 -2.0527  2.3297
 8177SOL    HW235994   2.436   1.638   4.053 -1.1949  0.6635  1.1865
 8178SOL     OW35995   0.101   2.691   7.936 -0.0331 -0.2408 -0.1494
 8178SOL    HW135996   0.087   2.703   7.842 -2.5067 -0.1842  0.2208
 8178SOL    HW235997   0.085   2.778   7.973 -0.9205  0.0629 -1.2656
 8179SOL     OW35998   2.554   3.057  14.165  0.1331 -0.3339 -0.2378
 8179SOL    HW135999   2.595   2.977  14.132  0.1840 -0.7882  0.9373
 8179SOL    HW236000   2.464   3.025  14.171 -0.7914  2.3677  0.6227
 8180SOL     OW36001   0.470   3.062  16.504  0.0130  0.5261 -0.2530
 8180SOL    HW136002   0.379   3.042  16.483 -0.4896  0.4366  2.0192
 8180SOL    HW236003   0.509   3.052  16.417 -1.9566 -0.6126 -1.0153
 8181SOL     OW36004   2.803   0.008   7.988 -0.1234  0.4404 -0.1226
 8181SOL    HW136005   2.712   4.705   7.964 -0.6913 -0.1892  2.6641
 8181SOL    HW236006   2.832   4.643   8.026 -0.3481  1.0091  1.2700
 8182SOL     OW36007   0.852   4.056   7.356 -0.3477  0.1031 -0.2243
 8182SOL    HW136008   0.811   3.977   7.393 -2.8949  1.6158  0.2493
 8182SOL    HW236009   0.825   4.035   7.267  1.5763 -0.5164 -0.6624
 8183SOL     OW36010   1.361   0.562   2.684  0.1883  0.1880  0.1407
 8183SOL    HW136011   1.383   0.601   2.769 -0.5678 -0.0204  0.4263
 8183SOL    HW236012   1.351   0.472   2.715 -1.2836  0.5535  0.6907
 8184SOL     OW36013   3.746   3.076   9.528  0.1813  0.0514 -0.9036
 8184SOL    HW136014   3.677   3.013   9.505 -0.0345 -0.0740  0.0854
 8184SOL    HW236015   3.711   3.153   9.484 -1.8731 -0.8013 -0.7308
 8185SOL     OW36016   0.241   0.461  17.521 -0.3841 -0.4204 -0.1680
 8185SOL    HW136017   0.268   0.403  17.593  1.2742  0.2808 -0.2350
 8185SOL    HW236018   0.279   0.542  17.554 -2.2268 -0.5307  2.1847
 8186SOL     OW36019   2.357   1.617   1.244 -0.1643  0.0414  0.6501
 8186SOL    HW136020   2.381   1.707   1.223  1.8904 -0.0469  2.5955
 8186SOL    HW236021   2.373   1.619   1.338 -1.7660 -2.2507  0.9629
 8187SOL     OW36022   2.277   2.543   3.078  0.3868  0.2960  0.5080
 8187SOL    HW136023   2.349   2.480   3.073  1.5220  1.2738  4.8840
 8187SOL    HW236024   2.307   2.589   3.157 -1.0983  1.6395  0.2793
 8188SOL     OW36025   2.080   4.529   7.031  0.8008 -0.3991  0.1998
 8188SOL    HW136026   2.169   4.525   7.066  1.0611  0.2410 -0.4055
 8188SOL    HW236027   2.089   4.590   6.958 -0.3624 -1.2366 -0.6352
 8189SOL     OW36028   3.743   1.113   8.601  0.4244  0.4097 -0.2215
 8189SOL    HW136029   3.806   1.177   8.569 -0.8062  0.9534 -1.5436
 8189SOL    HW236030   3.789   1.086   8.680  1.3771  2.6215 -0.0367
 8190SOL     OW36031   2.788   0.999   3.833  0.3579  0.8143  0.4892
 8190SOL    HW136032   2.855   1.036   3.776 -0.3127 -0.2814 -0.9891
 8190SOL    HW236033   2.844   0.945   3.888  0.6842 -1.6739 -2.3148
 8191SOL     OW36034   0.974   4.249   5.188  0.4783  0.1209 -0.5669
 8191SOL    HW136035   1.004   4.331   5.226 -2.0605  0.3406  0.9930
 8191SOL    HW236036   0.879   4.262   5.192  0.5770  1.0635 -1.2429
 8192SOL     OW36037   1.690   4.665  16.670  0.5185  0.0172 -0.0331
 8192SOL    HW136038   1.622   0.011  16.690 -1.3004 -1.9220 -0.0703
 8192SOL    HW236039   1.661   4.593  16.725 -0.3651  0.6556  0.3360
 8193SOL     OW36040   4.379   1.212   4.634 -0.0651 -0.1053  0.0132
 8193SOL    HW136041   4.316   1.270   4.591 -0.4353 -0.3674  0.2069
 8193SOL    HW236042   4.323   1.143   4.669  0.4264 -0.3261  0.3591
 8194SOL     OW36043   0.243   0.179   5.305  0.3161  0.0116  0.2152
 8194SOL    HW136044   0.270   0.100   5.258  0.0189 -0.2499  0.4867
 8194SOL    HW236045   0.185   0.133   5.366  1.4276 -0.5695  0.8313
 8195SOL     OW36046   1.886   2.899   7.226  0.6472  0.2221 -0.1206
 8195SOL    HW136047   1.829   2.939   7.160 -1.6317  0.9338  2.2492
 8195SOL    HW236048   1.822   2.854   7.282  0.5347  1.5695  0.8485
 8196SOL     OW36049   2.472   2.705   2.940  0.0965  0.7968  0.2428
 8196SOL    HW136050   2.557   2.661   2.943 -1.0990 -1.6032 -0.4719
 8196SOL    HW236051   2.411   2.634   2.962  2.2356 -1.7774 -2.1355
 8197SOL     OW36052   2.015   2.525   9.282  0.2663 -0.0085 -0.1525
 8197SOL    HW136053   1.921   2.529   9.299  0.7432 -1.4252  2.8836
 8197SOL    HW236054   2.020   2.475   9.200  1.1460  0.4887 -0.3964
 8198SOL     OW36055   1.373   0.971   6.515  0.3317 -0.0866 -0.5511
 8198SOL    HW136056   1.386   0.897   6.574  2.4440  1.4473  0.9186
 8198SOL    HW236057   1.278   0.976   6.501  0.6576 -0.1664 -2.7618
 8199SOL     OW36058   1.206   2.273   5.436 -0.2675 -0.8239  0.0387
 8199SOL    HW136059   1.189   2.180   5.449  0.8233 -0.8960  0.9022
 8199SOL    HW236060   1.242   2.276   5.347  2.6889 -1.1685  1.2084
 8200SOL     OW36061   2.097   2.272  17.507  0.9987 -0.3221 -0.2702
 8200SOL    HW136062   2.037   2.200  17.488  0.6071 -0.2883  0.8779
 8200SOL    HW236063   2.146   2.235  17.581 -0.1053 -1.6217 -0.2071
 8201SOL     OW36064   2.617   1.355   7.060 -0.2961  0.2693 -0.5612
 8201SOL    HW136065   2.637   1.443   7.091  0.2403 -0.3401  0.8132
 8201SOL    HW236066   2.692   1.333   7.004  2.2231  2.1325  2.1141
 8202SOL     OW36067   0.196   1.961   4.842  0.3507 -0.1593 -0.3604
 8202SOL    HW136068   0.136   1.980   4.915 -1.6213  0.5623 -2.1722
 8202SOL    HW236069   0.243   2.044   4.849  0.9510 -0.5100 -0.2301
 8203SOL     OW36070   3.464   2.326   3.076  0.1059 -0.2637 -0.5934
 8203SOL    HW136071   3.389   2.367   3.120 -0.0147  0.9393 -1.9254
 8203SOL    HW236072   3.541   2.365   3.116  0.4190 -0.2374 -1.2225
 8204SOL     OW36073   2.906   4.419   7.140 -0.8760 -0.4816 -0.6430
 8204SOL    HW136074   2.852   4.493   7.168  0.6951  0.6135 -0.4631
 8204SOL    HW236075   2.963   4.420   7.217 -1.0472 -0.5956 -0.5155
 8205SOL     OW36076   2.488   3.387   9.003  0.7375 -0.0000  0.0852
 8205SOL    HW136077   2.400   3.392   8.965  0.2960  0.2522  1.1532
 8205SOL    HW236078   2.508   3.304   8.960  2.7110  0.1572  0.7036
 8206SOL     OW36079   4.543   3.405   7.419 -0.1667  0.3100 -0.3177
 8206SOL    HW136080   4.488   3.480   7.441 -1.7618 -0.6604 -0.9567
 8206SOL    HW236081   4.574   3.438   7.334  0.4554 -0.0302 -0.2221
 8207SOL     OW36082   4.284   4.521   6.912 -0.1517  0.7939  0.4507
 8207SOL    HW136083   4.354   4.509   6.848 -0.9010  3.1279 -0.8325
 8207SOL    HW236084   4.204   4.519   6.859  0.5459  1.8219 -0.6515
 8208SOL     OW36085   3.146   2.653   0.069  0.3015 -0.4770  0.1057
 8208SOL    HW136086   3.112   2.739   0.094 -1.5602 -0.7537 -1.4535
 8208SOL    HW236087   3.238   2.681   0.078  0.7540 -1.9171 -0.0243
 8209SOL     OW36088   2.143   4.273   8.012 -0.0167 -0.0552 -0.3044
 8209SOL    HW136089   2.232   4.306   8.016  0.7460 -2.4090  2.5498
 8209SOL    HW236090   2.106   4.319   8.087  0.4557  2.8446 -1.8508
 8210SOL     OW36091   0.670   0.530   3.998 -0.2504 -0.1809 -0.0147
 8210SOL    HW136092   0.574   0.536   4.002 -0.2947 -1.3405  0.5345
 8210SOL    HW236093   0.693   0.523   3.905 -0.6717  2.1086 -0.3050
 8211SOL     OW36094   3.454   3.450   4.318  0.5206  0.1565  0.8078
 8211SOL    HW136095   3.454   3.531   4.266  2.7524  0.2253  0.9337
 8211SOL    HW236096   3.450   3.386   4.247 -0.0941  1.2602 -0.1511
 8212SOL     OW36097   1.941   0.236   8.166 -0.7650  0.2665  0.7376
 8212SOL    HW136098   1.965   0.207   8.078 -4.0005 -0.8245  0.2453
 8212SOL    HW236099   1.852   0.203   8.174 -0.5813 -0.6017 -0.8657
 8213SOL     OW36100   0.563   4.040   6.086 -0.1677  0.2602 -0.0269
 8213SOL    HW136101   0.640   4.061   6.033  0.5296 -0.2033  0.8129
 8213SOL    HW236102   0.545   4.118   6.138  1.8792 -0.3764  1.6116
 8214SOL     OW36103   4.568   1.095   7.250  0.1968  0.3868 -0.3941
 8214SOL    HW136104   4.507   1.167   7.268  0.0291  0.2809 -0.5394
 8214SOL    HW236105   4.651   1.144   7.252  1.4513 -1.6615 -2.9986
 8215SOL     OW36106   4.327   4.033   3.369  0.5073 -0.2252 -0.0463
 8215SOL    HW136107   4.236   4.064   3.367  0.7720  0.5107 -0.5960
 8215SOL    HW236108   4.369   4.063   3.289  0.6856  1.1359  0.5596
 8216SOL     OW36109   1.646   2.631   3.708  0.3603 -0.1675 -0.2101
 8216SOL    HW136110   1.735   2.641   3.674  0.2224 -0.5883 -0.6982
 8216SOL    HW236111   1.635   2.536   3.715  1.5072 -0.2894 -0.0191
 8217SOL     OW36112   0.172   0.574   1.826 -0.2485  0.0503  0.6523
 8217SOL    HW136113   0.211   0.564   1.913 -1.8351 -0.6515  1.2979
 8217SOL    HW236114   0.102   0.508   1.821 -1.6902  1.5826  0.7245
 8218SOL     OW36115   2.321   3.928   1.846  0.3220  0.6070  0.1005
 8218SOL    HW136116   2.360   4.014   1.858 -2.9063  1.7841  2.0879
 8218SOL    HW236117   2.387   3.867   1.878  0.7347  0.4245 -1.0702
 8219SOL     OW36118   1.098   1.757  16.036  0.3767 -0.3075 -0.6706
 8219SOL    HW136119   1.181   1.753  15.989  0.4533 -0.8577 -0.4884
 8219SOL    HW236120   1.134   1.777  16.122 -0.1881 -0.3209 -0.4313
 8220SOL     OW36121   4.311   1.802  14.039  0.4301  0.1141 -0.0180
 8220SOL    HW136122   4.291   1.714  14.008 -0.1704 -0.0562  0.8407
 8220SOL    HW236123   4.311   1.792  14.135 -1.5999 -2.1582 -0.2544
 8221SOL     OW36124   2.150   0.358  12.765 -0.1108 -0.1510 -0.7750
 8221SOL    HW136125   2.059   0.328  12.760 -0.5039  1.3877 -2.5475
 8221SOL    HW236126   2.145   0.453  12.777 -0.7895 -0.4799  1.6287
 8222SOL     OW36127   3.471   3.410  12.635  0.5185 -0.3960  0.7545
 8222SOL    HW136128   3.431   3.392  12.721  0.8999  2.9540  1.6246
 8222SOL    HW236129   3.484   3.504  12.651  0.1143  0.3650 -3.4455
 8223SOL     OW36130   2.794   4.643   8.284 -0.7245  0.2627 -0.4601
 8223SOL    HW136131   2.804   0.018   8.261 -0.9335  0.8991  2.0769
 8223SOL    HW236132   2.881   4.634   8.322 -0.6444  0.9401 -0.4820
 8224SOL     OW36133   0.856   3.011  15.306  0.1847  0.2520 -0.1887
 8224SOL    HW136134   0.828   3.064  15.380  0.2412 -2.1353  1.5505
 8224SOL    HW236135   0.951   3.016  15.315  0.0623 -0.2774  1.3647
 8225SOL     OW36136   4.057   2.266   5.271  0.3999  0.2486 -0.0454
 8225SOL    HW136137   4.008   2.305   5.199  0.8577  3.1268  1.2125
 8225SOL    HW236138   4.000   2.191   5.285  0.1001 -0.1612 -3.5567
 8226SOL     OW36139   3.982   4.338   3.482  0.5406  0.9187  0.4023
 8226SOL    HW136140   4.067   4.338   3.524  0.7321  0.3938  0.0194
 8226SOL    HW236141   3.946   4.388   3.555  1.4702  3.4462 -0.8821
 8227SOL     OW36142   4.547   3.885   7.861 -0.1244  0.2830  0.7966
 8227SOL    HW136143   4.641   3.901   7.871  0.0229 -0.7261  0.9614
 8227SOL    HW236144   4.510   3.899   7.948 -1.8922  2.2237 -0.2615
 8228SOL     OW36145   2.200   0.191   8.229  0.5572  0.5288  0.7450
 8228SOL    HW136146   2.115   0.210   8.188  0.5603  1.0961  0.9955
 8228SOL    HW236147   2.173   0.135   8.302  1.0452 -2.3750 -1.2763
 8229SOL     OW36148   0.044   1.819   5.747 -0.2989 -0.4623 -0.4111
 8229SOL    HW136149   0.083   1.779   5.669  0.0613 -0.1771 -0.3753
 8229SOL    HW236150   4.697   1.751   5.769  0.0201 -0.7418 -0.3283
 8230SOL     OW36151   3.683   1.526   4.045  0.1903 -0.1553 -0.3570
 8230SOL    HW136152   3.715   1.517   3.955  0.2900 -1.8158 -0.1588
 8230SOL    HW236153   3.678   1.621   4.055 -0.1466 -0.5766  3.3787
 8231SOL     OW36154   1.357   0.948   4.404  0.0052 -0.2621 -0.4461
 8231SOL    HW136155   1.374   1.041   4.417  3.4218 -1.0211  0.3803
 8231SOL    HW236156   1.392   0.917   4.487 -0.8942 -1.0118 -0.3423
 8232SOL     OW36157   3.862   2.002   2.535  0.3284  0.1734  0.0799
 8232SOL    HW136158   3.906   2.075   2.578 -1.4871  1.7662 -0.7560
 8232SOL    HW236159   3.885   2.014   2.443  0.1719 -0.1000  0.0022
 8233SOL     OW36160   3.851   1.365   7.281  0.8536 -0.2610 -0.5602
 8233SOL    HW136161   3.934   1.375   7.328  0.0590 -2.3382  1.3011
 8233SOL    HW236162   3.786   1.355   7.351  1.2766  0.0512 -0.1277
 8234SOL     OW36163   2.273   4.243   2.406 -0.4391  0.0692  0.0632
 8234SOL    HW136164   2.178   4.252   2.417 -0.6744 -1.1443 -1.0227
 8234SOL    HW236165   2.289   4.208   2.494 -0.2627 -1.2130 -0.4761
 8235SOL     OW36166   4.563   0.554  16.610  0.0995 -0.2834 -0.4163
 8235SOL    HW136167   4.501   0.561  16.683 -0.9216 -0.5807 -1.2426
 8235SOL    HW236168   4.645   0.551  16.658  0.3327  1.0301 -0.7235
 8236SOL     OW36169   1.622   2.429   6.118 -0.3398 -0.0775 -0.1900
 8236SOL    HW136170   1.640   2.424   6.024  3.6312 -1.7878  0.6459
 8236SOL    HW236171   1.531   2.457   6.111 -0.8388 -1.3032  1.6175
 8237SOL     OW36172   3.550   1.566  16.834  0.0701 -0.0413 -0.4371
 8237SOL    HW136173   3.511   1.520  16.908  1.6768  1.2422  1.1772
 8237SOL    HW236174   3.640   1.537  16.826  0.1847 -0.2058  1.6541
 8238SOL     OW36175   2.293   2.188   7.675 -0.4858 -0.1746 -0.2214
 8238SOL    HW136176   2.326   2.274   7.650 -2.4400  0.7975  0.5922
 8238SOL    HW236177   2.286   2.133   7.597 -0.0902  0.7172 -0.8862
 8239SOL     OW36178   3.179   2.794   5.404 -0.4541 -0.2079 -0.1131
 8239SOL    HW136179   3.161   2.731   5.335  1.0297 -0.1741 -0.5317
 8239SOL    HW236180   3.096   2.817   5.445 -0.9158 -2.8892  0.4965
 8240SOL     OW36181   0.631   3.007   6.149  0.1699  0.0519  0.4006
 8240SOL    HW136182   0.613   2.993   6.242 -1.2081  0.2563  0.1657
 8240SOL    HW236183   0.559   3.060   6.115 -0.7724 -0.8341  1.0245
 8241SOL     OW36184   4.086   2.631  12.848 -0.5801 -0.3853  0.4577
 8241SOL    HW136185   4.177   2.654  12.827 -0.6396 -0.6034 -0.0301
 8241SOL    HW236186   4.039   2.713  12.856  1.9174  0.9129  1.7440
 8242SOL     OW36187   3.061   1.839   4.086 -0.2471  0.3365 -0.4097
 8242SOL    HW136188   3.143   1.887   4.097  1.3173 -2.7003  1.2192
 8242SOL    HW236189   3.102   1.752   4.086 -0.9646 -0.0017  0.3241
 8243SOL     OW36190   0.348   2.056   1.634 -0.4856 -0.3309  0.4766
 8243SOL    HW136191   0.436   2.020   1.644  0.4915  1.6716 -0.6652
 8243SOL    HW236192   0.347   2.090   1.723  3.6095  3.9220 -1.0250
 8244SOL     OW36193   4.611   2.538   4.910 -0.8439  0.3698 -0.0974
 8244SOL    HW136194   4.648   2.535   4.999 -1.5744 -1.1557  0.1461
 8244SOL    HW236195   4.522   2.520   4.939 -0.3559 -0.8927  0.6203
 8245SOL     OW36196   2.685   1.335   1.842 -0.1507 -0.2265  0.2441
 8245SOL    HW136197   2.694   1.426   1.872  1.0148  0.3294 -1.7950
 8245SOL    HW236198   2.751   1.331   1.773  1.1174 -1.0516  1.5006
 8246SOL     OW36199   1.718   1.344   2.077  0.4848 -0.1840 -0.4186
 8246SOL    HW136200   1.699   1.251   2.085 -4.7768  0.8038 -1.1039
 8246SOL    HW236201   1.646   1.388   2.123 -0.9492 -2.0209 -0.8817
 8247SOL     OW36202   0.123   2.335   0.149  0.1355  0.2482 -0.1591
 8247SOL    HW136203   0.034   2.305   0.169  0.9872 -0.0465  3.2474
 8247SOL    HW236204   0.142   2.401   0.216 -1.3021 -1.2545  1.7248
 8248SOL     OW36205   3.508   1.182   8.851 -0.4806  0.2844 -0.1186
 8248SOL    HW136206   3.589   1.170   8.800 -1.0641 -1.1154 -0.7005
 8248SOL    HW236207   3.467   1.250   8.798 -0.0351  0.9902  0.4472
 8249SOL     OW36208   0.428   2.921   7.977  0.5694  0.3790  0.2784
 8249SOL    HW136209   0.363   2.945   8.043  0.5513 -2.9273  1.4652
 8249SOL    HW236210   0.436   2.826   7.990  2.3031  0.4675 -0.2310
 8250SOL     OW36211   3.344   0.289   6.655  0.8003  0.3575  0.5231
 8250SOL    HW136212   3.292   0.277   6.735 -0.1333 -1.0791 -0.2946
 8250SOL    HW236213   3.292   0.350   6.604 -1.2838 -1.4747  0.4157
 8251SOL     OW36214   0.756   3.574   3.826 -0.4301  0.1619  0.0189
 8251SOL    HW136215   0.677   3.521   3.840  0.8571 -1.8713 -0.4308
 8251SOL    HW236216   0.776   3.544   3.738 -2.7866 -1.4602  0.0523
 8252SOL     OW36217   3.639   0.118  11.102  0.0707 -0.0260 -0.8181
 8252SOL    HW136218   3.626   0.192  11.043 -0.1947  0.4418 -0.1858
 8252SOL    HW236219   3.575   0.050  11.083 -3.2469  2.6196  0.7421
 8253SOL     OW36220   1.420   1.224   4.549 -0.5032 -0.3406  0.3138
 8253SOL    HW136221   1.499   1.229   4.603  0.0628 -3.2317 -0.2556
 8253SOL    HW236222   1.466   1.252   4.469 -1.0855 -0.9538 -0.2292
 8254SOL     OW36223   3.487   1.913   4.744  0.7170  0.4028 -0.3021
 8254SOL    HW136224   3.450   1.940   4.660  0.7026  1.8134  0.1402
 8254SOL    HW236225   3.431   1.840   4.769  1.1010  0.1024 -0.3285
 8255SOL     OW36226   0.735   2.950  12.361 -0.4878  0.0833 -0.2723
 8255SOL    HW136227   0.749   3.033  12.407 -2.8085  1.5339 -2.1790
 8255SOL    HW236228   0.818   2.939  12.316 -0.2116  1.6117 -0.1620
 8256SOL     OW36229   0.483   3.400   6.335 -0.2114  0.4253  0.0232
 8256SOL    HW136230   0.553   3.344   6.368 -1.4041 -1.0974 -0.0820
 8256SOL    HW236231   0.442   3.440   6.411  0.5962 -0.6303  1.0051
 8257SOL     OW36232   0.865   4.658   1.385 -0.2793  0.3547 -0.2046
 8257SOL    HW136233   0.908   4.657   1.470 -1.3142  1.3987  0.3177
 8257SOL    HW236234   0.792   4.599   1.402  0.5554 -1.4593 -2.8431
 8258SOL     OW36235   1.313   4.531   6.876  0.2744 -0.0210  0.1807
 8258SOL    HW136236   1.265   4.450   6.891 -1.7081  1.3079  1.1320
 8258SOL    HW236237   1.304   4.574   6.961 -3.1896 -1.4104  0.5342
 8259SOL     OW36238   1.593   4.650   5.508 -0.1970 -0.0710 -0.0556
 8259SOL    HW136239   1.654   0.002   5.533 -1.6714  0.6412  1.5495
 8259SOL    HW236240   1.507   4.677   5.540  0.0011 -0.1267  0.5210
 8260SOL     OW36241   4.316   0.956   3.093  0.1699 -0.1326  0.4802
 8260SOL    HW136242   4.242   0.901   3.068  0.5858  0.5402 -2.1923
 8260SOL    HW236243   4.300   0.980   3.184  1.7726 -0.3767  0.8377
 8261SOL     OW36244   3.567   4.132  11.040 -0.3056  0.1952 -0.3304
 8261SOL    HW136245   3.536   4.154  11.128  1.1974  0.0861  0.2237
 8261SOL    HW236246   3.628   4.060  11.055 -1.8559 -0.9382  0.5953
 8262SOL     OW36247   3.437   4.314   2.722  0.6041 -0.2656 -0.6932
 8262SOL    HW136248   3.377   4.260   2.774  1.5874 -1.1726 -0.4901
 8262SOL    HW236249   3.409   4.404   2.734 -0.2030 -0.3490 -1.8424
 8263SOL     OW36250   3.005   1.617   9.950  0.2659  0.1052  0.0420
 8263SOL    HW136251   2.986   1.555  10.020  0.3205  2.6472  2.2990
 8263SOL    HW236252   3.052   1.683  10.001 -0.6770  0.8155 -0.0042
 8264SOL     OW36253   4.237   1.081   1.939  0.1281 -0.4591  0.4601
 8264SOL    HW136254   4.145   1.066   1.960  0.5644 -3.3296  0.2840
 8264SOL    HW236255   4.250   1.028   1.860 -0.7058 -1.9457  1.3331
 8265SOL     OW36256   2.038   2.005   2.983  0.2070  0.1299 -0.1676
 8265SOL    HW136257   2.124   2.013   3.025  1.0379  1.0812 -2.0187
 8265SOL    HW236258   2.006   2.096   2.979 -0.0331  0.1187  1.3862
 8266SOL     OW36259   2.922   1.771  12.215 -0.1054  0.2008 -0.4165
 8266SOL    HW136260   2.914   1.841  12.281  1.0009 -0.7412  0.7058
 8266SOL    HW236261   2.839   1.722  12.213 -1.2920  2.2338 -1.1693
 8267SOL     OW36262   3.878   0.470   4.783  0.1164  0.0483  0.1036
 8267SOL    HW136263   3.901   0.561   4.802 -0.8448  0.4955 -0.8864
 8267SOL    HW236264   3.960   0.424   4.763 -0.0364  0.1639 -0.7899
 8268SOL     OW36265   3.050   0.556  10.787 -0.2310 -0.0647  0.2019
 8268SOL    HW136266   3.132   0.520  10.822  0.0001  1.5571  1.3394
 8268SOL    HW236267   2.985   0.503  10.832  0.1199  0.1994  1.0163
 8269SOL     OW36268   0.692   1.526   4.016 -0.1528  0.5968  0.1737
 8269SOL    HW136269   0.721   1.435   4.028  0.2468  0.4504 -1.8756
 8269SOL    HW236270   0.597   1.518   4.023 -0.3151 -0.2882 -3.0597
 8270SOL     OW36271   4.035   2.880   4.550 -0.5108  0.0028 -0.1447
 8270SOL    HW136272   4.043   2.914   4.461 -1.8770 -0.7570 -0.5715
 8270SOL    HW236273   4.042   2.966   4.589 -0.8384  0.5660 -1.3160
 8271SOL     OW36274   3.996   2.613   7.188 -0.2282  0.2493  0.0378
 8271SOL    HW136275   3.938   2.666   7.242 -1.6566 -0.1284 -1.1178
 8271SOL    HW236276   4.034   2.686   7.139 -1.2204  1.2141  0.7010
 8272SOL     OW36277   0.863   2.864   8.264  0.1119 -0.1462 -0.5687
 8272SOL    HW136278   0.798   2.934   8.258 -0.0579 -0.2054  0.7668
 8272SOL    HW236279   0.814   2.794   8.220 -1.1464  0.2731  0.1837
 8273SOL     OW36280   4.715   1.113   8.481 -0.6033 -0.8569  0.3448
 8273SOL    HW136281   0.068   1.068   8.526  2.8710  3.5835 -0.6919
 8273SOL    HW236282   4.687   1.042   8.424 -1.7515 -0.6407  0.6317
 8274SOL     OW36283   0.723   2.649   8.522  0.4635  0.5824  0.1747
 8274SOL    HW136284   0.818   2.652   8.531  0.3141  0.5599  1.7288
 8274SOL    HW236285   0.711   2.565   8.566 -2.4783  0.4525 -0.8926
 8275SOL     OW36286   0.946   4.418  13.824  0.4663  0.1730 -0.5655
 8275SOL    HW136287   0.924   4.327  13.809  0.0424  0.1141  0.4010
 8275SOL    HW236288   0.976   4.398  13.913 -0.9265 -0.7873 -0.3084
 8276SOL     OW36289   1.493   4.304   5.605  0.0136 -0.0794  0.1660
 8276SOL    HW136290   1.455   4.388   5.632  1.0812  0.7308 -0.7998
 8276SOL    HW236291   1.510   4.271   5.693 -0.1681 -1.3564 -0.2820
 8277SOL     OW36292   3.573   4.147  16.303  0.3038 -0.1532  0.2498
 8277SOL    HW136293   3.564   4.229  16.351 -0.2197  1.5028 -2.6378
 8277SOL    HW236294   3.656   4.165  16.259 -2.2226  0.0023 -4.4198
 8278SOL     OW36295   0.962   1.266   5.044 -0.0162 -0.1186 -0.2686
 8278SOL    HW136296   0.903   1.221   4.984 -1.9052  2.7270 -0.5474
 8278SOL    HW236297   0.909   1.265   5.124  0.8227  0.7306  0.3096
 8279SOL     OW36298   3.533   3.658  16.032 -0.4298  0.0985  0.0563
 8279SOL    HW136299   3.508   3.692  16.118  0.1249  1.5099 -0.3415
 8279SOL    HW236300   3.446   3.630  16.003 -1.4332  0.7130  2.5333
 8280SOL     OW36301   0.055   2.206   7.550 -0.1203  0.1076  0.3359
 8280SOL    HW136302   0.100   2.280   7.508  0.0185 -0.4403 -0.4753
 8280SOL    HW236303   0.116   2.190   7.622 -1.4045 -1.0706  1.1572
 8281SOL     OW36304   2.351   1.054   3.571 -0.2037  0.0990  0.3416
 8281SOL    HW136305   2.407   1.072   3.646  2.3854  2.8903 -2.2493
 8281SOL    HW236306   2.348   1.140   3.530 -0.1876  0.0613  0.2617
 8282SOL     OW36307   1.914   2.971  17.479 -0.3950 -0.1477  0.4369
 8282SOL    HW136308   1.841   2.982  17.540 -1.6448  1.4780 -1.3601
 8282SOL    HW236309   1.942   2.883  17.506  2.3133  0.9393  1.2382
 8283SOL     OW36310   1.026   1.539   6.651  0.0759  0.8352  0.3056
 8283SOL    HW136311   0.945   1.489   6.642 -0.5799  1.7651  1.0260
 8283SOL    HW236312   1.076   1.517   6.573  0.3672  3.8450 -0.3492
 8284SOL     OW36313   0.859   1.929  16.036  0.1150  0.2519  0.4879
 8284SOL    HW136314   0.939   1.879  16.052  0.3258  0.5824  0.4684
 8284SOL    HW236315   0.821   1.935  16.123 -1.5296  1.8568 -0.3293
 8285SOL     OW36316   4.355   3.948  16.151 -0.2269 -0.3794  0.0541
 8285SOL    HW136317   4.310   4.025  16.186  1.3776 -0.1923  1.7245
 8285SOL    HW236318   4.435   3.951  16.204 -0.4955  0.4097  0.4215
 8286SOL     OW36319   1.221   3.227   8.010 -0.6839  0.3661  0.3411
 8286SOL    HW136320   1.262   3.278   7.940  1.0548 -1.5601 -0.0634
 8286SOL    HW236321   1.171   3.291   8.060 -1.3402  0.1040  0.0194
 8287SOL     OW36322   3.601   0.376   5.038 -0.0453 -0.6255 -0.5562
 8287SOL    HW136323   3.553   0.372   4.955 -1.5122 -1.2718  0.3249
 8287SOL    HW236324   3.645   0.292   5.038  2.8823  0.8891  0.8325
 8288SOL     OW36325   2.025   0.705   6.428  0.0229 -1.0960  0.2815
 8288SOL    HW136326   1.999   0.683   6.338  0.9446 -0.4745 -0.1456
 8288SOL    HW236327   2.120   0.705   6.418  0.1052 -0.0496  1.1101
 8289SOL     OW36328   3.046   3.550   4.940  0.1660  0.3168  0.1718
 8289SOL    HW136329   3.073   3.536   4.849 -0.9531  2.1945 -0.4503
 8289SOL    HW236330   2.985   3.624   4.933  0.7852  0.8800  0.7228
 8290SOL     OW36331   2.225   2.455  12.412  0.4190 -0.2535 -0.6690
 8290SOL    HW136332   2.248   2.425  12.324  0.4890  0.4781 -0.8959
 8290SOL    HW236333   2.280   2.532  12.427  1.7715 -1.1560 -1.0062
 8291SOL     OW36334   2.806   1.274   0.706 -0.2173 -0.3001 -0.2103
 8291SOL    HW136335   2.837   1.359   0.739  2.1938 -1.2741  0.0046
 8291SOL    HW236336   2.769   1.240   0.787  0.3690  0.0092  0.1929
 8292SOL     OW36337   3.974   2.656   9.156 -0.1373 -0.1779  0.1179
 8292SOL    HW136338   3.900   2.631   9.099  1.2745 -0.5500 -1.5445
 8292SOL    HW236339   3.971   2.752   9.150  0.8110 -0.0992  1.0193
 8293SOL     OW36340   3.439   1.245   5.912  0.1223 -0.0535  0.1977
 8293SOL    HW136341   3.442   1.185   5.837 -1.5502 -1.9234  1.6191
 8293SOL    HW236342   3.528   1.279   5.920  0.9829 -2.1216 -0.5802
 8294SOL     OW36343   3.858   0.742   6.569 -0.5559  0.6275 -0.2042
 8294SOL    HW136344   3.900   0.721   6.486 -0.9568  0.6314 -0.4074
 8294SOL    HW236345   3.846   0.657   6.611  0.1079 -0.2164 -1.7448
 8295SOL     OW36346   2.793   2.312   2.124 -0.0306  0.3827  0.1687
 8295SOL    HW136347   2.852   2.299   2.050 -2.3526  0.4538 -1.7172
 8295SOL    HW236348   2.712   2.276   2.087  0.8424  0.1036 -1.4736
 8296SOL     OW36349   0.810   3.028   8.561  0.5626 -0.0878  0.0592
 8296SOL    HW136350   0.739   3.017   8.624  0.9974  1.8970  0.9110
 8296SOL    HW236351   0.795   2.960   8.495  2.0033 -1.4828  1.1727
 8297SOL     OW36352   2.527   2.863  14.772  0.0078 -0.0059 -0.0048
 8297SOL    HW136353   2.444   2.911  14.773  1.4588  2.4528  2.0450
 8297SOL    HW236354   2.583   2.913  14.712  0.6521 -0.5069  0.1762
 8298SOL     OW36355   4.142   2.132   1.684  0.1401 -0.8166  0.0373
 8298SOL    HW136356   4.179   2.044   1.697  2.7605  0.5641  1.7288
 8298SOL    HW236357   4.211   2.176   1.636  1.5832 -1.6291  1.3821
 8299SOL     OW36358   0.870   4.371   2.196 -0.2449  0.0448  0.0520
 8299SOL    HW136359   0.869   4.392   2.289 -1.7541 -0.4472  0.1418
 8299SOL    HW236360   0.792   4.401   2.150 -1.0486  0.1790  1.5178
 8300SOL     OW36361   4.639   2.579   2.812  0.1615 -0.1791  0.0796
 8300SOL    HW136362   4.689   2.567   2.731  0.1579 -0.4765  0.1220
 8300SOL    HW236363   4.632   2.674   2.807 -1.0341 -0.2538  0.3712
 8301SOL     OW36364   3.262   0.514   3.224 -0.0990 -0.2428  0.3470
 8301SOL    HW136365   3.352   0.546   3.228  0.6091 -2.1492 -0.0750
 8301SOL    HW236366   3.213   0.572   3.281  0.2048 -0.7753  1.1494
 8302SOL     OW36367   1.473   1.999   3.458 -0.9274  0.2868  0.7468
 8302SOL    HW136368   1.527   1.955   3.392 -0.3575 -0.3442  1.6204
 8302SOL    HW236369   1.478   2.089   3.426  0.9658 -0.0272  0.2050
 8303SOL     OW36370   4.234   4.132   2.678  0.5341  0.8217  0.3294
 8303SOL    HW136371   4.211   4.050   2.722  1.9355  0.0503 -0.4037
 8303SOL    HW236372   4.153   4.183   2.682  0.6901  0.8996  2.5320
 8304SOL     OW36373   0.675   2.473  16.627 -0.1171 -0.2602  0.0928
 8304SOL    HW136374   0.706   2.474  16.537 -1.3587  1.8772 -0.3232
 8304SOL    HW236375   0.724   2.550  16.657 -1.4672  1.3822 -1.9113
 8305SOL     OW36376   1.975   3.033   4.846  0.1928  0.2239 -0.7920
 8305SOL    HW136377   2.005   3.008   4.934  0.6246  0.1782 -0.9504
 8305SOL    HW236378   2.047   3.005   4.789  0.5795  1.9605 -1.1552
 8306SOL     OW36379   1.537   4.089   5.367 -0.3035  0.0641 -0.0936
 8306SOL    HW136380   1.558   4.169   5.415 -2.9824 -0.0692  1.2759
 8306SOL    HW236381   1.553   4.024   5.435 -1.4867  1.1634  1.2310
 8307SOL     OW36382   0.730   0.414  13.502  0.1574 -0.3267  0.1088
 8307SOL    HW136383   0.656   0.475  13.504  1.6856  1.5704 -0.7085
 8307SOL    HW236384   0.806   0.472  13.507  0.4945 -0.6986 -0.7483
 8308SOL     OW36385   1.915   3.744   2.276  0.2141  0.1106  0.0288
 8308SOL    HW136386   1.848   3.804   2.242 -0.7112 -0.3872  0.9558
 8308SOL    HW236387   1.892   3.657   2.243 -0.4077 -0.2049  1.3129
 8309SOL     OW36388   0.757   2.991  13.457 -0.6832 -0.0687  0.4700
 8309SOL    HW136389   0.728   2.940  13.532 -3.7201  0.2569 -0.4732
 8309SOL    HW236390   0.722   3.075  13.488  1.8451  2.6942 -4.0986
 8310SOL     OW36391   1.230   3.433   5.315 -0.1627 -0.4613 -0.4973
 8310SOL    HW136392   1.182   3.368   5.366  1.8109 -0.5979  1.1778
 8310SOL    HW236393   1.309   3.379   5.312 -1.2049 -2.0130 -0.0124
 8311SOL     OW36394   0.241   0.079  11.501 -0.1013 -0.0807 -0.1463
 8311SOL    HW136395   0.203   0.158  11.540  0.9346 -0.1165  0.9390
 8311SOL    HW236396   0.324   0.109  11.463  1.3694 -1.4607  2.0195
 8312SOL     OW36397   3.478   2.880   0.314  0.1538  0.7238 -0.2363
 8312SOL    HW136398   3.558   2.895   0.365 -0.3905 -0.8409  1.0859
 8312SOL    HW236399   3.508   2.865   0.225 -2.8941  1.0236 -1.3114
 8313SOL     OW36400   2.077   2.104   2.473 -0.3895  0.2456  0.1143
 8313SOL    HW136401   2.001   2.146   2.432 -1.2026 -1.7395 -0.4081
 8313SOL    HW236402   2.038   2.078   2.557 -0.4172 -1.1604 -0.3438
 8314SOL     OW36403   1.314   2.611   5.602  0.2345 -0.1396  0.0750
 8314SOL    HW136404   1.263   2.583   5.526 -0.5725  1.0867  0.1798
 8314SOL    HW236405   1.258   2.681   5.633  0.4882  0.8907 -1.7613
 8315SOL     OW36406   4.182   4.186  17.037 -0.1404 -0.3927 -0.3038
 8315SOL    HW136407   4.205   4.093  17.031  2.3662  0.2985 -1.4466
 8315SOL    HW236408   4.236   4.219  17.108 -0.2433 -0.3801 -0.2318
 8316SOL     OW36409   4.414   3.872   5.331  0.5529 -0.0162 -0.0255
 8316SOL    HW136410   4.502   3.869   5.370 -0.5313  0.1326  2.4482
 8316SOL    HW236411   4.374   3.787   5.350  1.7035 -0.9352 -1.7801
 8317SOL     OW36412   3.587   0.271   0.208 -0.0583  0.4732 -0.4571
 8317SOL    HW136413   3.575   0.276   0.303  0.2481  1.1755 -0.4611
 8317SOL    HW236414   3.683   0.271   0.211 -0.1509 -0.7786  4.1165
 8318SOL     OW36415   0.215   0.818   3.298  0.2368  0.3703  0.7126
 8318SOL    HW136416   0.293   0.763   3.298  0.2327  0.3592 -0.5376
 8318SOL    HW236417   0.188   0.803   3.207 -2.0997 -0.6328  1.5852
 8319SOL     OW36418   0.396   3.651  11.424  0.2234 -0.9335  0.1396
 8319SOL    HW136419   0.302   3.667  11.412  0.2841 -1.2617 -0.7881
 8319SOL    HW236420   0.420   3.622  11.336  2.2928 -1.3819  0.8662
 8320SOL     OW36421   2.251   0.794  10.733  0.5553  0.2060  0.1199
 8320SOL    HW136422   2.298   0.828  10.808  1.1508  0.3586 -0.3252
 8320SOL    HW236423   2.218   0.874  10.693  2.1426  0.8251  0.0642
 8321SOL     OW36424   3.628   3.316  16.665 -0.1410  0.6672  0.9309
 8321SOL    HW136425   3.553   3.306  16.606  0.3503 -0.5113  0.5291
 8321SOL    HW236426   3.631   3.228  16.702  0.4705  0.4050  0.2567
 8322SOL     OW36427   3.488   3.294   2.002  0.2761 -0.2234 -0.5891
 8322SOL    HW136428   3.436   3.364   1.961  1.4345  1.1615  0.3170
 8322SOL    HW236429   3.574   3.336   2.011  0.0997  0.3630 -1.5269
 8323SOL     OW36430   1.350   2.681   6.854  0.6861  0.5012  0.0538
 8323SOL    HW136431   1.308   2.751   6.803  0.1330  0.6050  0.6544
 8323SOL    HW236432   1.370   2.728   6.935  0.4479  0.5974  0.0565
 8324SOL     OW36433   4.518   3.558   3.770 -0.4436 -1.0416  0.2610
 8324SOL    HW136434   4.505   3.622   3.700  0.3044 -1.5754 -0.3670
 8324SOL    HW236435   4.534   3.486   3.709  0.3811  0.4380 -1.2851
 8325SOL     OW36436   4.453   1.561  11.380  0.1515 -0.9764 -0.5894
 8325SOL    HW136437   4.442   1.511  11.299 -0.0740 -1.3671 -0.3184
 8325SOL    HW236438   4.499   1.635  11.340  0.5938 -0.7936  0.2613
 8326SOL     OW36439   2.710   1.627  13.694  0.4431  0.0616  0.1551
 8326SOL    HW136440   2.786   1.632  13.752 -0.5401  0.6486  1.3885
 8326SOL    HW236441   2.645   1.597  13.757 -1.8333  0.8996 -1.8230
 8327SOL     OW36442   2.574   3.464   2.133 -0.2984 -0.3581 -0.3842
 8327SOL    HW136443   2.632   3.534   2.162 -0.5825  0.7777 -2.5468
 8327SOL    HW236444   2.492   3.512   2.120 -0.2009 -0.1042 -0.0629
 8328SOL     OW36445   1.514   4.306   7.336  0.3368 -0.0230  0.4388
 8328SOL    HW136446   1.542   4.215   7.336  0.2452 -0.0557  1.0246
 8328SOL    HW236447   1.425   4.303   7.373  1.0439 -2.7553  1.9458
 8329SOL     OW36448   0.417   1.707   6.694 -0.0371  0.3122 -0.9466
 8329SOL    HW136449   0.350   1.729   6.759 -0.4568 -2.1127 -0.5768
 8329SOL    HW236450   0.368   1.708   6.611 -1.4756  1.1872 -0.0922
 8330SOL     OW36451   4.328   3.505  10.139 -0.0186 -0.4743 -0.2610
 8330SOL    HW136452   4.327   3.518  10.044  0.2475  0.0179 -0.1979
 8330SOL    HW236453   4.290   3.587  10.167  2.3069  0.5525 -0.0851
 8331SOL     OW36454   1.708   3.132   8.195 -0.6232 -0.4365  0.2164
 8331SOL    HW136455   1.720   3.123   8.290  1.7186  1.9813  0.1413
 8331SOL    HW236456   1.681   3.224   8.196 -0.8978 -0.4963 -1.6832
 8332SOL     OW36457   1.610   2.605   4.383 -0.3357  0.1210  0.5744
 8332SOL    HW136458   1.687   2.619   4.438 -0.5753  1.1228  0.6625
 8332SOL    HW236459   1.603   2.685   4.331 -1.4128 -1.5225 -1.8396
 8333SOL     OW36460   4.205   1.910  16.959  0.2238 -0.5199  0.1694
 8333SOL    HW136461   4.212   1.850  16.885 -0.6513 -1.2971  0.7200
 8333SOL    HW236462   4.110   1.919  16.958  0.4011  1.3508 -0.7902
 8334SOL     OW36463   1.562   1.116  10.611 -0.3425 -0.6718  0.2440
 8334SOL    HW136464   1.512   1.197  10.602 -1.1042 -1.3869 -1.9876
 8334SOL    HW236465   1.633   1.155  10.661 -1.1162  0.2433  0.6265
 8335SOL     OW36466   3.529   0.275   0.473  0.2152  0.1857 -0.2740
 8335SOL    HW136467   3.483   0.193   0.492  1.6941 -0.4001  0.7910
 8335SOL    HW236468   3.475   0.326   0.532 -1.2114 -1.6069 -0.0167
 8336SOL     OW36469   3.774   4.525   7.221  0.3085 -0.4129 -0.0466
 8336SOL    HW136470   3.856   4.547   7.178 -1.9874  2.7018 -2.8293
 8336SOL    HW236471   3.748   4.600   7.273 -0.9492 -0.2492 -0.9197
 8337SOL     OW36472   2.842   1.114   7.294  0.6376 -0.1771  0.9945
 8337SOL    HW136473   2.877   1.108   7.205  0.3685 -0.2421  0.8931
 8337SOL    HW236474   2.867   1.030   7.330  0.7390 -0.5926 -0.0511
 8338SOL     OW36475   1.390   2.880   9.184 -0.2501 -0.4656  0.0889
 8338SOL    HW136476   1.415   2.866   9.093 -0.3461 -3.0735  0.4626
 8338SOL    HW236477   1.357   2.969   9.175  1.0524  0.1166  1.1106
 8339SOL     OW36478   4.438   2.061   2.436  0.7498  0.0796 -1.1092
 8339SOL    HW136479   4.460   2.154   2.435  2.8163 -0.3605  1.1386
 8339SOL    HW236480   4.504   2.026   2.377  1.3258  0.4540 -0.6950
 8340SOL     OW36481   1.430   3.097   0.978  0.4458  0.0413  0.4726
 8340SOL    HW136482   1.452   3.190   0.984 -1.6790  0.5234  0.8647
 8340SOL    HW236483   1.433   3.088   0.883  1.0306  1.9079  0.3164
 8341SOL     OW36484   3.168   2.080   2.923 -0.1110 -0.5036  0.2265
 8341SOL    HW136485   3.133   2.149   2.979 -3.5390 -1.4436 -0.7692
 8341SOL    HW236486   3.087   2.047   2.884  0.1593 -0.2306 -0.5688
 8342SOL     OW36487   1.335   0.218   6.158 -0.0858 -0.2102  0.0805
 8342SOL    HW136488   1.326   0.166   6.078  0.1794  1.5880 -1.1203
 8342SOL    HW236489   1.425   0.251   6.159  1.0434 -3.2545 -1.1857
 8343SOL     OW36490   1.364   4.483   2.348 -0.3275 -0.0615  0.5786
 8343SOL    HW136491   1.302   4.466   2.420 -0.4709  1.4609  0.8292
 8343SOL    HW236492   1.352   4.578   2.346 -1.5027 -0.2287 -0.4949
 8344SOL     OW36493   4.259   0.567  16.641 -0.2188 -0.0383 -0.8188
 8344SOL    HW136494   4.294   0.524  16.718 -0.5884  3.7008  1.4510
 8344SOL    HW236495   4.166   0.543  16.648  0.0889 -0.4085  1.7968
 8345SOL     OW36496   3.112   2.688   7.450  0.1186  0.1638 -0.3349
 8345SOL    HW136497   3.109   2.644   7.366 -1.4064  0.6389 -0.5336
 8345SOL    HW236498   3.151   2.622   7.507 -3.3987 -1.7292 -0.1537
 8346SOL     OW36499   3.852   0.581   2.321  0.9759 -0.7881  0.0896
 8346SOL    HW136500   3.824   0.597   2.411 -0.3726  1.0613 -0.6884
 8346SOL    HW236501   3.928   0.639   2.327  0.3279 -0.1727  2.3936
 8347SOL     OW36502   3.091   4.635   6.181 -0.2306 -0.4579  0.1636
 8347SOL    HW136503   3.054   4.704   6.236 -0.8475  0.7415 -1.7704
 8347SOL    HW236504   3.125   4.584   6.254  1.6565  3.1601  1.8588
 8348SOL     OW36505   2.111   0.166   2.708 -0.3768 -0.6480  0.2460
 8348SOL    HW136506   2.068   0.237   2.756 -1.2319 -0.9030 -0.1471
 8348SOL    HW236507   2.052   0.093   2.724 -0.5158 -1.3004 -3.3621
 8349SOL     OW36508   4.068   0.546   8.635  0.1112  0.0760 -0.1371
 8349SOL    HW136509   4.117   0.616   8.592  0.8310  0.3490  1.1315
 8349SOL    HW236510   3.991   0.535   8.580  1.4930 -2.2333 -1.6172
 8350SOL     OW36511   0.629   3.465  12.227 -0.0581  0.1978 -0.6598
 8350SOL    HW136512   0.697   3.505  12.173 -0.6398  1.4491 -0.4737
 8350SOL    HW236513   0.617   3.531  12.295  1.7432 -0.4984  0.3133
 8351SOL     OW36514   0.130   1.196   0.630 -0.7889 -0.1533  0.5930
 8351SOL    HW136515   0.162   1.174   0.543  1.4587  3.2222  0.5401
 8351SOL    HW236516   0.052   1.242   0.599 -0.6931 -2.1447 -2.5987
 8352SOL     OW36517   2.345   4.572   8.562  0.5011 -0.4144  0.0310
 8352SOL    HW136518   2.382   4.493   8.601  1.4746  0.3902  0.7352
 8352SOL    HW236519   2.390   4.634   8.619 -1.0831 -0.6551  1.5399
 8353SOL     OW36520   3.862   3.332   6.260  0.3273  0.2485 -0.1012
 8353SOL    HW136521   3.791   3.328   6.197 -0.5010  0.5107  0.8247
 8353SOL    HW236522   3.906   3.414   6.238 -2.6526  1.2601 -2.1330
 8354SOL     OW36523   1.584   3.761   3.606  0.5813  0.7122 -0.1176
 8354SOL    HW136524   1.524   3.835   3.614 -1.6144 -0.8061 -2.4174
 8354SOL    HW236525   1.610   3.777   3.515 -3.2030  0.8372 -1.1888
 8355SOL     OW36526   4.528   3.298   4.412  0.2498 -0.6082 -0.0134
 8355SOL    HW136527   4.594   3.239   4.448 -1.5309 -3.2655 -1.0130
 8355SOL    HW236528   4.489   3.245   4.342  2.2469  0.8277 -2.1802
 8356SOL     OW36529   0.729   3.104   8.210 -0.1183 -0.4531  0.0507
 8356SOL    HW136530   0.765   3.193   8.216  1.7688 -1.2275  0.1202
 8356SOL    HW236531   0.642   3.136   8.232 -0.3134  0.3500 -1.8718
 8357SOL     OW36532   1.392   1.896   4.623 -0.0366 -0.3749 -0.4043
 8357SOL    HW136533   1.475   1.869   4.582  0.8663  1.7612  0.0395
 8357SOL    HW236534   1.341   1.817   4.602  0.8484 -0.6177 -1.6164
 8358SOL     OW36535   1.719   1.601   5.093 -0.8289 -0.0032 -0.4544
 8358SOL    HW136536   1.797   1.648   5.123 -0.2355 -1.5880  0.4996
 8358SOL    HW236537   1.750   1.511   5.098 -0.9022 -0.0192 -0.2527
 8359SOL     OW36538   0.396   2.776   4.085 -0.3509  0.0012 -0.0114
 8359SOL    HW136539   0.313   2.762   4.131  0.7804  1.4448  2.4552
 8359SOL    HW236540   0.370   2.790   3.994 -0.8850 -1.1912 -0.0501
 8360SOL     OW36541   3.503   2.610   6.957  0.3599  0.5138  0.1728
 8360SOL    HW136542   3.456   2.674   6.904 -0.2802 -0.7513 -0.7828
 8360SOL    HW236543   3.535   2.659   7.033  0.0492 -1.4013  1.5552
 8361SOL     OW36544   3.200   3.106   7.368 -0.1242  0.3611 -0.0656
 8361SOL    HW136545   3.251   3.186   7.378  2.1918 -1.1163 -0.2257
 8361SOL    HW236546   3.222   3.058   7.448 -3.0488 -2.8560 -1.1722
 8362SOL     OW36547   0.919   3.460  17.067  0.2350 -0.8132 -0.2263
 8362SOL    HW136548   0.894   3.458  16.974  1.9923  0.1247 -0.7247
 8362SOL    HW236549   1.000   3.410  17.057  0.6195 -0.1085 -0.6362
 8363SOL     OW36550   0.527   2.677   3.567  0.1764  0.4251  0.2603
 8363SOL    HW136551   0.578   2.709   3.492  0.5878  1.5083  0.9945
 8363SOL    HW236552   0.552   2.585   3.580  0.3702  0.5226  0.5917
 8364SOL     OW36553   4.702   1.957  12.367  0.3822 -0.3073 -0.1383
 8364SOL    HW136554   0.028   1.983  12.449  2.9783 -0.1186 -1.5880
 8364SOL    HW236555   4.669   1.869  12.382  0.4928 -0.6825 -2.1937
 8365SOL     OW36556   3.119   4.158   0.281 -0.5189  0.1332 -0.0310
 8365SOL    HW136557   3.192   4.147   0.220  0.9076 -1.8204  2.0423
 8365SOL    HW236558   3.051   4.107   0.238 -0.9196 -0.3974  1.2255
 8366SOL     OW36559   1.044   3.496   3.620  0.5137 -0.5471  0.0785
 8366SOL    HW136560   1.085   3.483   3.534  1.2301  0.9142  0.2008
 8366SOL    HW236561   0.953   3.482   3.594  0.6976 -1.2769 -0.1695
 8367SOL     OW36562   3.726   0.491  13.024 -0.3301  0.4701 -0.8965
 8367SOL    HW136563   3.775   0.411  13.043  1.9067  2.0987  0.2212
 8367SOL    HW236564   3.709   0.487  12.930  0.7112 -0.1836 -1.0505
 8368SOL     OW36565   1.979   3.441  15.662  0.6200  0.1001 -0.8535
 8368SOL    HW136566   1.997   3.350  15.637 -1.0448 -0.7100  0.8917
 8368SOL    HW236567   2.056   3.485  15.627 -0.1628  1.5207 -0.7881
 8369SOL     OW36568   1.892   4.494   3.859 -0.1592  0.0308 -0.9447
 8369SOL    HW136569   1.970   4.546   3.839 -0.6936  1.2543  0.1881
 8369SOL    HW236570   1.827   4.555   3.825 -0.1070 -0.0667 -1.2176
 8370SOL     OW36571   2.487   1.275  16.258 -0.1111 -0.3013  0.2351
 8370SOL    HW136572   2.439   1.240  16.333 -1.3524  1.7158  0.3845
 8370SOL    HW236573   2.563   1.316  16.300  0.5016 -1.8707  0.6303
 8371SOL     OW36574   4.029   2.662   8.497 -0.0428  0.3557  0.3819
 8371SOL    HW136575   4.077   2.715   8.561  1.2582 -0.6524  0.2304
 8371SOL    HW236576   3.943   2.703   8.505  0.3770  2.3225 -5.0995
 8372SOL     OW36577   3.771   1.736   8.912  0.0667 -0.4377 -0.1420
 8372SOL    HW136578   3.779   1.825   8.946  0.7294 -0.1319 -1.1081
 8372SOL    HW236579   3.860   1.702   8.921 -0.4768 -2.0313 -0.8228
 8373SOL     OW36580   1.005   0.317   1.339  0.1503 -0.2880  0.2211
 8373SOL    HW136581   0.931   0.367   1.305 -0.4483 -1.2616  0.0781
 8373SOL    HW236582   1.009   0.348   1.430 -0.9101  2.1100 -0.5718
 8374SOL     OW36583   4.696   4.281   4.234  0.1071  0.3654  0.2358
 8374SOL    HW136584   4.713   4.243   4.320 -2.0783 -0.7846  0.1570
 8374SOL    HW236585   4.692   4.211   4.168  1.5183 -0.8939  1.4819
 8375SOL     OW36586   3.642   2.360  17.115  0.3064 -0.1885 -0.5703
 8375SOL    HW136587   3.635   2.336  17.208 -0.8984 -0.8024 -0.8170
 8375SOL    HW236588   3.631   2.272  17.080 -0.8590  0.6678 -2.3567
 8376SOL     OW36589   0.330   3.411  14.636 -0.0029  0.6767 -0.0235
 8376SOL    HW136590   0.353   3.329  14.681 -0.0705 -0.8494 -2.7442
 8376SOL    HW236591   0.245   3.398  14.595 -0.2968  0.1924  0.7409
 8377SOL     OW36592   3.329   4.717  10.635 -0.2608 -0.2247 -0.3893
 8377SOL    HW136593   3.377   4.644  10.596 -2.0772 -1.8145  0.3971
 8377SOL    HW236594   3.397   0.040  10.690 -0.6133  0.7701 -0.6822
 8378SOL     OW36595   1.427   0.998   4.953  0.1120  0.0546  0.8012
 8378SOL    HW136596   1.454   1.033   5.038 -1.2450  1.1680  0.7774
 8378SOL    HW236597   1.341   1.038   4.938 -0.0434 -0.0044  1.5048
 8379SOL     OW36598   3.596   1.892   6.657 -0.2983 -0.5322 -0.4899
 8379SOL    HW136599   3.609   1.985   6.680 -1.6083  0.0772 -2.1984
 8379SOL    HW236600   3.682   1.888   6.616  1.1654  0.7068  2.4229
 8380SOL     OW36601   1.019   3.215   2.295 -0.0582  0.2180  0.3532
 8380SOL    HW136602   0.964   3.158   2.349  0.6885 -0.6613  0.1859
 8380SOL    HW236603   1.104   3.182   2.323  1.3246  3.1504 -0.4381
 8381SOL     OW36604   1.544   2.514   3.217 -0.8421  0.4496 -0.1934
 8381SOL    HW136605   1.471   2.571   3.192 -0.6154  0.6619 -0.3637
 8381SOL    HW236606   1.598   2.521   3.139  1.2247 -0.6174  1.1295
 8382SOL     OW36607   4.603   2.028  11.222  0.4877 -0.2297  0.0304
 8382SOL    HW136608   4.589   2.121  11.206  0.9606  0.2970  2.6039
 8382SOL    HW236609   4.598   1.997  11.132  0.7168 -1.2828  0.3835
 8383SOL     OW36610   4.519   4.435   9.259 -0.3513  0.5045 -0.3202
 8383SOL    HW136611   4.445   4.490   9.284 -1.6623 -1.2070 -0.3874
 8383SOL    HW236612   4.576   4.501   9.219 -0.2747  1.0264  0.6514
 8384SOL     OW36613   3.212   2.931   1.309  0.0244 -0.3023  0.7898
 8384SOL    HW136614   3.292   2.961   1.353  0.7067 -0.9328 -0.0163
 8384SOL    HW236615   3.216   2.958   1.218 -0.0449  0.3913  0.9879
 8385SOL     OW36616   1.214   4.086  13.054 -0.0371  0.4529  0.2835
 8385SOL    HW136617   1.234   4.164  13.002  0.5359 -1.5919 -2.5427
 8385SOL    HW236618   1.263   4.016  13.012  0.7012  1.3798 -0.4073
 8386SOL     OW36619   2.089   0.555  11.000  0.2313  0.2916 -0.0643
 8386SOL    HW136620   2.084   0.465  10.968 -0.6889  1.4435 -3.1223
 8386SOL    HW236621   2.182   0.572  11.009  0.3371 -0.6610  0.7002
 8387SOL     OW36622   2.358   2.892  17.384  0.0432  0.3552  0.3729
 8387SOL    HW136623   2.394   2.805  17.400  0.1752  0.2135 -0.6813
 8387SOL    HW236624   2.275   2.866  17.343  0.2362 -0.5392  0.5517
 8388SOL     OW36625   1.397   0.500   3.555  0.0805  0.7242  0.5067
 8388SOL    HW136626   1.341   0.425   3.577 -0.0349  0.5305 -0.4396
 8388SOL    HW236627   1.342   0.545   3.490 -0.3959 -1.8862 -0.8990
 8389SOL     OW36628   4.643   0.347  10.159  0.1124 -0.4067 -0.2012
 8389SOL    HW136629   4.701   0.352  10.235  2.0443  1.1174 -1.7406
 8389SOL    HW236630   4.699   0.402  10.103 -2.2449  2.9383  0.7388
 8390SOL     OW36631   2.866   3.032  11.977  0.0333  0.0795 -0.0479
 8390SOL    HW136632   2.932   2.967  12.003 -0.2035 -0.5297 -0.9757
 8390SOL    HW236633   2.890   3.110  12.028  2.7443 -0.5282 -0.3810
 8391SOL     OW36634   4.648   3.314  14.204  0.1153 -0.1675  0.2047
 8391SOL    HW136635   4.576   3.340  14.147  1.4416 -1.5176 -2.1052
 8391SOL    HW236636   4.677   3.396  14.246 -0.3242  1.1319 -2.0380
 8392SOL     OW36637   4.011   4.158   8.465 -0.3188 -0.5487 -0.3892
 8392SOL    HW136638   4.096   4.183   8.501  0.6478  1.8261 -4.3018
 8392SOL    HW236639   4.014   4.063   8.452  1.6773 -0.7975  1.8974
 8393SOL     OW36640   1.591   3.764   6.574  0.1176  0.2904  0.3858
 8393SOL    HW136641   1.662   3.792   6.633 -1.5565 -1.3730  3.1397
 8393SOL    HW236642   1.532   3.718   6.633 -2.1540  1.9657 -0.5751
 8394SOL     OW36643   0.630   4.496   8.215  0.1379 -0.4008  0.3218
 8394SOL    HW136644   0.696   4.437   8.250 -0.1327 -0.2268  1.1368
 8394SOL    HW236645   0.550   4.465   8.258  0.0635  0.8150  1.0778
 8395SOL     OW36646   0.996   1.284   3.938  0.0088 -0.4122 -0.0156
 8395SOL    HW136647   0.966   1.313   3.851  0.4629 -2.5019 -0.8722
 8395SOL    HW236648   0.937   1.210   3.956 -0.3852  0.2615  1.4353
 8396SOL     OW36649   0.266   4.130   9.512 -0.6716  0.2022  0.2196
 8396SOL    HW136650   0.318   4.189   9.457  0.7761 -0.3397  0.9900
 8396SOL    HW236651   0.232   4.190   9.579 -0.0650 -0.9776  1.5868
 8397SOL     OW36652   0.549   3.802   2.094 -0.0936  0.2404  0.3803
 8397SOL    HW136653   0.599   3.865   2.042  1.3067  0.4883  2.0285
 8397SOL    HW236654   0.527   3.730   2.035 -2.0831  1.8004 -0.8002
 8398SOL     OW36655   2.223   0.433   6.226 -0.2405  0.1394 -0.0585
 8398SOL    HW136656   2.231   0.444   6.131 -0.4699 -4.8191 -0.6602
 8398SOL    HW236657   2.127   0.432   6.232 -0.2726  1.7140 -0.3850
 8399SOL     OW36658   4.507   3.196   2.209 -0.9647 -0.5551 -0.2253
 8399SOL    HW136659   4.483   3.240   2.127 -2.5424 -0.2343  0.4102
 8399SOL    HW236660   4.460   3.250   2.273  1.8309  1.1354  0.4357
 8400SOL     OW36661   0.178   4.132   2.560 -0.3684  0.0870 -0.4544
 8400SOL    HW136662   0.122   4.113   2.635 -0.0007  2.3181  0.3820
 8400SOL    HW236663   0.238   4.058   2.565 -1.5824 -0.8568  0.1767
 8401SOL     OW36664   4.077   0.977   7.602 -1.2032 -0.0778  0.7097
 8401SOL    HW136665   4.093   0.970   7.697  0.2746  0.9092  0.5321
 8401SOL    HW236666   4.022   1.055   7.594 -1.2381 -0.0659  1.0406
 8402SOL     OW36667   3.732   3.527   8.170  0.1173  0.0294 -0.0454
 8402SOL    HW136668   3.791   3.541   8.096  1.8643 -1.5927  1.0405
 8402SOL    HW236669   3.709   3.435   8.163  0.9544 -0.0290 -1.9538
 8403SOL     OW36670   3.812   3.660  15.959  0.0802  0.5811 -0.2770
 8403SOL    HW136671   3.863   3.645  16.039  0.7995 -0.2060 -0.8751
 8403SOL    HW236672   3.724   3.674  15.993 -1.2152  1.1830 -3.8494
 8404SOL     OW36673   1.149   4.075   9.284  0.2278  0.3032  0.3544
 8404SOL    HW136674   1.144   3.989   9.244 -2.1557  0.2961  0.6706
 8404SOL    HW236675   1.202   4.124   9.220  1.6851 -1.4442  0.2221
 8405SOL     OW36676   4.680   0.439   7.864  0.1699 -0.4926  0.4086
 8405SOL    HW136677   0.057   0.424   7.854  0.1024  0.3683 -1.4654
 8405SOL    HW236678   4.669   0.354   7.907 -0.1761 -0.8223 -0.3401
 8406SOL     OW36679   2.790   1.749   4.000 -0.2277 -0.1530 -0.1732
 8406SOL    HW136680   2.870   1.789   4.036 -1.3660  0.7224  1.3915
 8406SOL    HW236681   2.773   1.682   4.066  3.0915 -0.1106  0.7210
 8407SOL     OW36682   3.217   0.018  12.861 -0.4127 -0.1195  0.9287
 8407SOL    HW136683   3.147   0.064  12.908  0.5329  2.1260  0.1001
 8407SOL    HW236684   3.202   0.065  12.779  1.6208 -0.4386  0.3791
 8408SOL     OW36685   0.077   2.357   3.724 -0.0516 -0.2128  0.2171
 8408SOL    HW136686   0.082   2.426   3.658  3.1348 -0.1101  0.5914
 8408SOL    HW236687   0.064   2.280   3.668  3.5882 -2.5118  2.5682
 8409SOL     OW36688   0.862   0.564   3.206  0.6150 -0.0939 -1.1422
 8409SOL    HW136689   0.855   0.644   3.154 -2.6095  2.2440  2.7910
 8409SOL    HW236690   0.912   0.599   3.280 -2.5851  1.2484  0.3762
 8410SOL     OW36691   0.219   4.401   5.584  0.2071  0.1312  0.0001
 8410SOL    HW136692   0.272   4.321   5.584 -0.7895 -0.5296  0.0594
 8410SOL    HW236693   0.176   4.399   5.669  1.9079 -1.0797  0.8410
 8411SOL     OW36694   3.278   3.424   5.729  0.8076  0.3627 -0.2450
 8411SOL    HW136695   3.228   3.505   5.738  2.9077  1.7673 -1.0399
 8411SOL    HW236696   3.259   3.397   5.818 -0.0234  1.6771 -0.0194
 8412SOL     OW36697   2.767   1.850   4.987  0.2840  0.3716 -0.0855
 8412SOL    HW136698   2.787   1.763   4.952 -0.3303 -0.2125  1.0236
 8412SOL    HW236699   2.850   1.899   4.990  0.2515  0.1649  4.6974
 8413SOL     OW36700   1.800   0.097  13.207  0.6391  0.1734  0.0486
 8413SOL    HW136701   1.885   0.090  13.251 -0.2640 -2.1282  1.3983
 8413SOL    HW236702   1.775   0.188  13.222  1.5336  0.4508 -0.1044
 8414SOL     OW36703   1.448   3.194  14.475 -0.5410  0.4972 -0.1577
 8414SOL    HW136704   1.358   3.193  14.506 -1.3666  0.0114 -2.6299
 8414SOL    HW236705   1.445   3.244  14.393 -1.8913  0.3445 -0.2011
 8415SOL     OW36706   0.330   1.557   8.078 -0.2883 -0.4110  0.4906
 8415SOL    HW136707   0.242   1.530   8.050  0.3250  0.3785 -2.1163
 8415SOL    HW236708   0.324   1.650   8.100  2.0294  0.0246 -0.7767
 8416SOL     OW36709   0.809   0.769   4.326  0.0604  0.4816  0.1138
 8416SOL    HW136710   0.844   0.849   4.365 -0.6156  0.3133  1.0543
 8416SOL    HW236711   0.721   0.804   4.314  0.1165  0.6179  0.1050
 8417SOL     OW36712   3.558   0.727  11.377  0.2473  0.4624  0.0580
 8417SOL    HW136713   3.523   0.664  11.313 -0.4506  0.3441  0.5661
 8417SOL    HW236714   3.519   0.804  11.337 -1.1359 -1.7577 -2.8709
 8418SOL     OW36715   3.254   1.984   7.751  0.1271 -0.2017 -0.0308
 8418SOL    HW136716   3.209   2.064   7.724  0.0063  0.3594  1.8941
 8418SOL    HW236717   3.296   1.961   7.668 -0.0731 -0.4515 -0.0643
 8419SOL     OW36718   2.156   2.263   3.352 -0.2172  0.1433 -0.4051
 8419SOL    HW136719   2.250   2.266   3.369 -0.3490  1.3263  0.0650
 8419SOL    HW236720   2.142   2.310   3.269 -1.0860 -1.4701 -1.1740
 8420SOL     OW36721   2.637   4.467   9.479 -0.1309 -0.0064  0.1789
 8420SOL    HW136722   2.661   4.536   9.540 -0.1564  0.5459 -0.4368
 8420SOL    HW236723   2.697   4.477   9.405 -0.8090 -1.6436 -0.5896
 8421SOL     OW36724   1.764   2.868   5.863  0.2277 -0.1347 -0.4775
 8421SOL    HW136725   1.682   2.820   5.856 -1.0286  1.7285  1.3531
 8421SOL    HW236726   1.745   2.919   5.784  3.8516  1.0052 -0.6258
 8422SOL     OW36727   0.771   4.123  11.072 -0.4026 -0.1252  0.2987
 8422SOL    HW136728   0.818   4.109  10.990  1.2834 -0.0730  1.2332
 8422SOL    HW236729   0.741   4.214  11.066  1.1526  0.4488  1.1077
 8423SOL     OW36730   0.144   1.715  15.741  0.3686 -0.3633 -0.4564
 8423SOL    HW136731   0.153   1.775  15.816 -3.3276  1.5827 -1.5642
 8423SOL    HW236732   0.082   1.655  15.782  0.6074 -1.5363 -1.8141
 8424SOL     OW36733   1.856   3.450   8.491  0.1526  0.2109  0.1221
 8424SOL    HW136734   1.944   3.415   8.507  0.1771 -0.0909 -0.6810
 8424SOL    HW236735   1.877   3.534   8.449 -2.5777  0.4832 -0.7081
 8425SOL     OW36736   0.580   2.488   7.052 -0.5357  0.5056  0.4818
 8425SOL    HW136737   0.549   2.493   6.961  1.3598  0.6130 -0.1604
 8425SOL    HW236738   0.499   2.521   7.091 -1.1055  0.1500 -0.3797
 8426SOL     OW36739   0.770   2.685   9.027  0.1796 -0.2565 -0.6408
 8426SOL    HW136740   0.863   2.685   9.051 -0.8339 -0.9181  3.2455
 8426SOL    HW236741   0.760   2.599   8.988 -1.2918  1.3175 -3.7154
 8427SOL     OW36742   3.828   1.939   9.078  0.1874  0.3523 -0.3651
 8427SOL    HW136743   3.835   2.033   9.095  0.3835  0.3203 -0.2628
 8427SOL    HW236744   3.849   1.893   9.159  0.5292 -0.9028 -1.1707
 8428SOL     OW36745   4.296   1.367   1.455 -0.4879 -0.3064 -0.8341
 8428SOL    HW136746   4.381   1.409   1.441 -0.8886  0.0900 -2.0768
 8428SOL    HW236747   4.250   1.449   1.476 -0.5358 -0.2682 -1.0780
 8429SOL     OW36748   1.879   3.035   2.275 -0.0914 -0.1131  0.1510
 8429SOL    HW136749   1.901   3.074   2.191 -0.0138 -2.4345 -0.9107
 8429SOL    HW236750   1.787   3.058   2.291  0.5600  2.4025  0.1201
 8430SOL     OW36751   3.470   3.639   4.128 -0.5689 -0.8791 -0.5208
 8430SOL    HW136752   3.513   3.724   4.120 -1.1332 -0.3807  1.5625
 8430SOL    HW236753   3.446   3.619   4.038 -0.4209  4.0039 -1.6861
 8431SOL     OW36754   3.918   4.249   3.834 -0.2376 -0.6618  0.2454
 8431SOL    HW136755   3.875   4.202   3.763 -4.2195 -1.0344  2.9084
 8431SOL    HW236756   3.983   4.179   3.835 -1.1376 -1.5363 -1.1298
 8432SOL     OW36757   3.508   2.390   8.494  0.0379 -0.2752 -0.1016
 8432SOL    HW136758   3.567   2.315   8.491  0.2683 -0.0308 -1.4720
 8432SOL    HW236759   3.441   2.356   8.555  1.3869  1.0463  2.1328
 8433SOL     OW36760   0.942   0.743  15.421  0.0944 -0.2065  0.1905
 8433SOL    HW136761   0.945   0.821  15.476  0.8242  0.7116 -1.1188
 8433SOL    HW236762   0.891   0.768  15.343  1.2695  2.4024  0.2485
 8434SOL     OW36763   1.096   3.452   8.119 -0.3533  0.4284  0.1444
 8434SOL    HW136764   1.093   3.529   8.176  1.2861  0.5098  0.1249
 8434SOL    HW236765   1.013   3.407   8.134 -0.5238  0.5086 -0.5790
 8435SOL     OW36766   4.282   2.321  15.771  0.6269  0.0945  0.7151
 8435SOL    HW136767   4.375   2.340  15.756  0.4969 -0.5139 -0.8201
 8435SOL    HW236768   4.287   2.275  15.855  1.2128  1.0932  1.2295
 8436SOL     OW36769   1.598   0.179   5.837 -0.1109 -0.4952 -0.0737
 8436SOL    HW136770   1.518   0.128   5.843 -0.2981 -0.2073 -0.1171
 8436SOL    HW236771   1.596   0.228   5.919 -0.4833 -3.6207  1.7916
 8437SOL     OW36772   1.373   3.981  16.976 -0.0695 -0.4245  0.2645
 8437SOL    HW136773   1.373   3.923  17.053 -0.7309 -0.4012  0.2799
 8437SOL    HW236774   1.343   4.063  17.013 -0.2237 -0.7466  0.8469
 8438SOL     OW36775   1.898   2.569  12.607 -0.2732  0.5258  0.4983
 8438SOL    HW136776   1.911   2.547  12.699  0.6930  2.6376  0.8633
 8438SOL    HW236777   1.970   2.630  12.592  0.9799 -0.6876  1.6859
 8439SOL     OW36778   1.236   2.619   3.248 -0.0301  0.7916  0.8728
 8439SOL    HW136779   1.289   2.645   3.323  1.1867 -0.0027  0.3055
 8439SOL    HW236780   1.153   2.627   3.295 -0.2366 -2.0148  1.0255
 8440SOL     OW36781   0.286   2.581   5.159  0.2214 -0.5797 -0.2490
 8440SOL    HW136782   0.285   2.676   5.171 -2.7525 -0.5815 -0.3062
 8440SOL    HW236783   0.191   2.568   5.157  0.0987  0.3152 -0.5023
 8441SOL     OW36784   2.565   3.370   0.364 -0.0036  0.5121 -0.0774
 8441SOL    HW136785   2.621   3.292   0.363 -1.4002 -0.5063  0.9465
 8441SOL    HW236786   2.496   3.348   0.427  0.4763 -3.0629 -0.7728
 8442SOL     OW36787   1.507   2.506   9.040  0.5583 -0.2749 -0.8016
 8442SOL    HW136788   1.537   2.442   9.104  1.7417  0.1993 -0.8765
 8442SOL    HW236789   1.441   2.462   8.987 -1.0756  1.1898  0.0266
 8443SOL     OW36790   1.207   4.101   2.307  0.5236 -0.0088 -0.3801
 8443SOL    HW136791   1.191   4.023   2.359 -0.3469  1.0113  0.8834
 8443SOL    HW236792   1.146   4.094   2.233 -0.1482 -0.7270  0.2412
 8444SOL     OW36793   0.498   2.258   6.364  0.2073 -0.2679  0.2397
 8444SOL    HW136794   0.584   2.267   6.405  0.0733 -0.2272  0.5126
 8444SOL    HW236795   0.499   2.167   6.334 -2.1825  0.1249 -1.0652
 8445SOL     OW36796   2.247   3.902  10.267  0.0438 -0.3964 -0.6955
 8445SOL    HW136797   2.266   3.852  10.347  0.1442 -0.4289 -0.7396
 8445SOL    HW236798   2.156   3.929  10.282  0.2391  0.0060 -0.2314
 8446SOL     OW36799   2.154   1.189   2.547  0.4467 -0.2642 -0.2322
 8446SOL    HW136800   2.121   1.155   2.463 -1.2695 -0.3677  0.4931
 8446SOL    HW236801   2.227   1.131   2.568 -0.1461 -0.8704  0.1550
 8447SOL     OW36802   0.368   3.617   1.057 -0.1036 -0.6742  0.7247
 8447SOL    HW136803   0.425   3.645   1.129 -0.8506 -1.4657  1.6231
 8447SOL    HW236804   0.415   3.540   1.027 -0.6178  0.2797 -2.4808
 8448SOL     OW36805   4.191   1.799  17.420  0.3102 -0.1643  0.1015
 8448SOL    HW136806   4.131   1.783  17.348  1.2893 -2.4913 -0.1915
 8448SOL    HW236807   4.192   1.894  17.432  2.8771 -0.4702  2.3990
 8449SOL     OW36808   3.833   1.321   5.962  0.2748 -0.0987  0.2798
 8449SOL    HW136809   3.831   1.240   5.911 -3.4933  0.4563 -0.4539
 8449SOL    HW236810   3.763   1.307   6.026 -0.0833  0.2153 -0.0417
 8450SOL     OW36811   0.343   4.663   6.093  0.1940 -0.6017  0.1810
 8450SOL    HW136812   0.320   4.657   6.000 -1.1314  0.7038  0.4236
 8450SOL    HW236813   0.276   4.616   6.142 -2.7601  1.9657 -1.3657
 8451SOL     OW36814   0.474   2.906  13.256 -0.0536  0.1556  0.6319
 8451SOL    HW136815   0.387   2.920  13.292  0.2410 -0.2835  1.5135
 8451SOL    HW236816   0.463   2.813  13.234  1.2398  0.0107  0.5965
 8452SOL     OW36817   2.838   1.204   6.166 -0.0571  0.4730 -0.0754
 8452SOL    HW136818   2.753   1.212   6.124 -0.6507  0.6313  1.1349
 8452SOL    HW236819   2.894   1.259   6.112  2.3215  0.4171  2.3097
 8453SOL     OW36820   1.076   4.036   5.063 -0.5630  0.1197  0.4551
 8453SOL    HW136821   1.166   4.064   5.081  0.3318 -0.6559 -2.8081
 8453SOL    HW236822   1.021   4.104   5.101 -0.9711 -0.1852  0.4079
 8454SOL     OW36823   3.614   4.459   6.388  0.4428 -0.0405  0.0171
 8454SOL    HW136824   3.638   4.542   6.430  0.0302  0.3363 -0.4887
 8454SOL    HW236825   3.521   4.475   6.372  0.9266 -0.5859 -3.4098
 8455SOL     OW36826   1.274   2.319   4.890  0.2720 -0.0735  0.4382
 8455SOL    HW136827   1.255   2.301   4.798  0.7051  0.2562  0.2822
 8455SOL    HW236828   1.336   2.392   4.882  0.5867 -0.3654  0.2326
 8456SOL     OW36829   1.589   4.357   4.336 -0.4792  0.3093  0.4053
 8456SOL    HW136830   1.651   4.393   4.399 -0.3390  1.6225 -0.4948
 8456SOL    HW236831   1.648   4.324   4.268 -2.6204  0.6129 -1.5971
 8457SOL     OW36832   3.753   0.281   8.928 -0.8792 -0.0921  0.8453
 8457SOL    HW136833   3.792   0.274   9.015  1.4383  1.2789 -0.0711
 8457SOL    HW236834   3.820   0.318   8.871 -2.7811  1.3489 -0.4818
 8458SOL     OW36835   4.652   3.367   3.187 -0.5690 -0.0020 -0.0298
 8458SOL    HW136836   4.650   3.303   3.259 -0.6320 -1.1052 -1.0173
 8458SOL    HW236837   4.642   3.305   3.114  1.4837 -0.9026  0.4428
 8459SOL     OW36838   3.838   3.635   4.195 -0.5571  0.0230 -0.2391
 8459SOL    HW136839   3.890   3.708   4.228 -0.5258 -0.2914  0.3915
 8459SOL    HW236840   3.908   3.602   4.138 -1.0635  0.8882 -1.3760
 8460SOL     OW36841   0.876   1.910  17.579 -0.0045  0.3195 -0.0841
 8460SOL    HW136842   0.828   1.938  17.657 -0.6720 -3.6962  0.9471
 8460SOL    HW236843   0.854   1.972  17.510  0.4345 -0.7640 -1.2064
 8461SOL     OW36844   0.738   1.661  16.797  0.1935  0.1920 -1.1042
 8461SOL    HW136845   0.777   1.745  16.771  1.4015 -0.4075 -1.2737
 8461SOL    HW236846   0.653   1.656  16.753 -1.2441  1.0167  1.5982
 8462SOL     OW36847   0.282   3.443   5.969 -0.1458 -0.6228 -0.2589
 8462SOL    HW136848   0.357   3.385   5.985 -1.2908 -1.4921  1.9594
 8462SOL    HW236849   0.336   3.522   5.961  2.8272 -2.5647  0.5484
 8463SOL     OW36850   0.642   3.888   4.668  0.0170 -0.2946  0.0459
 8463SOL    HW136851   0.697   3.826   4.621  0.2862  2.4857 -3.2775
 8463SOL    HW236852   0.638   3.958   4.603  0.1874  1.9256  2.4137
 8464SOL     OW36853   1.899   3.773   1.843  0.2216 -0.3707 -0.6121
 8464SOL    HW136854   1.966   3.826   1.800  1.3357 -0.2098  1.2691
 8464SOL    HW236855   1.872   3.722   1.767  0.4339  0.2812 -1.1254
 8465SOL     OW36856   4.425   2.994  16.966 -0.2937  0.6083  0.1976
 8465SOL    HW136857   4.364   2.964  16.899  0.3959  1.0435 -0.6232
 8465SOL    HW236858   4.495   2.930  16.954 -0.7469  0.2371 -0.4469
 8466SOL     OW36859   2.951   0.318   3.836 -0.6672 -0.4075  0.0517
 8466SOL    HW136860   2.865   0.330   3.797 -0.9726  3.4518  1.9448
 8466SOL    HW236861   3.006   0.275   3.770  1.3083  0.9553  0.7826
 8467SOL     OW36862   1.130   4.613   3.999 -0.4613  0.2628  0.1702
 8467SOL    HW136863   1.095   4.547   4.060  0.5389 -1.9706 -1.6547
 8467SOL    HW236864   1.208   4.641   4.047 -0.1893  1.8335 -1.2055
 8468SOL     OW36865   3.705   4.487   9.462  0.0989  0.0498  0.8174
 8468SOL    HW136866   3.669   4.494   9.550 -1.2538 -0.7032  0.3350
 8468SOL    HW236867   3.798   4.483   9.485  0.2641  0.4708  0.2419
 8469SOL     OW36868   2.735   2.876  13.777  0.2452  0.1839  0.6888
 8469SOL    HW136869   2.720   2.860  13.870  0.6468  2.1581  1.0879
 8469SOL    HW236870   2.826   2.845  13.777  0.1367 -0.1394  1.3744
 8470SOL     OW36871   3.712   0.271   3.483  0.1513 -0.0610  0.4394
 8470SOL    HW136872   3.757   0.186   3.488  0.0205 -0.1271  0.4927
 8470SOL    HW236873   3.667   0.270   3.399  0.1372 -0.2938  0.4493
 8471SOL     OW36874   3.361   4.393   5.574 -0.4453 -0.6172 -0.2968
 8471SOL    HW136875   3.265   4.397   5.581 -0.3746 -0.3799  0.4993
 8471SOL    HW236876   3.370   4.436   5.489 -0.3138  1.8719  1.0118
 8472SOL     OW36877   2.430   1.057   4.684  0.5292 -0.4690  0.0204
 8472SOL    HW136878   2.525   1.060   4.694  0.3384  0.8700  1.3712
 8472SOL    HW236879   2.405   1.027   4.772  2.1317  1.0446  0.9922
 8473SOL     OW36880   4.313   3.885  15.124 -0.4769  0.4434 -0.2936
 8473SOL    HW136881   4.395   3.843  15.148 -2.1821 -1.9535  1.3474
 8473SOL    HW236882   4.252   3.812  15.123 -0.2379  0.2606 -1.7007
 8474SOL     OW36883   3.380   3.774   6.801 -0.3717  0.2121 -0.0398
 8474SOL    HW136884   3.355   3.865   6.816 -0.6581  0.2462 -0.6846
 8474SOL    HW236885   3.472   3.765   6.824 -0.8250 -1.6780  1.0559
 8475SOL     OW36886   1.607   4.392   1.573  0.2243  0.0654  0.2693
 8475SOL    HW136887   1.551   4.331   1.525  1.1151 -1.1570  0.7815
 8475SOL    HW236888   1.629   4.328   1.641  1.6841  0.8809  0.5538
 8476SOL     OW36889   4.713   4.467   2.885  0.2246  0.0258 -0.1144
 8476SOL    HW136890   4.651   4.447   2.815  0.0208 -0.2657  0.1512
 8476SOL    HW236891   4.649   4.464   2.955 -2.0513 -0.5097 -2.2401
 8477SOL     OW36892   0.176   2.286   8.048  0.8618  0.0177 -0.0223
 8477SOL    HW136893   0.146   2.272   8.138 -1.5815 -1.9894 -1.1967
 8477SOL    HW236894   0.139   2.371   8.024  2.1499  0.1459 -1.5377
 8478SOL     OW36895   3.612   3.596   2.979  0.4501 -0.3025 -0.2164
 8478SOL    HW136896   3.529   3.638   2.958  0.7556 -0.1038 -1.0260
 8478SOL    HW236897   3.602   3.505   2.953  0.1916 -0.0470 -1.0194
 8479SOL     OW36898   1.249   3.314  11.140  0.0526  0.3097  0.1566
 8479SOL    HW136899   1.335   3.274  11.145  0.3533  1.0370  0.7771
 8479SOL    HW236900   1.216   3.306  11.229  0.8437  0.9186  0.5074
 8480SOL     OW36901   4.204   2.369   2.611 -0.1918  0.3544 -0.3030
 8480SOL    HW136902   4.283   2.357   2.664  0.1565  0.3868 -0.8122
 8480SOL    HW236903   4.236   2.444   2.560  1.7406  0.5161  1.1153
 8481SOL     OW36904   1.949   2.133  12.644  0.0694 -0.0062  0.1576
 8481SOL    HW136905   1.964   2.206  12.584 -0.2729 -0.1031 -0.0491
 8481SOL    HW236906   1.863   2.159  12.676 -0.1836 -0.6558  0.0125
 8482SOL     OW36907   3.359   3.719   2.979 -0.6027  0.7139 -0.0243
 8482SOL    HW136908   3.311   3.800   2.964  0.1192  1.2170  0.4177
 8482SOL    HW236909   3.315   3.688   3.059  1.2509 -2.6019 -0.3013
 8483SOL     OW36910   2.128   3.932   7.117 -0.1201 -0.1512 -0.0566
 8483SOL    HW136911   2.090   4.002   7.064 -0.6106 -0.3394  0.0486
 8483SOL    HW236912   2.145   3.864   7.053 -2.1552 -0.7680  0.0708
 8484SOL     OW36913   1.049   2.903   3.740 -0.1457  0.6877 -0.3660
 8484SOL    HW136914   1.040   2.988   3.697 -0.1116  0.7482 -0.2540
 8484SOL    HW236915   1.130   2.876   3.697  0.2701  3.9225 -1.5965
 8485SOL     OW36916   2.905   2.566   0.259 -0.1303 -0.1380  0.0251
 8485SOL    HW136917   2.989   2.612   0.251 -0.2293 -0.1211 -0.9650
 8485SOL    HW236918   2.874   2.590   0.346 -0.2217  1.4459 -0.4337
 8486SOL     OW36919   3.079   1.587  12.330 -0.5066  0.5930 -0.5815
 8486SOL    HW136920   3.086   1.651  12.400 -0.3263 -0.8945  0.7675
 8486SOL    HW236921   3.032   1.636  12.263 -3.0629 -0.1695  0.6520
 8487SOL     OW36922   4.035   2.020   8.386 -0.1943 -0.0398  0.2548
 8487SOL    HW136923   4.036   2.060   8.299 -2.1905 -0.0932  0.2192
 8487SOL    HW236924   4.107   1.956   8.387 -0.0855  0.0224 -2.7046
 8488SOL     OW36925   2.458   3.094  15.037 -0.2970 -0.0421 -0.1121
 8488SOL    HW136926   2.457   3.001  15.014 -1.5658 -0.2028  0.6528
 8488SOL    HW236927   2.371   3.122  15.009  0.5440  0.3586 -2.3403
 8489SOL     OW36928   0.536   3.707   6.822 -0.5724  0.1296 -0.0400
 8489SOL    HW136929   0.512   3.616   6.843 -0.5950  0.5887  1.9114
 8489SOL    HW236930   0.489   3.753   6.891 -0.8836  0.2729 -0.3468
 8490SOL     OW36931   0.017   1.794   8.502 -0.4157 -0.0848  0.2781
 8490SOL    HW136932   0.050   1.708   8.477  0.0263  0.1843 -0.0529
 8490SOL    HW236933   0.096   1.827   8.544 -0.9698  0.4538  0.8849
 8491SOL     OW36934   3.315   2.801  10.303 -0.2165  0.3246  0.2359
 8491SOL    HW136935   3.384   2.762  10.356 -1.6823 -2.1558  0.2868
 8491SOL    HW236936   3.341   2.894  10.302 -1.2407  0.5810 -2.3105
 8492SOL     OW36937   0.876   4.117   1.431 -0.3620 -0.3415 -0.1270
 8492SOL    HW136938   0.891   4.045   1.370 -0.7091 -0.4186 -0.1199
 8492SOL    HW236939   0.881   4.185   1.364  1.2363  0.3196  0.6426
 8493SOL     OW36940   1.002   1.482   4.816 -0.0411  0.1573  0.3278
 8493SOL    HW136941   1.068   1.529   4.868 -1.1910  2.6430 -0.4569
 8493SOL    HW236942   1.004   1.399   4.863 -1.9820  0.7565  1.4397
 8494SOL     OW36943   3.701   1.940   7.938  0.3479  0.4723  0.7304
 8494SOL    HW136944   3.680   1.951   7.845 -0.4856 -0.1001  0.8521
 8494SOL    HW236945   3.787   1.899   7.932  1.7727  3.8618 -2.4812
 8495SOL     OW36946   2.125   4.176   9.664  0.2828 -0.1147  0.6484
 8495SOL    HW136947   2.142   4.120   9.589  0.7974  0.1450  0.5700
 8495SOL    HW236948   2.215   4.196   9.691 -0.1509  0.8987  1.3413
 8496SOL     OW36949   2.451   2.948   5.466 -0.0768  0.5259 -0.1613
 8496SOL    HW136950   2.455   2.867   5.516  1.4964  1.0964  0.6241
 8496SOL    HW236951   2.515   2.939   5.396 -0.4051 -1.5223 -0.1819
 8497SOL     OW36952   0.054   2.214   3.492 -0.5656 -0.2628 -0.5240
 8497SOL    HW136953   4.678   2.234   3.495 -0.1289  1.5762  0.9970
 8497SOL    HW236954   0.064   2.178   3.404  0.3016 -1.5961  0.1263
 8498SOL     OW36955   3.180   3.918   7.619 -0.0777  0.1196  0.4907
 8498SOL    HW136956   3.270   3.932   7.648  0.0721 -2.3320  1.2207
 8498SOL    HW236957   3.140   3.912   7.706 -0.1615 -1.6397  0.3316
 8499SOL     OW36958   2.982   4.081   5.226  0.6895 -0.1246  0.1991
 8499SOL    HW136959   2.940   4.136   5.161  0.6529 -1.5519 -0.9857
 8499SOL    HW236960   3.059   4.130   5.255  1.4150  0.4081 -2.6089
 8500SOL     OW36961   0.109   3.713  12.089 -0.0461  0.1029  0.2766
 8500SOL    HW136962   0.177   3.663  12.133 -1.3487 -0.2619  1.8699
 8500SOL    HW236963   0.106   3.658  12.010  1.6471  0.6833 -0.1947
 8501SOL     OW36964   0.477   4.318   4.643  0.1568  0.7100 -0.5763
 8501SOL    HW136965   0.431   4.285   4.720  2.3804  1.1340  0.9484
 8501SOL    HW236966   0.486   4.412   4.655  0.1095  0.6469 -0.0363
 8502SOL     OW36967   3.892   1.267   4.089  0.0177 -0.6211  1.0394
 8502SOL    HW136968   3.936   1.352   4.092  1.4225 -1.2541 -2.5625
 8502SOL    HW236969   3.879   1.242   4.181 -0.4066 -0.3661  1.0491
 8503SOL     OW36970   0.590   0.384   9.916  0.6294  0.2098  0.1751
 8503SOL    HW136971   0.498   0.382   9.942  1.4673  0.6277  3.1189
 8503SOL    HW236972   0.593   0.307   9.859 -0.0566  0.0761  0.3284
 8504SOL     OW36973   1.977   0.361   7.903  0.1039  0.1882 -0.1139
 8504SOL    HW136974   1.885   0.364   7.930  0.3442  0.1248  0.7298
 8504SOL    HW236975   1.956   0.302   7.831  1.5661 -0.8291  0.2901
 8505SOL     OW36976   3.540   0.410   8.323  0.2656  0.2739 -0.2910
 8505SOL    HW136977   3.636   0.411   8.326  0.2380  1.8348  0.1658
 8505SOL    HW236978   3.532   0.358   8.403  2.0616 -0.2986 -0.4654
 8506SOL     OW36979   2.258   1.945   2.040 -0.0025  0.0171 -0.4589
 8506SOL    HW136980   2.244   1.938   2.135 -0.7960  1.9481 -0.4369
 8506SOL    HW236981   2.179   1.909   2.000  0.0805 -0.6244 -0.0559
 8507SOL     OW36982   1.906   3.392   1.945 -0.5849 -0.0757 -0.0868
 8507SOL    HW136983   1.938   3.328   2.009 -0.2701  0.5343  0.3635
 8507SOL    HW236984   1.832   3.345   1.906  0.7228 -0.1827 -2.4533
 8508SOL     OW36985   3.286   0.112  13.377 -0.3726  0.3611 -0.1281
 8508SOL    HW136986   3.360   0.161  13.414  1.4315 -0.4688 -2.6582
 8508SOL    HW236987   3.279   0.135  13.284  1.7208 -1.9484 -0.8550
 8509SOL     OW36988   0.390   4.673   5.164 -0.0046  0.1966 -0.0278
 8509SOL    HW136989   0.337   4.626   5.228  0.5671  0.5839  0.7286
 8509SOL    HW236990   0.412   4.604   5.102  1.0463  1.3114 -0.8926
 8510SOL     OW36991   0.391   4.386   8.336  0.0896  0.7934 -0.0954
 8510SOL    HW136992   0.323   4.446   8.364 -0.7440 -0.6175  0.8658
 8510SOL    HW236993   0.421   4.340   8.414  2.1699 -0.8544 -1.8525
 8511SOL     OW36994   1.866   3.908  15.175  0.2449  0.0523  0.2230
 8511SOL    HW136995   1.909   3.949  15.251 -0.5054  0.1520  0.5941
 8511SOL    HW236996   1.798   3.972  15.156  2.0684  0.8303 -3.5962
 8512SOL     OW36997   2.756   0.022  15.363 -0.0945 -0.1425 -0.3493
 8512SOL    HW136998   2.757   0.055  15.273  0.4860  1.0969  0.1123
 8512SOL    HW236999   2.712   0.094  15.409 -1.2762 -1.3652  0.4282
 8513SOL     OW37000   3.626   0.584  15.004  0.1867  0.3240  0.0423
 8513SOL    HW137001   3.596   0.550  14.920 -0.1367 -0.8771  0.6398
 8513SOL    HW237002   3.662   0.668  14.975 -1.6154  1.2035  0.4036
 8514SOL     OW37003   2.192   1.945  16.711 -0.3087 -0.3317  0.4779
 8514SOL    HW137004   2.187   1.852  16.688  0.1002 -0.3351  0.4090
 8514SOL    HW237005   2.252   1.935  16.785 -0.4624 -0.9138  0.5257
 8515SOL     OW37006   0.886   4.174   1.822  0.7463 -1.1047 -0.2119
 8515SOL    HW137007   0.836   4.249   1.791  2.5251 -0.1371 -0.7634
 8515SOL    HW237008   0.974   4.207   1.801  1.1844 -1.4014  1.0931
 8516SOL     OW37009   1.068   1.916   3.505  0.0240  0.3963 -0.1315
 8516SOL    HW137010   1.093   2.006   3.525  0.8239 -0.0973  1.0890
 8516SOL    HW237011   1.054   1.938   3.413 -1.2359 -1.1277 -0.3042
 8517SOL     OW37012   2.708   1.330   8.280  0.5812  0.0307  0.5603
 8517SOL    HW137013   2.643   1.319   8.349  1.7068 -3.2894  1.0561
 8517SOL    HW237014   2.771   1.391   8.320  1.3800 -0.1883 -0.3707
 8518SOL     OW37015   4.322   1.162   5.942  0.1863 -0.3432 -0.1946
 8518SOL    HW137016   4.306   1.069   5.926  0.3838 -0.9610  3.1364
 8518SOL    HW237017   4.242   1.194   5.985  1.5276  0.2549  1.8614
 8519SOL     OW37018   1.399   1.434   3.060 -0.7433 -0.1483 -0.4220
 8519SOL    HW137019   1.370   1.519   3.092 -0.2700 -0.3942  0.6655
 8519SOL    HW237020   1.484   1.463   3.028  0.1359 -0.7947  1.3254
 8520SOL     OW37021   3.435   3.902  10.774  0.0505  0.0518 -0.0276
 8520SOL    HW137022   3.530   3.899  10.769  0.0548  0.1226  0.0160
 8520SOL    HW237023   3.408   3.992  10.756 -0.9687 -0.5157 -1.3456
 8521SOL     OW37024   4.432   2.774  10.395  0.5889  0.5565 -0.1710
 8521SOL    HW137025   4.402   2.793  10.484  0.0479 -0.4848 -0.1293
 8521SOL    HW237026   4.429   2.679  10.402  1.1691  0.6065  0.6811
 8522SOL     OW37027   3.929   2.529   1.906  0.6696 -0.0056 -0.3770
 8522SOL    HW137028   3.930   2.435   1.924 -0.4830  0.1100  0.3087
 8522SOL    HW237029   3.858   2.530   1.842 -0.3762 -0.0378  0.7588
 8523SOL     OW37030   3.475   0.294  17.045  0.4946 -0.2280 -0.5296
 8523SOL    HW137031   3.469   0.212  16.998  0.6522 -0.6240  0.1357
 8523SOL    HW237032   3.570   0.293  17.057  0.4189 -0.5199  0.0298
 8524SOL     OW37033   2.089   4.447  14.760  0.1010 -0.5722  0.6211
 8524SOL    HW137034   2.098   4.352  14.762 -1.6982 -0.7702 -0.5850
 8524SOL    HW237035   2.129   4.453  14.846 -0.5163 -2.1265  1.0101
 8525SOL     OW37036   3.294   0.067   4.886  0.3183  1.5028 -0.1726
 8525SOL    HW137037   3.261   4.695   4.884 -0.4990  1.7836  1.1555
 8525SOL    HW237038   3.261   0.094   4.971 -0.9299  0.3879 -0.2970
 8526SOL     OW37039   4.440   1.108  10.531 -0.0643 -0.1402  0.1919
 8526SOL    HW137040   4.477   1.020  10.526  0.1048  0.0177 -1.2878
 8526SOL    HW237041   4.491   1.157  10.596  1.0937  1.6149 -2.0353
 8527SOL     OW37042   2.196   2.457   0.814 -0.3514 -0.0821 -0.9283
 8527SOL    HW137043   2.173   2.499   0.896  1.1752  0.6778 -0.9025
 8527SOL    HW237044   2.173   2.525   0.750  0.6527  1.0743 -0.0459
 8528SOL     OW37045   3.454   3.150  15.809 -0.3900  0.2659 -0.8739
 8528SOL    HW137046   3.516   3.222  15.824 -0.3865  0.2154 -0.6450
 8528SOL    HW237047   3.519   3.086  15.779  0.2966  1.5664 -2.1341
 8529SOL     OW37048   1.211   2.556   5.348 -0.2085 -0.5569 -0.0206
 8529SOL    HW137049   1.198   2.462   5.360  0.4101 -0.6147  0.2245
 8529SOL    HW237050   1.193   2.565   5.254  0.9248  0.9088 -0.0851
 8530SOL     OW37051   1.495   2.664   5.368 -0.0027 -0.1811 -0.1429
 8530SOL    HW137052   1.529   2.613   5.295 -0.0993  0.2410 -0.4885
 8530SOL    HW237053   1.429   2.601   5.397  0.4270 -0.1299  0.9395
 8531SOL     OW37054   2.640   1.183   2.081  0.5537 -0.4353  0.4512
 8531SOL    HW137055   2.663   1.256   2.024  0.3817 -0.3195  0.5323
 8531SOL    HW237056   2.545   1.182   2.072  0.6348 -2.4159 -0.3273
 8532SOL     OW37057   3.515   2.247  12.209  0.8199  0.3351 -0.4041
 8532SOL    HW137058   3.512   2.157  12.175 -3.6333  0.7509 -1.1319
 8532SOL    HW237059   3.572   2.284  12.141  1.8945 -0.0933  0.2646
 8533SOL     OW37060   4.475   3.049  11.440 -0.0807  0.6767 -0.2998
 8533SOL    HW137061   4.554   3.000  11.463  0.4234  1.0125 -1.3149
 8533SOL    HW237062   4.480   3.119  11.505  3.0548  0.8359 -0.7024
 8534SOL     OW37063   4.699   2.173   7.225 -0.0577  0.2702 -0.6662
 8534SOL    HW137064   0.054   2.116   7.250 -0.9188 -0.5267  0.0690
 8534SOL    HW237065   4.636   2.183   7.297  1.6593 -1.9469  1.1342
 8535SOL     OW37066   4.094   0.071   2.969 -0.0369 -0.1124 -0.3118
 8535SOL    HW137067   4.060   0.084   2.880  2.2021  0.3367 -1.0896
 8535SOL    HW237068   4.054   4.703   2.983  2.1942 -1.1295 -0.2900
 8536SOL     OW37069   2.817   3.959   6.025  0.2510 -0.1388 -0.4364
 8536SOL    HW137070   2.723   3.945   6.016  0.2235 -1.0126  1.1628
 8536SOL    HW237071   2.812   4.053   6.040 -1.4120 -0.2285 -0.3978
 8537SOL     OW37072   2.802   3.473   8.547 -0.0310  0.1638  0.0626
 8537SOL    HW137073   2.741   3.424   8.602 -2.2647  0.7993 -1.8371
 8537SOL    HW237074   2.844   3.402   8.498 -0.4543 -0.0338 -0.0125
 8538SOL     OW37075   3.396   1.657   5.863  0.1559 -0.5254  0.3343
 8538SOL    HW137076   3.416   1.671   5.955  0.0854  0.0800  0.2594
 8538SOL    HW237077   3.407   1.748   5.834  2.0247 -0.8540  0.0053
 8539SOL     OW37078   0.372   2.227   3.319  0.5849 -0.2288  0.2978
 8539SOL    HW137079   0.311   2.173   3.268 -0.6234  1.4237  0.0013
 8539SOL    HW237080   0.453   2.208   3.272 -0.0369  0.4651 -1.0507
 8540SOL     OW37081   2.447   4.073  16.868 -0.0345 -0.0952  0.6211
 8540SOL    HW137082   2.529   4.048  16.910  1.0520 -1.0741 -2.0768
 8540SOL    HW237083   2.425   4.154  16.912 -0.1808 -0.0615  0.4865
 8541SOL     OW37084   2.052   3.875  16.949  0.1878 -0.4726  0.3517
 8541SOL    HW137085   1.995   3.897  16.875  0.6343 -0.7419 -0.0766
 8541SOL    HW237086   2.133   3.849  16.905  0.5319 -0.6953  1.1159
 8542SOL     OW37087   0.986   2.969   2.505  0.6534  1.2624  0.0950
 8542SOL    HW137088   1.051   2.964   2.434  0.3350  0.1411 -0.1034
 8542SOL    HW237089   0.947   2.882   2.498  2.5571  0.2606  1.9481
 8543SOL     OW37090   4.121   2.026   7.780  0.2586  0.4296 -0.8249
 8543SOL    HW137091   4.208   2.059   7.755  1.1099 -0.1206  1.4145
 8543SOL    HW237092   4.088   2.000   7.694 -2.1490 -0.6002  0.4143
 8544SOL     OW37093   4.558   2.899   3.228  0.1819 -0.2085 -0.7351
 8544SOL    HW137094   4.534   2.857   3.310  1.6777 -0.6544 -0.5263
 8544SOL    HW237095   4.495   2.873   3.161  1.0444 -5.0061  0.3504
 8545SOL     OW37096   3.840   0.668   9.050 -0.0776 -0.5236 -0.5360
 8545SOL    HW137097   3.806   0.739   9.105 -0.4287 -0.8969 -0.2697
 8545SOL    HW237098   3.759   0.618   9.045 -0.3849 -0.1441  0.6226
 8546SOL     OW37099   4.512   0.893   7.441 -0.1857 -0.1867  0.1113
 8546SOL    HW137100   4.419   0.903   7.422  0.2283  0.6470 -1.5010
 8546SOL    HW237101   4.547   0.966   7.389  0.5590  0.2191  1.1869
 8547SOL     OW37102   1.140   2.576  10.360  0.0578  0.3144 -0.1423
 8547SOL    HW137103   1.167   2.668  10.360  1.4490 -0.0788  1.3275
 8547SOL    HW237104   1.047   2.574  10.341  0.8026  2.2019 -4.0720
 8548SOL     OW37105   2.752   4.534   3.583 -0.0121 -0.3419  0.0372
 8548SOL    HW137106   2.802   4.467   3.537  0.0418 -1.6694  2.0340
 8548SOL    HW237107   2.707   4.484   3.651  0.0646  0.5243  0.7294
 8549SOL     OW37108   0.381   1.611  11.294  0.3684 -0.2632  0.8954
 8549SOL    HW137109   0.371   1.690  11.346  0.1813 -0.6335  1.4243
 8549SOL    HW237110   0.460   1.582  11.340  0.0848 -2.9154 -0.2984
 8550SOL     OW37111   0.776   0.326   9.077 -0.5927  0.1310 -0.0352
 8550SOL    HW137112   0.774   0.239   9.038  0.9046  0.4432 -0.8300
 8550SOL    HW237113   0.861   0.328   9.123  0.6114 -1.9358 -2.1727
 8551SOL     OW37114   2.023   2.222   4.668 -0.6099 -0.0313 -0.1268
 8551SOL    HW137115   2.112   2.214   4.636 -0.8822 -1.6947 -0.4698
 8551SOL    HW237116   1.986   2.224   4.580 -0.1677 -1.5917 -0.3484
 8552SOL     OW37117   2.254   2.822   2.790 -0.2848  0.3726  0.1361
 8552SOL    HW137118   2.169   2.781   2.801  0.1096 -1.0093 -2.1201
 8552SOL    HW237119   2.308   2.775   2.854 -0.3012  1.0494  0.6432
 8553SOL     OW37120   4.511   2.578  16.891 -0.1754  0.4154 -0.5775
 8553SOL    HW137121   4.566   2.656  16.889  1.1437 -0.5299 -1.5578
 8553SOL    HW237122   4.568   2.508  16.923  1.0432  1.9218  0.5074
 8554SOL     OW37123   0.785   2.111  15.316 -0.1425  0.0924 -0.2386
 8554SOL    HW137124   0.777   2.067  15.231  0.0844  1.6315 -1.0576
 8554SOL    HW237125   0.701   2.098  15.360 -0.4452  2.6454 -0.0498
 8555SOL     OW37126   1.827   3.496   5.466  0.0491  0.2774 -0.1299
 8555SOL    HW137127   1.789   3.566   5.414  1.3416 -0.7877 -2.5034
 8555SOL    HW237128   1.757   3.431   5.463  0.5789 -0.2974 -0.0606
 8556SOL     OW37129   4.656   4.269   0.837  0.1153  0.0616 -0.7253
 8556SOL    HW137130   4.698   4.223   0.910 -3.8260  1.8042  2.6436
 8556SOL    HW237131   0.003   4.337   0.820  1.2086 -1.3576 -2.2706
 8557SOL     OW37132   1.228   3.274  15.034  0.1755  0.0233 -0.2486
 8557SOL    HW137133   1.269   3.309  14.956 -1.5322  1.1483 -0.6462
 8557SOL    HW237134   1.297   3.290  15.099 -0.8012 -0.3854  0.9052
 8558SOL     OW37135   2.405   2.928   4.428  0.0037  0.3016  0.1580
 8558SOL    HW137136   2.429   2.897   4.516 -1.7224  1.5436  1.0587
 8558SOL    HW237137   2.491   2.907   4.392 -1.3953 -2.4885 -1.5485
 8559SOL     OW37138   4.311   1.611  15.632 -0.2929 -0.4533  0.7127
 8559SOL    HW137139   4.238   1.637  15.688 -0.3729  0.0607  0.3775
 8559SOL    HW237140   4.376   1.673  15.665 -1.1927  0.6266  0.4564
 8560SOL     OW37141   1.965   0.567  16.917  0.8060  0.2165  0.4318
 8560SOL    HW137142   2.016   0.490  16.894  1.0679 -0.2796  2.6930
 8560SOL    HW237143   1.896   0.524  16.967  0.0177 -0.8644 -1.5907
 8561SOL     OW37144   0.185   1.920  10.595  0.2698 -1.0815  0.1532
 8561SOL    HW137145   0.110   1.977  10.615 -0.6480 -2.3524  0.2935
 8561SOL    HW237146   0.163   1.854  10.660 -0.3928 -0.6265  0.3949
 8562SOL     OW37147   2.662   2.764  15.081  0.3719 -0.0901 -0.7537
 8562SOL    HW137148   2.698   2.821  15.149 -1.4613  1.1202 -0.7942
 8562SOL    HW237149   2.606   2.711  15.137  5.2287 -1.9192  2.3868
 8563SOL     OW37150   0.925   0.216   3.724 -0.2843  0.2150  0.0233
 8563SOL    HW137151   0.988   0.269   3.675  0.6639 -0.2780  0.7370
 8563SOL    HW237152   0.949   0.134   3.680 -2.9635  0.3423 -1.7067
 8564SOL     OW37153   2.111   2.840  14.323 -0.5009 -0.3114  0.0647
 8564SOL    HW137154   2.133   2.847  14.416 -0.6772 -0.8384  0.1457
 8564SOL    HW237155   2.017   2.822  14.332 -0.4784 -0.3839  0.1590
 8565SOL     OW37156   3.101   0.083   5.394  0.3244  0.8848 -0.4110
 8565SOL    HW137157   3.014   0.050   5.414  1.2309 -1.8693 -0.9547
 8565SOL    HW237158   3.123   0.123   5.478  0.6030  1.0227 -0.5511
 8566SOL     OW37159   1.826   4.591   8.409  0.2162  0.0075  0.2952
 8566SOL    HW137160   1.837   4.684   8.431  2.2478 -0.3419  0.7370
 8566SOL    HW237161   1.832   4.544   8.492  2.2538  0.0932  0.1905
 8567SOL     OW37162   3.988   1.258   9.197 -0.3233 -0.3825  0.6771
 8567SOL    HW137163   3.957   1.349   9.199 -1.5076 -0.7594 -0.9147
 8567SOL    HW237164   4.019   1.241   9.286  0.3881 -1.0874  0.2926
 8568SOL     OW37165   2.800   2.533   7.490 -0.3676  0.0125  0.4061
 8568SOL    HW137166   2.888   2.563   7.512 -0.5639  1.3397 -0.5983
 8568SOL    HW237167   2.766   2.547   7.578  0.8507  1.1340  0.6907
 8569SOL     OW37168   1.399   3.022   8.701  0.3657 -0.0370 -0.7464
 8569SOL    HW137169   1.332   3.063   8.646  0.1492  1.1329  0.3850
 8569SOL    HW237170   1.471   3.084   8.710 -0.8679  1.0463  1.5765
 8570SOL     OW37171   0.271   1.407   7.479 -0.1162 -0.4315 -0.2270
 8570SOL    HW137172   0.344   1.357   7.442  0.1691  1.8877 -2.8516
 8570SOL    HW237173   0.279   1.381   7.570  0.0710  1.0825  0.1975
 8571SOL     OW37174   1.820   2.953   5.202  0.2259 -0.0386 -0.6340
 8571SOL    HW137175   1.768   2.973   5.279  0.6963  2.9801 -1.1107
 8571SOL    HW237176   1.873   3.033   5.207  0.4214 -0.1965 -0.2403
 8572SOL     OW37177   2.182   2.100  15.923  0.4205 -0.2723  0.2894
 8572SOL    HW137178   2.125   2.114  15.999  1.9699  0.9141  1.2469
 8572SOL    HW237179   2.139   2.137  15.846 -0.9564 -1.0987  0.6538
 8573SOL     OW37180   3.325   0.934   6.649 -0.2840 -0.2114 -0.2866
 8573SOL    HW137181   3.343   1.025   6.673  2.2727 -0.7613 -0.0811
 8573SOL    HW237182   3.419   0.913   6.653 -0.6911 -2.3587 -2.3637
 8574SOL     OW37183   4.322   3.680  13.993 -0.3173  0.1628 -0.3683
 8574SOL    HW137184   4.319   3.616  14.064 -1.2017 -0.0828 -0.6314
 8574SOL    HW237185   4.314   3.764  14.039  1.2798  0.1446 -0.0502
 8575SOL     OW37186   2.542   2.291  14.321 -0.2517  0.4870  0.3366
 8575SOL    HW137187   2.523   2.364  14.262  0.4296  1.2628  1.0694
 8575SOL    HW237188   2.489   2.223  14.279 -0.4318 -0.1283  1.5688
 8576SOL     OW37189   2.084   2.011   8.459 -0.1183  0.5282 -0.0281
 8576SOL    HW137190   2.144   1.938   8.441  0.5052  1.4150 -1.5461
 8576SOL    HW237191   2.140   2.086   8.479  1.1192 -0.2409 -0.6477
 8577SOL     OW37192   1.414   4.456   4.552 -0.2064  0.0077  0.8970
 8577SOL    HW137193   1.470   4.422   4.483  1.9188  0.9716  2.1459
 8577SOL    HW237194   1.425   4.551   4.540 -0.2627 -0.3341 -1.7229
 8578SOL     OW37195   2.299   0.955   7.448 -0.7302  0.3418 -0.2476
 8578SOL    HW137196   2.312   0.987   7.538 -2.3706  0.3500 -0.0124
 8578SOL    HW237197   2.268   1.032   7.400 -0.3037  0.6106 -0.0957
 8579SOL     OW37198   2.783   0.353  15.815  0.1264  0.0661  0.1650
 8579SOL    HW137199   2.805   0.446  15.818  1.0852 -0.1855  1.2113
 8579SOL    HW237200   2.842   0.312  15.879  1.7948 -0.1541 -1.4940
 8580SOL     OW37201   0.273   2.467   4.241 -0.3562  0.3947 -0.0245
 8580SOL    HW137202   0.226   2.549   4.226  1.9209  1.6564 -0.2803
 8580SOL    HW237203   0.363   2.493   4.224  0.4200 -1.4825  1.2511
 8581SOL     OW37204   0.864   2.813   1.693 -0.0525  0.0952 -0.0022
 8581SOL    HW137205   0.933   2.812   1.760 -0.2755 -0.0091  0.2260
 8581SOL    HW237206   0.788   2.780   1.740 -0.0249  0.0298 -0.0032
 8582SOL     OW37207   2.811   0.011   5.445  0.1588  0.3576  0.0355
 8582SOL    HW137208   2.787   4.661   5.382  0.1410  0.8894 -0.5330
 8582SOL    HW237209   2.802   0.085   5.385  1.8690 -0.6624 -1.4945
 8583SOL     OW37210   1.187   0.947  10.625 -0.4534  0.3416 -0.0169
 8583SOL    HW137211   1.202   1.020  10.565 -0.3020  0.3799  0.0672
 8583SOL    HW237212   1.253   0.965  10.692 -0.1999 -0.3372 -0.0797
 8584SOL     OW37213   2.785   3.842   6.331  0.4049 -0.3357 -0.4788
 8584SOL    HW137214   2.743   3.789   6.263  1.0835  1.1134 -2.0269
 8584SOL    HW237215   2.876   3.815   6.319 -0.9589 -4.8514 -0.9229
 8585SOL     OW37216   2.716   2.898   5.724  0.0700 -0.4939 -0.0744
 8585SOL    HW137217   2.665   2.883   5.804  0.3350 -1.7155 -0.1255
 8585SOL    HW237218   2.758   2.983   5.738 -0.8843  0.0074 -0.2894
 8586SOL     OW37219   1.462   1.927   6.994 -0.3672 -0.9426 -0.6699
 8586SOL    HW137220   1.432   2.018   6.988  2.0239  0.0554  2.2428
 8586SOL    HW237221   1.522   1.932   7.069 -1.2763 -0.7989  0.0562
 8587SOL     OW37222   1.309   0.674   5.040 -0.2685 -0.2893 -0.2872
 8587SOL    HW137223   1.251   0.608   5.078 -1.2159  0.9762  0.5047
 8587SOL    HW237224   1.279   0.670   4.949  0.1704 -1.5517 -0.3765
 8588SOL     OW37225   3.180   2.673  14.898  0.5757 -0.0849  0.1250
 8588SOL    HW137226   3.142   2.588  14.875 -1.3733  1.1718 -1.2504
 8588SOL    HW237227   3.181   2.717  14.813  2.2649 -0.0879  0.1371
 8589SOL     OW37228   3.937   2.852  12.849 -0.4271  0.0351 -0.4874
 8589SOL    HW137229   3.901   2.901  12.922 -0.0460 -2.7574  1.5760
 8589SOL    HW237230   3.859   2.797  12.836 -0.9543  0.3734  1.3438
 8590SOL     OW37231   3.313   2.872   7.241  0.1982 -0.2242  0.2481
 8590SOL    HW137232   3.236   2.838   7.195  0.7703 -0.7809 -0.3127
 8590SOL    HW237233   3.283   2.962   7.250 -1.1915 -0.6324 -0.3690
 8591SOL     OW37234   3.452   4.246   7.245 -0.0111  0.1901 -0.2601
 8591SOL    HW137235   3.402   4.165   7.238  0.2265  0.0846 -0.6826
 8591SOL    HW237236   3.387   4.313   7.221 -0.5140  0.0115  0.5772
 8592SOL     OW37237   1.407   2.263   8.432  0.0784 -0.6918 -0.6227
 8592SOL    HW137238   1.439   2.183   8.473  0.9179 -1.3844 -2.6537
 8592SOL    HW237239   1.397   2.317   8.511 -0.9957  0.0590 -1.2720
 8593SOL     OW37240   0.303   1.071  12.723 -0.0951 -0.8725 -0.3989
 8593SOL    HW137241   0.250   1.133  12.674  1.1173  0.5676  0.1215
 8593SOL    HW237242   0.244   1.041  12.793 -1.0868  2.5156  0.2410
 8594SOL     OW37243   4.020   4.693  17.258  0.0791  0.0236  0.9588
 8594SOL    HW137244   3.938   0.024  17.254  0.5061  0.7348  0.7792
 8594SOL    HW237245   4.000   4.608  17.219  0.9530  0.3336 -0.1994
 8595SOL     OW37246   2.470   4.595  12.633  0.1062  0.2778  0.3174
 8595SOL    HW137247   2.394   4.553  12.673 -1.4724  1.1134 -1.8219
 8595SOL    HW237248   2.433   4.684  12.629 -0.2373  0.2162  2.0451
 8596SOL     OW37249   0.687   4.175  16.652  0.3208  0.1330  0.2210
 8596SOL    HW137250   0.716   4.256  16.694 -0.6722  0.0455  1.0833
 8596SOL    HW237251   0.593   4.171  16.673  0.2085  2.0816  0.0474
 8597SOL     OW37252   1.297   3.830   7.254  0.1224  0.6395 -0.9222
 8597SOL    HW137253   1.337   3.834   7.340  3.6020  0.1299 -2.5378
 8597SOL    HW237254   1.356   3.891   7.209  0.6976  0.7039 -0.0682
 8598SOL     OW37255   0.938   3.879  15.915  0.4476 -0.2612 -0.3733
 8598SOL    HW137256   1.008   3.855  15.976 -0.6053 -3.7361 -0.4883
 8598SOL    HW237257   0.916   3.790  15.886  0.4983 -0.8538  1.4349
 8599SOL     OW37258   4.229   2.274   5.516 -0.4505 -0.1259 -0.4148
 8599SOL    HW137259   4.202   2.364   5.533  0.8332  0.5665 -2.0680
 8599SOL    HW237260   4.190   2.266   5.429 -4.0556  2.1897  0.9672
 8600SOL     OW37261   1.246   2.010   5.498 -0.2195 -0.1312 -0.0151
 8600SOL    HW137262   1.335   2.040   5.514 -0.4018 -0.1631  1.0946
 8600SOL    HW237263   1.256   1.917   5.476  2.5629  0.9034 -3.0103
 8601SOL     OW37264   3.019   1.536  14.226  0.3976  0.8902 -0.1484
 8601SOL    HW137265   3.104   1.553  14.188 -0.0456  3.1249 -0.1641
 8601SOL    HW237266   2.971   1.616  14.205  1.8816  1.1656 -2.3298
 8602SOL     OW37267   0.123   1.575   8.382  0.2080 -0.3175 -0.4652
 8602SOL    HW137268   0.073   1.498   8.354 -1.0739 -0.7351  2.9555
 8602SOL    HW237269   0.212   1.542   8.393 -0.4093 -1.7651  0.0624
 8603SOL     OW37270   0.745   1.932   3.291 -0.2132  0.2919 -0.6938
 8603SOL    HW137271   0.668   1.932   3.347 -0.1605  1.2918 -0.6161
 8603SOL    HW237272   0.784   2.018   3.307 -0.8554  0.1013  1.9181
 8604SOL     OW37273   0.671   0.776  17.331  0.1682  0.2209  0.0307
 8604SOL    HW137274   0.638   0.761  17.419  2.4067  1.4676  1.0988
 8604SOL    HW237275   0.686   0.683  17.315 -0.1158  0.4265 -1.4715
 8605SOL     OW37276   3.708   3.963  17.497 -0.1733 -0.2612 -0.0292
 8605SOL    HW137277   3.709   4.025  17.424 -0.5871 -2.7741 -2.1735
 8605SOL    HW237278   3.615   3.944  17.506 -0.3255  0.3809 -0.1862
 8606SOL     OW37279   0.046   0.100  15.249  0.0913 -0.1135  0.2164
 8606SOL    HW137280   0.014   0.112  15.160  0.7984  1.8178  0.2323
 8606SOL    HW237281   0.035   0.008  15.273 -1.5527 -0.1099 -0.5648
 8607SOL     OW37282   2.911   1.459   1.373  0.4597 -0.2944  0.4136
 8607SOL    HW137283   2.860   1.540   1.365  0.3181 -0.5746 -1.6375
 8607SOL    HW237284   2.989   1.482   1.322 -0.1046 -0.6156 -0.6024
 8608SOL     OW37285   0.630   2.433   8.659 -0.0352  0.0500  0.8366
 8608SOL    HW137286   0.535   2.439   8.671 -0.3496 -1.5873 -0.7573
 8608SOL    HW237287   0.637   2.352   8.609 -1.4652 -0.2290  1.0869
 8609SOL     OW37288   4.655   0.664  12.412 -0.5586  0.1322 -0.5996
 8609SOL    HW137289   0.008   0.603  12.388  0.1905  0.3623  1.0602
 8609SOL    HW237290   4.648   0.705  12.326  3.5640 -0.2366 -1.1331
 8610SOL     OW37291   2.414   1.994  17.431  0.4818 -0.1221  0.1305
 8610SOL    HW137292   2.429   1.923  17.494  0.0267  1.7399  2.3232
 8610SOL    HW237293   2.359   2.050  17.485 -0.0364 -1.5432  1.0656
 8611SOL     OW37294   4.658   3.138   4.829 -0.2001 -0.4473  0.6559
 8611SOL    HW137295   0.028   3.116   4.861  1.2304  3.6211 -0.5252
 8611SOL    HW237296   4.628   3.205   4.891  1.4223  1.1586 -0.3151
 8612SOL     OW37297   0.389   0.354   9.582 -0.0015  0.1895 -0.4407
 8612SOL    HW137298   0.425   0.443   9.576  1.0674 -0.3037 -1.4504
 8612SOL    HW237299   0.464   0.303   9.553  1.1690  1.1228  0.9078
 8613SOL     OW37300   3.361   0.100   8.027 -0.0475 -0.3764  0.2143
 8613SOL    HW137301   3.401   0.043   7.961  2.1400  2.3721 -0.8263
 8613SOL    HW237302   3.391   0.186   7.998 -0.8231  0.3771  1.6619
 8614SOL     OW37303   4.298   3.514   3.411  0.1273 -0.2581  0.2588
 8614SOL    HW137304   4.317   3.430   3.371 -1.8376 -0.1337 -0.9252
 8614SOL    HW237305   4.326   3.569   3.338  1.1167  2.3977  2.6028
 8615SOL     OW37306   3.034   2.461   7.051 -0.1575 -0.3681 -0.7896
 8615SOL    HW137307   2.988   2.540   7.078 -1.7916 -1.6354  0.2051
 8615SOL    HW237308   2.973   2.392   7.078  0.3471 -1.3771 -2.2029
 8616SOL     OW37309   0.878   1.331   3.176  0.9827 -0.2916  0.2366
 8616SOL    HW137310   0.920   1.259   3.129 -1.0054 -0.4481 -1.3133
 8616SOL    HW237311   0.851   1.280   3.252 -1.4078 -2.0945 -1.8213
 8617SOL     OW37312   3.690   0.096   2.555 -0.0976 -0.0574 -0.4508
 8617SOL    HW137313   3.655   0.009   2.533  1.7684 -0.9867  0.3185
 8617SOL    HW237314   3.770   0.100   2.503 -0.3611  1.2154 -0.7424
 8618SOL     OW37315   3.854   4.441   0.516  0.1834  0.2325 -0.5570
 8618SOL    HW137316   3.852   4.536   0.525 -0.1579  0.2456 -0.7593
 8618SOL    HW237317   3.805   4.429   0.435 -2.4993  0.6871  1.0047
 8619SOL     OW37318   1.238   1.001  17.656  0.0894  0.4233 -0.0393
 8619SOL    HW137319   1.144   0.987  17.664  0.2932 -0.6492  0.5104
 8619SOL    HW237320   1.237   1.070  17.590  1.8941  1.4393  0.9745
 8620SOL     OW37321   0.735   3.294   8.874 -0.0164 -0.3704  0.0658
 8620SOL    HW137322   0.798   3.359   8.904 -1.3461  0.3821  1.2244
 8620SOL    HW237323   0.699   3.289   8.963 -2.4974 -0.3417 -0.9557
 8621SOL     OW37324   1.234   4.624   3.127 -0.0405  0.2755  0.3705
 8621SOL    HW137325   1.152   4.659   3.092 -0.2213 -0.8171 -0.2721
 8621SOL    HW237326   1.209   4.534   3.148  0.3128 -0.0115 -0.4409
 8622SOL     OW37327   0.573   2.206   7.982 -0.2390  0.1069 -0.1006
 8622SOL    HW137328   0.647   2.259   8.010 -1.0741  1.5489 -0.5894
 8622SOL    HW237329   0.587   2.128   8.036 -0.6623 -0.0383 -0.1974
 8623SOL     OW37330   2.533   1.677  16.497  0.1624 -0.2794 -0.1235
 8623SOL    HW137331   2.575   1.714  16.419  1.2870 -1.5332 -0.1165
 8623SOL    HW237332   2.442   1.661  16.474 -0.2745  0.3499  1.2053
 8624SOL     OW37333   2.349   1.865  14.191  0.3386 -0.1304  0.3722
 8624SOL    HW137334   2.433   1.819  14.183 -0.5055 -2.2156  3.8591
 8624SOL    HW237335   2.284   1.796  14.202 -1.7958  2.0343  1.1898
 8625SOL     OW37336   1.079   2.573   4.598  0.6211  0.7095 -0.0913
 8625SOL    HW137337   1.121   2.490   4.621  0.4409  1.2051  2.0462
 8625SOL    HW237338   1.029   2.597   4.676 -0.7595 -0.0284 -0.7592
 8626SOL     OW37339   3.184   2.694   6.834  0.8155  0.2480  0.3605
 8626SOL    HW137340   3.237   2.774   6.838 -0.0736  0.8070  0.7517
 8626SOL    HW237341   3.254   2.638   6.799  1.4924  0.8110  0.7979
 8627SOL     OW37342   1.671   4.636   6.330  0.2740  0.0692  0.4527
 8627SOL    HW137343   1.615   4.681   6.266  1.9420  2.2503  0.5002
 8627SOL    HW237344   1.746   4.695   6.325 -1.3868  2.0241 -2.1342
 8628SOL     OW37345   2.198   2.887   9.590 -0.4038 -0.0801 -0.5764
 8628SOL    HW137346   2.232   2.957   9.535 -0.6587 -0.6048 -1.3920
 8628SOL    HW237347   2.105   2.909   9.596  0.0418  1.6020  0.2575
 8629SOL     OW37348   3.153   1.750   5.651 -0.5826  0.1759 -0.4079
 8629SOL    HW137349   3.199   1.822   5.608  1.8057 -1.9843 -1.4511
 8629SOL    HW237350   3.170   1.767   5.743  1.8418 -0.2129 -0.7989
 8630SOL     OW37351   3.376   2.077   2.203 -0.1687  0.0841  0.1855
 8630SOL    HW137352   3.347   2.068   2.294 -0.0461 -3.3980 -0.1181
 8630SOL    HW237353   3.469   2.101   2.210 -0.5173  2.1815 -2.3096
 8631SOL     OW37354   1.791   2.532  10.138 -0.1059  0.0116 -0.0659
 8631SOL    HW137355   1.854   2.469  10.174 -3.0428 -1.0290  3.2085
 8631SOL    HW237356   1.846   2.584  10.080  0.9775 -0.6553  0.3588
 8632SOL     OW37357   4.379   2.834   2.187 -1.0317 -0.1210  0.0089
 8632SOL    HW137358   4.389   2.862   2.096  0.5868  0.2811  0.3018
 8632SOL    HW237359   4.288   2.808   2.192 -0.2756 -3.0060 -1.0999
 8633SOL     OW37360   2.391   2.421   6.136  0.4482  0.6541  0.5030
 8633SOL    HW137361   2.419   2.364   6.065  0.0569  0.0796  0.8151
 8633SOL    HW237362   2.479   2.456   6.151  0.8342  0.2633 -0.8531
 8634SOL     OW37363   1.557   4.384  12.763  0.0197  0.6433 -0.2721
 8634SOL    HW137364   1.615   4.458  12.781 -0.9693  1.1765  0.6962
 8634SOL    HW237365   1.558   4.389  12.667 -3.3133  1.0287 -0.2998
 8635SOL     OW37366   2.250   0.683   7.794 -0.5679  0.1012 -0.1725
 8635SOL    HW137367   2.205   0.767   7.784  1.7325  1.1584 -1.4845
 8635SOL    HW237368   2.201   0.648   7.869 -1.1928  0.6203 -0.3386
 8636SOL     OW37369   1.906   0.451  15.729  0.4306 -0.1728  0.6269
 8636SOL    HW137370   1.814   0.469  15.747  1.3057  2.1257  2.9265
 8636SOL    HW237371   1.930   0.528  15.677 -2.2103  1.3481  1.6705
 8637SOL     OW37372   0.454   2.884   7.021  0.5534  0.4921 -0.0557
 8637SOL    HW137373   0.537   2.918   7.055  1.1371 -0.3041 -0.7125
 8637SOL    HW237374   0.483   2.820   6.956  1.6736  0.2866  0.6543
 8638SOL     OW37375   3.650   3.050  16.791  0.3167  0.1360  0.3573
 8638SOL    HW137376   3.636   3.105  16.868 -2.1006  2.4033 -1.7223
 8638SOL    HW237377   3.666   2.969  16.840 -2.5606 -0.3377  0.5619
 8639SOL     OW37378   2.556   4.163   3.785 -0.0555  0.0718 -0.1347
 8639SOL    HW137379   2.502   4.087   3.763  1.9255 -1.4057  0.1546
 8639SOL    HW237380   2.583   4.202   3.701  2.4977 -1.4354 -0.0223
 8640SOL     OW37381   2.108   0.925   5.011 -0.0218 -0.2126  0.6603
 8640SOL    HW137382   2.096   0.833   4.988 -2.4329  0.4232 -0.5271
 8640SOL    HW237383   2.113   0.915   5.106  0.6353  1.8853  0.8558
 8641SOL     OW37384   3.433   3.025   6.639 -0.2395 -0.0148 -0.1089
 8641SOL    HW137385   3.527   3.045   6.639 -0.4540  0.9850  0.1377
 8641SOL    HW237386   3.383   3.107   6.642  0.4972  0.3835  1.3515
 8642SOL     OW37387   0.928   0.372   5.319 -0.0427 -0.7934 -0.2494
 8642SOL    HW137388   0.864   0.306   5.345 -0.3194 -0.5143 -0.2197
 8642SOL    HW237389   0.908   0.446   5.376 -3.2450 -1.0692 -1.0092
 8643SOL     OW37390   4.403   3.441   6.562  0.0994  0.1231  0.0676
 8643SOL    HW137391   4.495   3.469   6.565 -0.2242  0.8858  3.2064
 8643SOL    HW237392   4.361   3.526   6.578 -0.3739  0.2834 -2.0085
 8644SOL     OW37393   0.355   0.425  10.549  0.0103  0.1551 -0.7929
 8644SOL    HW137394   0.306   0.488  10.603  0.8342 -0.6418  0.8995
 8644SOL    HW237395   0.414   0.490  10.512 -0.5056 -0.2866 -2.3975
 8645SOL     OW37396   2.003   0.286   6.550  0.0187  0.5691  0.2344
 8645SOL    HW137397   1.942   0.213   6.537  0.1484  0.7798 -1.5035
 8645SOL    HW237398   1.977   0.309   6.640  0.8007  1.0506  0.3347
 8646SOL     OW37399   2.252   3.766   6.935  0.1339 -0.5030 -0.3660
 8646SOL    HW137400   2.306   3.695   6.900  0.5122 -1.1760  1.6332
 8646SOL    HW237401   2.201   3.795   6.859 -0.8651  1.7033  1.1490
 8647SOL     OW37402   1.532   0.331   3.915 -0.4341 -0.3183  0.5661
 8647SOL    HW137403   1.521   0.316   4.009 -2.1323 -0.3378  0.3763
 8647SOL    HW237404   1.618   0.372   3.909  0.8715 -2.8693  1.6917
 8648SOL     OW37405   2.937   2.157   1.706  0.2315 -0.4858 -0.4451
 8648SOL    HW137406   2.880   2.099   1.655  0.0018 -0.6450 -0.0071
 8648SOL    HW237407   2.884   2.237   1.705  1.8214  0.5729 -0.7899
 8649SOL     OW37408   1.780   4.523   7.629  0.4874  0.6438 -0.0966
 8649SOL    HW137409   1.842   4.507   7.700 -1.0239  0.7085  1.2368
 8649SOL    HW237410   1.765   4.433   7.601 -0.8741  0.1429  2.3181
 8650SOL     OW37411   0.606   4.274   4.917  0.1313 -0.7750  0.1976
 8650SOL    HW137412   0.525   4.223   4.911  0.0577 -0.5182 -0.9499
 8650SOL    HW237413   0.648   4.209   4.973  0.7055 -0.3117  0.3058
 8651SOL     OW37414   1.583   1.572   2.826 -0.4035  0.3205  0.1077
 8651SOL    HW137415   1.650   1.640   2.840 -0.0686 -0.2538  1.3478
 8651SOL    HW237416   1.521   1.612   2.765 -1.5909  0.8608  1.6550
 8652SOL     OW37417   3.328   1.566   8.913  0.6327  0.4661  0.2253
 8652SOL    HW137418   3.254   1.560   8.853  0.4571 -0.3495  0.5125
 8652SOL    HW237419   3.328   1.480   8.956 -0.7828 -0.3347 -1.4012
 8653SOL     OW37420   1.073   2.317   5.717  0.0555  0.3981 -0.0414
 8653SOL    HW137421   1.046   2.246   5.775  0.4175 -0.1483 -0.5406
 8653SOL    HW237422   1.125   2.269   5.653  0.9410  0.1280  0.8915
 8654SOL     OW37423   3.268   0.369   4.433 -0.0044  0.1235 -0.2636
 8654SOL    HW137424   3.278   0.443   4.493 -1.6171 -1.1965  1.6188
 8654SOL    HW237425   3.218   0.310   4.489 -0.3310  1.3836  0.7430
 8655SOL     OW37426   1.560   2.806  11.581  0.3684  0.4153 -0.7446
 8655SOL    HW137427   1.532   2.789  11.491 -0.1209  1.3492 -0.7633
 8655SOL    HW237428   1.535   2.725  11.626  0.2469  0.2845 -1.0419
 8656SOL     OW37429   0.879   0.004   5.327  0.3425 -0.6784  0.1235
 8656SOL    HW137430   0.867   4.669   5.248 -2.0132  0.2529 -0.1339
 8656SOL    HW237431   0.825   4.672   5.388  2.1892 -2.5292  0.2727
 8657SOL     OW37432   0.523   3.510  17.196  0.3917  0.6867  0.3111
 8657SOL    HW137433   0.562   3.476  17.276 -0.5785 -3.2106 -0.8758
 8657SOL    HW237434   0.601   3.550  17.158  0.8958  0.0300  0.6609
 8658SOL     OW37435   4.439   3.472   7.913 -0.6829  0.6455 -0.0219
 8658SOL    HW137436   4.467   3.411   7.844 -1.9277  0.1076 -0.0567
 8658SOL    HW237437   4.398   3.538   7.857  1.1552  2.2896  0.5774
 8659SOL     OW37438   3.458   2.724  13.875  0.3142 -0.0170  0.4408
 8659SOL    HW137439   3.467   2.817  13.855  0.7364 -0.5079 -1.6719
 8659SOL    HW237440   3.382   2.698  13.822 -0.2711 -1.0856  1.8003
 8660SOL     OW37441   2.728   1.683   8.111 -0.0299 -0.5667 -0.2949
 8660SOL    HW137442   2.759   1.772   8.094 -0.5058 -0.6330 -1.4833
 8660SOL    HW237443   2.796   1.627   8.073 -0.4302 -1.0628 -0.2904
 8661SOL     OW37444   2.713   2.057  17.645 -0.2450  0.0698  0.5436
 8661SOL    HW137445   2.782   2.028  17.585  0.5036 -1.1953  2.0342
 8661SOL    HW237446   2.699   2.149  17.624 -0.5906 -0.5459 -1.9270
 8662SOL     OW37447   1.424   2.633  11.738  0.4556  0.2563 -0.5952
 8662SOL    HW137448   1.337   2.620  11.699  1.6959 -1.0887 -2.9560
 8662SOL    HW237449   1.412   2.573  11.812  0.2914  0.0509 -0.7863
 8663SOL     OW37450   3.188   0.970   3.453 -0.4339  0.0763  0.1909
 8663SOL    HW137451   3.136   1.048   3.433  1.0336  0.4773 -2.1560
 8663SOL    HW237452   3.271   0.998   3.414 -0.4147  0.5932  0.6110
 8664SOL     OW37453   2.770   0.185   8.234 -0.3899  0.1409 -0.0960
 8664SOL    HW137454   2.686   0.213   8.270  0.9031 -0.8879  3.7147
 8664SOL    HW237455   2.747   0.200   8.142  0.2506 -1.0610 -0.4524
 8665SOL     OW37456   0.452   3.655   6.184  0.0340 -0.2975 -0.2899
 8665SOL    HW137457   0.450   3.595   6.258 -0.4081  0.3885  0.2580
 8665SOL    HW237458   0.517   3.611   6.130 -1.3102 -2.4758 -0.0996
 8666SOL     OW37459   2.226   1.598   3.543 -0.2811 -0.4012 -0.3428
 8666SOL    HW137460   2.211   1.564   3.632  2.5642  0.5061  0.4775
 8666SOL    HW237461   2.152   1.656   3.524  0.7116  0.9221 -0.1878
 8667SOL     OW37462   0.448   1.523   4.177  0.3296 -0.3315  0.2604
 8667SOL    HW137463   0.365   1.556   4.212  0.4497  1.2837 -0.9809
 8667SOL    HW237464   0.491   1.608   4.177  1.0771 -0.6954  3.3700
 8668SOL     OW37465   3.932   0.344   6.392  0.1457 -0.0592  0.4398
 8668SOL    HW137466   3.903   0.253   6.404  2.1296 -0.4416  2.3344
 8668SOL    HW237467   4.028   0.337   6.389 -0.0505 -1.8863 -2.6286
 8669SOL     OW37468   0.911   0.194  11.470 -0.4484  0.2117 -0.2830
 8669SOL    HW137469   0.981   0.176  11.533 -0.3955  2.2482  0.2368
 8669SOL    HW237470   0.957   0.215  11.389  1.8996  1.8340  1.4740
 8670SOL     OW37471   3.175   1.588   4.139  0.6744  0.5056  0.8659
 8670SOL    HW137472   3.258   1.541   4.153 -0.1302 -1.3831 -0.6672
 8670SOL    HW237473   3.121   1.553   4.209 -0.1539 -0.1574 -0.1105
 8671SOL     OW37474   2.087   1.301   8.480  0.4675  0.3739  0.0094
 8671SOL    HW137475   2.056   1.391   8.490  1.9930  0.9805 -0.7304
 8671SOL    HW237476   2.164   1.309   8.424 -0.5095  0.1329 -1.3677
 8672SOL     OW37477   0.346   0.672   7.310 -0.1867  0.3322 -0.6156
 8672SOL    HW137478   0.324   0.764   7.323 -0.4891  0.3102 -0.9884
 8672SOL    HW237479   0.346   0.636   7.399 -0.4168 -0.3293 -0.8853
 8673SOL     OW37480   0.579   1.940   7.674  0.4837  0.6989 -0.0874
 8673SOL    HW137481   0.603   2.026   7.638  0.0267  1.1920  0.7660
 8673SOL    HW237482   0.543   1.962   7.760  0.8591 -0.4766  0.3675
 8674SOL     OW37483   2.597   0.049  17.556  0.7917  0.7091  0.2610
 8674SOL    HW137484   2.587   0.058  17.461  1.4130  0.7131  0.1918
 8674SOL    HW237485   2.630   4.678  17.569 -0.9072  0.0925  0.3053
 8675SOL     OW37486   3.439   3.351  16.876  0.6285 -0.1357  0.0851
 8675SOL    HW137487   3.384   3.426  16.900 -0.0843 -0.3502 -0.8795
 8675SOL    HW237488   3.387   3.324  16.800 -0.1617  1.3561  0.0814
 8676SOL     OW37489   4.401   1.572   9.029 -0.2563 -0.4053  0.1925
 8676SOL    HW137490   4.436   1.580   9.118  0.6987 -0.5769 -0.1697
 8676SOL    HW237491   4.307   1.586   9.044  0.2927  1.0375  2.3144
 8677SOL     OW37492   2.867   0.340   3.064 -0.3976  0.2306 -0.1465
 8677SOL    HW137493   2.898   0.406   3.002 -0.6301  0.6876  0.2219
 8677SOL    HW237494   2.870   0.269   3.000  0.0976 -1.1631  1.4111
 8678SOL     OW37495   0.593   0.115   4.411  0.0874  0.4083 -0.0612
 8678SOL    HW137496   0.499   0.121   4.394  0.4485 -2.0559 -2.8177
 8678SOL    HW237497   0.625   0.156   4.331  0.6774 -0.1125 -0.0905
 8679SOL     OW37498   2.700   1.791  16.277 -0.2082 -0.4583 -0.3728
 8679SOL    HW137499   2.773   1.849  16.297 -0.3141  0.0477 -1.4375
 8679SOL    HW237500   2.667   1.841  16.203 -1.3970  0.3421  0.7011
 8680SOL     OW37501   2.527   0.548   2.995 -0.6823  0.2313 -0.6309
 8680SOL    HW137502   2.571   0.474   2.952 -3.1512  0.0654 -2.8190
 8680SOL    HW237503   2.480   0.497   3.061  0.3722 -0.7926 -0.6574
 8681SOL     OW37504   3.847   1.936   6.586  0.0941 -0.1837  0.0266
 8681SOL    HW137505   3.938   1.909   6.575  0.1022  0.5191 -1.7112
 8681SOL    HW237506   3.858   2.031   6.583 -2.3056  0.1135  0.7127
 8682SOL     OW37507   2.189   3.597  15.564 -0.0946 -0.1513 -0.4290
 8682SOL    HW137508   2.199   3.619  15.472 -0.6254 -1.1713 -0.7270
 8682SOL    HW237509   2.273   3.626  15.599  0.5553 -1.8518 -0.5898
 8683SOL     OW37510   0.556   3.794   2.639 -0.1714  0.1335 -0.7639
 8683SOL    HW137511   0.620   3.725   2.655 -0.0692  0.6852  1.2035
 8683SOL    HW237512   0.562   3.810   2.545  1.7463 -2.8048 -1.1220
 8684SOL     OW37513   3.245   2.572  11.042  0.4559  0.7775  0.3330
 8684SOL    HW137514   3.181   2.505  11.017 -0.3284  1.2465  1.0891
 8684SOL    HW237515   3.226   2.578  11.135 -1.5641 -1.8130  0.0908
 8685SOL     OW37516   0.359   0.066  17.581  0.4095 -0.0165  0.0586
 8685SOL    HW137517   0.278   0.033  17.619 -0.4116  1.6994 -0.2250
 8685SOL    HW237518   0.384   0.125  17.652 -0.5182 -0.0683  0.4312
 8686SOL     OW37519   0.532   3.642   8.553  0.2700  0.0404  0.5268
 8686SOL    HW137520   0.553   3.648   8.646 -2.2782  3.2562  0.8578
 8686SOL    HW237521   0.450   3.690   8.547 -0.9675 -2.0028  0.8172
 8687SOL     OW37522   0.011   1.354   7.414  0.2378 -0.2536  0.3449
 8687SOL    HW137523   4.692   1.353   7.502 -0.7788  1.1727 -0.0784
 8687SOL    HW237524   0.099   1.381   7.442  0.3264  1.5955 -1.7153
 8688SOL     OW37525   1.076   1.110   2.129  0.6478 -0.2727  0.1545
 8688SOL    HW137526   1.161   1.152   2.116 -0.4265  1.6078 -0.7195
 8688SOL    HW237527   1.067   1.118   2.224 -2.1581 -1.2128 -0.0499
 8689SOL     OW37528   3.087   3.836  13.492  0.1631 -0.4079  0.1204
 8689SOL    HW137529   3.180   3.815  13.485  0.2166 -0.3005  0.4972
 8689SOL    HW237530   3.089   3.923  13.451  0.1254  0.2679  1.5550
 8690SOL     OW37531   0.178   0.881   5.144 -0.3399  0.1110 -0.1819
 8690SOL    HW137532   0.094   0.877   5.099 -0.4192  0.6077 -0.0690
 8690SOL    HW237533   0.175   0.973   5.167 -1.8963 -0.7008  2.7821
 8691SOL     OW37534   1.263   2.360   3.124 -0.4546 -0.1765  0.2563
 8691SOL    HW137535   1.168   2.373   3.114 -0.5299 -1.5923 -0.8772
 8691SOL    HW237536   1.285   2.431   3.184 -0.7678 -1.2887  1.6820
 8692SOL     OW37537   2.308   2.871  11.908 -0.2504 -0.9083 -0.0355
 8692SOL    HW137538   2.320   2.870  11.813 -0.6719 -1.0291 -0.0893
 8692SOL    HW237539   2.394   2.868  11.950 -0.0571 -1.9259 -0.5022
 8693SOL     OW37540   1.951   4.243   2.926 -0.3753  0.2936  0.3649
 8693SOL    HW137541   1.986   4.178   2.865 -0.1015  0.1145  0.7173
 8693SOL    HW237542   2.022   4.245   2.990 -0.4520 -0.1626  0.4626
 8694SOL     OW37543   3.844   3.734   1.022  0.0679  0.1969  0.8567
 8694SOL    HW137544   3.875   3.821   0.999 -2.0328  0.9851  0.9767
 8694SOL    HW237545   3.883   3.673   0.959 -2.4004 -1.1604  0.6426
 8695SOL     OW37546   2.816   0.672   4.398  0.0776 -0.4143 -0.0554
 8695SOL    HW137547   2.847   0.582   4.402  1.1893  0.0224  1.1204
 8695SOL    HW237548   2.731   0.650   4.360  0.6564 -1.6486 -0.6175
 8696SOL     OW37549   4.542   2.127   5.475  0.1049 -0.3557 -0.2770
 8696SOL    HW137550   4.478   2.128   5.546 -0.6460 -0.4299 -0.9541
 8696SOL    HW237551   4.517   2.055   5.417 -1.0149 -0.4671  0.3579
 8697SOL     OW37552   0.308   0.177   3.169 -0.3640 -1.0292 -0.4634
 8697SOL    HW137553   0.217   0.166   3.139 -0.8702 -0.8884  1.0557
 8697SOL    HW237554   0.300   0.231   3.247 -1.5226 -2.1771  0.2014
 8698SOL     OW37555   3.764   4.434   2.224  0.1563  0.2713 -0.0136
 8698SOL    HW137556   3.745   4.387   2.142  0.7095  0.9344 -0.5122
 8698SOL    HW237557   3.683   4.484   2.235  0.6700  1.7419 -3.0592
 8699SOL     OW37558   2.585   1.922   0.833  0.0581  0.1320 -0.0105
 8699SOL    HW137559   2.647   1.964   0.773  1.0343 -0.0423  0.8686
 8699SOL    HW237560   2.626   1.837   0.849 -0.0165  0.2025  0.5665
 8700SOL     OW37561   4.310   3.304   8.260 -0.3122  0.4106  0.1676
 8700SOL    HW137562   4.316   3.214   8.293  1.7758  0.9829  1.3549
 8700SOL    HW237563   4.334   3.297   8.168  0.5433 -1.2113  0.5161
 8701SOL     OW37564   4.401   2.429   7.052  0.0601 -0.1912  0.4431
 8701SOL    HW137565   4.365   2.498   6.997  0.4142 -1.8657 -1.9077
 8701SOL    HW237566   4.482   2.408   7.006 -0.2388  0.0189 -0.1784
 8702SOL     OW37567   4.444   0.109   3.523  0.1459  0.1352  0.0122
 8702SOL    HW137568   4.423   0.200   3.543 -1.4012 -0.5132  1.2650
 8702SOL    HW237569   4.520   0.093   3.580 -1.1891  0.3731  1.8397
 8703SOL     OW37570   0.551   1.742   4.659  0.8028  0.2389  0.2479
 8703SOL    HW137571   0.478   1.722   4.601  1.0355 -0.3250  0.1509
 8703SOL    HW237572   0.569   1.834   4.639 -1.9954  1.4802  3.5569
 8704SOL     OW37573   1.147   4.558   8.516  0.2427 -0.4548 -0.2044
 8704SOL    HW137574   1.059   4.557   8.478  0.4770  3.1051 -0.8980
 8704SOL    HW237575   1.131   4.549   8.610 -0.4239 -2.5087 -0.5199
 8705SOL     OW37576   3.471   1.739   7.742  0.1184  0.6210  0.2398
 8705SOL    HW137577   3.491   1.710   7.831 -0.6779 -1.6162 -0.3134
 8705SOL    HW237578   3.536   1.692   7.691  1.2134  2.4828 -0.0753
 8706SOL     OW37579   3.402   2.676   4.697  0.0551  0.1840 -0.5652
 8706SOL    HW137580   3.496   2.674   4.714 -0.2817 -0.3104  1.2314
 8706SOL    HW237581   3.378   2.704   4.785  0.9441  0.7807 -0.5152
 8707SOL     OW37582   4.139   0.583   1.917  0.0994  0.1192  0.7147
 8707SOL    HW137583   4.069   0.614   1.975 -1.3944  0.8608 -1.4485
 8707SOL    HW237584   4.085   0.528   1.860 -2.7788  2.6498  0.9842
 8708SOL     OW37585   4.380   2.699   9.041  0.1280  0.3334 -0.0439
 8708SOL    HW137586   4.434   2.625   9.066 -1.6812 -0.4276  1.6662
 8708SOL    HW237587   4.321   2.655   8.980  0.8146  2.8198 -2.5103
 8709SOL     OW37588   2.866   1.471  12.632 -0.0257  0.0015 -0.0897
 8709SOL    HW137589   2.856   1.564  12.651 -1.5736 -0.1788  0.0079
 8709SOL    HW237590   2.803   1.463  12.560 -0.8331 -1.4870  0.7711
 8710SOL     OW37591   2.797   2.914   1.279  0.8195  0.8948 -0.2035
 8710SOL    HW137592   2.793   2.819   1.286 -0.8608  0.9773 -0.0828
 8710SOL    HW237593   2.833   2.925   1.191  0.2222  0.5692 -0.4878
 8711SOL     OW37594   1.856   2.209   2.365 -0.0328  0.1236 -0.0251
 8711SOL    HW137595   1.884   2.192   2.275  0.9566  3.0873 -0.2846
 8711SOL    HW237596   1.760   2.208   2.362 -0.0395  0.4604  0.0523
 8712SOL     OW37597   4.059   2.346  15.643 -0.0931 -0.1090 -0.1190
 8712SOL    HW137598   4.026   2.273  15.696 -2.7176  0.7115 -0.6343
 8712SOL    HW237599   4.148   2.357  15.676  0.4987 -0.7185 -1.5084
 8713SOL     OW37600   3.891   4.717  11.906  0.3020  0.2797 -0.1079
 8713SOL    HW137601   3.879   0.094  11.911  1.6493  0.3826  1.3175
 8713SOL    HW237602   3.803   4.706  11.871  0.3208  1.0128 -0.3852
 8714SOL     OW37603   2.936   1.556   6.584  0.3401 -0.2306 -0.3671
 8714SOL    HW137604   2.922   1.628   6.646 -0.1292 -1.6220  1.1684
 8714SOL    HW237605   3.004   1.600   6.533 -1.3090  1.3587 -1.1800
 8715SOL     OW37606   3.183   4.710   6.536 -0.0251 -0.1752 -0.1843
 8715SOL    HW137607   3.121   0.015   6.605 -0.6936  0.1908 -0.9116
 8715SOL    HW237608   3.264   0.027   6.573  1.5903 -1.6577 -2.3356
 8716SOL     OW37609   0.982   1.107   3.070 -0.2296 -0.2329  0.1499
 8716SOL    HW137610   1.035   1.102   2.990  0.6988 -1.0231  0.8114
 8716SOL    HW237611   1.020   1.038   3.125 -0.7317 -1.0766 -0.5526
 8717SOL     OW37612   0.171   2.635  13.060 -0.4146 -0.1558  0.1911
 8717SOL    HW137613   0.091   2.638  13.007  0.3095  0.5989 -0.8483
 8717SOL    HW237614   0.141   2.693  13.130  1.4073  0.6249  0.3090
 8718SOL     OW37615   3.415   0.341  11.157 -0.7304  0.6487 -0.5090
 8718SOL    HW137616   3.434   0.434  11.145  0.1805  0.5837  0.4577
 8718SOL    HW237617   3.489   0.302  11.111  1.1393  1.0697  2.1346
 8719SOL     OW37618   3.788   3.514   9.119  0.5657 -0.1813  0.1622
 8719SOL    HW137619   3.796   3.598   9.074 -1.3797 -1.5619 -2.7693
 8719SOL    HW237620   3.723   3.473   9.061  0.0588  0.1325  0.5165
 8720SOL     OW37621   1.252   0.549  12.659  0.3892  0.5516  0.2808
 8720SOL    HW137622   1.240   0.607  12.585  1.6331  0.0412 -0.3175
 8720SOL    HW237623   1.275   0.620  12.719  0.0215 -0.4398  1.5859
 8721SOL     OW37624   4.572   4.009  11.019  0.1043 -0.4039  0.6688
 8721SOL    HW137625   4.659   3.976  11.045  0.5356  1.0521  1.0796
 8721SOL    HW237626   4.544   4.047  11.102 -2.3533 -0.3062 -0.2075
 8722SOL     OW37627   0.411   2.512  11.798 -0.2704  0.2955 -0.4224
 8722SOL    HW137628   0.324   2.508  11.838 -0.9948 -3.2873 -2.3754
 8722SOL    HW237629   0.455   2.573  11.857  0.7690  0.6875 -1.5937
 8723SOL     OW37630   0.479   0.245   6.412 -0.0232 -0.0566  0.1772
 8723SOL    HW137631   0.453   0.256   6.320  0.9445  0.6812 -0.0096
 8723SOL    HW237632   0.540   0.319   6.420  1.3892 -1.1158 -0.6412
 8724SOL     OW37633   2.012   3.925  17.545  0.1492  0.4245  0.1497
 8724SOL    HW137634   2.007   3.974  17.627 -0.6291  1.1315 -0.3287
 8724SOL    HW237635   2.058   3.995  17.499  3.1234 -0.5774  1.5792
 8725SOL     OW37636   3.344   1.380  16.924  0.1679 -0.8398  1.1546
 8725SOL    HW137637   3.282   1.449  16.949  1.5591  0.6276  0.5523
 8725SOL    HW237638   3.306   1.296  16.949  0.1242 -0.8330  1.1095
 8726SOL     OW37639   3.834   1.066  15.691 -0.3187 -0.3551  0.3849
 8726SOL    HW137640   3.912   1.014  15.674 -1.0892 -1.9324  1.6741
 8726SOL    HW237641   3.873   1.153  15.686 -0.1201 -0.3419  2.2693
 8727SOL     OW37642   2.299   0.004   3.238 -0.9029 -0.1820 -0.1989
 8727SOL    HW137643   2.282   4.665   3.314 -2.5632 -1.0154 -1.1939
 8727SOL    HW237644   2.393   4.706   3.222 -0.4308  1.2582  1.1651
 8728SOL     OW37645   2.194   0.844   6.765  0.0888 -0.4580 -0.0055
 8728SOL    HW137646   2.281   0.855   6.728 -1.1299  1.8616 -2.1776
 8728SOL    HW237647   2.147   0.915   6.722  0.6747  0.8792  1.5681
 8729SOL     OW37648   0.712   4.341   5.202 -0.2715 -0.6867  0.6740
 8729SOL    HW137649   0.621   4.311   5.210 -0.4892 -0.1923  0.0479
 8729SOL    HW237650   0.688   4.426   5.164  0.5242 -1.6879 -2.0800
 8730SOL     OW37651   4.500   0.292   3.266 -0.7341 -0.5519  0.2663
 8730SOL    HW137652   4.425   0.238   3.241 -1.5698 -0.3710  2.3611
 8730SOL    HW237653   4.541   0.242   3.337 -1.1647 -0.6731  0.4306
 8731SOL     OW37654   3.885   4.273  16.469  0.0901 -0.6163  0.4436
 8731SOL    HW137655   3.946   4.346  16.459  0.4153 -0.9120  0.2457
 8731SOL    HW237656   3.825   4.286  16.396  0.8816  1.4516  0.1711
 8732SOL     OW37657   1.228   0.325  14.217 -0.5143 -0.0408 -0.3230
 8732SOL    HW137658   1.215   0.416  14.243 -0.4940 -0.2651  0.4774
 8732SOL    HW237659   1.319   0.337  14.187 -1.7709  1.6263 -3.4612
 8733SOL     OW37660   1.177   2.603   8.342  0.0479  1.1792  0.3267
 8733SOL    HW137661   1.216   2.518   8.323 -3.2992 -0.3855  0.3197
 8733SOL    HW237662   1.257   2.656   8.347  0.3934  0.4453  2.7519
 8734SOL     OW37663   2.846   3.160   8.475  0.2874 -0.3075 -0.0231
 8734SOL    HW137664   2.756   3.158   8.443 -0.9857 -0.5649  3.4963
 8734SOL    HW237665   2.841   3.119   8.562 -0.8277  0.2491  0.1773
 8735SOL     OW37666   1.424   0.672   9.271 -0.2526  0.0079 -0.1200
 8735SOL    HW137667   1.486   0.742   9.252 -2.7948  1.7407 -2.1091
 8735SOL    HW237668   1.358   0.708   9.331 -0.8348  0.0766 -0.7983
 8736SOL     OW37669   4.617   2.886   6.935 -0.3598  0.2027 -0.1293
 8736SOL    HW137670   4.650   2.870   6.846 -1.4731  0.3260 -0.5561
 8736SOL    HW237671   4.600   2.802   6.977  1.7578  0.0514  0.4707
 8737SOL     OW37672   0.344   4.569  15.948 -0.0050  0.3733 -0.3950
 8737SOL    HW137673   0.280   4.633  15.916 -2.4648 -2.0990 -0.3612
 8737SOL    HW237674   0.314   4.490  15.905 -0.6964  0.1268  0.5393
 8738SOL     OW37675   3.227   4.214   9.606 -0.0578  0.5268  0.0189
 8738SOL    HW137676   3.158   4.261   9.653  0.1104 -0.6264  1.4349
 8738SOL    HW237677   3.180   4.186   9.528 -1.0150 -0.8510  1.0760
 8739SOL     OW37678   1.383   3.467   5.604  0.0856 -0.1988 -0.2636
 8739SOL    HW137679   1.294   3.489   5.632  0.8723  2.0115  0.5406
 8739SOL    HW237680   1.405   3.537   5.542  0.0388 -2.0175 -2.2952
 8740SOL     OW37681   2.552   2.633   8.030  0.1207 -0.3042 -0.1878
 8740SOL    HW137682   2.508   2.664   8.109  0.5373  0.0704 -0.0989
 8740SOL    HW237683   2.594   2.710   7.991 -2.7176  0.2187 -2.1754
 8741SOL     OW37684   3.966   1.866   7.931 -0.0152  0.0736 -0.1158
 8741SOL    HW137685   3.981   1.866   8.026 -0.1299 -0.9281 -0.0988
 8741SOL    HW237686   4.012   1.942   7.898  0.1530 -0.4675 -1.1150
 8742SOL     OW37687   3.913   2.222   9.173  0.4357 -0.2564 -1.0495
 8742SOL    HW137688   3.826   2.253   9.196  0.5539 -0.4093 -0.4123
 8742SOL    HW237689   3.956   2.292   9.123  0.9760 -0.4686 -0.8764
 8743SOL     OW37690   2.491   4.151   1.915 -0.5163 -0.2467 -0.4472
 8743SOL    HW137691   2.525   4.124   2.000  0.2209  0.7917 -0.4110
 8743SOL    HW237692   2.462   4.240   1.937  0.3859  0.2093 -1.0830
 8744SOL     OW37693   3.613   0.727   2.812  0.0682  0.0345  0.4117
 8744SOL    HW137694   3.665   0.749   2.890  0.6902 -0.2679  0.0851
 8744SOL    HW237695   3.551   0.661   2.842  0.0141  0.9339  2.2806
 8745SOL     OW37696   2.802   4.362  14.174  0.5003  0.7544  0.3555
 8745SOL    HW137697   2.760   4.416  14.241 -1.4393 -0.1524 -0.1257
 8745SOL    HW237698   2.723   4.320  14.141  0.8781  0.9808 -0.8351
 8746SOL     OW37699   1.808   3.639   7.743 -0.3231 -0.0082 -0.0883
 8746SOL    HW137700   1.892   3.626   7.698  0.4873  1.5273  0.9837
 8746SOL    HW237701   1.834   3.605   7.828 -0.8416  0.2518  0.1705
 8747SOL     OW37702   3.332   4.716  11.364  0.8840  0.3416 -0.0639
 8747SOL    HW137703   3.408   4.660  11.382  1.3429  0.3849 -1.8334
 8747SOL    HW237704   3.294   4.670  11.290  0.0237  1.5833 -0.3932
 8748SOL     OW37705   3.172   2.690   3.372 -0.4778  0.4542 -0.5585
 8748SOL    HW137706   3.178   2.781   3.343 -0.6089  0.8800  0.7563
 8748SOL    HW237707   3.260   2.678   3.406 -1.6891  0.4265  2.5932
 8749SOL     OW37708   1.900   4.058  14.298 -0.6845  1.0960  0.1202
 8749SOL    HW137709   1.897   4.139  14.348 -1.3503  1.0384  0.1731
 8749SOL    HW237710   1.806   4.041  14.291 -1.0457  3.2420 -0.4348
 8750SOL     OW37711   0.986   0.612  13.770  0.2773 -0.7628 -0.4327
 8750SOL    HW137712   0.971   0.533  13.822 -0.4963  0.1775  0.7671
 8750SOL    HW237713   1.082   0.613  13.774  0.1329  0.6257  2.8358
 8751SOL     OW37714   1.120   4.673   6.433 -0.1268  0.3111  0.2070
 8751SOL    HW137715   1.129   4.606   6.365  0.4798  0.9040 -0.2998
 8751SOL    HW237716   1.037   4.714   6.406  0.6044  1.8170  0.2146
 8752SOL     OW37717   2.120   2.658  17.308 -0.1457  0.3615  0.4627
 8752SOL    HW137718   2.029   2.630  17.313  0.3181 -1.2471 -0.1386
 8752SOL    HW237719   2.111   2.734  17.251 -0.5295 -1.4948 -1.9078
 8753SOL     OW37720   4.040   2.272   1.933 -0.3358 -0.6614  0.1352
 8753SOL    HW137721   4.073   2.253   1.846  1.2595 -0.8006  0.7690
 8753SOL    HW237722   4.046   2.190   1.983 -0.4393  0.2124  1.5845
 8754SOL     OW37723   1.078   4.404   6.348  0.4166 -0.3025  0.3968
 8754SOL    HW137724   1.145   4.336   6.338  2.1607  1.6356 -0.9657
 8754SOL    HW237725   1.026   4.400   6.268 -0.8549  2.7612  1.0794
 8755SOL     OW37726   0.850   3.446   9.527 -0.3899 -0.2646  0.1739
 8755SOL    HW137727   0.793   3.370   9.530 -1.3289  0.4440  0.3810
 8755SOL    HW237728   0.797   3.522   9.505  1.0047  0.2706 -1.3370
 8756SOL     OW37729   1.817   3.782   2.632 -0.2159  0.3131  0.3914
 8756SOL    HW137730   1.848   3.862   2.590 -0.2872  0.1408  0.0090
 8756SOL    HW237731   1.843   3.788   2.724  0.8943 -0.9622  0.1693
 8757SOL     OW37732   4.596   0.171   7.935  0.2427 -0.2177  0.4127
 8757SOL    HW137733   4.666   0.106   7.922 -0.7986 -1.0986 -0.8686
 8757SOL    HW237734   4.518   0.116   7.926 -0.2341  0.5472 -0.0455
 8758SOL     OW37735   1.955   1.835   7.772  0.2889  0.1885  0.0441
 8758SOL    HW137736   1.987   1.869   7.855 -0.4898 -2.3610  1.3998
 8758SOL    HW237737   1.894   1.769   7.807  0.5623 -0.3789 -0.5466
 8759SOL     OW37738   4.136   4.376   0.608 -0.0467 -0.9240  0.1271
 8759SOL    HW137739   4.063   4.342   0.661 -1.6724  2.9298  0.3466
 8759SOL    HW237740   4.105   4.463   0.585 -0.2001 -0.9152  0.3588
 8760SOL     OW37741   3.463   1.719  10.425  0.2462  0.3696 -0.8437
 8760SOL    HW137742   3.495   1.804  10.395  1.8452 -0.1956 -0.7409
 8760SOL    HW237743   3.369   1.735  10.421  0.0279 -1.0065 -1.4015
 8761SOL     OW37744   2.910   0.818   9.039  0.6010 -0.8102  0.7033
 8761SOL    HW137745   2.982   0.881   9.044 -0.6299  0.4978  1.9631
 8761SOL    HW237746   2.899   0.792   9.131  0.0865  1.4709  1.2815
 8762SOL     OW37747   1.228   0.133   4.537  0.1442 -0.1773 -0.4670
 8762SOL    HW137748   1.303   0.074   4.548  1.3468  1.0946 -1.7412
 8762SOL    HW237749   1.259   0.209   4.489 -0.6116  0.0228 -0.6459
 8763SOL     OW37750   2.196   1.605   6.972 -0.7065  0.0698 -0.4718
 8763SOL    HW137751   2.261   1.609   6.902 -0.6137 -0.2485 -0.4049
 8763SOL    HW237752   2.131   1.565   6.915 -0.6266 -1.2625  0.3887
 8764SOL     OW37753   3.663   1.178   6.265  0.1477 -0.0482  0.2462
 8764SOL    HW137754   3.689   1.127   6.188 -2.4166 -0.5688 -0.2911
 8764SOL    HW237755   3.662   1.119   6.340  0.1584 -0.9433 -0.4527
 8765SOL     OW37756   3.517   0.253   8.536  0.3321  0.7313 -0.0775
 8765SOL    HW137757   3.590   0.191   8.533  0.0671  0.5701 -2.4679
 8765SOL    HW237758   3.525   0.296   8.621  0.6676  1.7046 -0.6065
 8766SOL     OW37759   3.408   0.071  13.077  0.5456 -0.1501  0.5077
 8766SOL    HW137760   3.379   0.160  13.094 -0.1366 -0.1055 -0.9004
 8766SOL    HW237761   3.343   0.043  13.013  1.2032  0.0788 -0.2637
 8767SOL     OW37762   4.690   1.713   4.292 -0.9910 -0.6457  0.1504
 8767SOL    HW137763   4.700   1.654   4.367  1.7135 -0.1092  0.2355
 8767SOL    HW237764   4.596   1.707   4.276 -0.3154 -1.7830 -3.2602
 8768SOL     OW37765   2.000   0.989   6.242  0.0414 -0.6127  0.3170
 8768SOL    HW137766   1.938   1.042   6.292 -1.1708 -0.3460 -1.4406
 8768SOL    HW237767   1.949   0.909   6.231 -0.3472 -0.3182 -0.0285
 8769SOL     OW37768   1.469   3.917   5.791  0.1978 -0.9041  0.0722
 8769SOL    HW137769   1.555   3.881   5.769  0.4184 -0.2673 -0.0919
 8769SOL    HW237770   1.476   3.925   5.886 -0.0954  0.2580 -0.0014
 8770SOL     OW37771   4.387   4.251   0.961  0.1076  0.3593 -0.0242
 8770SOL    HW137772   4.348   4.328   0.920 -0.4043  0.8066  1.2994
 8770SOL    HW237773   4.473   4.252   0.918  0.3632  0.7577  0.4937
 8771SOL     OW37774   2.277   0.308   2.363 -0.2926 -0.2524 -0.9303
 8771SOL    HW137775   2.296   0.399   2.340 -2.7520  0.5940  0.3153
 8771SOL    HW237776   2.359   0.259   2.357  0.3514  0.1490  4.3889
 8772SOL     OW37777   3.602   0.871   5.743  0.2578  0.0112 -0.2173
 8772SOL    HW137778   3.613   0.877   5.838 -0.1571 -0.2597 -0.1516
 8772SOL    HW237779   3.531   0.934   5.730  0.1377  0.3309  1.8781
 8773SOL     OW37780   0.501   1.741   2.814 -0.3232 -0.3718  0.1407
 8773SOL    HW137781   0.457   1.662   2.845 -1.3172  0.4896  0.9111
 8773SOL    HW237782   0.465   1.738   2.726  2.0964  0.1235 -0.8796
 8774SOL     OW37783   0.643   3.490   7.683  0.1244  0.2601  0.0032
 8774SOL    HW137784   0.607   3.568   7.640  0.8627  0.7193  0.2339
 8774SOL    HW237785   0.624   3.515   7.773  2.6133 -0.9498  0.8520
 8775SOL     OW37786   1.801   4.101   4.997  0.4084  0.0032 -0.0774
 8775SOL    HW137787   1.807   4.129   4.905 -0.1672  2.6858  0.7179
 8775SOL    HW237788   1.758   4.178   5.033 -0.9750  0.1224 -1.9418
 8776SOL     OW37789   2.681   2.520   2.663 -0.5122  0.2852  0.1800
 8776SOL    HW137790   2.634   2.442   2.634  0.5422  0.1006 -1.0115
 8776SOL    HW237791   2.618   2.586   2.632 -1.3337 -1.6601 -2.3270
 8777SOL     OW37792   1.845   0.014  11.184 -0.0076  0.3042  1.0444
 8777SOL    HW137793   1.940   0.003  11.179 -0.3146 -1.7693 -0.2674
 8777SOL    HW237794   1.816   0.014  11.093  0.6239 -0.3870  0.8439
 8778SOL     OW37795   4.430   2.414   7.345 -0.1459 -0.4831  0.1060
 8778SOL    HW137796   4.430   2.395   7.252  0.7987 -1.3579  0.2850
 8778SOL    HW237797   4.523   2.404   7.364 -0.2107  0.1561  0.7904
 8779SOL     OW37798   3.841   2.538  14.082 -0.0240  0.7274 -0.4318
 8779SOL    HW137799   3.747   2.545  14.065 -0.5408  2.2023  2.8897
 8779SOL    HW237800   3.848   2.472  14.151  0.6547  1.1910 -0.0585
 8780SOL     OW37801   4.467   3.777   6.098 -0.2854  0.3867 -0.2538
 8780SOL    HW137802   4.460   3.702   6.039 -0.2835 -0.1686  0.4568
 8780SOL    HW237803   4.561   3.794   6.090 -0.2278  0.6398  0.9251
 8781SOL     OW37804   2.525   1.150  11.768 -0.7288  0.3450  0.0790
 8781SOL    HW137805   2.577   1.134  11.689  0.2169  2.2085  0.3089
 8781SOL    HW237806   2.578   1.226  11.792 -0.0426 -0.8228  2.3009
 8782SOL     OW37807   1.046   4.340   5.977  0.3518 -0.6963 -0.1658
 8782SOL    HW137808   1.032   4.256   5.932 -1.6850 -0.6266  0.3292
 8782SOL    HW237809   0.974   4.331   6.040  0.2397  1.0929 -0.0528
 8783SOL     OW37810   4.455   2.662   7.859  0.0131 -0.0514  0.3311
 8783SOL    HW137811   4.462   2.598   7.788  2.2705  0.0130  0.4904
 8783SOL    HW237812   4.447   2.599   7.931 -1.1894 -1.1553 -0.7657
 8784SOL     OW37813   2.993   0.088   3.442  0.2764 -0.1324  0.5504
 8784SOL    HW137814   3.025   0.080   3.353  4.3469 -0.6468  2.0640
 8784SOL    HW237815   2.930   0.160   3.439  1.2701  0.6544 -0.8880
 8785SOL     OW37816   1.067   0.607   4.546  0.1413  0.5313 -0.1242
 8785SOL    HW137817   1.119   0.681   4.512 -1.7642  2.2124  0.6120
 8785SOL    HW237818   1.043   0.582   4.458  1.7586  0.2491 -0.4955
 8786SOL     OW37819   2.661   2.409  15.302  0.1615 -0.2569 -0.5937
 8786SOL    HW137820   2.605   2.334  15.317  2.4779 -1.9429 -0.3521
 8786SOL    HW237821   2.748   2.370  15.308 -0.0088 -0.8429 -1.8783
 8787SOL     OW37822   3.533   0.007   5.860  0.2188 -0.2519 -0.4403
 8787SOL    HW137823   3.441   4.701   5.867 -0.0915  0.6838 -1.4823
 8787SOL    HW237824   3.521   0.080   5.800  0.2868 -1.3526 -1.7997
 8788SOL     OW37825   3.119   3.152   4.471 -0.0055 -0.4193 -0.2402
 8788SOL    HW137826   3.210   3.123   4.458  0.4440  0.5712  0.6951
 8788SOL    HW237827   3.141   3.245   4.465  3.3961 -1.0609  2.0601
 8789SOL     OW37828   0.538   4.083   9.243 -0.1242 -0.1204  0.0282
 8789SOL    HW137829   0.549   4.177   9.228  0.8659  0.0499  1.8841
 8789SOL    HW237830   0.515   4.042   9.160  0.9602  0.6915 -0.6728
 8790SOL     OW37831   4.192   1.197   5.538  0.2928 -0.0612  0.7794
 8790SOL    HW137832   4.204   1.266   5.604  2.0591  1.4623 -1.1179
 8790SOL    HW237833   4.180   1.251   5.460  1.3135  2.6491  2.4924
 8791SOL     OW37834   2.428   1.114   8.123 -0.3074 -0.5599  0.0838
 8791SOL    HW137835   2.439   1.036   8.178  1.1029 -0.5575 -0.2082
 8791SOL    HW237836   2.440   1.075   8.037 -1.4613  1.8785 -1.1936
 8792SOL     OW37837   1.711   0.673   5.959 -0.3091 -0.0067 -0.9651
 8792SOL    HW137838   1.622   0.692   5.931 -0.5833 -1.6841 -1.2276
 8792SOL    HW237839   1.721   0.589   5.915  1.6586 -0.5191  0.4363
 8793SOL     OW37840   2.957   2.358   4.035  0.0327 -0.7578  0.5203
 8793SOL    HW137841   3.022   2.422   4.063 -0.2242 -0.8986  1.4449
 8793SOL    HW237842   3.010   2.286   4.001  0.2164  0.2382 -1.2727
 8794SOL     OW37843   0.500   1.433   4.468  0.4392  0.0311 -0.0236
 8794SOL    HW137844   0.527   1.509   4.416  2.1000  1.3335  2.7395
 8794SOL    HW237845   0.580   1.381   4.473  0.0197 -0.7391 -1.1050
 8795SOL     OW37846   0.634   0.494  12.245 -0.1298  0.4473 -0.2911
 8795SOL    HW137847   0.620   0.570  12.189 -2.7451  2.3984  2.9770
 8795SOL    HW237848   0.729   0.490  12.247 -0.1292 -0.3633 -2.3496
 8796SOL     OW37849   0.343   3.907   4.104 -0.2143 -1.0810  0.9683
 8796SOL    HW137850   0.266   3.897   4.048 -0.7119  1.4281  1.1988
 8796SOL    HW237851   0.402   3.833   4.085 -1.2027 -1.1799 -1.7565
 8797SOL     OW37852   1.362   2.672   7.834  0.7894 -0.9158  0.1095
 8797SOL    HW137853   1.363   2.592   7.888  0.3004 -2.9787 -2.9443
 8797SOL    HW237854   1.447   2.679   7.791 -0.3272 -0.2473 -1.9491
 8798SOL     OW37855   2.386   1.209   7.044 -0.5535 -0.5179  0.1627
 8798SOL    HW137856   2.441   1.287   7.039  0.9484 -1.5458  0.8953
 8798SOL    HW237857   2.455   1.146   7.020  1.3597  1.3270  0.8431
 8799SOL     OW37858   3.343   2.266   3.697  0.1028  0.3331  0.2159
 8799SOL    HW137859   3.288   2.288   3.622 -3.1151  0.9094  2.7382
 8799SOL    HW237860   3.283   2.268   3.772 -2.2197  1.3090 -1.6545
 8800SOL     OW37861   2.265   0.257   6.446 -0.3242  0.0473  0.0601
 8800SOL    HW137862   2.270   0.297   6.360  1.0636  2.8784  1.4627
 8800SOL    HW237863   2.176   0.283   6.470 -1.6362 -2.8755 -1.6873
 8801SOL     OW37864   2.107   4.709   9.372  0.0093 -0.2328 -0.0761
 8801SOL    HW137865   2.184   0.022   9.324  0.0185  0.1014  0.1552
 8801SOL    HW237866   2.149   4.699   9.457  1.1120 -3.2217 -0.9497
 8802SOL     OW37867   0.261   0.590  13.135  0.3272  0.2443 -0.4242
 8802SOL    HW137868   0.182   0.538  13.120  0.2398  0.3145 -0.2031
 8802SOL    HW237869   0.315   0.537  13.193 -1.2475 -0.8928 -0.0011
 8803SOL     OW37870   0.850   2.182   1.457  0.0066 -0.1743 -0.3612
 8803SOL    HW137871   0.854   2.105   1.514  1.2466  0.8548  0.9186
 8803SOL    HW237872   0.756   2.169   1.441 -0.0441  0.2524 -0.4098
 8804SOL     OW37873   2.667   1.435  16.423  0.4818 -0.1169  0.0055
 8804SOL    HW137874   2.748   1.435  16.475 -0.2428 -2.2603  1.1207
 8804SOL    HW237875   2.630   1.521  16.438 -2.8827 -1.4353 -0.8375
 8805SOL     OW37876   4.501   2.642   4.430 -0.5184  0.2026 -0.3410
 8805SOL    HW137877   4.502   2.639   4.334 -1.0859  1.9593 -0.4110
 8805SOL    HW237878   4.415   2.608   4.453 -1.1194  2.6297  0.9840
 8806SOL     OW37879   1.480   3.670   5.428 -0.8309 -0.8568 -0.5131
 8806SOL    HW137880   1.528   3.745   5.465  0.6113 -0.6797 -2.7659
 8806SOL    HW237881   1.546   3.630   5.372 -0.2497 -1.5385  0.6500
 8807SOL     OW37882   4.209   2.023   3.713  0.1072  0.0443 -0.3429
 8807SOL    HW137883   4.160   1.941   3.709  0.9675 -0.6077  2.6558
 8807SOL    HW237884   4.257   2.022   3.630  3.5511 -1.4519  1.6738
 8808SOL     OW37885   3.952   1.306  15.631 -1.3314  0.2216  0.4911
 8808SOL    HW137886   3.936   1.399  15.648 -1.3995  0.3651 -0.3321
 8808SOL    HW237887   4.017   1.308  15.560 -2.8086 -1.5116 -0.9103
 8809SOL     OW37888   2.511   1.958   8.532  0.0006  0.6811  0.7517
 8809SOL    HW137889   2.520   1.933   8.440  1.3957 -0.6173  1.2318
 8809SOL    HW237890   2.553   1.882   8.573 -1.6126 -1.4909 -1.5311
 8810SOL     OW37891   3.716   4.115   4.021  0.0498 -0.1356  0.1148
 8810SOL    HW137892   3.793   4.097   4.076 -0.0766 -0.9904  0.0218
 8810SOL    HW237893   3.760   4.166   3.954 -1.3018 -0.4349 -0.9945
 8811SOL     OW37894   1.606   1.489  13.707  0.1163 -0.5210 -0.3122
 8811SOL    HW137895   1.696   1.491  13.675  1.1388  0.0499  2.5422
 8811SOL    HW237896   1.603   1.538  13.790 -2.4261  0.6776 -1.1033
 8812SOL     OW37897   3.559   1.072   4.203  0.3261 -0.4152  0.0818
 8812SOL    HW137898   3.470   1.037   4.206 -0.2503  1.2618  2.4081
 8812SOL    HW237899   3.543   1.166   4.209 -1.5279 -0.7801  0.8815
 8813SOL     OW37900   2.779   1.305   3.723  0.1606  0.2959  0.0830
 8813SOL    HW137901   2.828   1.380   3.759  2.5336 -1.3633  0.3649
 8813SOL    HW237902   2.835   1.242   3.769  1.0359  0.4830 -0.7229
 8814SOL     OW37903   0.358   4.396   0.721 -0.0479  0.4309 -0.2179
 8814SOL    HW137904   0.364   4.492   0.717 -1.3884  0.6877  3.5815
 8814SOL    HW237905   0.443   4.370   0.687 -0.7607 -1.7974 -0.3188
 8815SOL     OW37906   4.704   1.542  16.185 -0.2987  0.3580  0.0416
 8815SOL    HW137907   4.654   1.461  16.184  0.1927  0.0643 -1.4638
 8815SOL    HW237908   4.698   1.558  16.279 -0.1616  0.4609  0.0340
 8816SOL     OW37909   1.594   3.672   3.882 -0.3524  0.0289  0.2489
 8816SOL    HW137910   1.580   3.650   3.790  2.6345 -0.9847  0.0364
 8816SOL    HW237911   1.567   3.764   3.882 -1.7576 -0.3885 -3.3956
 8817SOL     OW37912   3.347   0.172   1.859 -0.3686 -0.0396 -0.4279
 8817SOL    HW137913   3.313   0.143   1.944  0.7989  1.3984  0.5271
 8817SOL    HW237914   3.437   0.147   1.880 -0.2922  0.0795 -0.6142
 8818SOL     OW37915   4.523   1.510   8.763 -0.7266 -0.5804 -0.1333
 8818SOL    HW137916   4.558   1.552   8.842 -2.2937 -0.5318  0.5161
 8818SOL    HW237917   4.603   1.476   8.722 -0.9949 -0.1948 -0.9825
 8819SOL     OW37918   1.644   0.852  16.182  0.0537  0.0952  0.8781
 8819SOL    HW137919   1.645   0.875  16.275 -1.6632  0.2933  0.8477
 8819SOL    HW237920   1.552   0.838  16.159 -0.0685  0.0899  1.3644
 8820SOL     OW37921   1.727   0.721   6.539 -0.0669 -0.0023 -0.0951
 8820SOL    HW137922   1.783   0.779   6.591 -0.5604  0.6408 -0.2902
 8820SOL    HW237923   1.717   0.772   6.459 -0.2449 -1.1490 -0.8070
 8821SOL     OW37924   3.082   4.059  10.841 -0.1623  0.3982 -0.2734
 8821SOL    HW137925   3.106   4.075  10.750  1.4819 -0.9850 -0.0892
 8821SOL    HW237926   2.989   4.052  10.821  0.4163 -1.9031 -2.1969
 8822SOL     OW37927   2.692   2.506   8.927 -0.3073 -0.0799 -0.2776
 8822SOL    HW137928   2.621   2.476   8.984 -0.3408  0.4826 -0.0208
 8822SOL    HW237929   2.645   2.586   8.903  0.2099 -0.2195 -1.7039
 8823SOL     OW37930   4.243   1.417   4.003 -0.1079 -0.1083 -0.1853
 8823SOL    HW137931   4.335   1.394   4.009 -0.1426  0.4757  2.6091
 8823SOL    HW237932   4.207   1.329   3.989 -0.9652  0.0582  0.9925
 8824SOL     OW37933   2.615   3.460  14.977  0.2795 -0.2333 -0.5815
 8824SOL    HW137934   2.607   3.496  14.888  0.5986  2.2980  0.4028
 8824SOL    HW237935   2.613   3.537  15.034 -2.2107 -0.1547 -0.7525
 8825SOL     OW37936   0.297   3.336   5.691 -0.1643 -0.0589 -0.5882
 8825SOL    HW137937   0.318   3.243   5.699 -0.9216 -0.1783  0.0188
 8825SOL    HW237938   0.248   3.342   5.773  0.3115 -1.8684 -0.1839
 8826SOL     OW37939   3.487   4.154  10.765 -0.9898 -0.2553 -0.0976
 8826SOL    HW137940   3.424   4.226  10.758 -4.0076 -2.6748  1.6194
 8826SOL    HW237941   3.497   4.155  10.860  0.5064 -0.5912 -0.2564
 8827SOL     OW37942   3.610   1.619   6.682 -0.4591 -0.1317  0.1164
 8827SOL    HW137943   3.698   1.638   6.716 -0.4201 -2.3326  1.2813
 8827SOL    HW237944   3.575   1.707   6.674  3.1275  1.4098  1.3243
 8828SOL     OW37945   1.287   1.909  16.763  0.0528 -0.4117 -0.0529
 8828SOL    HW137946   1.247   1.840  16.710 -1.3031  0.5034 -0.2137
 8828SOL    HW237947   1.291   1.870  16.850 -0.2933 -0.6100 -0.1292
 8829SOL     OW37948   3.708   3.056   6.200 -0.6320 -0.1690  0.3920
 8829SOL    HW137949   3.780   3.089   6.147 -1.9927 -1.5822 -2.3688
 8829SOL    HW237950   3.633   3.069   6.141 -0.8099 -0.3202  0.5826
 8830SOL     OW37951   1.337   1.739   5.533  0.9974  0.0703  0.2637
 8830SOL    HW137952   1.347   1.684   5.610 -3.8607 -1.7707 -0.4084
 8830SOL    HW237953   1.430   1.740   5.508  1.7316 -1.2164  3.0171
 8831SOL     OW37954   3.639   4.480   3.618  0.2713  0.3166  0.4587
 8831SOL    HW137955   3.590   4.432   3.551  0.3297 -2.7132  2.5642
 8831SOL    HW237956   3.639   4.418   3.690 -1.5103 -0.7619 -0.4752
 8832SOL     OW37957   3.035   1.054   8.659  0.3483 -0.1431  0.0154
 8832SOL    HW137958   3.042   1.137   8.707  2.9318  1.2510 -2.7845
 8832SOL    HW237959   2.961   1.013   8.704 -0.2112  0.1285 -0.6667
 8833SOL     OW37960   2.425   2.143  15.042 -0.3192  0.4095 -0.0694
 8833SOL    HW137961   2.466   2.198  14.976  0.3388 -0.8179 -0.6883
 8833SOL    HW237962   2.336   2.144  15.005 -0.2230 -1.5015 -0.3730
 8834SOL     OW37963   0.252   0.681  15.288 -0.0778 -0.7081 -0.1858
 8834SOL    HW137964   0.171   0.708  15.244 -0.1733 -1.1685 -0.2967
 8834SOL    HW237965   0.243   0.588  15.310  0.3455 -1.3712 -2.7657
 8835SOL     OW37966   0.557   0.914   7.446 -0.3102 -0.4216  0.1184
 8835SOL    HW137967   0.633   0.881   7.495  0.4988  2.8756  1.0890
 8835SOL    HW237968   0.602   0.993   7.417 -0.9980 -0.5103 -1.2236
 8836SOL     OW37969   1.471   4.113  13.220  0.0303 -0.3489 -0.2137
 8836SOL    HW137970   1.435   4.025  13.217 -1.1601  0.0499  1.9072
 8836SOL    HW237971   1.394   4.163  13.193  1.4555  1.8762 -0.1650
 8837SOL     OW37972   1.224   0.216   8.962 -0.2003 -0.1369  0.1715
 8837SOL    HW137973   1.209   0.302   9.000  1.0444  0.1366  0.0682
 8837SOL    HW237974   1.266   0.185   9.043 -3.2979 -0.1118  1.7925
 8838SOL     OW37975   4.309   0.345  11.376  0.2377 -0.1012 -0.1325
 8838SOL    HW137976   4.352   0.345  11.290  0.6010  0.5959  0.0416
 8838SOL    HW237977   4.235   0.285  11.372 -2.0306  2.7642 -1.3158
 8839SOL     OW37978   4.031   0.470  11.033 -0.1092 -0.2442  0.4540
 8839SOL    HW137979   4.012   0.377  11.047 -0.2131 -0.4968 -1.3538
 8839SOL    HW237980   3.946   0.515  11.036 -0.1073 -0.0271 -2.7921
 8840SOL     OW37981   1.983   1.055   3.350 -0.1695 -0.5997 -0.2816
 8840SOL    HW137982   1.969   1.028   3.260 -0.1237 -0.1180 -0.4359
 8840SOL    HW237983   2.075   1.081   3.341  0.2134 -1.7765  0.2232
 8841SOL     OW37984   2.721   3.132   0.367  0.0705  0.1239  0.1948
 8841SOL    HW137985   2.765   3.047   0.367  2.2396  1.2455  1.9620
 8841SOL    HW237986   2.795   3.177   0.326  0.2886 -1.3332 -1.0038
 8842SOL     OW37987   4.020   2.432   8.345  0.5124 -0.0047  0.2906
 8842SOL    HW137988   3.973   2.461   8.267  3.2168 -0.1250 -1.3974
 8842SOL    HW237989   4.038   2.512   8.394 -0.7330 -0.5762  1.6737
 8843SOL     OW37990   2.227   2.923   3.422  0.4934  0.4579  0.0913
 8843SOL    HW137991   2.295   2.986   3.442 -0.1620  1.0285  0.4911
 8843SOL    HW237992   2.243   2.914   3.328  1.7922 -1.3575  0.4740
 8844SOL     OW37993   1.016   2.836  13.400  0.1381  0.2672 -0.2665
 8844SOL    HW137994   0.986   2.789  13.322  1.3797 -1.5848  0.3700
 8844SOL    HW237995   0.940   2.891  13.418 -0.1218  0.2999 -1.4903
 8845SOL     OW37996   3.474   1.292   2.914 -0.3672 -0.1794 -0.4667
 8845SOL    HW137997   3.460   1.375   2.960  0.0618  0.3779 -1.3417
 8845SOL    HW237998   3.570   1.293   2.909 -0.3519 -1.3804 -0.3896
 8846SOL     OW37999   2.797   4.470   2.276 -0.1954  0.0887 -0.6191
 8846SOL    HW138000   2.760   4.475   2.188  0.2181  0.4211 -0.7752
 8846SOL    HW238001   2.750   4.395   2.312  0.0458 -0.8095 -2.1705
 8847SOL     OW38002   1.935   3.735   7.361  0.1151 -0.2715 -0.1956
 8847SOL    HW138003   1.870   3.688   7.309  0.5471 -1.2183  0.1313
 8847SOL    HW238004   2.015   3.686   7.346 -0.7195 -1.3112 -1.2708
 8848SOL     OW38005   4.116   2.846   1.918 -0.1548 -0.6289  0.3045
 8848SOL    HW138006   4.024   2.866   1.900  0.0867  1.7457  1.6548
 8848SOL    HW238007   4.128   2.898   1.998 -0.8053 -0.2813  0.1781
 8849SOL     OW38008   2.278   4.125   5.290  0.3023  0.5357  0.4554
 8849SOL    HW138009   2.338   4.178   5.238 -1.4485  1.8586 -0.2064
 8849SOL    HW238010   2.200   4.119   5.236  0.0755 -0.7277  0.9297
 8850SOL     OW38011   1.364   0.397   6.679 -0.3183  0.3093 -0.1753
 8850SOL    HW138012   1.423   0.432   6.614 -1.6138  3.9514  0.6085
 8850SOL    HW238013   1.275   0.396   6.643 -0.2496 -2.7339 -0.2998
 8851SOL     OW38014   3.797   0.753  12.191  0.0694  0.9692  0.4621
 8851SOL    HW138015   3.780   0.753  12.285 -0.2510 -0.2684  0.4123
 8851SOL    HW238016   3.740   0.825  12.166  0.1288  0.6203 -0.6753
 8852SOL     OW38017   0.766   2.278   4.210  0.2802 -0.2730 -0.1053
 8852SOL    HW138018   0.777   2.338   4.284  0.1726  0.8359 -0.9850
 8852SOL    HW238019   0.788   2.201   4.262 -0.9312 -0.5851 -0.0665
 8853SOL     OW38020   1.967   1.120   4.891 -0.4451 -0.0339  0.8796
 8853SOL    HW138021   2.016   1.040   4.874 -0.4646  0.6258 -2.3406
 8853SOL    HW238022   1.879   1.084   4.892 -0.6565  0.4165 -1.4912
 8854SOL     OW38023   0.918   4.188   8.566 -0.4401 -0.5721 -0.1280
 8854SOL    HW138024   0.959   4.102   8.564  1.7725  0.4346  0.9980
 8854SOL    HW238025   0.933   4.212   8.658 -0.3213  0.3216 -0.3734
 8855SOL     OW38026   2.353   0.231   7.421  0.1161 -0.1772 -0.1332
 8855SOL    HW138027   2.326   0.314   7.381  1.6103 -0.3002 -1.4006
 8855SOL    HW238028   2.412   0.263   7.489  0.4974  0.8403 -0.9409
 8856SOL     OW38029   3.278   3.749  17.511  0.1911 -0.6526 -0.2161
 8856SOL    HW138030   3.311   3.692  17.581 -1.0859 -0.5515  0.4601
 8856SOL    HW238031   3.197   3.700  17.500  0.3477 -1.4329  2.0406
 8857SOL     OW38032   2.669   1.605   6.093 -0.7544  0.3094  0.5351
 8857SOL    HW138033   2.702   1.694   6.083  0.6779 -0.2818 -0.0982
 8857SOL    HW238034   2.749   1.553   6.089 -0.8613  0.4111 -3.3731
 8858SOL     OW38035   1.340   1.239  16.568  0.7629  0.1949  0.2556
 8858SOL    HW138036   1.364   1.150  16.594  0.4348  0.0470  0.0583
 8858SOL    HW238037   1.258   1.213  16.525 -0.1594 -0.0681  2.1960
 8859SOL     OW38038   2.036   4.470  14.498 -0.0018 -0.5704  0.3787
 8859SOL    HW138039   2.050   4.465  14.592 -1.5264 -1.0205  0.5843
 8859SOL    HW238040   1.951   4.426  14.492 -1.2443  1.9637 -0.8191
 8860SOL     OW38041   0.795   3.548  17.298  0.0535 -0.0985  0.1800
 8860SOL    HW138042   0.848   3.512  17.369  0.0216 -0.4241  0.0377
 8860SOL    HW238043   0.846   3.514  17.224 -0.0087 -2.9095  1.4215
 8861SOL     OW38044   4.447   3.110   8.533 -0.0377 -0.2359 -0.0181
 8861SOL    HW138045   4.525   3.070   8.494  0.7593 -0.0249  1.3511
 8861SOL    HW238046   4.372   3.055   8.514 -0.9460  1.3799 -1.1571
 8862SOL     OW38047   0.958   3.038   1.915  0.0066  0.4006 -0.1211
 8862SOL    HW138048   1.022   3.096   1.957 -1.2649  1.4370  0.3980
 8862SOL    HW238049   0.918   3.094   1.848  1.6755  0.0448 -1.4176
 8863SOL     OW38050   1.904   1.480   3.450 -0.8371  0.4322  0.1218
 8863SOL    HW138051   1.900   1.462   3.544  1.2118  4.3843  0.9825
 8863SOL    HW238052   1.825   1.436   3.419 -0.2617 -0.1816 -0.4671
 8864SOL     OW38053   3.978   1.060  13.432  0.0455 -0.5216 -0.5844
 8864SOL    HW138054   3.892   1.103  13.436  0.1465 -0.5393  1.7090
 8864SOL    HW238055   3.979   1.011  13.350  0.0180  1.0777 -1.5364
 8865SOL     OW38056   3.209   2.500   7.631  0.3166 -0.1792 -0.0769
 8865SOL    HW138057   3.221   2.405   7.626  0.2562 -0.0820 -2.1951
 8865SOL    HW238058   3.161   2.524   7.710 -2.1298 -0.7315 -1.3891
 8866SOL     OW38059   3.983   1.297   8.638  0.5262  0.0662  0.6877
 8866SOL    HW138060   4.008   1.387   8.619 -2.1362  1.0392  1.7992
 8866SOL    HW238061   4.062   1.257   8.675 -0.2350 -0.4438  1.7691
 8867SOL     OW38062   0.216   0.333   3.382  0.5297  0.0110  0.1519
 8867SOL    HW138063   0.199   0.400   3.315 -1.4675 -0.7846 -0.1472
 8867SOL    HW238064   0.150   0.354   3.448  2.3162 -1.3262  2.3230
 8868SOL     OW38065   2.346   0.788   3.115 -0.6374 -0.2433  0.3399
 8868SOL    HW138066   2.263   0.739   3.112 -1.3732  1.0471 -0.4647
 8868SOL    HW238067   2.380   0.755   3.032 -0.8736  0.0670  0.1186
 8869SOL     OW38068   3.298   2.648   9.924  0.5657 -0.4641  0.2344
 8869SOL    HW138069   3.261   2.736   9.929  0.9802 -0.1571 -1.9620
 8869SOL    HW238070   3.279   2.641   9.830 -1.1722 -2.0365  0.6987
 8870SOL     OW38071   0.745   2.147  10.722  0.0322  0.0554  0.4572
 8870SOL    HW138072   0.831   2.109  10.742 -0.3464 -1.3779 -0.6353
 8870SOL    HW238073   0.756   2.204  10.647  0.2242 -0.0328  0.4195
 8871SOL     OW38074   1.296   2.296   0.361  0.4765  0.1650 -0.5676
 8871SOL    HW138075   1.249   2.354   0.301 -0.5563  0.2924  0.3394
 8871SOL    HW238076   1.251   2.314   0.444  1.1095 -1.7697  0.2069
 8872SOL     OW38077   1.322   1.707   8.130 -0.2914 -0.0033 -0.0580
 8872SOL    HW138078   1.381   1.740   8.198 -0.2790 -2.6375  1.1982
 8872SOL    HW238079   1.263   1.649   8.179  0.1227 -0.1479  0.2753
 8873SOL     OW38080   0.699   1.825   8.832  0.4091  0.5731 -0.5326
 8873SOL    HW138081   0.780   1.813   8.784 -0.4241  1.1449 -2.0846
 8873SOL    HW238082   0.641   1.832   8.756 -1.3240 -0.2636  0.7121
 8874SOL     OW38083   0.239   0.704  15.883 -0.1963  0.2650 -0.2808
 8874SOL    HW138084   0.261   0.751  15.964  0.6995 -1.7926  0.6873
 8874SOL    HW238085   0.291   0.624  15.897 -0.8217 -0.5007 -2.3073
 8875SOL     OW38086   0.407   2.870  15.759 -0.3131  0.2011  0.0121
 8875SOL    HW138087   0.406   2.963  15.784 -0.4528  0.3953 -0.7101
 8875SOL    HW238088   0.438   2.839  15.844  0.1247 -0.9620 -0.5699
 8876SOL     OW38089   0.610   1.958   4.413  0.1343 -0.0703  0.4624
 8876SOL    HW138090   0.699   1.990   4.426 -0.1430  0.7390  0.3458
 8876SOL    HW238091   0.566   1.995   4.490  0.3092 -0.6767  0.8641
 8877SOL     OW38092   2.354   3.149   6.345  0.4494  0.0946  0.5048
 8877SOL    HW138093   2.386   3.061   6.364  1.2167  0.2182 -0.2140
 8877SOL    HW238094   2.387   3.202   6.418  0.0970 -0.9853  1.4435
 8878SOL     OW38095   0.262   3.007   2.035 -0.2934 -0.4808 -0.3376
 8878SOL    HW138096   0.167   3.014   2.025 -0.2133  1.3218  0.0117
 8878SOL    HW238097   0.286   3.082   2.089  0.9350 -1.8253  0.9615
 8879SOL     OW38098   4.658   2.036   9.552 -0.6748  0.2294  0.6451
 8879SOL    HW138099   4.709   2.008   9.628  1.7477  3.0461  0.0604
 8879SOL    HW238100   4.575   2.064   9.589 -0.3174  3.0210 -0.6978
 8880SOL     OW38101   1.299   0.431  15.404  0.0054 -0.7346  0.2102
 8880SOL    HW138102   1.228   0.479  15.447  0.9717  0.7810  0.1495
 8880SOL    HW238103   1.361   0.423  15.477  0.3272 -0.1618  0.0036
 8881SOL     OW38104   1.393   1.331   8.688 -0.2993 -0.1848 -0.0241
 8881SOL    HW138105   1.481   1.368   8.703  0.5432 -1.1082 -2.7011
 8881SOL    HW238106   1.335   1.407   8.696  0.2376  0.2958 -0.6252
 8882SOL     OW38107   1.116   0.743   5.729 -0.0743  0.0536  0.0261
 8882SOL    HW138108   1.054   0.741   5.801 -1.1708  0.8151 -0.8976
 8882SOL    HW238109   1.085   0.825   5.690 -2.6122 -0.9031  0.1036
 8883SOL     OW38110   0.031   2.271  12.323 -0.2539  0.2801  0.1233
 8883SOL    HW138111   4.712   2.358  12.338 -0.3202  0.4834 -1.2686
 8883SOL    HW238112   0.024   2.234  12.411 -1.3712  1.7986  0.6718
 8884SOL     OW38113   3.082   2.572   8.785  0.0203  0.0061 -0.2882
 8884SOL    HW138114   3.099   2.581   8.879  0.1482  1.2034 -0.4217
 8884SOL    HW238115   3.135   2.496   8.763  0.8963  0.3225  0.7260
 8885SOL     OW38116   0.625   2.770   3.338  0.8798 -0.4119  0.0391
 8885SOL    HW138117   0.573   2.817   3.274  0.9802  0.3196  0.4931
 8885SOL    HW238118   0.650   2.690   3.292 -1.4413 -0.7433 -0.6628
 8886SOL     OW38119   3.410   4.214  12.602  0.2291 -0.0583 -0.0879
 8886SOL    HW138120   3.433   4.305  12.583  2.9941 -0.8794 -0.6800
 8886SOL    HW238121   3.436   4.207  12.694  1.5907 -0.9213 -0.5501
 8887SOL     OW38122   3.440   2.127   6.907 -0.2930 -0.1764 -0.6218
 8887SOL    HW138123   3.395   2.210   6.927  1.0494  0.6074 -0.8497
 8887SOL    HW238124   3.506   2.160   6.846 -0.1018 -1.5799 -1.1647
 8888SOL     OW38125   2.968   3.686   2.828 -0.0960 -0.4471 -0.1852
 8888SOL    HW138126   2.925   3.600   2.826 -1.0829  0.0981 -1.8878
 8888SOL    HW238127   3.027   3.682   2.753  1.5500 -0.5484  1.1098
 8889SOL     OW38128   1.279   0.875   5.221  0.2343  0.1988  0.2157
 8889SOL    HW138129   1.260   0.793   5.175  2.2028 -0.1398  0.0250
 8889SOL    HW238130   1.350   0.911   5.169 -0.1683  1.3688  0.4892
 8890SOL     OW38131   1.767   4.584   0.934  0.6542  0.5303  0.4460
 8890SOL    HW138132   1.830   4.547   0.872  0.4281 -0.5501  0.8763
 8890SOL    HW238133   1.768   4.677   0.910 -2.4708  0.2334 -0.8347
 8891SOL     OW38134   1.908   0.345  13.453  0.0876  0.4149  0.1805
 8891SOL    HW138135   1.973   0.415  13.467  0.8291 -0.2913  0.2858
 8891SOL    HW238136   1.834   0.404  13.439 -1.8436 -1.6583  1.8831
 8892SOL     OW38137   3.341   0.820   3.059  0.1565 -0.0646 -0.2166
 8892SOL    HW138138   3.344   0.915   3.046 -2.2056  0.2218  1.2082
 8892SOL    HW238139   3.364   0.807   3.151 -0.5790  1.1456  0.1352
 8893SOL     OW38140   3.348   1.156   2.213  0.1715 -0.0594 -0.5344
 8893SOL    HW138141   3.276   1.125   2.159 -0.5510 -0.0585  0.4386
 8893SOL    HW238142   3.309   1.231   2.257 -0.1980  0.2332 -1.3688
 8894SOL     OW38143   1.109   0.502   2.981  0.4657 -0.4192  0.1360
 8894SOL    HW138144   1.039   0.534   3.038 -0.5739 -2.9750  0.3119
 8894SOL    HW238145   1.169   0.573   3.002  2.0530 -1.8026  0.2555
 8895SOL     OW38146   0.484   3.406  10.840 -0.1661 -0.1475 -0.6116
 8895SOL    HW138147   0.558   3.408  10.779 -1.7295 -1.4277 -2.5295
 8895SOL    HW238148   0.506   3.483  10.894 -0.6366  0.3469 -1.1189
 8896SOL     OW38149   4.611   1.826   6.921  0.0060 -0.5637 -0.0911
 8896SOL    HW138150   4.582   1.752   6.869  0.6274 -0.0693 -1.1329
 8896SOL    HW238151   4.699   1.820   6.884 -0.8121 -0.3418 -2.0548
 8897SOL     OW38152   2.436   1.930   3.943  0.4053  0.4536 -0.0881
 8897SOL    HW138153   2.411   1.846   3.906 -1.6802  1.1181 -0.1910
 8897SOL    HW238154   2.530   1.925   3.927  0.5659  0.6021  0.8261
 8898SOL     OW38155   1.108   1.625   4.322  0.3337 -0.0571  0.2683
 8898SOL    HW138156   1.120   1.580   4.239 -0.8431 -0.6691  0.4211
 8898SOL    HW238157   1.035   1.682   4.296 -1.0438 -2.3717 -0.8634
 8899SOL     OW38158   4.266   2.931   3.943  0.0725  0.1984 -0.2282
 8899SOL    HW138159   4.194   2.961   3.999 -0.2505  0.5780 -0.8548
 8899SOL    HW238160   4.286   2.845   3.980 -2.2871  0.2523  1.1604
 8900SOL     OW38161   0.321   2.787   4.830 -0.3552 -0.8668 -0.1914
 8900SOL    HW138162   0.232   2.815   4.807  0.8615  2.5594 -0.6845
 8900SOL    HW238163   0.313   2.691   4.835 -1.1711 -0.7758  0.2732
 8901SOL     OW38164   4.067   1.329   6.483 -0.1769  0.5426 -0.2071
 8901SOL    HW138165   4.003   1.364   6.546 -1.3119  0.5142 -1.3403
 8901SOL    HW238166   4.031   1.246   6.453  1.6017  1.4070 -4.7631
 8902SOL     OW38167   2.260   3.554   5.147  0.0431 -0.4885  0.5391
 8902SOL    HW138168   2.187   3.516   5.195 -0.0995  1.4620  1.8486
 8902SOL    HW238169   2.329   3.576   5.210  2.0105 -0.1175 -1.7338
 8903SOL     OW38170   1.247   1.863   3.863  0.1827 -0.0577  0.0816
 8903SOL    HW138171   1.220   1.775   3.889 -1.4279  0.5317  0.3715
 8903SOL    HW238172   1.286   1.894   3.945 -0.7190 -2.5674  1.4756
 8904SOL     OW38173   3.417   1.265   7.388 -0.0451  0.1211 -0.5227
 8904SOL    HW138174   3.498   1.232   7.426 -0.4393 -2.3291 -1.8270
 8904SOL    HW238175   3.360   1.277   7.464 -0.6457  1.8613 -1.2395
 8905SOL     OW38176   2.814   1.712   2.429 -0.5519  0.1178 -1.2060
 8905SOL    HW138177   2.727   1.733   2.463 -0.5572 -2.3969  0.3045
 8905SOL    HW238178   2.814   1.623   2.463  3.1977  0.6118  0.0670
 8906SOL     OW38179   1.269   4.585   7.156 -0.1876  0.3509 -0.0329
 8906SOL    HW138180   1.219   4.549   7.230 -1.7597  1.6538 -0.4750
 8906SOL    HW238181   1.332   4.642   7.199 -0.3787  0.3863  0.1990
 8907SOL     OW38182   0.361   0.833  10.813 -0.3169 -0.3906 -0.3532
 8907SOL    HW138183   0.374   0.885  10.891  0.8672 -1.8949  0.4641
 8907SOL    HW238184   0.403   0.897  10.756  2.8498 -0.4245  1.9545
 8908SOL     OW38185   4.040   0.899  16.356 -0.2182 -0.0128  0.3047
 8908SOL    HW138186   4.103   0.949  16.408 -2.8035  0.7102  2.7304
 8908SOL    HW238187   4.075   0.907  16.267 -3.8702 -0.8331 -1.1897
 8909SOL     OW38188   3.778   0.543   5.844  0.5204 -0.2230 -0.5547
 8909SOL    HW138189   3.830   0.577   5.917 -0.4526  0.9174 -0.3852
 8909SOL    HW238190   3.779   0.622   5.790 -3.5315  1.0298  1.1751
 8910SOL     OW38191   1.332   3.020   6.864 -0.2108  0.6464 -0.3566
 8910SOL    HW138192   1.307   2.994   6.953  0.1456  1.1515 -0.1141
 8910SOL    HW238193   1.414   3.067   6.876 -0.5602  1.2334 -0.2778
 8911SOL     OW38194   4.133   2.965  16.429  0.2809  0.7295  0.3775
 8911SOL    HW138195   4.167   2.883  16.465  0.7657  0.7897  0.0509
 8911SOL    HW238196   4.043   2.939  16.409  0.6363 -1.3688  1.3992
 8912SOL     OW38197   1.270   2.700   2.781  0.6046  0.4684  0.0788
 8912SOL    HW138198   1.350   2.681   2.733  1.5469 -0.8237  2.1627
 8912SOL    HW238199   1.257   2.790   2.752  0.1523  0.3709 -0.0335
 8913SOL     OW38200   1.158   0.382   0.482  1.0344  0.0538 -0.5892
 8913SOL    HW138201   1.216   0.367   0.407  1.3153 -1.8214  0.0029
 8913SOL    HW238202   1.173   0.316   0.550  2.0563  0.1704 -0.7040
 8914SOL     OW38203   4.019   2.833   4.248 -0.2019 -0.3323  0.1955
 8914SOL    HW138204   3.964   2.896   4.202  0.6501 -1.6090 -2.5594
 8914SOL    HW238205   4.100   2.885   4.248  0.7134 -1.7600 -0.7943
 8915SOL     OW38206   2.304   3.274   8.724 -0.5234 -0.0605 -0.6230
 8915SOL    HW138207   2.330   3.187   8.755  0.1003  0.2373 -0.2959
 8915SOL    HW238208   2.242   3.298   8.792  0.7478  2.6509 -0.4330
 8916SOL     OW38209   3.035   1.671   0.096  0.0284  0.2817 -0.4330
 8916SOL    HW138210   2.984   1.730   0.151  0.2289  1.1014 -1.1424
 8916SOL    HW238211   3.099   1.650   0.164  1.5244 -0.7213 -2.1459
 8917SOL     OW38212   1.826   2.591   7.080 -0.6158  0.4250 -0.0380
 8917SOL    HW138213   1.858   2.526   7.143 -0.3099  0.2412 -0.3859
 8917SOL    HW238214   1.751   2.628   7.126 -1.7383 -0.1983 -1.3692
 8918SOL     OW38215   2.358   0.435   9.475 -0.3570  0.2467  0.3258
 8918SOL    HW138216   2.292   0.501   9.495 -2.2691 -1.6834  0.4034
 8918SOL    HW238217   2.300   0.381   9.421  0.4102  0.1272 -0.3701
 8919SOL     OW38218   4.637   2.034   2.816  0.5267 -0.2737  0.5213
 8919SOL    HW138219   0.006   2.013   2.851  2.0080  1.1590 -2.2289
 8919SOL    HW238220   4.668   2.093   2.747  1.4405 -1.6485 -0.2589
 8920SOL     OW38221   4.377   4.489   4.373  0.0080  0.0817  0.5491
 8920SOL    HW138222   4.319   4.434   4.321  0.4318  3.0307 -3.0059
 8920SOL    HW238223   4.460   4.442   4.369  0.0990  0.3745 -0.8966
 8921SOL     OW38224   3.555   4.118   5.559 -0.1510  0.2193  0.0211
 8921SOL    HW138225   3.497   4.143   5.631  0.7162  0.0104  0.7909
 8921SOL    HW238226   3.596   4.203   5.542 -0.6143  0.4489  0.0503
 8922SOL     OW38227   1.919   3.397   4.050  0.0930 -0.0624 -0.2006
 8922SOL    HW138228   1.913   3.492   4.043 -1.5523 -0.2096 -0.6678
 8922SOL    HW238229   1.874   3.372   3.969 -1.6750  0.4043  0.6601
 8923SOL     OW38230   4.397   1.479  15.296  0.4821  0.3911 -0.5104
 8923SOL    HW138231   4.398   1.575  15.297  0.9815  0.4129 -1.9945
 8923SOL    HW238232   4.484   1.469  15.257 -0.0349  1.2433 -1.8863
 8924SOL     OW38233   2.361   4.648  12.917  0.3287  0.2013 -0.5651
 8924SOL    HW138234   2.287   4.588  12.924  0.7922 -0.4624 -1.4992
 8924SOL    HW238235   2.319   0.016  12.924 -0.2526 -0.1594  0.4323
 8925SOL     OW38236   1.357   2.450   2.863  0.3034  0.1974 -0.1675
 8925SOL    HW138237   1.324   2.429   2.951 -0.2058  1.3776 -0.0802
 8925SOL    HW238238   1.342   2.545   2.866  1.7242  0.3916  0.9336
 8926SOL     OW38239   0.133   0.902   2.191 -0.3461 -0.1583  0.0898
 8926SOL    HW138240   0.103   0.831   2.248 -1.6075 -0.5370 -1.0563
 8926SOL    HW238241   0.057   0.916   2.135 -1.4846 -0.5046  1.5382
 8927SOL     OW38242   1.870   1.971   8.626  0.5223 -0.0185  0.2337
 8927SOL    HW138243   1.873   2.056   8.670 -0.4035 -0.8574  1.9203
 8927SOL    HW238244   1.944   1.980   8.566 -0.8086  1.8464 -1.1600
 8928SOL     OW38245   1.745   3.129   4.660  0.1996  0.2132 -0.1301
 8928SOL    HW138246   1.805   3.148   4.587 -0.2175  0.7832 -0.3228
 8928SOL    HW238247   1.785   3.061   4.715  0.1397  0.3305  0.0586
 8929SOL     OW38248   0.121   1.877  14.102 -0.2376  0.2067  0.0669
 8929SOL    HW138249   0.147   1.902  14.014  3.2898 -0.8090  0.7842
 8929SOL    HW238250   0.028   1.869  14.082 -0.8677  2.3979  2.0438
 8930SOL     OW38251   0.205   3.981   1.592  0.3863 -0.3410  0.2858
 8930SOL    HW138252   0.129   3.989   1.651  1.1338  0.7320  1.1152
 8930SOL    HW238253   0.196   4.068   1.554 -0.7812  0.1196  1.6017
 8931SOL     OW38254   4.511   3.820  14.845  0.0154 -0.3516  0.0660
 8931SOL    HW138255   4.434   3.779  14.883 -0.0119 -1.6396 -1.3720
 8931SOL    HW238256   4.533   3.897  14.898  2.8074 -0.1378 -1.3687
 8932SOL     OW38257   1.229   4.179   4.491 -0.1752  0.3498  0.2613
 8932SOL    HW138258   1.198   4.163   4.580 -0.4391  0.5957  0.2148
 8932SOL    HW238259   1.303   4.118   4.494 -0.2560  0.1513 -1.5488
 8933SOL     OW38260   0.711   3.345   9.814  0.5903  0.1921  0.0706
 8933SOL    HW138261   0.687   3.385   9.731  1.4479 -0.7410 -0.6118
 8933SOL    HW238262   0.761   3.416   9.854 -0.4562  0.5619  0.7410
 8934SOL     OW38263   2.238   4.112   3.689  0.6165  0.0574 -0.0271
 8934SOL    HW138264   2.168   4.060   3.729  0.0582 -0.6544 -1.9689
 8934SOL    HW238265   2.305   4.045   3.699 -0.0173 -0.6538 -0.4976
 8935SOL     OW38266   4.506   3.884   0.240 -0.6426 -0.4735  0.3479
 8935SOL    HW138267   4.498   3.941   0.317  0.5566  0.8182 -0.4745
 8935SOL    HW238268   4.476   3.936   0.165 -2.5501 -0.3288  1.2299
 8936SOL     OW38269   0.328   1.109   1.050  0.3473  0.0877 -0.3598
 8936SOL    HW138270   0.318   1.151   1.136  0.7564  0.6014 -0.5582
 8936SOL    HW238271   0.416   1.137   1.024  0.6566 -0.3038  0.2617
 8937SOL     OW38272   1.813   3.598   6.182 -0.4113  0.0830  0.1146
 8937SOL    HW138273   1.764   3.667   6.226 -2.6855 -0.3524 -1.7510
 8937SOL    HW238274   1.761   3.525   6.217 -3.1814  1.7144 -0.6535
 8938SOL     OW38275   2.895   2.937   2.003  0.5290 -0.5360  0.1947
 8938SOL    HW138276   2.825   2.928   2.067 -0.0097 -2.2345 -0.6249
 8938SOL    HW238277   2.959   2.985   2.055  2.7760 -3.2963 -0.0188
 8939SOL     OW38278   1.645   3.377  14.119 -0.3608 -0.0753 -0.1668
 8939SOL    HW138279   1.738   3.380  14.095 -0.2618 -0.8403  0.1367
 8939SOL    HW238280   1.614   3.430  14.045  0.7186  0.7182 -0.0448
 8940SOL     OW38281   2.187   3.539   7.412 -0.2559  0.2897  0.6195
 8940SOL    HW138282   2.262   3.598   7.423  0.9578 -0.6304 -2.9545
 8940SOL    HW238283   2.190   3.534   7.317  1.4493 -0.5868  0.7179
 8941SOL     OW38284   1.939   4.423   6.821  0.6799  0.0823 -0.2669
 8941SOL    HW138285   1.934   4.508   6.778  2.4684 -1.0754 -2.7410
 8941SOL    HW238286   1.973   4.446   6.908 -0.5217 -0.1914  0.2895
 8942SOL     OW38287   4.105   2.677   4.718  0.3803 -0.5143  0.2346
 8942SOL    HW138288   4.057   2.724   4.786 -0.3541  1.4370 -1.6328
 8942SOL    HW238289   4.091   2.745   4.652  4.1522 -1.2263 -1.2828
 8943SOL     OW38290   4.652   3.158   6.833  0.4050  0.2356 -0.4083
 8943SOL    HW138291   4.648   3.077   6.884  0.9439  1.4632  1.5659
 8943SOL    HW238292   0.027   3.175   6.819  0.6591 -1.0080 -0.2497
 8944SOL     OW38293   1.050   2.513   4.227  0.4826  0.3011  0.1153
 8944SOL    HW138294   1.106   2.581   4.264 -0.6544  0.4112  1.5927
 8944SOL    HW238295   1.033   2.546   4.138 -1.0674 -2.3352 -0.5759
 8945SOL     OW38296   3.811   0.948   7.135  1.3292 -0.0570 -0.4991
 8945SOL    HW138297   3.820   0.866   7.182  0.2354  0.2700  0.2823
 8945SOL    HW238298   3.904   0.965   7.119  1.1800  1.0724 -0.1712
 8946SOL     OW38299   2.314   2.941   7.459 -0.1781 -0.0388  0.1205
 8946SOL    HW138300   2.371   2.972   7.389 -0.1913 -1.3461 -0.4867
 8946SOL    HW238301   2.240   3.001   7.446  0.8121  1.1957  0.2927
 8947SOL     OW38302   1.057   1.976  17.277 -0.0685 -0.2730  0.0577
 8947SOL    HW138303   1.012   1.974  17.361  0.0913 -0.6941  0.1301
 8947SOL    HW238304   1.012   2.043  17.225 -1.9918  1.2089  3.5860
 8948SOL     OW38305   0.027   3.848   3.081  0.2726 -0.2096  0.2527
 8948SOL    HW138306   0.097   3.913   3.077 -1.4109  1.5434 -0.8270
 8948SOL    HW238307   0.069   3.762   3.073 -0.1301 -0.3356 -0.5455
 8949SOL     OW38308   2.903   0.380  13.729 -0.1702  0.4962  1.2537
 8949SOL    HW138309   2.957   0.349  13.656  0.1106 -0.7575  1.9984
 8949SOL    HW238310   2.832   0.319  13.752 -0.7265  1.0233  0.9560
 8950SOL     OW38311   1.592   0.464   5.154 -0.8645  0.2773  0.7402
 8950SOL    HW138312   1.544   0.451   5.236 -1.1817 -2.4001  0.1106
 8950SOL    HW238313   1.554   0.399   5.096  1.1339 -0.7973  0.6159
 8951SOL     OW38314   4.205   2.069   4.366  0.0924 -0.0120 -0.1151
 8951SOL    HW138315   4.141   2.140   4.360 -1.6375 -1.5751 -0.1000
 8951SOL    HW238316   4.278   2.117   4.407 -1.3419  2.1452 -0.1060
 8952SOL     OW38317   0.414   3.984   3.705  0.5030  0.0153  0.3095
 8952SOL    HW138318   0.495   4.032   3.716  0.2879  0.9387 -2.2614
 8952SOL    HW238319   0.447   3.897   3.729 -0.7957 -0.4691  0.3871
 8953SOL     OW38320   0.583   2.034   9.251  0.7730 -0.2512 -0.1231
 8953SOL    HW138321   0.620   2.021   9.164  0.9493 -1.1904  0.0935
 8953SOL    HW238322   0.548   2.123   9.247  0.9876 -0.2220 -1.3371
 8954SOL     OW38323   1.488   3.199  11.213  0.1037  0.2152 -0.3256
 8954SOL    HW138324   1.476   3.203  11.308  1.1699 -1.1382 -0.1304
 8954SOL    HW238325   1.515   3.108  11.205 -2.1273 -0.4664 -0.0313
 8955SOL     OW38326   2.201   0.414  15.684  0.2110  0.9121  0.1526
 8955SOL    HW138327   2.120   0.457  15.712  1.7989  3.3176  1.0464
 8955SOL    HW238328   2.237   0.383  15.767 -0.2549 -0.9286 -0.3292
 8956SOL     OW38329   2.223   4.605   1.891  0.0164  0.4185 -0.2921
 8956SOL    HW138330   2.189   4.577   1.806  0.9073 -0.4717 -0.3486
 8956SOL    HW238331   2.229   4.521   1.936  0.1057  2.0137  2.6891
 8957SOL     OW38332   2.957   4.652   9.873  0.3641  0.3286 -0.5469
 8957SOL    HW138333   2.893   4.601   9.923  0.3852 -1.8846 -2.7683
 8957SOL    HW238334   2.988   4.714   9.939 -1.6747  0.5836  0.1732
 8958SOL     OW38335   3.294   0.696   0.683 -0.3665 -0.0092 -0.1387
 8958SOL    HW138336   3.227   0.752   0.722 -1.5376 -1.3404 -0.2208
 8958SOL    HW238337   3.310   0.643   0.762 -2.1938 -0.0342  0.2031
 8959SOL     OW38338   4.237   0.191   7.187  0.4829  0.2515  0.2270
 8959SOL    HW138339   4.285   0.191   7.104 -0.8199  0.7105 -0.5259
 8959SOL    HW238340   4.236   0.097   7.204 -1.1831 -0.2513 -2.5293
 8960SOL     OW38341   1.179   3.687   6.851  0.2277  0.1344  0.3042
 8960SOL    HW138342   1.167   3.746   6.926 -1.2531  0.3424 -0.0863
 8960SOL    HW238343   1.089   3.681   6.818  0.1333  1.2728  0.3349
 8961SOL     OW38344   1.034   0.642   9.942  0.0961 -0.2944  0.2307
 8961SOL    HW138345   1.104   0.595   9.988 -0.6940  0.7047  2.4577
 8961SOL    HW238346   0.990   0.562   9.913 -0.3091  0.2863 -0.7606
 8962SOL     OW38347   2.712   1.641  10.700 -0.3648  0.5788 -0.1706
 8962SOL    HW138348   2.674   1.668  10.784 -0.9269 -1.1596  0.1206
 8962SOL    HW238349   2.777   1.575  10.722  2.7995  3.2846 -1.3019
 8963SOL     OW38350   3.203   4.216  11.420 -0.0360  0.6337 -0.5569
 8963SOL    HW138351   3.206   4.147  11.354  1.7797  1.6393 -1.5001
 8963SOL    HW238352   3.289   4.254  11.404  0.7471 -0.4018  1.1974
 8964SOL     OW38353   0.784   3.184  16.028 -0.0173  0.1382  0.0612
 8964SOL    HW138354   0.690   3.179  16.047 -0.3411 -0.2179 -1.6070
 8964SOL    HW238355   0.778   3.176  15.932  2.4608  0.6373 -0.1330
 8965SOL     OW38356   1.546   2.826  12.807 -0.2576  0.2534 -0.7396
 8965SOL    HW138357   1.541   2.894  12.741  0.1210  0.9643 -0.0316
 8965SOL    HW238358   1.518   2.755  12.749 -0.2627 -0.3680  0.0214
 8966SOL     OW38359   4.510   2.781   3.460 -0.0982 -0.3371  0.0621
 8966SOL    HW138360   4.502   2.692   3.425 -1.1875 -0.9613  1.9623
 8966SOL    HW238361   4.537   2.759   3.549  0.7696  3.0585  0.6312
 8967SOL     OW38362   1.404   2.661   6.026  0.6849  0.1062  0.1409
 8967SOL    HW138363   1.379   2.614   6.106  1.2811 -0.4500 -0.0059
 8967SOL    HW238364   1.323   2.698   5.992  0.9368  1.5875  1.1128
 8968SOL     OW38365   3.710   1.744   4.259 -0.0396  0.0413  0.0523
 8968SOL    HW138366   3.695   1.834   4.288 -1.5720  0.1709 -1.1755
 8968SOL    HW238367   3.806   1.742   4.262 -0.0185 -0.2499 -1.1459
 8969SOL     OW38368   2.382   0.277  12.649 -0.4195  0.0662 -0.1438
 8969SOL    HW138369   2.347   0.214  12.585  1.3978 -1.2099  0.0993
 8969SOL    HW238370   2.298   0.314  12.678 -0.1872 -0.1919  0.8598
 8970SOL     OW38371   0.442   2.041   4.214 -0.0875 -0.0362 -0.6606
 8970SOL    HW138372   0.518   2.031   4.271 -1.3917  0.6411  1.2293
 8970SOL    HW238373   0.476   2.035   4.125  1.4942 -1.0853  0.0260
 8971SOL     OW38374   1.132   2.194   3.859  0.4536  0.1692 -0.1766
 8971SOL    HW138375   1.075   2.120   3.840  3.5234 -2.2141 -0.0937
 8971SOL    HW238376   1.212   2.169   3.813  0.6128 -2.0488  1.3404
 8972SOL     OW38377   1.404   1.607   5.761 -0.0127  0.0147  0.2470
 8972SOL    HW138378   1.480   1.586   5.815  1.0618  1.7305 -0.6076
 8972SOL    HW238379   1.339   1.572   5.822 -0.1164  0.0334  0.1476
 8973SOL     OW38380   0.703   0.998  15.510  0.5287 -0.7052 -0.1981
 8973SOL    HW138381   0.793   1.026  15.521  0.1340  0.5460 -0.2005
 8973SOL    HW238382   0.699   1.003  15.414  0.1225 -0.0133 -0.1440
 8974SOL     OW38383   0.546   4.527   4.997  0.5749  0.3200  0.2887
 8974SOL    HW138384   0.577   4.448   4.952  0.3078 -0.1439  0.9266
 8974SOL    HW238385   0.585   4.595   4.941 -0.7679  1.0708  0.2663
 8975SOL     OW38386   0.859   3.075   7.322 -0.1994 -0.1291  0.2052
 8975SOL    HW138387   0.952   3.053   7.316 -0.0148  0.4962  0.8351
 8975SOL    HW238388   0.838   3.027   7.402  1.0275  0.3217  0.8004
 8976SOL     OW38389   1.774   2.937   9.440  0.0566  0.4416 -0.3365
 8976SOL    HW138390   1.748   2.977   9.523  0.1382 -1.1836  0.4736
 8976SOL    HW238391   1.712   2.864   9.442  1.5301 -0.8151 -0.4039
 8977SOL     OW38392   0.355   4.546   3.840 -0.1919  0.1306  0.1338
 8977SOL    HW138393   0.365   4.450   3.839 -0.0359  0.1385  1.0646
 8977SOL    HW238394   0.386   4.574   3.754 -0.7467 -0.8836 -0.3961
 8978SOL     OW38395   2.609   4.480  17.567 -0.3074  0.0237  0.4153
 8978SOL    HW138396   2.554   4.487  17.645 -0.2642  1.2917  0.3356
 8978SOL    HW238397   2.594   4.398  17.519  1.1620 -0.0076  0.0101
 8979SOL     OW38398   0.007   3.729   5.298 -0.0568 -0.0913 -0.6673
 8979SOL    HW138399   0.083   3.783   5.320 -0.5643  0.3853 -0.0796
 8979SOL    HW238400   4.679   3.755   5.378 -1.0392 -1.0769 -0.9071
 8980SOL     OW38401   0.182   4.649  16.557 -0.0375 -0.2126  0.0779
 8980SOL    HW138402   0.091   4.663  16.585 -0.5708  1.3804 -2.5028
 8980SOL    HW238403   0.185   4.568  16.506  0.5787 -1.1924  1.6655
 8981SOL     OW38404   0.441   2.870   5.838 -0.0970 -0.0190  0.2030
 8981SOL    HW138405   0.525   2.826   5.846  0.0008 -0.0612 -1.0164
 8981SOL    HW238406   0.382   2.798   5.811  0.5167  0.1896 -1.7113
 8982SOL     OW38407   2.025   1.114   1.890  0.7994  0.2569 -0.4069
 8982SOL    HW138408   2.030   1.153   1.977 -0.1480  0.7902 -0.5844
 8982SOL    HW238409   1.993   1.189   1.840  1.7673 -0.7956 -2.5839
 8983SOL     OW38410   0.587   2.248  16.393  0.0095  0.3225 -0.0754
 8983SOL    HW138411   0.535   2.169  16.407  0.6468  0.2832  2.1039
 8983SOL    HW238412   0.524   2.319  16.401 -0.3445 -0.1997  1.6534
 8984SOL     OW38413   0.450   3.653   4.060  0.4052  0.1692 -0.1298
 8984SOL    HW138414   0.504   3.627   4.134 -0.4684 -3.3566 -0.7242
 8984SOL    HW238415   0.374   3.596   4.072  0.0436  0.4512 -1.0873
 8985SOL     OW38416   2.823   3.560   4.267 -0.3582  0.2615  0.0174
 8985SOL    HW138417   2.895   3.609   4.307 -0.3362 -0.6021  1.0515
 8985SOL    HW238418   2.854   3.470   4.282 -4.2520 -1.0878 -0.0167
 8986SOL     OW38419   1.252   4.117   4.213  0.2257 -0.4933  0.4473
 8986SOL    HW138420   1.281   4.172   4.286 -2.1382 -1.8049  2.3574
 8986SOL    HW238421   1.197   4.057   4.263 -1.3036  1.9072  1.6279
 8987SOL     OW38422   3.288   4.444  12.917 -0.1418 -0.5859  0.4547
 8987SOL    HW138423   3.289   4.538  12.898 -0.8214 -0.2648  1.9519
 8987SOL    HW238424   3.311   4.434  13.010 -2.3364  0.3626  1.0944
 8988SOL     OW38425   2.449   4.052  11.935 -0.5085  0.3426 -0.8961
 8988SOL    HW138426   2.427   3.982  11.873  0.8325 -1.4657  0.6536
 8988SOL    HW238427   2.370   4.105  11.922 -0.6865  0.6383  1.3995
 8989SOL     OW38428   2.910   1.749   8.821 -0.0841  0.3548 -0.0105
 8989SOL    HW138429   2.868   1.689   8.760  1.4089 -1.1530  0.4560
 8989SOL    HW238430   2.908   1.819   8.756 -1.2246  2.3017  2.1125
 8990SOL     OW38431   3.905   1.085  14.703  0.4568  0.5460  0.3972
 8990SOL    HW138432   3.850   1.006  14.709 -0.1774  1.1619  2.4406
 8990SOL    HW238433   3.854   1.128  14.635 -0.6482  0.8959  1.4454
 8991SOL     OW38434   3.435   4.178   4.473 -0.1833 -0.3491 -0.6969
 8991SOL    HW138435   3.423   4.088   4.442 -0.5680 -0.7741  0.6418
 8991SOL    HW238436   3.497   4.211   4.408 -0.3321  1.8230  0.2460
 8992SOL     OW38437   0.897   4.154  13.771  0.1455  0.1191 -0.8261
 8992SOL    HW138438   0.919   4.144  13.679  2.6557 -1.7337 -0.0139
 8992SOL    HW238439   0.902   4.060  13.791 -1.0456 -0.0026 -1.0477
 8993SOL     OW38440   4.549   2.445   9.082  0.2854 -0.6376 -0.0828
 8993SOL    HW138441   4.475   2.392   9.111  2.1540 -4.4578 -2.2289
 8993SOL    HW238442   4.619   2.382   9.061  0.0651 -1.4622  1.6219
 8994SOL     OW38443   1.091   0.401  10.201  0.1656 -0.4109  0.0454
 8994SOL    HW138444   1.083   0.427  10.292  0.2751 -1.5097  0.3643
 8994SOL    HW238445   1.013   0.345  10.197 -0.1894 -0.1359  3.1805
 8995SOL     OW38446   3.896   3.209   5.399  0.3239  0.1389 -0.3184
 8995SOL    HW138447   3.972   3.259   5.370  2.1058 -2.1117  0.4962
 8995SOL    HW238448   3.922   3.118   5.408  1.1273  0.5102  1.1220
 8996SOL     OW38449   1.031   2.460   7.684  0.3311  0.2485  0.2023
 8996SOL    HW138450   1.004   2.492   7.770  0.1575 -2.9238  1.3417
 8996SOL    HW238451   1.108   2.409   7.710  0.7818  1.0570  0.4248
 8997SOL     OW38452   3.877   0.934  15.977 -0.3051 -0.4954  0.0824
 8997SOL    HW138453   3.955   0.894  15.938  0.7211 -1.9037  3.5989
 8997SOL    HW238454   3.891   1.026  15.955 -0.0392 -0.1337  1.7562
 8998SOL     OW38455   0.758   1.173  12.442 -0.4849 -0.1082  0.0975
 8998SOL    HW138456   0.726   1.083  12.434  1.5811 -0.9765  1.5752
 8998SOL    HW238457   0.681   1.220  12.408  0.8531  1.6427 -0.5283
 8999SOL     OW38458   2.587   1.272  14.978  0.2996 -0.0091  0.0424
 8999SOL    HW138459   2.509   1.216  14.980  0.9622 -0.8704  1.4016
 8999SOL    HW238460   2.577   1.312  15.065 -0.2111 -0.4279  0.1756
 9000SOL     OW38461   4.263   2.831   2.530 -0.1674 -0.1762 -0.4338
 9000SOL    HW138462   4.336   2.892   2.542  1.1005 -1.7473 -0.0754
 9000SOL    HW238463   4.232   2.882   2.456 -0.1840  1.1510  0.4787
 9001SOL     OW38464   4.010   1.612   0.256 -0.2545 -0.0901 -0.5464
 9001SOL    HW138465   4.054   1.533   0.288 -1.9859 -1.0213 -0.4810
 9001SOL    HW238466   3.942   1.580   0.197 -0.3755 -0.3337 -0.2713
 9002SOL     OW38467   1.418   0.985  16.666 -0.2900  0.4961 -0.1125
 9002SOL    HW138468   1.463   0.955  16.744  2.2067  2.3685 -0.8571
 9002SOL    HW238469   1.348   0.922  16.648 -1.7493  2.4249 -1.1623
 9003SOL     OW38470   4.664   3.824   2.624  0.1695 -0.5944  0.8663
 9003SOL    HW138471   4.702   3.750   2.672 -0.2622 -1.0332  0.5454
 9003SOL    HW238472   4.672   3.891   2.692  1.1251  0.1324  0.0221
 9004SOL     OW38473   1.601   4.326   8.377  0.0034  0.2324 -0.0557
 9004SOL    HW138474   1.579   4.272   8.452  1.0927  0.6129  0.5443
 9004SOL    HW238475   1.626   4.408   8.419  1.2436 -0.5086  0.6707
 9005SOL     OW38476   4.185   3.636  15.115 -0.2468 -0.1777  0.6935
 9005SOL    HW138477   4.229   3.577  15.177  0.0093 -1.6622 -0.8764
 9005SOL    HW238478   4.098   3.596  15.111  0.4616 -1.7471  0.7418
 9006SOL     OW38479   4.211   0.265   9.020 -0.0710 -0.0304 -0.2831
 9006SOL    HW138480   4.196   0.236   8.930  0.5737  0.8110 -0.6675
 9006SOL    HW238481   4.127   0.311   9.029 -0.3833 -0.0985 -2.8805
 9007SOL     OW38482   3.203   1.758   9.739  0.2942 -0.1742  0.0568
 9007SOL    HW138483   3.122   1.733   9.782 -1.5906  1.2384 -2.6739
 9007SOL    HW238484   3.266   1.742   9.810  0.7546  0.2128 -0.2662
 9008SOL     OW38485   0.247   2.491   0.955 -0.1675  0.0344 -0.1766
 9008SOL    HW138486   0.234   2.421   0.890  1.1158 -1.6894  1.4177
 9008SOL    HW238487   0.185   2.473   1.026 -0.8018 -0.4277 -0.8358
 9009SOL     OW38488   1.550   4.122   6.106  0.0934  0.0995 -0.6057
 9009SOL    HW138489   1.620   4.118   6.171 -0.4369 -0.3952 -0.0659
 9009SOL    HW238490   1.529   4.029   6.107 -1.2992  0.4268  0.5977
 9010SOL     OW38491   3.404   1.781   6.393 -0.2549  0.3579  0.2478
 9010SOL    HW138492   3.383   1.689   6.408 -0.6809  0.4011 -0.0897
 9010SOL    HW238493   3.467   1.795   6.463 -2.1004 -0.6113  2.1029
 9011SOL     OW38494   1.385   0.884  16.031  0.4450 -0.2867 -0.2323
 9011SOL    HW138495   1.340   0.920  16.108  0.9170 -0.0969 -0.0517
 9011SOL    HW238496   1.338   0.931  15.962  0.8179  0.6106  0.1265
 9012SOL     OW38497   4.392   4.603  11.269  0.2231  0.2267 -0.3266
 9012SOL    HW138498   4.309   4.648  11.252  0.4777  1.4508  1.5772
 9012SOL    HW238499   4.455   4.674  11.257  1.3356 -0.9611 -1.4405
 9013SOL     OW38500   1.123   3.888   9.850 -0.1258  0.5939 -0.6382
 9013SOL    HW138501   1.128   3.862   9.758 -1.6936 -0.2037 -0.4950
 9013SOL    HW238502   1.037   3.856   9.878  0.4472  0.7959  1.3888
 9014SOL     OW38503   0.521   0.754   0.946  0.3924  0.0924 -0.3950
 9014SOL    HW138504   0.523   0.772   1.040 -1.1605 -2.8735  0.1972
 9014SOL    HW238505   0.446   0.695   0.942  0.2477  0.1973  0.9668
 9015SOL     OW38506   3.731   3.026   6.588 -0.4650  0.0364 -0.5423
 9015SOL    HW138507   3.789   2.986   6.525 -0.3057 -0.1023 -0.3066
 9015SOL    HW238508   3.763   3.116   6.584  1.8274 -0.8102 -0.7572
 9016SOL     OW38509   2.857   1.437  16.640  0.2702  0.3405  0.4110
 9016SOL    HW138510   2.929   1.390  16.683  1.7849  1.0609 -1.3364
 9016SOL    HW238511   2.864   1.512  16.699 -0.2922 -0.0851  1.0153
 9017SOL     OW38512   3.991   0.321   3.398 -0.0797  0.0309  0.3078
 9017SOL    HW138513   3.910   0.371   3.395  0.9822  1.7149 -0.2422
 9017SOL    HW238514   4.009   0.327   3.492  0.5831  0.8778  0.1262
 9018SOL     OW38515   3.668   0.341  14.780  0.4903  0.2861  0.0857
 9018SOL    HW138516   3.609   0.338  14.705  1.5889 -0.2202 -0.7522
 9018SOL    HW238517   3.734   0.399  14.742  0.7951 -0.2190 -0.1512
 9019SOL     OW38518   4.651   1.927   2.271 -0.3364 -0.0367  0.2184
 9019SOL    HW138519   4.669   1.853   2.212 -1.5654 -0.4568  0.3757
 9019SOL    HW238520   0.006   1.987   2.258 -0.7678  0.2033 -1.1200
 9020SOL     OW38521   0.819   2.988   5.198 -0.1308 -0.0604 -0.5446
 9020SOL    HW138522   0.763   3.046   5.146  0.1898 -0.4919 -1.3674
 9020SOL    HW238523   0.764   2.976   5.276  2.1217 -0.7770  0.9604
 9021SOL     OW38524   1.366   1.497   2.045 -0.1301  0.1498 -0.2118
 9021SOL    HW138525   1.338   1.588   2.033  0.9219  0.3615 -1.0453
 9021SOL    HW238526   1.437   1.502   2.109  2.6780  0.7811 -3.3440
 9022SOL     OW38527   2.905   0.040   7.508 -0.3253  0.4594 -0.1909
 9022SOL    HW138528   2.894   0.135   7.501 -0.1442  0.5798  1.1963
 9022SOL    HW238529   2.926   0.024   7.600 -1.3513  0.1887 -0.0069
 9023SOL     OW38530   1.223   2.870   6.226  0.3060 -0.0387 -0.1628
 9023SOL    HW138531   1.176   2.791   6.252  4.3553 -2.5660 -0.4076
 9023SOL    HW238532   1.211   2.861   6.132 -2.2659 -1.5363  0.3135
 9024SOL     OW38533   4.336   1.102   8.873 -0.2080  0.3741  0.4390
 9024SOL    HW138534   4.312   1.051   8.950 -3.2638  2.9503  1.1653
 9024SOL    HW238535   4.397   1.167   8.909  1.1888 -1.3996  1.2824
 9025SOL     OW38536   3.343   1.081   2.995 -0.0593  0.0275 -0.0809
 9025SOL    HW138537   3.255   1.115   3.008  0.5371  1.7155 -0.5410
 9025SOL    HW238538   3.396   1.158   2.976 -1.3621  0.5279 -1.7212
 9026SOL     OW38539   4.536   4.451   3.100  0.1117  0.2272  0.5539
 9026SOL    HW138540   4.517   4.528   3.153 -0.9623  0.0393  0.4335
 9026SOL    HW238541   4.475   4.383   3.126  0.6327  0.1976  1.6774
 9027SOL     OW38542   3.778   4.248  10.342 -0.2658 -0.3537 -0.1211
 9027SOL    HW138543   3.756   4.222  10.431 -1.3464  0.9536 -0.0036
 9027SOL    HW238544   3.689   4.266  10.312 -0.6996 -0.7348  0.9349
 9028SOL     OW38545   0.947   3.989  10.130 -0.1689 -0.2975  0.7276
 9028SOL    HW138546   0.943   3.906  10.083 -0.4346  0.1233  0.0083
 9028SOL    HW238547   0.878   4.044  10.091 -0.2046  0.2491  1.5601
 9029SOL     OW38548   3.724   3.979   6.663 -0.1865 -0.4627  0.2775
 9029SOL    HW138549   3.744   4.040   6.592  0.7385 -2.1887 -0.9460
 9029SOL    HW238550   3.685   3.903   6.620  1.0521 -1.5053  0.9754
 9030SOL     OW38551   4.423   1.122  17.450 -0.0922 -0.0525  0.1287
 9030SOL    HW138552   4.474   1.201  17.465 -2.2071  2.0016 -3.5212
 9030SOL    HW238553   4.481   1.064  17.400 -0.1699 -1.1402  1.3183
 9031SOL     OW38554   3.041   4.039  15.014  0.0032 -0.5004  0.4324
 9031SOL    HW138555   2.979   4.061  15.083  1.8447  1.8299  1.3442
 9031SOL    HW238556   3.048   4.112  14.953  1.3363  0.2261  1.4556
 9032SOL     OW38557   2.994   2.675   6.520 -0.4483 -0.8946 -0.0560
 9032SOL    HW138558   3.086   2.699   6.526 -0.7206  0.1941 -0.1504
 9032SOL    HW238559   2.984   2.616   6.594 -0.5937 -1.4291 -0.4972
 9033SOL     OW38560   0.043   0.960  12.454 -0.4178  0.0321  0.4811
 9033SOL    HW138561   0.121   0.997  12.413 -0.4079  2.7724  3.0171
 9033SOL    HW238562   4.698   0.973  12.383 -0.2717  0.2497  0.3909
 9034SOL     OW38563   2.703   3.330   0.970  0.4935 -0.4108  0.2077
 9034SOL    HW138564   2.684   3.416   0.932  0.8176  0.2829  1.6289
 9034SOL    HW238565   2.747   3.286   0.897 -0.7332 -0.4385 -0.5169
 9035SOL     OW38566   3.566   0.043  14.929  0.4008  0.0192  0.2144
 9035SOL    HW138567   3.626   4.689  14.948 -1.1574 -1.5354 -0.7619
 9035SOL    HW238568   3.498   0.025  14.994  0.6358 -3.3083 -0.4740
 9036SOL     OW38569   2.974   2.853   7.573  0.0361  0.3419  0.3558
 9036SOL    HW138570   3.040   2.795   7.535  0.0308  0.8940 -0.4807
 9036SOL    HW238571   3.020   2.863   7.656  2.4078  1.6070 -1.1246
 9037SOL     OW38572   0.555   2.566  14.101 -0.2294  0.5349 -0.3987
 9037SOL    HW138573   0.590   2.601  14.019 -0.2358  2.2437  0.3165
 9037SOL    HW238574   0.602   2.621  14.162 -0.9628  1.4299 -0.6300
 9038SOL     OW38575   2.169   1.211   9.564 -0.0292 -0.0319  0.1444
 9038SOL    HW138576   2.083   1.229   9.603  1.4989  5.0340  1.1118
 9038SOL    HW238577   2.216   1.169   9.636  1.1386  0.3073 -0.4219
 9039SOL     OW38578   4.415   0.574  13.355 -0.4474  0.2079 -0.4715
 9039SOL    HW138579   4.443   0.550  13.443  1.5377 -1.3949 -1.5463
 9039SOL    HW238580   4.432   0.497  13.302 -1.7443  1.0457 -2.0955
 9040SOL     OW38581   1.960   3.698   4.079  0.3486 -0.1911 -0.4445
 9040SOL    HW138582   1.899   3.763   4.113 -0.6595 -0.8729 -0.9398
 9040SOL    HW238583   2.023   3.686   4.150  1.2975 -1.2492 -1.4578
 9041SOL     OW38584   0.166   0.341   2.919  0.4614 -0.4214 -0.4735
 9041SOL    HW138585   0.236   0.371   2.862 -0.6190  1.9698 -0.5269
 9041SOL    HW238586   0.126   0.281   2.856  2.0625 -0.3492 -1.5530
 9042SOL     OW38587   0.519   3.546   5.176  0.2337  0.2847 -0.5303
 9042SOL    HW138588   0.448   3.593   5.132 -0.5892 -1.7079 -1.3038
 9042SOL    HW238589   0.578   3.617   5.200  1.0017 -0.4003 -0.3935
 9043SOL     OW38590   4.584   0.539   4.051  0.0139 -0.0121  0.3865
 9043SOL    HW138591   4.536   0.617   4.025 -1.3979 -1.3785 -1.1520
 9043SOL    HW238592   4.667   0.547   4.003 -0.4210 -1.9692 -0.7260
 9044SOL     OW38593   1.483   3.566  13.265  0.2692  0.6818  0.4137
 9044SOL    HW138594   1.414   3.550  13.330 -0.2723 -2.2646 -0.8490
 9044SOL    HW238595   1.476   3.491  13.205  0.9244  0.0076  1.1788
 9045SOL     OW38596   2.711   4.691   5.867 -0.2063 -0.2722  0.1434
 9045SOL    HW138597   2.660   4.617   5.834 -1.9000  0.9199  0.0700
 9045SOL    HW238598   2.774   4.646   5.924 -0.0564  0.8294  0.8496
 9046SOL     OW38599   1.366   2.628   4.478  0.2505  0.5854  0.0269
 9046SOL    HW138600   1.334   2.647   4.390 -0.4067  0.0750  0.1519
 9046SOL    HW238601   1.455   2.599   4.462 -0.3109 -0.9718 -0.2969
 9047SOL     OW38602   2.898   1.946   8.644 -0.0947  0.5764 -0.5093
 9047SOL    HW138603   2.870   1.935   8.553  0.1748  2.5771 -0.8348
 9047SOL    HW238604   2.853   2.030   8.659  1.2606  0.8260  1.9967
 9048SOL     OW38605   2.945   2.037   3.876 -0.2179 -0.0423 -0.1565
 9048SOL    HW138606   2.859   2.073   3.899 -0.0984 -1.4405  2.5148
 9048SOL    HW238607   2.933   1.943   3.891  2.6247 -0.1700  1.2973
 9049SOL     OW38608   3.170   1.691   1.833 -0.2606  0.4908  0.4144
 9049SOL    HW138609   3.161   1.655   1.921 -1.7013  0.3643  0.2180
 9049SOL    HW238610   3.157   1.616   1.775 -1.2846 -1.0661  2.6457
 9050SOL     OW38611   0.543   0.247   2.627  0.1908 -0.0426 -0.2353
 9050SOL    HW138612   0.541   0.153   2.645 -3.2245  0.0591 -0.1968
 9050SOL    HW238613   0.624   0.240   2.577 -0.2119 -1.5646 -0.6647
 9051SOL     OW38614   1.053   0.443  16.340 -0.4794 -0.4327  0.6101
 9051SOL    HW138615   1.013   0.450  16.426 -1.9867 -0.0695 -0.1210
 9051SOL    HW238616   0.980   0.421  16.281  0.0830  0.5281 -0.4519
 9052SOL     OW38617   1.411   0.990  10.785 -0.1754  0.9103  0.2946
 9052SOL    HW138618   1.458   0.906  10.782 -1.7024  0.0992 -0.6435
 9052SOL    HW238619   1.453   1.037  10.713 -0.5604  1.8283  0.6668
 9053SOL     OW38620   3.236   2.114   8.948 -0.3809 -0.1084 -0.4302
 9053SOL    HW138621   3.200   2.049   8.889  0.6416  1.4837 -2.8034
 9053SOL    HW238622   3.314   2.148   8.904 -1.2926  1.6370 -0.6996
 9054SOL     OW38623   1.245   1.761  13.824  0.4684  0.2386  0.9730
 9054SOL    HW138624   1.309   1.694  13.847 -0.4578 -0.9739 -0.0017
 9054SOL    HW238625   1.214   1.786  13.911 -1.3178  0.4788  0.2661
 9055SOL     OW38626   0.282   0.695   9.843  0.3827 -0.1189  0.0641
 9055SOL    HW138627   0.250   0.734   9.762 -0.8070 -0.4301  0.3844
 9055SOL    HW238628   0.368   0.735   9.852  0.1507  0.4820 -0.4125
 9056SOL     OW38629   2.367   3.592   9.627  0.2086  0.2295 -0.2186
 9056SOL    HW138630   2.439   3.645   9.591 -1.1163  1.2404 -1.3632
 9056SOL    HW238631   2.298   3.655   9.648 -0.4416 -1.2052  1.9421
 9057SOL     OW38632   1.614   4.339   8.794 -0.2101  0.1401  0.5262
 9057SOL    HW138633   1.620   4.275   8.865  0.0960 -1.0540 -0.5666
 9057SOL    HW238634   1.530   4.385   8.799 -1.0018 -1.3307  0.6854
 9058SOL     OW38635   0.316   4.202   0.944 -0.2038 -0.0481  0.2868
 9058SOL    HW138636   0.367   4.255   1.006 -1.5716  1.6121 -0.0032
 9058SOL    HW238637   0.313   4.261   0.869 -0.7456 -0.8429 -0.3179
 9059SOL     OW38638   0.624   4.415   4.077  0.1069  0.1034  0.2972
 9059SOL    HW138639   0.567   4.378   4.010 -1.5880 -0.2661  1.9286
 9059SOL    HW238640   0.591   4.353   4.142  2.7811 -0.2702  1.3299
 9060SOL     OW38641   1.974   1.002   7.543 -0.0582 -0.7144 -0.2964
 9060SOL    HW138642   1.884   0.973   7.557 -0.5440  1.2541  0.7202
 9060SOL    HW238643   2.003   0.942   7.475 -0.2077 -0.5540 -0.5005
 9061SOL     OW38644   4.701   0.906   4.909  0.0882  0.0623  0.0973
 9061SOL    HW138645   4.662   0.924   4.824 -2.4216 -1.4192  0.9530
 9061SOL    HW238646   4.624   0.903   4.965  0.1645 -2.1628  0.0696
 9062SOL     OW38647   0.965   2.307  16.546  0.0811 -0.3837 -0.1888
 9062SOL    HW138648   1.001   2.306  16.635 -1.6640  0.2010  0.5247
 9062SOL    HW238649   0.902   2.378  16.561  3.9316  2.5717  1.9279
 9063SOL     OW38650   1.645   1.539   1.697  0.2636  0.3079  0.2965
 9063SOL    HW138651   1.678   1.516   1.610 -0.8528  0.5460 -0.1894
 9063SOL    HW238652   1.721   1.542   1.755  0.8497  1.5992 -0.5363
 9064SOL     OW38653   4.347   0.710  10.538  0.4260 -0.3932 -0.2077
 9064SOL    HW138654   4.292   0.727  10.615  1.5956 -0.6139  0.6738
 9064SOL    HW238655   4.407   0.784  10.547 -1.6326  1.0197  2.2316
 9065SOL     OW38656   3.708   2.479   7.160 -0.2924  0.0428  0.6840
 9065SOL    HW138657   3.655   2.559   7.169  0.6893  0.6241  1.3199
 9065SOL    HW238658   3.638   2.414   7.167  0.2002 -0.4642  0.8866
 9066SOL     OW38659   2.456   3.622   2.450  0.3664  0.2213 -0.6020
 9066SOL    HW138660   2.442   3.527   2.453 -0.0929  0.3207  0.5356
 9066SOL    HW238661   2.546   3.627   2.482 -0.2754 -0.5347  1.3824
 9067SOL     OW38662   0.841   2.212  16.310  0.2840 -0.1922 -0.1644
 9067SOL    HW138663   0.752   2.237  16.333 -0.3711 -0.6099 -2.2138
 9067SOL    HW238664   0.875   2.260  16.386  1.2770 -1.8923  0.4629
 9068SOL     OW38665   3.848   4.325   1.464  0.4890 -0.3921  0.4845
 9068SOL    HW138666   3.775   4.352   1.409  2.5631  1.9419 -1.1838
 9068SOL    HW238667   3.875   4.246   1.418 -2.3867 -2.0086  1.6000
 9069SOL     OW38668   4.175   0.030  14.379 -0.2096 -0.1068 -0.4868
 9069SOL    HW138669   4.134   0.103  14.332 -0.6237  0.9138  1.4324
 9069SOL    HW238670   4.134   4.667  14.348  2.4996 -1.9987  0.8977
 9070SOL     OW38671   4.260   3.615   5.318  0.3758  0.0627 -0.0200
 9070SOL    HW138672   4.190   3.618   5.252 -0.0033  0.8618  0.4225
 9070SOL    HW238673   4.212   3.566   5.385 -0.1058 -0.7258 -0.9283
 9071SOL     OW38674   0.867   0.376   9.515 -0.2298 -0.0156  0.0480
 9071SOL    HW138675   0.850   0.465   9.483  0.6115 -0.9156 -2.9212
 9071SOL    HW238676   0.922   0.334   9.449  1.6465  3.7326 -0.7558
 9072SOL     OW38677   3.988   0.453   1.750 -0.1577  0.3197  0.3373
 9072SOL    HW138678   4.030   0.421   1.670 -0.9423 -0.8158  0.3653
 9072SOL    HW238679   3.898   0.477   1.728 -0.1198  0.8251  0.7411
 9073SOL     OW38680   4.054   4.356   6.569  0.0812 -0.0097 -0.8333
 9073SOL    HW138681   4.025   4.265   6.561  1.1304 -0.3735 -0.4812
 9073SOL    HW238682   4.032   4.385   6.480 -0.1580  1.3075 -0.3415
 9074SOL     OW38683   2.744   3.954   4.886  0.2197  0.5417 -0.2146
 9074SOL    HW138684   2.792   4.034   4.906  1.0463 -0.3356  1.2626
 9074SOL    HW238685   2.728   3.965   4.792  2.1536  2.8561 -0.2821
 9075SOL     OW38686   0.345   1.782   2.590  0.1438  0.4802  0.5280
 9075SOL    HW138687   0.348   1.848   2.520  1.9146 -1.6628 -1.4244
 9075SOL    HW238688   0.396   1.710   2.554 -2.3908 -2.6358  3.0830
 9076SOL     OW38689   2.584   1.734   1.668  0.0848 -0.5647 -0.1160
 9076SOL    HW138690   2.653   1.692   1.720  1.5747  3.4190  1.1364
 9076SOL    HW238691   2.557   1.806   1.725 -0.9924 -0.3259 -0.9416
 9077SOL     OW38692   4.369   2.144   0.325 -0.7525 -0.2764  0.3404
 9077SOL    HW138693   4.338   2.091   0.398  0.9674 -2.8823 -0.8152
 9077SOL    HW238694   4.327   2.227   0.344 -1.0358 -0.2922 -0.2118
 9078SOL     OW38695   4.174   4.581   8.441 -0.3081 -0.4407 -0.2247
 9078SOL    HW138696   4.217   4.634   8.374  1.0050  0.5642  1.4207
 9078SOL    HW238697   4.184   4.630   8.522 -0.0641 -2.9885  1.2750
 9079SOL     OW38698   3.810   4.486   3.878  0.3835 -0.2191  0.0858
 9079SOL    HW138699   3.855   4.539   3.811  1.5188  0.8502  1.7058
 9079SOL    HW238700   3.851   4.400   3.871  1.5133  0.1634  1.9276
 9080SOL     OW38701   4.373   3.022   0.896  0.3950  0.2403  0.0607
 9080SOL    HW138702   4.368   2.960   0.969 -0.5924 -0.2089 -0.3862
 9080SOL    HW238703   4.432   2.971   0.839 -0.8225 -0.2721 -0.7426
 9081SOL     OW38704   1.200   3.001   3.186  0.1195 -0.0313  0.7503
 9081SOL    HW138705   1.116   3.030   3.149  0.3584  1.0402  1.0461
 9081SOL    HW238706   1.223   2.923   3.135 -2.1660 -0.9182  1.0918
 9082SOL     OW38707   0.241   0.289   8.728  0.1308 -0.4746 -0.1968
 9082SOL    HW138708   0.253   0.233   8.805 -1.2970 -1.6829 -0.8465
 9082SOL    HW238709   0.149   0.313   8.737  0.3838  0.4520 -0.1035
 9083SOL     OW38710   2.618   3.725   6.101  0.0136  0.0618 -0.1540
 9083SOL    HW138711   2.593   3.811   6.069  3.1244  0.9155 -0.3168
 9083SOL    HW238712   2.529   3.699   6.125 -0.0532 -0.3606 -0.8630
 9084SOL     OW38713   1.427   4.582  15.786 -0.3989 -0.0892  0.5470
 9084SOL    HW138714   1.422   4.500  15.835  1.2359  0.1021  1.0138
 9084SOL    HW238715   1.341   4.584  15.744  0.3224  0.1300 -0.9288
 9085SOL     OW38716   0.729   2.373   6.692 -0.0182  0.4304 -0.4110
 9085SOL    HW138717   0.756   2.463   6.712  0.2037  0.8474 -2.6872
 9085SOL    HW238718   0.802   2.322   6.728 -1.4327 -1.2119  0.1203
 9086SOL     OW38719   0.106   0.485  12.287 -0.0710 -0.2462 -0.2733
 9086SOL    HW138720   0.154   0.474  12.204  0.2717 -0.5610 -0.0317
 9086SOL    HW238721   0.154   0.421  12.338 -1.2818 -0.2289  0.8925
 9087SOL     OW38722   1.325   0.287   4.262  0.1848  0.6068  0.4560
 9087SOL    HW138723   1.347   0.380   4.259 -1.5618  0.9487 -2.9533
 9087SOL    HW238724   1.231   0.288   4.242  0.2444 -0.7879  0.1305
 9088SOL     OW38725   0.929   0.545  12.195 -0.0819  0.2017  0.1860
 9088SOL    HW138726   0.968   0.600  12.262  3.3224 -0.3472 -1.3795
 9088SOL    HW238727   0.956   0.463  12.237 -1.7480 -0.7123 -0.4896
 9089SOL     OW38728   3.463   3.661   5.365  0.1028  0.2834 -0.4936
 9089SOL    HW138729   3.411   3.594   5.321  1.0225  0.1195 -1.3459
 9089SOL    HW238730   3.392   3.719   5.390  2.5809  3.5828 -1.0108
 9090SOL     OW38731   2.433   0.424   8.536 -0.4046 -0.0175 -0.1776
 9090SOL    HW138732   2.527   0.418   8.523 -0.2997 -1.3227  1.2113
 9090SOL    HW238733   2.405   0.472   8.458 -1.1724  1.3714  0.9414
 9091SOL     OW38734   2.038   1.035   3.078  0.2097 -0.2888  0.2815
 9091SOL    HW138735   2.046   0.941   3.059 -3.1767 -0.1272 -2.0280
 9091SOL    HW238736   2.044   1.069   2.988 -0.9745  0.0903  0.3480
 9092SOL     OW38737   2.210   2.523   3.968 -0.1247 -0.6873 -0.3403
 9092SOL    HW138738   2.297   2.545   3.934  0.3998 -0.9154  0.8728
 9092SOL    HW238739   2.194   2.601   4.021  1.8849 -0.8663  0.5241
 9093SOL     OW38740   1.211   1.681   4.555  0.0928 -0.0607  0.2337
 9093SOL    HW138741   1.179   1.665   4.466 -0.7416 -0.2677  0.5633
 9093SOL    HW238742   1.129   1.708   4.597 -0.7669 -0.2061 -1.3612
 9094SOL     OW38743   2.557   1.953   2.199  0.9796  0.2728 -0.3717
 9094SOL    HW138744   2.517   2.024   2.150 -0.4855 -1.9340 -2.3941
 9094SOL    HW238745   2.640   1.950   2.151  0.8804 -0.8202 -0.4704
 9095SOL     OW38746   3.414   4.428   8.990  0.1746  0.2437  0.1579
 9095SOL    HW138747   3.469   4.350   9.001 -3.0331 -2.1238 -0.1838
 9095SOL    HW238748   3.444   4.465   9.072  2.3074  2.1307 -1.4836
 9096SOL     OW38749   4.384   0.339  14.990  0.2143 -0.0932  0.1026
 9096SOL    HW138750   4.354   0.278  15.058 -1.8214  0.8521  0.0648
 9096SOL    HW238751   4.315   0.327  14.925 -1.3450  1.4085  1.4734
 9097SOL     OW38752   1.352   1.730   6.498  0.1061  0.5788  0.1939
 9097SOL    HW138753   1.281   1.666   6.488  0.9718 -0.0827 -1.6318
 9097SOL    HW238754   1.364   1.745   6.404  1.8190  2.0157  0.6454
 9098SOL     OW38755   2.483   3.046  15.522 -0.0019  0.2913 -0.6433
 9098SOL    HW138756   2.406   2.993  15.501 -0.2484  0.3219  0.2018
 9098SOL    HW238757   2.511   2.993  15.596  0.0657  1.8795  0.4697
 9099SOL     OW38758   0.613   4.364   3.126 -0.1739  0.9976 -0.5640
 9099SOL    HW138759   0.619   4.317   3.209 -0.1909 -1.0489 -1.7264
 9099SOL    HW238760   0.594   4.297   3.061 -0.4034 -0.2495  0.7981
 9100SOL     OW38761   4.426   0.085  13.594 -1.0502  0.3834 -0.0300
 9100SOL    HW138762   4.466   0.171  13.575  0.1306 -0.2579 -0.4639
 9100SOL    HW238763   4.371   0.103  13.669 -1.0406 -2.4749  0.6628
 9101SOL     OW38764   2.210   2.896   5.312  0.6994 -0.0895  0.1358
 9101SOL    HW138765   2.144   2.863   5.373 -0.7171 -0.9888 -1.8909
 9101SOL    HW238766   2.282   2.911   5.374 -0.1593  0.6883  0.9481
 9102SOL     OW38767   3.306   2.418  15.064  0.2010 -0.0348 -0.1034
 9102SOL    HW138768   3.243   2.422  14.992 -0.3148  1.5348  0.4210
 9102SOL    HW238769   3.253   2.470  15.125 -2.1216 -0.9923 -1.3172
 9103SOL     OW38770   2.096   2.851   5.066 -0.1763  0.4529  0.2769
 9103SOL    HW138771   2.142   2.852   5.151  0.4724  1.0159 -0.0804
 9103SOL    HW238772   2.010   2.845   5.108 -0.5674  0.1989 -0.5585
 9104SOL     OW38773   2.479   2.664   7.114 -0.2182  0.4632 -0.4275
 9104SOL    HW138774   2.558   2.684   7.063  0.6537 -1.2649  0.2592
 9104SOL    HW238775   2.414   2.650   7.045  0.1942 -2.0067 -0.3185
 9105SOL     OW38776   2.890   0.506   4.701 -0.5361  0.1195  0.0283
 9105SOL    HW138777   2.898   0.494   4.607  1.1205 -2.2687  0.4765
 9105SOL    HW238778   2.794   0.511   4.709 -0.4842 -0.4467  1.1458
 9106SOL     OW38779   1.019   3.126   6.191  0.1725  0.7412  0.6954
 9106SOL    HW138780   0.998   3.191   6.258  0.8269  1.5825  0.0761
 9106SOL    HW238781   1.098   3.162   6.150  0.6822  1.8263  2.5959
 9107SOL     OW38782   4.162   0.508  10.369 -0.5280 -0.4032  0.3450
 9107SOL    HW138783   4.096   0.473  10.309 -0.4296 -1.0859  0.6445
 9107SOL    HW238784   4.159   0.445  10.440 -2.2703  2.0814  2.5072
 9108SOL     OW38785   3.810   2.542   7.426  0.0345  0.4859  0.2912
 9108SOL    HW138786   3.781   2.527   7.336  0.6044 -0.8732  0.3198
 9108SOL    HW238787   3.832   2.633   7.409 -2.1358  1.3104  1.9970
 9109SOL     OW38788   3.841   3.766  16.388 -0.4837  0.0355  0.3556
 9109SOL    HW138789   3.858   3.850  16.346 -1.0048  1.1871  2.4448
 9109SOL    HW238790   3.921   3.714  16.394 -1.1667 -1.1081 -0.5137
 9110SOL     OW38791   2.082   4.561   4.593  0.0631 -0.1232  0.2993
 9110SOL    HW138792   2.042   4.518   4.668 -1.7255  3.1819  1.2737
 9110SOL    HW238793   2.095   4.491   4.529  0.8438  2.0104 -1.8962
 9111SOL     OW38794   4.519   1.254   4.998 -0.0519 -0.4000  0.1977
 9111SOL    HW138795   4.576   1.319   4.959  1.4696 -1.4524  0.6593
 9111SOL    HW238796   4.435   1.292   4.974  1.3464  1.3401 -1.8971
 9112SOL     OW38797   2.540   1.756   6.812  0.1574  0.4267  0.1029
 9112SOL    HW138798   2.540   1.707   6.895  0.5463  0.3290  0.0419
 9112SOL    HW238799   2.492   1.698   6.752  0.0953 -0.3744  0.9113
 9113SOL     OW38800   1.195   4.095   3.073  0.7453 -0.0454 -0.3277
 9113SOL    HW138801   1.116   4.118   3.121  0.3055  0.3579 -1.2448
 9113SOL    HW238802   1.163   4.114   2.985  3.2548  0.7029 -1.0759
 9114SOL     OW38803   1.245   2.831   1.876  0.1160  0.4941  0.4717
 9114SOL    HW138804   1.245   2.872   1.790 -0.0285  1.0331  0.7326
 9114SOL    HW238805   1.177   2.880   1.922 -1.3649 -1.0218 -0.0694
 9115SOL     OW38806   1.431   1.985   4.317 -0.4795  0.5861 -0.3652
 9115SOL    HW138807   1.459   2.005   4.228 -0.7896  2.7637  0.0388
 9115SOL    HW238808   1.485   1.916   4.356 -0.7810 -0.8884 -2.5545
 9116SOL     OW38809   4.137   2.660   9.651 -1.2186 -0.4105  0.5209
 9116SOL    HW138810   4.107   2.685   9.738  1.8493  0.3507  1.3671
 9116SOL    HW238811   4.214   2.614   9.686 -0.4750 -0.6471 -1.4450
 9117SOL     OW38812   4.707   1.808  15.504  1.0839 -0.6004  0.3342
 9117SOL    HW138813   0.029   1.770  15.583 -2.0051 -0.7342  1.8238
 9117SOL    HW238814   0.017   1.737  15.446  0.3332  0.6217 -1.4996
 9118SOL     OW38815   2.817   3.686   7.221 -0.1663  0.7350 -0.0890
 9118SOL    HW138816   2.763   3.740   7.279  0.1989 -1.5608  2.3720
 9118SOL    HW238817   2.795   3.599   7.254  2.5427  0.4961  1.1335
 9119SOL     OW38818   0.008   0.074  10.240  0.1172 -0.3669 -0.1270
 9119SOL    HW138819   0.065   0.102  10.312 -0.6663  0.0370  0.3436
 9119SOL    HW238820   4.667   0.149  10.230 -1.3704 -1.2072  2.2815
 9120SOL     OW38821   0.904   2.709   2.497 -0.1377  0.4600 -0.5086
 9120SOL    HW138822   0.952   2.647   2.552 -3.5673 -1.2528  0.6029
 9120SOL    HW238823   0.934   2.670   2.414 -1.2481 -0.8219 -0.3211
 9121SOL     OW38824   2.121   2.781   3.616 -0.3466  0.3908 -0.1317
 9121SOL    HW138825   2.186   2.712   3.601 -0.3660  0.4354 -0.4160
 9121SOL    HW238826   2.144   2.826   3.535  1.4446 -0.2922 -0.0159
 9122SOL     OW38827   1.496   3.902  12.249  0.1660  0.5858  0.0826
 9122SOL    HW138828   1.566   3.962  12.274  0.6727 -0.6941  1.7657
 9122SOL    HW238829   1.417   3.940  12.288  0.2795 -0.9591  1.8255
 9123SOL     OW38830   1.018   2.996   0.144 -0.0074 -0.4450  0.1509
 9123SOL    HW138831   1.097   3.017   0.093 -2.2132  1.1181 -2.6564
 9123SOL    HW238832   1.035   3.067   0.205 -0.6045 -0.9575  0.9058
 9124SOL     OW38833   0.076   3.610   2.810  0.1776 -0.6720 -0.2137
 9124SOL    HW138834   0.167   3.596   2.784  0.6814  2.4513 -0.0716
 9124SOL    HW238835   0.084   3.582   2.901 -2.2682 -1.2207 -0.1695
 9125SOL     OW38836   1.666   2.495  13.696 -0.8923  0.2122 -0.2784
 9125SOL    HW138837   1.615   2.528  13.622 -1.4547  0.6616  0.3102
 9125SOL    HW238838   1.598   2.496  13.764 -0.3269  1.7817  0.2480
 9126SOL     OW38839   3.041   0.434   6.165 -0.1742 -0.1927 -0.0180
 9126SOL    HW138840   3.014   0.435   6.073  1.0447 -3.2581 -0.3924
 9126SOL    HW238841   3.003   0.521   6.179  0.6723  0.2710 -0.6446
 9127SOL     OW38842   0.587   2.750   1.732 -0.2424 -0.2176 -0.4756
 9127SOL    HW138843   0.590   2.655   1.743 -1.1776 -0.2006 -0.0627
 9127SOL    HW238844   0.519   2.756   1.800  1.6130  1.6395  1.2067
 9128SOL     OW38845   2.924   3.567  12.028  0.1391  0.2714 -0.6626
 9128SOL    HW138846   2.984   3.532  12.093 -1.4415 -1.4843 -0.1509
 9128SOL    HW238847   2.890   3.646  12.070  0.4969  0.5746 -0.9396
 9129SOL     OW38848   0.451   3.216   8.205  0.0671 -0.1321  0.0722
 9129SOL    HW138849   0.385   3.215   8.135  0.2664 -1.4578 -0.0960
 9129SOL    HW238850   0.414   3.290   8.253 -2.8065  1.0305 -3.8989
 9130SOL     OW38851   2.735   4.402   5.666  0.6590  0.3271 -0.1127
 9130SOL    HW138852   2.665   4.349   5.703  0.8853  1.2560  1.5965
 9130SOL    HW238853   2.716   4.401   5.572 -1.5421  0.5999  0.3345
 9131SOL     OW38854   1.422   0.688  12.898 -0.3047  0.6389 -0.2529
 9131SOL    HW138855   1.470   0.766  12.927  0.5220  0.0796 -0.1340
 9131SOL    HW238856   1.335   0.725  12.914 -1.3883 -1.8544 -0.4651
 9132SOL     OW38857   3.611   0.086   4.686  0.0779 -0.0276 -0.0397
 9132SOL    HW138858   3.574   0.038   4.612 -0.8967 -0.2168  0.5699
 9132SOL    HW238859   3.582   0.177   4.690 -0.7988 -0.2942 -0.3348
 9133SOL     OW38860   3.990   2.735   8.102 -0.5990  0.2575  0.0483
 9133SOL    HW138861   3.955   2.646   8.110  0.7051 -0.3809 -1.2957
 9133SOL    HW238862   4.063   2.734   8.041 -1.2326  3.0631 -0.7411
 9134SOL     OW38863   0.496   3.469  10.332 -0.1907 -0.5049  0.4292
 9134SOL    HW138864   0.403   3.450  10.324 -0.6713  1.3784  1.4313
 9134SOL    HW238865   0.540   3.386  10.347  1.5005 -0.4240 -4.1240
 9135SOL     OW38866   1.794   0.303  10.259  0.0916 -0.0218  0.0995
 9135SOL    HW138867   1.778   0.256  10.341  0.9147 -1.4165 -0.5480
 9135SOL    HW238868   1.758   0.249  10.188  2.2432  0.6891 -1.5365
 9136SOL     OW38869   4.241   1.036   1.591  0.4097  0.4763  0.2873
 9136SOL    HW138870   4.289   0.994   1.662  0.0175 -0.0616  0.2364
 9136SOL    HW238871   4.181   0.963   1.574  1.7824 -0.8169  0.8978
 9137SOL     OW38872   4.163   4.433  11.973 -0.5142  0.0034  0.3094
 9137SOL    HW138873   4.224   4.397  11.910 -1.6452 -1.2017 -0.1012
 9137SOL    HW238874   4.211   4.510  12.004 -0.8295 -1.5326  4.6867
 9138SOL     OW38875   1.894   2.760   0.978 -0.1312 -0.3781 -0.1749
 9138SOL    HW138876   1.838   2.725   0.908 -3.6010  0.7340  2.0363
 9138SOL    HW238877   1.825   2.810   1.021  3.0045  3.6921  0.0820
 9139SOL     OW38878   4.537   1.593   6.784  0.2553 -0.2450 -0.0071
 9139SOL    HW138879   4.603   1.524   6.788  0.6973  0.1062 -1.1417
 9139SOL    HW238880   4.461   1.557   6.830  0.7808 -1.2825  0.0333
 9140SOL     OW38881   2.526   0.344   7.606  0.3113 -0.3270  0.5792
 9140SOL    HW138882   2.533   0.427   7.653 -1.9573  0.8649 -1.2095
 9140SOL    HW238883   2.599   0.290   7.636  0.3489 -0.4962  0.1859
 9141SOL     OW38884   0.168   2.554   6.230 -0.1371  0.2242  0.0106
 9141SOL    HW138885   0.261   2.531   6.237 -0.3397  0.2065  2.5753
 9141SOL    HW238886   0.169   2.643   6.196 -0.1387  0.1601 -0.1593
 9142SOL     OW38887   2.790   4.125  13.364  0.1138 -0.0689 -0.4236
 9142SOL    HW138888   2.700   4.104  13.339  0.8913 -1.6301 -1.8677
 9142SOL    HW238889   2.792   4.195  13.298 -1.9240  1.4982  1.1811
 9143SOL     OW38890   0.086   2.831   0.352  0.3376  0.4134  0.3510
 9143SOL    HW138891   4.710   2.850   0.348  0.4600  1.2350  1.5423
 9143SOL    HW238892   0.112   2.857   0.440  0.3847 -0.1322  0.4968
 9144SOL     OW38893   3.613   3.504   3.772 -0.5160 -0.6236  0.1796
 9144SOL    HW138894   3.666   3.426   3.789 -0.9640 -1.2333 -1.1700
 9144SOL    HW238895   3.670   3.579   3.787  0.9625 -1.3681 -1.6655
 9145SOL     OW38896   3.675   1.756  15.765  0.0998 -0.4061  0.0062
 9145SOL    HW138897   3.601   1.695  15.771  0.0702 -0.5699 -1.8298
 9145SOL    HW238898   3.730   1.706  15.704 -1.0041 -1.5944 -0.0160
 9146SOL     OW38899   4.650   3.792  13.811  0.4263 -0.1204  0.1883
 9146SOL    HW138900   0.021   3.799  13.846  0.4906  1.5962 -0.3314
 9146SOL    HW238901   4.608   3.861  13.862 -1.1065 -0.0934 -1.1044
 9147SOL     OW38902   2.309   3.195   4.739  0.8848  0.4967 -0.1842
 9147SOL    HW138903   2.269   3.178   4.654 -0.7305 -0.2079  0.7213
 9147SOL    HW238904   2.316   3.109   4.782  0.2248  0.6666  0.2676
 9148SOL     OW38905   4.473   0.345  11.123 -0.3399  0.1962  0.0557
 9148SOL    HW138906   4.447   0.379  11.037  1.2486 -0.6208 -0.7412
 9148SOL    HW238907   4.543   0.405  11.149  0.3333  0.0456 -1.3978
 9149SOL     OW38908   0.594   0.482   4.302 -0.0724 -0.0426  0.4070
 9149SOL    HW138909   0.634   0.412   4.250  0.7045  1.4840 -1.0550
 9149SOL    HW238910   0.641   0.480   4.385 -1.3127 -2.3903  1.0393
 9150SOL     OW38911   2.292   3.967   8.591 -0.4465  0.4510  0.1224
 9150SOL    HW138912   2.362   3.907   8.616 -0.2820  0.0651 -1.2449
 9150SOL    HW238913   2.209   3.921   8.598 -0.5552  0.5117 -0.7919
 9151SOL     OW38914   2.576   0.782   0.569 -0.0868 -0.0185  0.5870
 9151SOL    HW138915   2.483   0.770   0.547  0.1842 -0.3322 -0.3652
 9151SOL    HW238916   2.619   0.733   0.499 -1.8258 -0.6819 -0.0306
 9152SOL     OW38917   3.821   2.720   2.046  0.7506  0.5376  0.1910
 9152SOL    HW138918   3.876   2.666   1.989  2.4197  0.4947  1.8490
 9152SOL    HW238919   3.792   2.649   2.103  1.5108  1.0571  1.2407
 9153SOL     OW38920   2.404   3.896   3.693 -0.5203 -0.8757 -0.3144
 9153SOL    HW138921   2.359   3.816   3.722  1.3121 -2.2415 -1.2183
 9153SOL    HW238922   2.447   3.878   3.610 -0.1555 -2.8506  0.2846
 9154SOL     OW38923   1.714   4.149  10.711 -0.0648  0.4961  0.1272
 9154SOL    HW138924   1.789   4.115  10.761 -0.1168 -1.7156 -1.2811
 9154SOL    HW238925   1.743   4.240  10.703 -0.7962  0.8890  1.8925
 9155SOL     OW38926   1.571   2.222  10.275 -0.6434  0.3529  0.3968
 9155SOL    HW138927   1.546   2.132  10.292  2.3628 -0.0666  2.6556
 9155SOL    HW238928   1.587   2.227  10.181 -1.5029  0.9208  0.2792
 9156SOL     OW38929   3.359   2.939  14.505  0.1803 -0.3886 -0.0601
 9156SOL    HW138930   3.372   2.934  14.410 -0.3144  2.2371 -0.2812
 9156SOL    HW238931   3.295   3.008  14.520  1.0454  0.5650 -0.7013
 9157SOL     OW38932   1.772   0.547   5.433  0.0230 -0.3265 -0.2001
 9157SOL    HW138933   1.863   0.568   5.450 -0.5360  1.2071  0.9200
 9157SOL    HW238934   1.754   0.601   5.356 -1.3955  1.2169  1.1967
 9158SOL     OW38935   2.628   2.961   2.533 -0.1671 -0.4482  0.0277
 9158SOL    HW138936   2.579   3.023   2.479  0.2232  0.7018  0.9798
 9158SOL    HW238937   2.707   2.945   2.483  0.7305 -0.9355  1.5892
 9159SOL     OW38938   2.862   1.236   5.768 -0.3921  0.2482 -0.3625
 9159SOL    HW138939   2.777   1.222   5.726 -1.0873 -0.0980  1.1501
 9159SOL    HW238940   2.860   1.331   5.777  2.8152  0.0751  1.7356
 9160SOL     OW38941   3.050   1.229   5.533  0.2538 -0.1973 -0.0568
 9160SOL    HW138942   3.085   1.294   5.595  0.3855 -1.9222  1.6874
 9160SOL    HW238943   3.032   1.160   5.597  0.3027 -0.2118 -0.0584
 9161SOL     OW38944   0.711   4.070   3.080 -0.0592 -0.7128 -0.3562
 9161SOL    HW138945   0.707   4.030   2.994  0.2127  0.8490 -1.0876
 9161SOL    HW238946   0.651   4.020   3.136  1.7613  0.0964  2.3271
 9162SOL     OW38947   0.335   0.685   2.048 -0.0449 -0.0373  0.2316
 9162SOL    HW138948   0.305   0.737   1.973  0.1452  1.4741  1.2216
 9162SOL    HW238949   0.429   0.682   2.032 -0.2897 -0.4863 -1.1546
 9163SOL     OW38950   3.457   1.000   8.248  0.0147  0.5919 -0.1362
 9163SOL    HW138951   3.514   1.008   8.172 -0.8671  0.1581 -0.8520
 9163SOL    HW238952   3.510   0.938   8.298  0.6774  0.9484 -0.4119
 9164SOL     OW38953   2.790   0.297  10.403  0.1849 -0.2118  0.1709
 9164SOL    HW138954   2.874   0.251  10.405 -1.2200 -2.7637  0.1576
 9164SOL    HW238955   2.801   0.378  10.453 -1.0726  1.3928 -2.1674
 9165SOL     OW38956   3.700   4.168   9.274  0.1887  0.0362  0.4236
 9165SOL    HW138957   3.696   4.175   9.369  1.0161 -0.7145  0.5134
 9165SOL    HW238958   3.617   4.125   9.256  0.9325 -0.2047 -2.4278
 9166SOL     OW38959   0.795   2.948  10.365 -0.0129 -0.4938  0.1064
 9166SOL    HW138960   0.727   3.015  10.352  1.0905  0.3120 -1.5121
 9166SOL    HW238961   0.856   2.982  10.299 -0.3764  0.3070  0.1852
 9167SOL     OW38962   3.582   1.404  14.447  0.0308 -0.3095  0.1781
 9167SOL    HW138963   3.567   1.461  14.522  1.3724  0.6453 -0.2856
 9167SOL    HW238964   3.490   1.402  14.420  0.3822  0.7533 -1.1380
 9168SOL     OW38965   3.584   1.302   9.069 -0.3932  0.0262 -0.3811
 9168SOL    HW138966   3.547   1.231   9.018  0.4428 -0.1729 -0.7064
 9168SOL    HW238967   3.623   1.366   9.010 -1.5469  0.1141 -1.0473
 9169SOL     OW38968   4.435   0.550   0.182  0.3115 -0.5654 -0.3885
 9169SOL    HW138969   4.400   0.639   0.177 -0.6180 -0.8630  0.6851
 9169SOL    HW238970   4.460   0.535   0.273  0.8543 -0.0326 -0.4483
 9170SOL     OW38971   3.202   3.250  13.655 -0.0789  0.1487 -0.3090
 9170SOL    HW138972   3.128   3.217  13.604 -0.2649  0.4541 -0.2365
 9170SOL    HW238973   3.178   3.339  13.680 -0.9435  0.4678 -2.2736
 9171SOL     OW38974   3.373   3.694   6.405  0.2676 -0.0974  0.1351
 9171SOL    HW138975   3.314   3.637   6.356  1.5233 -1.9198  0.7744
 9171SOL    HW238976   3.368   3.640   6.484 -0.6445  0.4407  0.4488
 9172SOL     OW38977   2.345   3.057  12.526 -0.0088  0.1563 -0.3605
 9172SOL    HW138978   2.303   3.098  12.602  0.0451  0.5361 -0.5357
 9172SOL    HW238979   2.298   3.105  12.458  1.5678  0.7517 -1.0227
 9173SOL     OW38980   4.282   2.042   3.457  0.1283 -0.3058  0.5170
 9173SOL    HW138981   4.244   2.021   3.371 -1.1084  0.2712  0.9303
 9173SOL    HW238982   4.348   1.973   3.460  0.8062  0.3805  1.3545
 9174SOL     OW38983   0.478   2.869  12.336  0.6387 -0.0852  0.2006
 9174SOL    HW138984   0.561   2.917  12.334 -1.1281  2.9515 -1.4300
 9174SOL    HW238985   0.463   2.850  12.429 -1.4064 -2.4795 -0.6158
 9175SOL     OW38986   1.342   4.108   5.179  0.2419 -0.4842  0.9115
 9175SOL    HW138987   1.336   4.203   5.166  1.4474 -0.6159 -0.6139
 9175SOL    HW238988   1.395   4.102   5.258 -1.1676  0.4465  1.9258
 9176SOL     OW38989   0.368   3.740   2.927 -0.1551 -0.2659 -0.6296
 9176SOL    HW138990   0.352   3.655   2.887 -1.1222  0.0673 -0.9516
 9176SOL    HW238991   0.371   3.712   3.018  0.3402 -1.7676 -1.1095
 9177SOL     OW38992   4.601   2.431   9.405  0.3047 -0.2765 -0.5475
 9177SOL    HW138993   4.632   2.521   9.394  0.1091 -0.5039 -2.9740
 9177SOL    HW238994   4.638   2.393   9.325  2.3713 -2.6994  1.5442
 9178SOL     OW38995   0.492   4.139   6.645  0.0069  0.0008  0.0323
 9178SOL    HW138996   0.554   4.116   6.715 -0.0293 -2.9284 -0.9069
 9178SOL    HW238997   0.532   4.218   6.609 -2.8346  1.2896 -0.2917
 9179SOL     OW38998   1.328   3.700   8.027  0.1935  0.3864 -0.2397
 9179SOL    HW138999   1.373   3.618   8.048  1.7435  1.5027  0.7127
 9179SOL    HW239000   1.366   3.751   8.099 -0.4990 -0.4477  0.7158
 9180SOL     OW39001   3.254   0.023   8.840  1.3045  0.6136 -0.7219
 9180SOL    HW139002   3.237   0.071   8.759 -3.8951 -0.0737 -0.0543
 9180SOL    HW239003   3.340   4.706   8.816  1.5868 -0.1868  1.4745
 9181SOL     OW39004   1.356   1.717   8.897 -0.0950 -0.0701 -0.7446
 9181SOL    HW139005   1.316   1.643   8.851 -1.5029  1.8441 -2.5913
 9181SOL    HW239006   1.389   1.674   8.976 -0.4059 -1.4783 -1.3695
 9182SOL     OW39007   2.412   0.248   0.402 -0.4853  0.2321 -0.2516
 9182SOL    HW139008   2.406   0.167   0.452 -0.9431 -0.0568 -0.7725
 9182SOL    HW239009   2.331   0.241   0.350 -0.7189  0.6640  0.0570
 9183SOL     OW39010   2.132   0.731   6.997  0.4110  0.3821 -0.0781
 9183SOL    HW139011   2.144   0.780   6.915  0.9006  0.2898 -0.0638
 9183SOL    HW239012   2.068   0.787   7.041  0.2373 -0.0815  0.2550
 9184SOL     OW39013   0.614   1.881   7.962  0.4527 -1.0670 -0.3457
 9184SOL    HW139014   0.605   1.796   8.004 -0.2199 -0.7318  0.1843
 9184SOL    HW239015   0.654   1.934   8.031 -0.0041 -1.9225  0.5729
 9185SOL     OW39016   2.640   1.385   8.770  0.3784 -0.7438  0.1946
 9185SOL    HW139017   2.549   1.410   8.754  0.0621 -2.3191 -0.3978
 9185SOL    HW239018   2.635   1.303   8.818  0.5316 -0.2179  1.1086
 9186SOL     OW39019   3.993   1.787   3.930  0.0858  0.1749 -0.1268
 9186SOL    HW139020   4.078   1.750   3.906  1.1270  2.0585  0.6245
 9186SOL    HW239021   3.935   1.721   3.894 -2.1434  2.4520 -0.6535
 9187SOL     OW39022   0.026   3.557   4.469 -0.0434 -0.3409 -0.3521
 9187SOL    HW139023   0.026   3.569   4.563 -2.0750 -2.0258 -0.1229
 9187SOL    HW239024   0.098   3.495   4.458 -0.3763 -0.7585 -0.2041
 9188SOL     OW39025   3.810   3.081   8.617 -0.1190  0.1773  0.3281
 9188SOL    HW139026   3.779   3.071   8.707  0.0571 -0.2744  0.3364
 9188SOL    HW239027   3.900   3.110   8.636 -0.2709  0.9302 -0.1176
 9189SOL     OW39028   1.638   0.648  17.305 -0.1380 -0.0116 -0.1717
 9189SOL    HW139029   1.547   0.621  17.298  0.3098 -1.7504  0.5675
 9189SOL    HW239030   1.640   0.686  17.393 -0.1048  1.0582 -0.6315
 9190SOL     OW39031   2.997   4.620  15.588 -0.3571 -0.2298  0.2631
 9190SOL    HW139032   2.983   4.714  15.600 -2.3612 -0.3713 -1.0178
 9190SOL    HW239033   3.092   4.611  15.580  0.3136  2.5411  4.9607
 9191SOL     OW39034   0.431   1.743  10.716 -0.1774 -0.2343  0.0940
 9191SOL    HW139035   0.483   1.800  10.659  1.3615  0.1094  1.8548
 9191SOL    HW239036   0.470   1.776  10.797  0.8807  0.5357 -0.7248
 9192SOL     OW39037   0.653   0.157   8.388 -0.2115  0.0095  0.3050
 9192SOL    HW139038   0.666   0.211   8.310  1.6162  1.5983  1.7238
 9192SOL    HW239039   0.705   0.208   8.450 -0.8184  1.0802 -0.0616
 9193SOL     OW39040   2.371   2.633  16.241  0.0612  0.5212 -0.0655
 9193SOL    HW139041   2.458   2.640  16.203 -0.1481  0.9726 -0.4742
 9193SOL    HW239042   2.383   2.604  16.331 -1.8149 -1.7313 -0.5500
 9194SOL     OW39043   2.413   1.184   7.632 -0.2055 -0.4551 -0.0229
 9194SOL    HW139044   2.450   1.267   7.601  0.8398 -1.4382 -1.3910
 9194SOL    HW239045   2.321   1.201   7.612 -0.3564 -1.4074 -0.1207
 9195SOL     OW39046   2.944   2.011   3.149  0.2081  0.1579 -0.1218
 9195SOL    HW139047   2.886   2.056   3.087 -0.7835  0.0006  0.6914
 9195SOL    HW239048   2.960   2.077   3.216  0.4471 -0.0859  0.0579
 9196SOL     OW39049   3.193   4.381  10.560  0.5723 -0.2008  0.3551
 9196SOL    HW139050   3.280   4.362  10.525  1.0512 -0.3183  1.5804
 9196SOL    HW239051   3.214   4.374  10.654  0.6813  1.3468  0.4539
 9197SOL     OW39052   1.047   0.622   3.472 -0.0842  0.4027 -0.2625
 9197SOL    HW139053   0.985   0.692   3.492 -1.5294 -0.7347 -0.7612
 9197SOL    HW239054   1.056   0.577   3.557  0.6763 -2.9092 -2.1081
 9198SOL     OW39055   2.859   2.593   8.288 -0.0901  0.4911  0.2449
 9198SOL    HW139056   2.839   2.542   8.209 -1.2301  1.8766 -0.3622
 9198SOL    HW239057   2.817   2.535   8.351 -2.6623  1.1152 -0.8887
 9199SOL     OW39058   0.045   3.536  14.274  0.4140 -0.7484 -0.6780
 9199SOL    HW139059   0.112   3.602  14.255  0.0459  0.4650  2.2007
 9199SOL    HW239060   4.691   3.596  14.253  0.6741 -0.2182 -0.0440
 9200SOL     OW39061   3.468   2.701   5.811 -0.2412 -0.2124  0.1588
 9200SOL    HW139062   3.451   2.719   5.903  0.2753  1.6108 -0.1100
 9200SOL    HW239063   3.460   2.788   5.771 -0.1934 -0.4896 -0.4625
 9201SOL     OW39064   3.043   2.262   6.228  0.0143  0.2888 -0.0875
 9201SOL    HW139065   3.119   2.241   6.283  1.5406  0.1529 -2.2354
 9201SOL    HW239066   3.015   2.352   6.244  0.1448  0.4552 -0.7878
 9202SOL     OW39067   2.382   3.383   0.638  0.1092 -0.0060  0.1214
 9202SOL    HW139068   2.412   3.296   0.663  1.1491  0.4270  0.4088
 9202SOL    HW239069   2.377   3.423   0.725 -1.0606  0.4953 -0.1810
 9203SOL     OW39070   3.003   0.708  15.238 -0.2393  0.1087  0.1657
 9203SOL    HW139071   3.089   0.748  15.224 -0.0698 -0.0537  0.7298
 9203SOL    HW239072   3.001   0.665  15.152 -0.5076  0.1249  0.1636
 9204SOL     OW39073   1.707   0.735  13.196  0.0948  0.2674 -0.1668
 9204SOL    HW139074   1.655   0.816  13.195  0.1594  0.3458  2.3528
 9204SOL    HW239075   1.717   0.720  13.102  0.8496  0.1205 -0.0610
 9205SOL     OW39076   2.498   0.123  13.412 -0.0690 -0.1890  0.3910
 9205SOL    HW139077   2.407   0.118  13.384  0.1052  0.3443 -0.2613
 9205SOL    HW239078   2.519   0.216  13.415 -1.4026  0.0975  0.5702
 9206SOL     OW39079   3.755   2.805  13.051 -0.3476  0.3073  0.1069
 9206SOL    HW139080   3.767   2.816  13.145 -2.2306  1.0383  0.2577
 9206SOL    HW239081   3.756   2.709  13.046 -1.3630  0.2351  1.3294
 9207SOL     OW39082   2.204   2.473  14.856  0.3039  0.0440 -0.8433
 9207SOL    HW139083   2.196   2.511  14.943 -4.7484  0.7591 -1.5649
 9207SOL    HW239084   2.170   2.385  14.874  0.8755 -0.1779 -0.8449
 9208SOL     OW39085   3.673   2.019   4.339  0.1650  0.3084  0.2198
 9208SOL    HW139086   3.647   2.104   4.303 -1.6512  0.6812  2.4176
 9208SOL    HW239087   3.725   2.046   4.415  0.2007 -0.1369  0.3502
 9209SOL     OW39088   3.979   4.470   9.771  0.3664 -0.0682 -0.4110
 9209SOL    HW139089   3.996   4.473   9.677  0.4593 -0.5106 -0.4083
 9209SOL    HW239090   3.916   4.398   9.769 -0.7874  0.8619  1.8117
 9210SOL     OW39091   1.663   1.785   3.269 -0.5322 -0.1706 -0.4092
 9210SOL    HW139092   1.690   1.850   3.334 -0.2000 -1.4653  0.7424
 9210SOL    HW239093   1.732   1.805   3.206  1.2081 -0.7265  1.3194
 9211SOL     OW39094   2.089   3.660   2.710  0.4040  0.0757  0.4381
 9211SOL    HW139095   2.057   3.716   2.638 -0.5055  1.8770  2.2459
 9211SOL    HW239096   2.075   3.574   2.670  3.1409 -0.5915  0.9446
 9212SOL     OW39097   3.616   4.394  16.012 -0.4667  0.1215  0.5707
 9212SOL    HW139098   3.595   4.393  15.919  1.0046 -1.6908  0.2587
 9212SOL    HW239099   3.641   4.304  16.029  0.4780 -0.0301 -1.5866
 9213SOL     OW39100   1.510   1.153   8.125  0.1159  0.3738  0.0449
 9213SOL    HW139101   1.558   1.206   8.189  1.3736  1.7086 -1.9729
 9213SOL    HW239102   1.422   1.149   8.162 -0.1574 -3.7948 -1.0702
 9214SOL     OW39103   0.749   0.810   5.846 -0.5001  0.3483  0.4160
 9214SOL    HW139104   0.744   0.716   5.859  1.9762  0.0649 -0.8389
 9214SOL    HW239105   0.668   0.834   5.892 -0.9919  0.2412 -0.3895
 9215SOL     OW39106   0.168   1.041  12.985  0.0968  0.2456  0.0401
 9215SOL    HW139107   0.240   1.084  13.031  0.5735 -1.5300  0.9391
 9215SOL    HW239108   0.153   0.965  13.041  1.0494  0.1367  0.1385
 9216SOL     OW39109   4.214   0.036   1.537 -0.1481 -0.3167  0.4740
 9216SOL    HW139110   4.167   0.084   1.468  1.9518 -1.6565 -1.8646
 9216SOL    HW239111   4.280   0.092   1.579 -0.3637  1.3869 -1.4540
 9217SOL     OW39112   0.135   3.694   3.568 -0.1413 -0.1289  0.1862
 9217SOL    HW139113   0.212   3.642   3.590 -0.7582 -0.3762  1.7837
 9217SOL    HW239114   0.181   3.763   3.520  0.2616  0.0905  0.8844
 9218SOL     OW39115   1.107   3.641   1.483  0.2674  0.3834  0.7722
 9218SOL    HW139116   1.074   3.625   1.571  2.7050  1.5519  1.8881
 9218SOL    HW239117   1.202   3.643   1.496 -0.0569  0.4291  3.0928
 9219SOL     OW39118   3.620   4.210   4.277 -0.1578 -0.2971 -0.7477
 9219SOL    HW139119   3.634   4.163   4.194  1.1040  0.3745 -0.9165
 9219SOL    HW239120   3.709   4.207   4.311 -0.1770 -1.5289 -0.7891
 9220SOL     OW39121   1.988   4.105   0.066  0.7396 -0.1098  0.3516
 9220SOL    HW139122   1.987   4.192   0.026 -0.3724 -0.6129 -0.7078
 9220SOL    HW239123   2.012   4.134   0.154  0.2570  1.2130  0.0435
 9221SOL     OW39124   0.103   0.195   5.738  0.0387 -0.3866  0.2855
 9221SOL    HW139125   0.011   0.191   5.712 -0.2624  1.0491  1.1162
 9221SOL    HW239126   0.149   0.216   5.656 -0.1999 -1.2275 -0.0609
 9222SOL     OW39127   2.522   0.451  12.549 -0.4278 -1.0294  0.1047
 9222SOL    HW139128   2.453   0.516  12.563 -2.7889 -3.7290  1.0851
 9222SOL    HW239129   2.482   0.372  12.585 -1.7425 -0.7345 -0.7421
 9223SOL     OW39130   0.986   4.680   0.608  0.2063  0.0862 -0.3175
 9223SOL    HW139131   0.911   4.682   0.668  1.0404 -1.7946  0.7784
 9223SOL    HW239132   0.997   0.057   0.597  0.7238  0.0798  0.0998
 9224SOL     OW39133   4.589   0.688   6.684  0.4979  0.3162 -0.1283
 9224SOL    HW139134   4.643   0.635   6.743  0.5301  1.4661  0.8828
 9224SOL    HW239135   4.619   0.772   6.721 -0.5168  0.9885 -0.8427
 9225SOL     OW39136   1.380   4.379  15.974 -0.3186 -0.8515 -0.2716
 9225SOL    HW139137   1.361   4.302  15.920  1.0831 -1.1790 -0.2866
 9225SOL    HW239138   1.300   4.386  16.027  0.5293 -1.3419  1.0551
 9226SOL     OW39139   2.188   2.004   3.776 -0.1096 -0.0991  0.0234
 9226SOL    HW139140   2.263   2.012   3.835  0.9057 -1.4468 -1.0714
 9226SOL    HW239141   2.140   2.083   3.801  0.6752  0.2246  0.5048
 9227SOL     OW39142   3.240   0.188   8.574  0.0350  0.0391 -1.0138
 9227SOL    HW139143   3.184   0.232   8.510 -1.1465 -2.1921 -1.4888
 9227SOL    HW239144   3.323   0.191   8.526 -0.8116 -2.8906 -2.6451
 9228SOL     OW39145   3.983   2.810   9.462 -0.0367 -0.4262  0.4160
 9228SOL    HW139146   3.905   2.758   9.482 -0.3458  0.6687  2.0990
 9228SOL    HW239147   4.040   2.776   9.531  1.7655  1.2830 -0.2491
 9229SOL     OW39148   2.150   1.630   1.684 -0.0384 -0.8302 -0.0368
 9229SOL    HW139149   2.127   1.620   1.592 -1.5832 -2.3376  0.5193
 9229SOL    HW239150   2.227   1.575   1.698  0.5455  0.6325  2.6555
 9230SOL     OW39151   4.280   0.242   8.494 -0.0545  0.4573 -0.8935
 9230SOL    HW139152   4.250   0.210   8.579  3.0832 -0.1109 -0.0185
 9230SOL    HW239153   4.292   0.162   8.443 -3.7337  0.1634 -1.3291
 9231SOL     OW39154   4.689   4.115   8.156  0.4199  0.9639  0.3236
 9231SOL    HW139155   0.058   4.154   8.154 -0.0375  2.0238  1.5097
 9231SOL    HW239156   4.632   4.192   8.157  1.9646  2.1107 -1.0094
 9232SOL     OW39157   3.060   0.726  11.163  0.1606  0.4005 -0.0272
 9232SOL    HW139158   3.094   0.765  11.083  0.0371  1.0265  0.2246
 9232SOL    HW239159   3.118   0.767  11.228  0.0832  0.2592  0.1327
 9233SOL     OW39160   1.551   1.771   6.796 -0.0654  0.4283 -0.1475
 9233SOL    HW139161   1.475   1.789   6.741 -2.4334  1.1262  3.4002
 9233SOL    HW239162   1.529   1.833   6.865 -0.1288 -0.4843  0.6435
 9234SOL     OW39163   3.842   3.412  14.457 -0.1130  0.1272  0.0055
 9234SOL    HW139164   3.898   3.363  14.396 -0.4273 -1.0662  0.6793
 9234SOL    HW239165   3.877   3.500  14.444  2.0911 -0.7729 -0.2320
 9235SOL     OW39166   3.978   1.757   5.283 -0.4915  0.2389  0.6050
 9235SOL    HW139167   4.061   1.714   5.262  0.0800  1.3599  0.5699
 9235SOL    HW239168   3.988   1.760   5.379  0.2339  0.0325  0.5409
 9236SOL     OW39169   0.036   0.492   1.544  0.3055  0.4587 -0.1724
 9236SOL    HW139170   4.690   0.459   1.606  1.2645  0.1035  0.6223
 9236SOL    HW239171   0.094   0.416   1.539 -0.2147  0.0982 -0.7421
 9237SOL     OW39172   0.857   3.580   2.700  0.0903 -0.1339 -0.2297
 9237SOL    HW139173   0.846   3.604   2.608 -3.4420  1.1051  0.5157
 9237SOL    HW239174   0.927   3.518   2.679  0.1149  0.9825 -3.5153
 9238SOL     OW39175   3.241   0.517   7.838  0.6458 -0.1165  0.4564
 9238SOL    HW139176   3.280   0.473   7.763 -0.3759  1.8787 -1.2436
 9238SOL    HW239177   3.207   0.596   7.796  1.0805 -0.6060 -0.8114
 9239SOL     OW39178   4.222   0.955   2.803  0.4496 -0.3471 -0.2843
 9239SOL    HW139179   4.259   1.006   2.876 -0.7136  0.1331 -0.0286
 9239SOL    HW239180   4.155   1.017   2.774  0.7299 -1.2173 -2.8356
 9240SOL     OW39181   2.311   1.495   7.220  0.2377 -0.2866  0.5276
 9240SOL    HW139182   2.282   1.568   7.164 -1.9876 -0.6174  1.2646
 9240SOL    HW239183   2.229   1.448   7.206  0.4350 -0.5375  0.2160
 9241SOL     OW39184   1.325   2.009   6.002 -0.5274 -0.5178  0.4705
 9241SOL    HW139185   1.328   1.986   5.910 -1.9107  2.5375 -0.3213
 9241SOL    HW239186   1.237   1.982   6.027 -0.3846  1.2651  2.9530
 9242SOL     OW39187   0.836   2.892   4.287 -0.2836  0.0431  0.0093
 9242SOL    HW139188   0.778   2.893   4.210 -0.2341 -2.0698 -0.0511
 9242SOL    HW239189   0.917   2.928   4.252 -0.1800  0.1252  0.3339
 9243SOL     OW39190   4.348   1.215   3.107  0.4264  0.0459 -0.1212
 9243SOL    HW139191   4.357   1.209   3.012  0.8418 -1.8921  0.0261
 9243SOL    HW239192   4.349   1.120   3.118  0.2970  0.0971  0.3373
 9244SOL     OW39193   4.560   1.479   1.487 -0.5347 -0.1071  0.4074
 9244SOL    HW139194   4.591   1.560   1.446  1.4570 -1.4166 -0.7095
 9244SOL    HW239195   4.529   1.521   1.567 -0.5738 -1.2873  1.0105
 9245SOL     OW39196   2.049   1.539   7.916  0.5541 -0.3083 -0.4248
 9245SOL    HW139197   2.088   1.455   7.892  1.7201  0.2692 -0.5377
 9245SOL    HW239198   1.965   1.535   7.869  0.2959  3.5689 -0.3174
 9246SOL     OW39199   1.761   3.630   7.162 -0.9127  0.0117  0.1966
 9246SOL    HW139200   1.716   3.699   7.113 -0.1589  1.0476  0.9466
 9246SOL    HW239201   1.818   3.601   7.091 -0.0963 -1.7108  1.5417
 9247SOL     OW39202   1.804   0.580   4.228 -0.1373  0.0660 -0.2332
 9247SOL    HW139203   1.881   0.629   4.198  1.0895 -0.5763  1.8295
 9247SOL    HW239204   1.774   0.531   4.152  3.3577 -2.1678 -0.1893
 9248SOL     OW39205   3.778   3.803   3.029 -0.4149 -0.0427  0.3560
 9248SOL    HW139206   3.716   3.874   3.011 -0.7319  0.3503  2.9586
 9248SOL    HW239207   3.719   3.728   3.026 -0.0646 -0.3701  1.4937
 9249SOL     OW39208   4.030   3.317   8.482  0.7090 -0.3745  0.0355
 9249SOL    HW139209   4.072   3.398   8.452  0.4374 -0.2082  0.1138
 9249SOL    HW239210   3.953   3.317   8.425  1.5401 -0.6658 -1.0924
 9250SOL     OW39211   2.259   4.638   2.543  0.1187 -0.0102 -0.0335
 9250SOL    HW139212   2.257   4.565   2.604  2.1973  0.4412  0.5496
 9250SOL    HW239213   2.326   4.689   2.587  0.0142  0.1810 -0.0964
 9251SOL     OW39214   1.312   1.126   2.920 -0.5040 -0.6381 -0.2982
 9251SOL    HW139215   1.305   1.178   3.000  0.1303  1.7147 -1.7762
 9251SOL    HW239216   1.295   1.187   2.848  1.8080 -0.6231 -0.8276
 9252SOL     OW39217   2.518   0.567   7.767  0.5274 -0.3206 -1.3423
 9252SOL    HW139218   2.425   0.564   7.786  1.3272 -2.6684  2.3977
 9252SOL    HW239219   2.515   0.625   7.692  2.2922  2.2302  0.5488
 9253SOL     OW39220   2.482   0.038  16.475 -0.3817 -0.5964 -0.3392
 9253SOL    HW139221   2.459   0.020  16.384 -1.1293  1.2057 -0.4966
 9253SOL    HW239222   2.406   0.090  16.502  1.2091  0.6406  1.7747
 9254SOL     OW39223   3.847   0.019   0.373  0.3102 -0.4430  0.0449
 9254SOL    HW139224   3.847   0.114   0.385  2.1905 -0.5061  0.3976
 9254SOL    HW239225   3.756   4.716   0.395  0.5791  0.3793  1.9877
 9255SOL     OW39226   4.385   2.706   0.080  0.5132 -0.1705 -0.4946
 9255SOL    HW139227   4.377   2.800   0.061 -0.9294 -0.0275  0.8248
 9255SOL    HW239228   4.298   2.676   0.057  0.4235 -0.1928 -0.1174
 9256SOL     OW39229   4.575   4.087  17.024  0.1182 -0.0075 -0.1794
 9256SOL    HW139230   4.489   4.047  17.013  1.1512 -2.2846 -0.1517
 9256SOL    HW239231   4.567   4.140  17.103  1.6610 -2.7604  1.8124
 9257SOL     OW39232   2.747   4.004   8.433  0.4161 -1.1736  0.6070
 9257SOL    HW139233   2.802   4.041   8.503 -0.8329  1.7297  0.0242
 9257SOL    HW239234   2.688   4.076   8.415  0.8606 -1.1335 -0.6926
 9258SOL     OW39235   1.056   4.160   7.133 -0.0662 -0.1714  0.6010
 9258SOL    HW139236   1.042   4.147   7.227 -1.1245  3.4333  0.9179
 9258SOL    HW239237   0.963   4.170   7.112  0.7058  0.4560 -2.4359
 9259SOL     OW39238   1.423   0.918  12.537 -0.0914  0.8525 -0.3657
 9259SOL    HW139239   1.339   0.873  12.547  0.1426  0.5578  0.2572
 9259SOL    HW239240   1.422   0.967  12.619 -0.2272  1.5794 -0.8001
 9260SOL     OW39241   2.785   2.324   8.403 -0.2096 -0.4158 -0.3263
 9260SOL    HW139242   2.876   2.296   8.410  0.4020  1.7058  0.3272
 9260SOL    HW239243   2.761   2.307   8.494  1.3412 -2.0110 -0.2178
 9261SOL     OW39244   3.019   3.610  10.734 -0.4493  0.2443 -0.4123
 9261SOL    HW139245   2.982   3.682  10.683 -3.5628 -0.5788  0.6377
 9261SOL    HW239246   3.068   3.558  10.670 -2.1024 -3.7160  1.5029
 9262SOL     OW39247   3.788   2.922   2.273 -0.2415  0.1201  0.1439
 9262SOL    HW139248   3.860   2.867   2.303 -0.7495 -0.8393 -0.3989
 9262SOL    HW239249   3.711   2.887   2.318  1.9443 -2.0651  2.2405
 9263SOL     OW39250   0.554   1.796   9.646 -0.9213 -0.4776 -0.1459
 9263SOL    HW139251   0.463   1.821   9.656 -1.0800 -1.5673  1.1510
 9263SOL    HW239252   0.597   1.881   9.632 -2.8162  0.2244 -1.6245
 9264SOL     OW39253   2.099   0.673   8.634 -0.1532 -0.4951 -0.0094
 9264SOL    HW139254   2.164   0.709   8.574  2.6337 -3.2650  1.3544
 9264SOL    HW239255   2.154   0.674   8.711 -1.5038 -1.4368  0.9691
 9265SOL     OW39256   3.371   2.021   5.122  0.0779 -0.1591  0.3585
 9265SOL    HW139257   3.335   2.094   5.070  0.3401 -0.9421 -0.9110
 9265SOL    HW239258   3.307   2.019   5.193 -0.3249  1.3126  0.0471
 9266SOL     OW39259   1.937   2.024  13.398  0.1001  0.3127 -0.6810
 9266SOL    HW139260   1.844   2.043  13.411 -0.2207 -0.9864 -1.1191
 9266SOL    HW239261   1.933   1.929  13.403  2.4621  0.1792 -1.1728
 9267SOL     OW39262   0.210   0.372   5.547  0.1362 -0.3453 -0.4151
 9267SOL    HW139263   0.204   0.334   5.459  0.0816 -0.6789 -0.2675
 9267SOL    HW239264   0.122   0.407   5.563  0.4694 -0.2365  1.1778
 9268SOL     OW39265   0.748   0.833   2.745  0.5722  0.0883  0.0981
 9268SOL    HW139266   0.761   0.747   2.706  2.4860 -0.1990  1.4280
 9268SOL    HW239267   0.655   0.843   2.722  0.2535 -1.3265  0.7569
 9269SOL     OW39268   2.708   0.873   7.865  0.3047 -0.6827  0.9389
 9269SOL    HW139269   2.620   0.910   7.880  0.2397  0.2855 -1.9302
 9269SOL    HW239270   2.758   0.935   7.918  0.2153  0.1648  0.0204
 9270SOL     OW39271   4.713   4.142   6.573 -0.0011  0.4663  0.5624
 9270SOL    HW139272   0.081   4.158   6.613  0.0535 -2.5649  1.6520
 9270SOL    HW239273   0.008   4.070   6.511 -0.5122  0.7346  0.1470
 9271SOL     OW39274   1.677   1.395   3.038  0.1904 -0.4963  0.2882
 9271SOL    HW139275   1.703   1.464   2.977 -2.6723 -0.5152 -0.9979
 9271SOL    HW239276   1.689   1.310   2.996 -2.2722 -0.7547  0.0877
 9272SOL     OW39277   1.358   0.277  17.446  0.2101  0.0601 -0.9013
 9272SOL    HW139278   1.316   0.249  17.364  0.5816 -1.7020 -0.4769
 9272SOL    HW239279   1.286   0.328  17.483  1.8070  2.4286 -1.0559
 9273SOL     OW39280   4.219   4.395   5.874 -0.2024 -0.2437  0.3222
 9273SOL    HW139281   4.242   4.481   5.909 -0.8412  0.4010 -0.8294
 9273SOL    HW239282   4.197   4.356   5.958 -1.1543  0.7653  0.5503
 9274SOL     OW39283   3.377   2.404  13.882  0.5069  0.2127 -0.3214
 9274SOL    HW139284   3.399   2.450  13.802  0.4356 -1.5457 -1.3491
 9274SOL    HW239285   3.377   2.315  13.845  0.9837  1.1401 -2.5358
 9275SOL     OW39286   2.922   0.907   6.128  0.2817  0.0277 -0.7630
 9275SOL    HW139287   3.012   0.915   6.097  0.5419  1.0701  0.3153
 9275SOL    HW239288   2.883   0.981   6.081 -1.0422 -1.3536 -1.8749
 9276SOL     OW39289   3.216   3.361  13.273  0.3187  0.4468 -0.1752
 9276SOL    HW139290   3.308   3.376  13.249  0.4837 -0.3512 -0.0442
 9276SOL    HW239291   3.198   3.418  13.347  0.4458 -1.0681  1.0072
 9277SOL     OW39292   2.486   2.181  12.490 -0.4795 -0.5031  0.3818
 9277SOL    HW139293   2.393   2.168  12.507 -0.6267 -1.8626 -1.5561
 9277SOL    HW239294   2.489   2.273  12.518  0.8609 -0.8028  1.2570
 9278SOL     OW39295   4.566   0.970  15.856  0.3264 -0.5037 -0.2692
 9278SOL    HW139296   4.641   0.956  15.797  1.7713  0.1728  1.4053
 9278SOL    HW239297   4.507   0.925  15.795  0.4733 -2.3418  0.9565
 9279SOL     OW39298   1.574   2.468  17.495 -0.3882 -0.3675 -0.4764
 9279SOL    HW139299   1.631   2.543  17.481  0.4698 -1.0380 -0.5827
 9279SOL    HW239300   1.613   2.415  17.425  0.1076 -0.7415  0.0874
 9280SOL     OW39301   4.639   3.414  15.409  0.3022 -0.0971  0.3236
 9280SOL    HW139302   4.662   3.348  15.474 -0.3027 -0.9660 -0.3331
 9280SOL    HW239303   4.715   3.470  15.427  0.8179 -0.3234 -1.0709
 9281SOL     OW39304   2.642   0.286  12.780 -0.0643 -0.9239 -0.3354
 9281SOL    HW139305   2.548   0.293  12.792  0.2489  1.3612  0.9380
 9281SOL    HW239306   2.658   0.370  12.735  0.0331 -0.2537  0.9435
 9282SOL     OW39307   0.293   0.982   7.177  0.0991 -0.4583 -0.0916
 9282SOL    HW139308   0.332   1.066   7.153  0.4794  0.3165  3.2870
 9282SOL    HW239309   0.344   0.918   7.127 -0.3342 -1.6301  0.9654
 9283SOL     OW39310   2.973   2.951   6.358  0.0799  0.8742 -1.1779
 9283SOL    HW139311   2.893   2.998   6.380 -1.2651 -1.3285 -1.3823
 9283SOL    HW239312   2.960   2.867   6.402  0.4209  0.1884 -2.4098
 9284SOL     OW39313   4.640   3.985   8.861 -0.0164  0.2152  0.3912
 9284SOL    HW139314   0.012   3.969   8.832  0.3081 -1.3342  2.1926
 9284SOL    HW239315   4.644   4.025   8.948 -0.4455  2.6313 -0.6905
 9285SOL     OW39316   1.843   3.072  16.526  0.1676  0.5708  0.0575
 9285SOL    HW139317   1.837   2.977  16.533 -1.2081  0.7475  1.4595
 9285SOL    HW239318   1.752   3.093  16.504  0.7639  2.1262 -0.9437
 9286SOL     OW39319   3.657   0.008   5.508 -1.4280  0.1756  0.2750
 9286SOL    HW139320   3.581   0.043   5.554  0.2367  2.1318  1.5482
 9286SOL    HW239321   3.611   4.653   5.466  2.5343 -1.5581 -1.0328
 9287SOL     OW39322   2.712   2.815  14.044 -0.1450  0.1188 -0.0735
 9287SOL    HW139323   2.687   2.726  14.068 -1.3053  0.4746  0.0361
 9287SOL    HW239324   2.787   2.821  14.103  0.1778 -0.4059 -0.4320
 9288SOL     OW39325   2.390   3.946   2.261  0.6010 -0.1670  0.1604
 9288SOL    HW139326   2.450   4.000   2.210 -0.9606  0.6429 -0.8174
 9288SOL    HW239327   2.306   3.991   2.267  1.1602  0.7462  1.4112
 9289SOL     OW39328   4.218   3.709  16.119 -0.0415 -0.5262 -0.1599
 9289SOL    HW139329   4.265   3.791  16.139 -0.4416  0.0678 -1.6227
 9289SOL    HW239330   4.227   3.707  16.023  0.2274  0.4093 -0.1621
 9290SOL     OW39331   2.963   3.318   8.184  0.3492  0.1936  0.0407
 9290SOL    HW139332   2.959   3.412   8.168  1.7864  0.2455  0.0257
 9290SOL    HW239333   2.878   3.297   8.224  0.1917 -0.6322 -0.7164
 9291SOL     OW39334   2.786   4.267   4.331  0.6451 -0.1452  0.4769
 9291SOL    HW139335   2.799   4.313   4.248  2.7560 -1.3728  0.1256
 9291SOL    HW239336   2.858   4.296   4.388  1.0799 -0.9542  0.3320
 9292SOL     OW39337   1.835   0.556  10.255 -0.8212 -0.1916 -0.3087
 9292SOL    HW139338   1.814   0.463  10.263 -1.2211 -0.2585 -1.9400
 9292SOL    HW239339   1.807   0.580  10.166  3.2682  0.7189 -1.3263
 9293SOL     OW39340   2.440   2.238   3.301  0.3742  0.3316 -0.0176
 9293SOL    HW139341   2.449   2.251   3.396 -0.8759  3.4879 -0.3203
 9293SOL    HW239342   2.478   2.152   3.283 -0.1663 -0.0309  0.5380
 9294SOL     OW39343   0.744   4.424  10.139  0.1510 -0.3794 -0.4090
 9294SOL    HW139344   0.726   4.345  10.190  0.9865 -1.6574 -2.1093
 9294SOL    HW239345   0.754   4.388  10.051  1.1767  0.8009 -0.7797
 9295SOL     OW39346   0.144   0.985  10.299 -0.0803 -0.4444 -0.4163
 9295SOL    HW139347   0.197   1.051  10.343 -0.7721  0.5049 -0.9732
 9295SOL    HW239348   0.184   0.972  10.213 -0.0343 -0.0002 -0.4620
 9296SOL     OW39349   2.614   4.233   3.508  0.1573  0.2536  0.4386
 9296SOL    HW139350   2.586   4.166   3.445  0.6280 -0.6668  1.2118
 9296SOL    HW239351   2.580   4.312   3.467 -0.6275  1.0989  2.7749
 9297SOL     OW39352   4.634   1.329   4.753 -0.7802 -0.5616  0.2805
 9297SOL    HW139353   4.594   1.412   4.725 -0.1576 -0.1648  0.5636
 9297SOL    HW239354   4.573   1.270   4.709 -0.6210  0.1388 -0.8736
 9298SOL     OW39355   0.114   1.183   4.806 -0.1717 -0.4445  0.2960
 9298SOL    HW139356   0.111   1.114   4.740 -1.6117 -0.1704  0.0920
 9298SOL    HW239357   0.043   1.238   4.774  1.1656  1.1898  0.1010
 9299SOL     OW39358   0.797   0.498   8.797 -0.2338 -0.5710  0.2846
 9299SOL    HW139359   0.798   0.513   8.702  1.2992  0.9493  0.5407
 9299SOL    HW239360   0.874   0.443   8.801  1.2397  1.5739  1.6090
 9300SOL     OW39361   1.997   0.354   8.716 -0.3226 -0.9246 -0.0655
 9300SOL    HW139362   2.024   0.278   8.664  0.1343 -0.3728 -0.6408
 9300SOL    HW239363   2.055   0.420   8.678  0.3337 -1.6255 -0.2838
 9301SOL     OW39364   2.818   1.849   3.627 -0.6141  0.6568  0.2565
 9301SOL    HW139365   2.809   1.927   3.573  0.4625 -0.0034 -0.8800
 9301SOL    HW239366   2.784   1.781   3.570 -2.5517  0.8787  1.1436
 9302SOL     OW39367   3.298   4.041   5.095 -0.3539  0.1006 -0.8451
 9302SOL    HW139368   3.325   4.069   5.183 -3.7248  0.8500 -0.0370
 9302SOL    HW239369   3.348   3.959   5.092  1.0536  0.9975 -1.5374
 9303SOL     OW39370   4.648   4.556   6.120  0.0594  0.0470  0.2004
 9303SOL    HW139371   4.603   4.609   6.186  0.0279  1.9005 -1.2890
 9303SOL    HW239372   0.017   4.563   6.160 -0.3748 -1.0928  1.3116
 9304SOL     OW39373   4.177   3.791   3.188  0.3905  0.2739 -0.1318
 9304SOL    HW139374   4.135   3.745   3.115  1.8139 -0.0689 -0.7455
 9304SOL    HW239375   4.269   3.766   3.184  0.3112  0.0971 -0.8469
 9305SOL     OW39376   0.719   1.198  14.710  0.2939 -0.6346 -0.3247
 9305SOL    HW139377   0.651   1.131  14.709  0.0353 -0.3628 -0.6820
 9305SOL    HW239378   0.669   1.278  14.696  0.7462 -0.2104  0.5076
 9306SOL     OW39379   3.407   3.385  10.960 -0.5362  0.1540 -0.1498
 9306SOL    HW139380   3.420   3.458  11.021 -0.6094  0.3432 -0.3567
 9306SOL    HW239381   3.351   3.323  11.006  0.5804 -1.0355 -0.4050
 9307SOL     OW39382   0.317   3.877  11.195 -0.0465  0.1376  0.2808
 9307SOL    HW139383   0.398   3.827  11.195 -1.3670 -2.0265  1.2537
 9307SOL    HW239384   0.344   3.941  11.261 -0.6891  0.1038  0.5788
 9308SOL     OW39385   1.227   2.854   5.726  0.3578  0.4951  0.3643
 9308SOL    HW139386   1.223   2.838   5.820 -0.3173 -1.9139 -0.0779
 9308SOL    HW239387   1.154   2.909   5.699  1.2194  1.1374 -0.6981
 9309SOL     OW39388   1.168   2.449   3.769 -0.5090  0.3183  0.2436
 9309SOL    HW139389   1.143   2.361   3.798 -0.6269  0.3106  0.1213
 9309SOL    HW239390   1.218   2.430   3.689 -1.4850 -0.3109 -0.2218
 9310SOL     OW39391   2.949   2.061   2.755 -0.4148  0.1106  0.0515
 9310SOL    HW139392   2.968   2.153   2.738  0.3844  0.0102  0.4138
 9310SOL    HW239393   2.954   2.017   2.670 -2.2567  0.7650 -0.4125
 9311SOL     OW39394   1.012   4.318   3.948 -0.4280  0.0030  0.0226
 9311SOL    HW139395   0.983   4.300   4.038 -2.2828  0.1584 -0.5404
 9311SOL    HW239396   1.097   4.274   3.950  0.2286  1.2953  0.4930
 9312SOL     OW39397   0.876   3.630   4.316  0.0894  0.3689 -0.2601
 9312SOL    HW139398   0.821   3.703   4.346 -1.5199 -1.1140  0.3856
 9312SOL    HW239399   0.834   3.596   4.237 -0.1111 -0.0643  0.0354
 9313SOL     OW39400   0.517   2.795  11.496 -0.4335 -0.3889 -0.7081
 9313SOL    HW139401   0.475   2.709  11.497  0.8068 -1.0058 -1.3374
 9313SOL    HW239402   0.442   2.844  11.464 -2.4115 -2.3719  0.8600
 9314SOL     OW39403   1.708   3.783  15.421  0.6116 -0.4702  0.3869
 9314SOL    HW139404   1.704   3.787  15.326 -0.4223 -1.9577  0.3751
 9314SOL    HW239405   1.650   3.856  15.444 -0.0961 -0.7202 -0.6543
 9315SOL     OW39406   3.946   4.088   9.192  0.4380  0.2035  0.0787
 9315SOL    HW139407   3.949   3.994   9.208  2.6133  0.1760 -0.4507
 9315SOL    HW239408   3.851   4.102   9.189 -0.2014 -4.0980  1.3329
 9316SOL     OW39409   3.692   0.743  15.874 -0.0131  0.0037  0.4755
 9316SOL    HW139410   3.744   0.710  15.801 -2.7554 -2.0851 -0.5554
 9316SOL    HW239411   3.745   0.811  15.916 -0.8281 -0.4103  2.1763
 9317SOL     OW39412   0.492   4.539  10.155  0.3016  1.0025 -0.0336
 9317SOL    HW139413   0.494   4.507  10.245  1.1422 -1.4934 -0.9251
 9317SOL    HW239414   0.582   4.517  10.131 -0.1198 -0.8846  0.0580
 9318SOL     OW39415   0.299   1.135   3.370 -0.0036 -0.1486 -0.0466
 9318SOL    HW139416   0.389   1.139   3.402  0.1358  0.3624 -0.5031
 9318SOL    HW239417   0.279   1.043   3.389 -1.0473 -0.0998 -0.9849
 9319SOL     OW39418   1.542   2.167  16.353 -0.2481 -0.0487  0.1554
 9319SOL    HW139419   1.474   2.200  16.294 -0.4823 -0.6701  0.0748
 9319SOL    HW239420   1.499   2.155  16.438 -0.7531 -1.6866 -0.3305
 9320SOL     OW39421   0.767   0.402   7.223 -0.4348 -0.1556  0.1211
 9320SOL    HW139422   0.820   0.478   7.249 -0.4184 -0.3206  0.5609
 9320SOL    HW239423   0.817   0.368   7.149 -1.2087 -1.4317  0.1836
 9321SOL     OW39424   0.065   3.771   6.150  0.1323 -0.6174 -0.1604
 9321SOL    HW139425   0.142   3.810   6.107 -0.4896 -1.5967 -2.1371
 9321SOL    HW239426   0.095   3.682   6.169 -0.0141 -1.1546 -2.3732
 9322SOL     OW39427   4.547   0.336   6.829 -0.4258 -0.2985 -1.0097
 9322SOL    HW139428   4.486   0.409   6.837 -1.8944 -1.5678 -0.6247
 9322SOL    HW239429   4.620   0.383   6.788  0.6158 -1.7164 -0.7843
 9323SOL     OW39430   2.626   4.084   6.285  0.4523 -0.4836 -0.6188
 9323SOL    HW139431   2.568   4.048   6.352  1.9599 -0.5407  0.6595
 9323SOL    HW239432   2.695   4.018   6.293  1.5827  1.0088  1.9710
 9324SOL     OW39433   3.543   2.194   4.585  0.1438  0.3504  0.0995
 9324SOL    HW139434   3.482   2.210   4.513  1.5816  2.1376 -0.7326
 9324SOL    HW239435   3.533   2.099   4.590 -1.3641  0.4814 -0.5705
 9325SOL     OW39436   2.388   3.747  15.660 -0.3691 -0.2501 -0.2830
 9325SOL    HW139437   2.404   3.797  15.580 -0.4249 -0.5385 -0.4742
 9325SOL    HW239438   2.465   3.775  15.710 -0.6311 -0.1705  0.0742
 9326SOL     OW39439   1.649   2.020   7.164 -0.1673  0.0525 -0.2132
 9326SOL    HW139440   1.722   2.080   7.171  0.3073 -0.1820 -3.2004
 9326SOL    HW239441   1.659   1.976   7.248 -0.9483  0.0027 -0.1436
 9327SOL     OW39442   1.134   3.317   4.627  0.5537 -0.4396 -0.5157
 9327SOL    HW139443   1.105   3.386   4.568  0.4207 -0.4479 -0.4591
 9327SOL    HW239444   1.106   3.232   4.593 -2.2183  2.1782 -4.7813
 9328SOL     OW39445   3.776   0.565  11.422 -0.4377 -0.1741  0.2450
 9328SOL    HW139446   3.822   0.583  11.504 -0.4900  0.3574  0.1547
 9328SOL    HW239447   3.694   0.613  11.433  0.1183  0.5504  1.2316
 9329SOL     OW39448   2.241   4.681   5.894  0.1675  0.2035 -0.3090
 9329SOL    HW139449   2.278   4.614   5.837 -0.8081 -1.6988  1.2862
 9329SOL    HW239450   2.308   0.027   5.870  0.9447  0.4358  2.5066
 9330SOL     OW39451   4.431   3.431   2.922 -0.2316  0.6852  0.0277
 9330SOL    HW139452   4.433   3.431   2.827 -1.4922 -2.3348  0.0309
 9330SOL    HW239453   4.521   3.459   2.940 -1.0695  2.3729  1.6640
 9331SOL     OW39454   3.419   0.140   7.276  0.1439  0.0859  0.5101
 9331SOL    HW139455   3.471   0.170   7.350  0.2978  0.3499  0.2964
 9331SOL    HW239456   3.467   0.183   7.204 -0.2435  2.5875  1.7328
 9332SOL     OW39457   2.171   0.812   9.237 -0.1248 -0.0509  0.1394
 9332SOL    HW139458   2.221   0.812   9.156  0.2004 -0.5690  0.3434
 9332SOL    HW239459   2.156   0.907   9.243  0.0354 -0.0121 -0.0782
 9333SOL     OW39460   0.053   0.788   7.589 -0.2635 -0.4048  0.3226
 9333SOL    HW139461   0.005   0.866   7.615  0.0431 -0.1471  0.1164
 9333SOL    HW239462   0.139   0.826   7.569  0.0593 -2.7599 -2.6874
 9334SOL     OW39463   1.336   4.108   7.634  0.0010 -0.3610  0.6278
 9334SOL    HW139464   1.325   4.044   7.704 -0.1860  0.0985  1.0163
 9334SOL    HW239465   1.341   4.043   7.564  0.0356 -0.9310  1.1555
 9335SOL     OW39466   2.403   4.271   3.114  0.4646 -0.2244  0.0036
 9335SOL    HW139467   2.438   4.192   3.073  0.1647 -0.5440  0.3589
 9335SOL    HW239468   2.312   4.245   3.127  0.7476 -1.1744  0.0292
 9336SOL     OW39469   3.630   1.537   2.126  0.0903  1.0711 -0.2178
 9336SOL    HW139470   3.597   1.451   2.100 -0.6338  1.9555 -2.2710
 9336SOL    HW239471   3.719   1.510   2.146 -1.1869 -2.3845  0.7666
 9337SOL     OW39472   2.410   1.640   2.289  0.0276 -0.1907 -0.1215
 9337SOL    HW139473   2.466   1.663   2.215  0.8122  0.1838  0.5884
 9337SOL    HW239474   2.420   1.545   2.300  0.6914 -0.0592  0.3641
 9338SOL     OW39475   0.956   1.226   6.547 -0.4532  0.1633 -0.4277
 9338SOL    HW139476   0.992   1.204   6.461  0.4051  3.7360 -0.9712
 9338SOL    HW239477   1.040   1.233   6.592 -0.8189 -1.5869  0.5216
 9339SOL     OW39478   3.728   3.877   5.688 -0.7455 -0.6511 -0.6734
 9339SOL    HW139479   3.634   3.868   5.674 -0.7598  2.0505 -2.3133
 9339SOL    HW239480   3.752   3.787   5.667  1.4931 -0.9627  3.3719
 9340SOL     OW39481   3.254   4.095  12.405  0.1745 -0.0961 -0.3781
 9340SOL    HW139482   3.295   4.131  12.483  0.4406  2.6910 -1.8207
 9340SOL    HW239483   3.198   4.026  12.442 -0.4250  0.8617  0.5086
 9341SOL     OW39484   4.257   2.129  12.911 -0.3074  0.2746 -0.2911
 9341SOL    HW139485   4.307   2.049  12.896 -1.3792 -0.5592  0.5135
 9341SOL    HW239486   4.243   2.164  12.823  0.7386  1.4956  0.0263
 9342SOL     OW39487   4.539   1.074   4.333  0.0500 -0.1627  0.3814
 9342SOL    HW139488   4.614   1.037   4.287  0.5857  3.1917 -1.4306
 9342SOL    HW239489   4.471   1.069   4.265  0.0034  1.3408  0.3187
 9343SOL     OW39490   0.455   0.677  10.449 -0.4882  0.1734 -0.5742
 9343SOL    HW139491   0.528   0.739  10.448 -0.0502 -0.3329  0.3596
 9343SOL    HW239492   0.373   0.724  10.431 -1.7714 -0.7529  2.8645
 9344SOL     OW39493   2.063   1.749  17.618 -0.4816  0.7185 -0.1433
 9344SOL    HW139494   2.115   1.823  17.647 -0.3672  0.4367  0.3687
 9344SOL    HW239495   1.982   1.793  17.590 -0.3165 -1.2968 -3.8590
 9345SOL     OW39496   1.095   4.365  12.515 -0.2781  0.3246  0.2381
 9345SOL    HW139497   1.033   4.432  12.545 -1.8618 -0.0175 -2.2238
 9345SOL    HW239498   1.131   4.343  12.601  1.5296  0.2395 -0.5560
 9346SOL     OW39499   3.843   2.890   1.805 -0.5673  0.0090 -0.3858
 9346SOL    HW139500   3.899   2.965   1.786 -1.9568  0.7715 -1.4737
 9346SOL    HW239501   3.834   2.840   1.723 -2.4035  0.3051 -0.3613
 9347SOL     OW39502   0.608   4.594  14.916 -0.4314 -0.2230 -0.3478
 9347SOL    HW139503   0.608   4.622  15.007  0.2532 -1.3921  0.0183
 9347SOL    HW239504   0.662   4.515  14.923 -2.2933 -1.6363 -1.8043
 9348SOL     OW39505   0.179   2.880   1.220  0.1586  0.3106 -0.5459
 9348SOL    HW139506   0.247   2.853   1.158 -0.1159 -0.7405 -0.3901
 9348SOL    HW239507   0.154   2.962   1.178  1.0241 -0.3103 -2.2963
 9349SOL     OW39508   4.035   3.107   7.157  0.1773 -0.1670  0.4071
 9349SOL    HW139509   4.062   3.034   7.212  0.9973 -1.2220 -1.4013
 9349SOL    HW239510   3.987   3.154   7.226  1.1571 -1.9236  2.2674
 9350SOL     OW39511   3.553   3.044  11.821  0.0045  0.1270  0.3761
 9350SOL    HW139512   3.599   3.097  11.756 -0.7933 -0.1388 -0.4037
 9350SOL    HW239513   3.462   3.072  11.807  0.7086  1.6591 -1.1395
 9351SOL     OW39514   1.685   1.289   5.761 -0.0300  0.5738 -0.1606
 9351SOL    HW139515   1.691   1.206   5.808  0.4929  0.7366  0.0685
 9351SOL    HW239516   1.706   1.345   5.835 -1.3961 -0.9268  1.3672
 9352SOL     OW39517   0.213   3.708  10.261  0.0862 -0.7679 -0.1029
 9352SOL    HW139518   0.240   3.672  10.176 -1.1275 -2.4759  0.2427
 9352SOL    HW239519   0.211   3.639  10.327  1.3137 -0.6346  0.0730
 9353SOL     OW39520   2.953   3.153  13.549  0.0423  0.8206 -0.4695
 9353SOL    HW139521   2.948   3.060  13.526  0.8413  1.1891 -2.1929
 9353SOL    HW239522   2.875   3.155  13.604 -1.2908 -1.7516 -2.2848
 9354SOL     OW39523   1.806   4.223   7.885 -0.0548 -0.2919  0.1334
 9354SOL    HW139524   1.897   4.217   7.914 -0.1631 -0.4835  0.4335
 9354SOL    HW239525   1.788   4.316   7.900  1.5935  0.0017  0.3030
 9355SOL     OW39526   3.596   1.481   6.086 -0.5503  0.2840 -0.0526
 9355SOL    HW139527   3.583   1.574   6.066  0.1901  1.0969  3.2070
 9355SOL    HW239528   3.509   1.458   6.118  0.6513 -2.7954  1.0112
 9356SOL     OW39529   2.794   3.193   6.895 -0.6775  0.1054  0.0856
 9356SOL    HW139530   2.845   3.147   6.962 -0.1924  1.3061  0.5455
 9356SOL    HW239531   2.860   3.258   6.873  1.4410 -0.8594  3.6272
 9357SOL     OW39532   4.378   0.802  15.681  0.7646 -1.2158  0.0519
 9357SOL    HW139533   4.303   0.795  15.623  0.5063 -1.4107  0.4072
 9357SOL    HW239534   4.343   0.774  15.766  0.3724 -2.1974 -0.4371
 9358SOL     OW39535   2.167   2.241  13.981  0.2354 -0.4380  0.2530
 9358SOL    HW139536   2.222   2.273  14.052  2.1588  1.5690 -2.1213
 9358SOL    HW239537   2.139   2.162  14.027  1.8255 -0.9778  0.2924
 9359SOL     OW39538   0.027   2.364   9.879  0.0411 -0.0046  0.3082
 9359SOL    HW139539   4.682   2.319   9.935  1.5104 -0.9663  1.1810
 9359SOL    HW239540   0.053   2.290   9.824  0.1134  0.1527  0.1313
 9360SOL     OW39541   0.116   2.617   9.950 -0.5623  0.8266  0.2140
 9360SOL    HW139542   0.107   2.527   9.920  3.8670  0.2060  0.6860
 9360SOL    HW239543   0.049   2.657   9.895  0.5328 -0.9763 -2.4498
 9361SOL     OW39544   4.146   3.584   7.742 -0.1588 -0.1860  0.2785
 9361SOL    HW139545   4.160   3.656   7.803  0.6604 -1.7323  1.9009
 9361SOL    HW239546   4.124   3.515   7.805  1.2111 -0.7363  0.1405
 9362SOL     OW39547   3.819   4.481   3.313 -0.3785  0.1723 -0.4461
 9362SOL    HW139548   3.743   4.430   3.340  0.0316  0.5858  1.5019
 9362SOL    HW239549   3.890   4.433   3.354  1.4251  3.4749  0.2901
 9363SOL     OW39550   4.135   3.073   4.802  0.0945 -0.0504 -0.0387
 9363SOL    HW139551   4.143   3.017   4.880  0.6696 -1.0289 -0.7940
 9363SOL    HW239552   4.225   3.102   4.787  0.2571 -1.3397 -1.5616
 9364SOL     OW39553   1.853   2.735   0.004 -0.1818  0.2535  0.3046
 9364SOL    HW139554   1.887   2.667  17.620 -0.2562 -0.0057  0.5627
 9364SOL    HW239555   1.764   2.701   0.018  0.8898 -3.0397 -0.8290
 9365SOL     OW39556   4.135   2.549   6.049 -0.3235  0.4152 -0.0048
 9365SOL    HW139557   4.133   2.474   6.108 -0.6195 -1.7721 -2.8313
 9365SOL    HW239558   4.193   2.611   6.094  0.1676 -1.6237  2.2051
 9366SOL     OW39559   3.382   3.229   8.018  0.6865  0.0117 -0.3005
 9366SOL    HW139560   3.475   3.242   7.998  0.3501  1.8204 -0.7547
 9366SOL    HW239561   3.354   3.307   8.066  0.7732 -0.8285  1.0803
 9367SOL     OW39562   0.282   2.358   2.995  0.0639 -0.3672  0.2033
 9367SOL    HW139563   0.191   2.370   3.023 -0.0520 -0.2501 -0.2283
 9367SOL    HW239564   0.324   2.432   3.040 -0.5811  0.1247 -0.0104
 9368SOL     OW39565   1.087   0.201   7.747 -0.5338 -0.6232 -0.5241
 9368SOL    HW139566   1.085   0.193   7.652 -2.7967 -0.9597 -0.4396
 9368SOL    HW239567   1.056   0.116   7.778  0.1598 -0.3256  0.9999
 9369SOL     OW39568   1.664   4.442   7.108  0.5062 -0.7442 -0.2841
 9369SOL    HW139569   1.614   4.403   7.037  0.5058 -1.6520  0.2002
 9369SOL    HW239570   1.637   4.389   7.183 -0.7946 -0.2988 -0.4511
 9370SOL     OW39571   3.433   0.010   4.132  0.1709  0.7439 -0.1636
 9370SOL    HW139572   3.417   4.633   4.127 -0.2750  0.7911  0.3660
 9370SOL    HW239573   3.346   0.045   4.149  0.4769  1.4591 -0.0807
 9371SOL     OW39574   2.444   4.309   5.133 -0.0722  0.2780 -0.1534
 9371SOL    HW139575   2.511   4.346   5.075 -1.5776  0.4630 -1.7600
 9371SOL    HW239576   2.369   4.318   5.075 -1.0693 -2.0806  0.8130
 9372SOL     OW39577   0.087   2.348   8.804 -0.1420  0.3004  0.3237
 9372SOL    HW139578   0.033   2.319   8.877  1.1222  1.1641  1.5816
 9372SOL    HW239579   0.180   2.350   8.826  0.2796 -3.0323 -1.2199
 9373SOL     OW39580   4.355   1.868  14.859 -0.6039  0.4077  0.5593
 9373SOL    HW139581   4.451   1.864  14.861 -0.6019  0.0751 -0.0790
 9373SOL    HW239582   4.348   1.949  14.807  0.7843 -0.1891 -0.5813
 9374SOL     OW39583   4.523   1.809  10.614  0.1847 -0.2649  0.0036
 9374SOL    HW139584   4.572   1.776  10.690  2.5312  1.0134 -0.9618
 9374SOL    HW239585   4.476   1.733  10.581  2.1065 -0.6627 -1.7893
 9375SOL     OW39586   1.306   3.095   9.067  0.2927  0.1463 -0.0194
 9375SOL    HW139587   1.243   3.163   9.090  1.2267  0.6633  0.9934
 9375SOL    HW239588   1.241   3.036   9.028  0.9554 -0.7152  0.1860
 9376SOL     OW39589   4.637   1.570   5.768 -0.6951 -0.1867  0.2136
 9376SOL    HW139590   4.591   1.537   5.846 -2.0529  0.7323 -0.2091
 9376SOL    HW239591   4.581   1.533   5.700 -0.0157  0.5490 -0.7413
 9377SOL     OW39592   2.037   1.184   5.404 -0.2917  0.1196 -0.1377
 9377SOL    HW139593   2.001   1.231   5.479 -0.5555  0.1924 -0.3078
 9377SOL    HW239594   2.124   1.221   5.394  0.1067 -1.0946 -1.1246
 9378SOL     OW39595   2.160   1.311   7.880  0.7034  0.0368 -0.3551
 9378SOL    HW139596   2.120   1.232   7.916  1.2707 -0.0198  0.1540
 9378SOL    HW239597   2.253   1.295   7.897  0.3159 -2.1054 -0.2313
 9379SOL     OW39598   0.006   4.474   5.197 -0.0455  0.1015 -0.0718
 9379SOL    HW139599   4.639   4.433   5.213 -1.4552  2.9118 -0.2137
 9379SOL    HW239600   0.029   4.429   5.116 -1.1925 -0.8812  0.1579
 9380SOL     OW39601   3.031   2.101   4.488  0.0348  0.1503  0.5430
 9380SOL    HW139602   2.978   2.167   4.533 -1.4406 -0.3556 -0.4645
 9380SOL    HW239603   2.975   2.078   4.415 -0.0849 -0.8861  0.9609
 9381SOL     OW39604   1.579   2.928   8.032 -0.4005 -0.0711  0.3898
 9381SOL    HW139605   1.514   2.979   8.081 -0.7319 -0.7000  0.6028
 9381SOL    HW239606   1.655   2.981   8.057 -0.5162 -0.3869  1.4436
 9382SOL     OW39607   4.380   0.816   8.821  0.4696 -0.0972 -0.6048
 9382SOL    HW139608   4.352   0.859   8.741  1.2312 -0.1448 -0.8910
 9382SOL    HW239609   4.331   0.734   8.827  1.3560 -0.6329 -0.6897
 9383SOL     OW39610   0.388   2.431   4.496  0.5509 -0.3273  0.1554
 9383SOL    HW139611   0.434   2.500   4.449  0.7662 -0.9718 -0.5689
 9383SOL    HW239612   0.324   2.409   4.429  0.0648 -0.0541  0.5292
 9384SOL     OW39613   2.615   4.496   2.063  0.0800  0.9261 -0.4429
 9384SOL    HW139614   2.552   4.441   2.109  0.3516 -0.8528 -2.2124
 9384SOL    HW239615   2.583   4.583   2.089  0.2190  0.8941 -0.1663
 9385SOL     OW39616   4.622   3.900   1.448 -0.3618 -0.1949  0.0566
 9385SOL    HW139617   4.567   3.929   1.521 -0.3444  0.3062 -0.1304
 9385SOL    HW239618   4.607   3.805   1.447  0.5495 -0.3690  1.9690
 9386SOL     OW39619   4.125   2.059   9.974 -0.2883 -0.3797  0.4647
 9386SOL    HW139620   4.164   2.089   9.892 -1.2209 -0.7055 -0.0984
 9386SOL    HW239621   4.109   1.971   9.941  0.3110 -1.6082  3.5013
 9387SOL     OW39622   0.555   3.197   2.539  0.2169  0.0032 -0.3895
 9387SOL    HW139623   0.643   3.173   2.567 -0.5311  0.1949  2.1105
 9387SOL    HW239624   0.521   3.255   2.607  0.6556  0.4110 -0.5202
 9388SOL     OW39625   4.055   1.490   6.250 -0.0152 -0.0879 -0.3109
 9388SOL    HW139626   4.088   1.449   6.330  0.4227  2.9448  1.0414
 9388SOL    HW239627   3.962   1.464   6.248  0.5938 -2.1907 -1.9586
 9389SOL     OW39628   4.661   1.299  11.148 -0.3894  0.7414  0.1003
 9389SOL    HW139629   4.570   1.275  11.134  0.3364  0.1037 -3.5168
 9389SOL    HW239630   4.713   1.218  11.139 -1.4446  0.0460  0.2916
 9390SOL     OW39631   3.315   3.616   7.599 -0.0173  0.3012 -0.1603
 9390SOL    HW139632   3.271   3.683   7.546 -2.2493 -0.6397  0.5000
 9390SOL    HW239633   3.404   3.619   7.565  0.0360 -0.8539 -0.1294
 9391SOL     OW39634   0.645   3.880   4.942  0.1079  0.3800  0.3361
 9391SOL    HW139635   0.712   3.812   4.954  1.4588  1.5229 -0.8975
 9391SOL    HW239636   0.641   3.885   4.847  0.2558 -0.5990  0.2712
 9392SOL     OW39637   0.149   4.500  13.975 -0.2568 -0.4643  0.2990
 9392SOL    HW139638   0.054   4.495  13.979 -0.2224 -1.6333 -0.3384
 9392SOL    HW239639   0.169   4.424  13.920  2.9460 -0.0095  0.8430
 9393SOL     OW39640   1.982   2.846  15.296  0.0404  0.0726  0.0143
 9393SOL    HW139641   1.971   2.769  15.239  0.8835  0.3298 -0.4960
 9393SOL    HW239642   1.925   2.908  15.251  1.3614  1.1284 -0.2168
 9394SOL     OW39643   0.081   1.074  11.101  0.1305 -0.3376  0.3868
 9394SOL    HW139644   0.103   0.986  11.130  2.7944 -0.6226 -2.5396
 9394SOL    HW239645   0.108   1.071  11.009  1.8554  0.3281  0.8724
 9395SOL     OW39646   2.317   4.344   4.903  0.1224 -0.3978 -0.1282
 9395SOL    HW139647   2.388   4.380   4.851  0.5214 -0.2504  0.5167
 9395SOL    HW239648   2.332   4.252   4.881 -0.4487 -0.6730  0.6280
 9396SOL     OW39649   2.331   0.881   9.029 -0.3340 -0.1524  0.7448
 9396SOL    HW139650   2.294   0.927   8.953  0.9863  0.0461  0.2175
 9396SOL    HW239651   2.423   0.906   9.019 -0.0388 -1.7727 -0.5560
 9397SOL     OW39652   4.701   3.982   2.848  0.0640 -0.3321 -0.2917
 9397SOL    HW139653   0.020   3.926   2.916 -2.1743 -0.8085  0.5302
 9397SOL    HW239654   4.632   4.031   2.893  0.9775  0.3705  0.3348
 9398SOL     OW39655   2.874   0.747   5.165 -0.1711 -0.1706  0.1832
 9398SOL    HW139656   2.889   0.672   5.108  1.5195 -1.4142  2.2849
 9398SOL    HW239657   2.893   0.828   5.117 -0.3506  0.9188  1.9482
 9399SOL     OW39658   1.674   2.489   6.379 -0.1115 -0.3422  0.2512
 9399SOL    HW139659   1.675   2.480   6.284  0.2994 -0.2547  0.2455
 9399SOL    HW239660   1.613   2.426   6.418 -0.3408 -0.1939  0.1300
 9400SOL     OW39661   4.533   4.212   7.835 -0.5718  0.3770 -0.4372
 9400SOL    HW139662   4.515   4.253   7.920 -0.9441  0.2058 -0.4357
 9400SOL    HW239663   4.616   4.170   7.857  0.3689  2.4447 -0.0605
 9401SOL     OW39664   3.467   3.935   6.217  0.1452 -0.1899 -0.4712
 9401SOL    HW139665   3.455   3.842   6.198 -4.2540  0.0090  1.4914
 9401SOL    HW239666   3.431   3.976   6.138 -1.3674 -0.9428 -0.1684
 9402SOL     OW39667   1.689   0.494   1.559  0.2115 -0.3841  0.3432
 9402SOL    HW139668   1.758   0.534   1.611  0.4587 -2.2446  1.4325
 9402SOL    HW239669   1.727   0.416   1.518  2.4899  0.4720  0.8141
 9403SOL     OW39670   0.645   1.263   5.398 -0.2231 -0.0742 -0.1430
 9403SOL    HW139671   0.595   1.221   5.329 -2.0437 -0.9499  1.7367
 9403SOL    HW239672   0.576   1.308   5.447  0.4933  0.3802  0.4762
 9404SOL     OW39673   0.739   2.522   2.047 -0.0425 -0.3669  0.0798
 9404SOL    HW139674   0.774   2.444   2.088  1.2774 -0.2849 -0.8947
 9404SOL    HW239675   0.806   2.589   2.057  0.1560 -0.6008  0.2990
 9405SOL     OW39676   2.890   4.085  16.073  0.3515 -0.3678  0.5646
 9405SOL    HW139677   2.831   4.140  16.124  0.3866 -1.0236  1.3119
 9405SOL    HW239678   2.948   4.156  16.046 -1.0039  0.3745 -0.3892
 9406SOL     OW39679   3.612   0.294   3.766 -0.0485 -0.0658  0.1928
 9406SOL    HW139680   3.568   0.304   3.682  0.7720 -1.8024 -0.4462
 9406SOL    HW239681   3.687   0.236   3.749  1.9345  2.8415 -0.8676
 9407SOL     OW39682   3.942   2.801   8.876  0.1557  0.0596 -0.7046
 9407SOL    HW139683   3.904   2.886   8.857 -1.0975 -0.1070  1.0632
 9407SOL    HW239684   3.988   2.783   8.793  2.9897  0.5674  0.7386
 9408SOL     OW39685   1.579   3.531   4.145  0.0601  0.1474  0.3661
 9408SOL    HW139686   1.577   3.578   4.061  3.1420 -0.7472 -0.2192
 9408SOL    HW239687   1.628   3.596   4.196  0.9478  1.5543 -2.2508
 9409SOL     OW39688   2.995   1.918   7.247  0.0230  0.2862  0.2172
 9409SOL    HW139689   3.005   1.910   7.152  1.2224  0.7917  0.2914
 9409SOL    HW239690   3.076   1.964   7.269  0.6162 -0.8653  0.4392
 9410SOL     OW39691   2.379   1.623   1.506 -0.5892 -0.3909  0.3594
 9410SOL    HW139692   2.430   1.542   1.512  0.7569  0.2223 -2.8508
 9410SOL    HW239693   2.429   1.675   1.569  0.6244 -1.0487 -0.0695
 9411SOL     OW39694   2.029   2.959   7.810 -0.5381 -0.3282  0.4889
 9411SOL    HW139695   1.971   2.884   7.794 -1.5675  0.9100 -1.6338
 9411SOL    HW239696   1.981   2.996   7.884 -0.2415 -1.3324  1.1769
 9412SOL     OW39697   0.499   2.640   2.149  0.2810  0.5341 -0.2022
 9412SOL    HW139698   0.565   2.604   2.089  0.5089 -0.0090  0.3710
 9412SOL    HW239699   0.440   2.678   2.084  0.4685 -1.2023 -1.4147
 9413SOL     OW39700   0.729   4.006   4.173 -0.3650  0.1662 -0.2230
 9413SOL    HW139701   0.753   3.946   4.103 -0.6626  0.1858 -0.3416
 9413SOL    HW239702   0.790   4.077   4.154 -1.9547  1.8834  1.0391
 9414SOL     OW39703   3.239   4.546   4.485  0.2433 -0.0172 -0.6834
 9414SOL    HW139704   3.209   4.599   4.559  0.2829  0.5040 -1.0449
 9414SOL    HW239705   3.281   4.470   4.526  1.5365  0.8289 -0.4094
 9415SOL     OW39706   0.747   1.540   3.060 -0.8038  0.2761  0.6683
 9415SOL    HW139707   0.766   1.560   2.968 -1.4151 -0.9037  0.2838
 9415SOL    HW239708   0.806   1.471   3.089  0.4340  0.8940 -0.3797
 9416SOL     OW39709   4.406   0.376   8.785 -0.0787 -0.6238  0.1121
 9416SOL    HW139710   4.350   0.451   8.804  0.4179  0.0347 -1.0474
 9416SOL    HW239711   4.344   0.306   8.807 -0.9892  1.0616  2.8948
 9417SOL     OW39712   0.647   2.042   8.967  0.0686 -0.5957 -0.0269
 9417SOL    HW139713   0.670   1.971   8.908 -0.1111 -0.7386  0.0730
 9417SOL    HW239714   0.713   2.110   8.951 -0.7091  0.3972  1.0279
 9418SOL     OW39715   4.328   0.509  15.450  0.2553  0.2052 -0.3812
 9418SOL    HW139716   4.371   0.568  15.388  0.4852 -1.6727 -1.9937
 9418SOL    HW239717   4.279   0.575  15.499 -0.0712  0.7199 -1.3995
 9419SOL     OW39718   2.818   1.364   9.145 -0.0127 -0.1351  0.1641
 9419SOL    HW139719   2.874   1.341   9.219 -2.1198 -2.3818  1.0445
 9419SOL    HW239720   2.870   1.426   9.093 -0.5289 -0.5175 -0.8256
 9420SOL     OW39721   0.893   2.431  15.929 -0.6344  0.3330  0.3765
 9420SOL    HW139722   0.883   2.389  15.844 -1.7154 -0.5368  0.9256
 9420SOL    HW239723   0.932   2.354  15.972  2.1102  1.7986  0.5384
 9421SOL     OW39724   0.678   1.301   5.939  0.4400  0.3085  0.5432
 9421SOL    HW139725   0.715   1.387   5.956  0.7357  0.2329  0.2747
 9421SOL    HW239726   0.695   1.258   6.023  1.2843 -1.0043 -0.3053
 9422SOL     OW39727   0.419   2.178   8.913  0.2584  0.5458 -1.0408
 9422SOL    HW139728   0.503   2.142   8.942 -0.0181  1.0603  0.3753
 9422SOL    HW239729   0.390   2.121   8.842 -2.0341 -0.6823  0.8984
 9423SOL     OW39730   2.592   1.799  14.056 -0.0542  0.2945 -0.2988
 9423SOL    HW139731   2.627   1.856  14.125  0.1894 -0.2390  0.0206
 9423SOL    HW239732   2.585   1.861  13.984 -1.6863  1.0859  0.5483
 9424SOL     OW39733   3.679   3.415   4.068 -0.4982  0.8509 -0.2942
 9424SOL    HW139734   3.591   3.434   4.034 -1.5698 -0.9156  1.4812
 9424SOL    HW239735   3.707   3.507   4.066 -0.3076  0.7290 -3.1196
 9425SOL     OW39736   0.014   4.577   2.121 -0.7430  0.1839  0.6054
 9425SOL    HW139737   0.110   4.578   2.117 -0.7169 -0.6741  1.1070
 9425SOL    HW239738   4.717   4.523   2.198  1.9824 -1.3207  0.0663
 9426SOL     OW39739   0.768   2.640  11.253  0.3134  0.7898 -0.3505
 9426SOL    HW139740   0.688   2.593  11.275 -0.5978  2.0767 -0.8943
 9426SOL    HW239741   0.744   2.686  11.172 -2.0806 -1.5047 -0.9617
 9427SOL     OW39742   4.433   0.757  12.546 -0.1967 -0.4075  0.3818
 9427SOL    HW139743   4.379   0.749  12.467 -1.5344  0.6507  1.1779
 9427SOL    HW239744   4.514   0.722  12.509  0.6337  2.2422 -0.2386
 9428SOL     OW39745   1.529   0.619   1.384 -0.5048 -0.4853 -0.5629
 9428SOL    HW139746   1.547   0.545   1.326  4.4728  0.5123 -0.2381
 9428SOL    HW239747   1.588   0.593   1.455 -1.6899  0.2605  0.7062
 9429SOL     OW39748   1.541   4.379   6.876 -0.0104  0.1978  0.0891
 9429SOL    HW139749   1.467   4.440   6.874  0.5249  0.8883  1.6718
 9429SOL    HW239750   1.549   4.363   6.782  2.5569 -0.4442  0.4329
 9430SOL     OW39751   1.601   3.080  11.445 -0.7834 -0.0991  0.7670
 9430SOL    HW139752   1.567   3.016  11.383 -1.1885 -0.0234  0.9121
 9430SOL    HW239753   1.611   3.025  11.522  0.5194 -0.9948 -0.0454
 9431SOL     OW39754   2.158   3.721   1.982  0.7677 -0.1539  0.2295
 9431SOL    HW139755   2.186   3.803   1.939  0.1286 -0.5965 -1.0418
 9431SOL    HW239756   2.099   3.688   1.913  1.8277 -0.5714 -0.4799
 9432SOL     OW39757   2.141   0.003   8.437  0.9273  0.5325 -0.3395
 9432SOL    HW139758   2.193   4.652   8.478 -0.6035  0.9576  2.3712
 9432SOL    HW239759   2.120   0.068   8.504  1.3044 -0.8374  1.1145
 9433SOL     OW39760   4.104   0.003  17.516 -0.3282 -1.0138  0.5296
 9433SOL    HW139761   4.042   0.062  17.558 -0.1460 -0.3150 -0.1598
 9433SOL    HW239762   4.081   4.717  17.423 -0.5586  1.1399  0.4911
 9434SOL     OW39763   1.963   0.151  11.638 -0.3701 -0.3319  0.1142
 9434SOL    HW139764   1.968   0.237  11.680 -0.2325 -0.7181  0.8792
 9434SOL    HW239765   1.871   0.133  11.656 -0.8767 -0.5035 -2.6378
 9435SOL     OW39766   2.662   2.207   3.710 -0.1974  0.1855 -0.6340
 9435SOL    HW139767   2.684   2.154   3.633 -0.0164 -2.4699  1.2420
 9435SOL    HW239768   2.570   2.227   3.693  0.3269  1.8563 -1.5332
 9436SOL     OW39769   3.312   1.561  16.483  0.3630  0.7454  0.0069
 9436SOL    HW139770   3.252   1.586  16.412  1.0422  0.6632 -0.5921
 9436SOL    HW239771   3.320   1.466  16.472 -0.8232  0.4603  1.5805
 9437SOL     OW39772   4.489   0.982   5.058  0.0335 -0.5342 -0.6127
 9437SOL    HW139773   4.534   1.064   5.039 -0.5975  0.7631  3.3630
 9437SOL    HW239774   4.423   1.007   5.123  0.4591 -2.3928  0.5574
 9438SOL     OW39775   1.189   1.216   8.538  0.0998  0.3274  0.6476
 9438SOL    HW139776   1.252   1.258   8.597 -0.9522 -0.1863  2.1379
 9438SOL    HW239777   1.172   1.286   8.475 -4.0487  0.0852  1.4940
 9439SOL     OW39778   1.967   3.665   3.790  0.1886  0.1354  0.1578
 9439SOL    HW139779   1.895   3.611   3.757 -0.8925 -0.1069  2.8967
 9439SOL    HW239780   1.961   3.659   3.885  1.5416 -0.0997  0.2305
 9440SOL     OW39781   2.950   0.438   4.401  0.0988  0.0109  0.0042
 9440SOL    HW139782   2.953   0.360   4.456  0.4916 -0.1812 -0.2854
 9440SOL    HW239783   2.982   0.405   4.317  1.2025  0.3526  0.2877
 9441SOL     OW39784   3.610   1.000   6.941 -0.5687  0.1036  0.2336
 9441SOL    HW139785   3.696   0.969   6.967  0.9904  2.8374 -1.6358
 9441SOL    HW239786   3.613   1.095   6.952 -0.5381 -0.1281  2.1436
 9442SOL     OW39787   0.110   2.080   5.543 -0.4495 -0.2484  0.2962
 9442SOL    HW139788   0.019   2.078   5.513 -0.0710  0.1837 -0.8982
 9442SOL    HW239789   0.150   2.141   5.481  1.0192 -1.5370 -0.0257
 9443SOL     OW39790   4.500   4.510   0.767 -0.0276 -0.4332  0.4935
 9443SOL    HW139791   4.575   4.452   0.772 -0.6965 -1.2286  1.3968
 9443SOL    HW239792   4.512   4.566   0.843 -0.6801  1.6092 -0.8786
 9444SOL     OW39793   1.577   3.997  11.844  0.3741 -0.4584 -0.5382
 9444SOL    HW139794   1.503   4.056  11.833  0.3651 -0.2835  0.4047
 9444SOL    HW239795   1.553   3.914  11.803 -1.2514  0.2736 -1.0690
 9445SOL     OW39796   0.484   3.162  13.381 -0.4572  0.3814  0.2434
 9445SOL    HW139797   0.464   3.214  13.303  2.0027 -1.0336 -1.3479
 9445SOL    HW239798   0.514   3.077  13.349 -0.6287  0.1283  0.7495
 9446SOL     OW39799   2.988   2.594   5.735  0.7608 -0.5628 -0.6780
 9446SOL    HW139800   3.019   2.596   5.825 -1.2145 -0.6053  0.0032
 9446SOL    HW239801   3.065   2.559   5.691 -0.2721  0.8864 -3.6575
 9447SOL     OW39802   1.281   1.751  11.617  0.0510 -0.0098 -0.0307
 9447SOL    HW139803   1.299   1.723  11.707  1.5412 -0.6139 -0.5083
 9447SOL    HW239804   1.343   1.700  11.564 -0.6361  0.0470 -0.8898
 9448SOL     OW39805   1.507   4.705   4.620  0.3136  0.0563 -0.6561
 9448SOL    HW139806   1.564   0.062   4.640  0.8620  0.5673 -4.2308
 9448SOL    HW239807   1.569   4.658   4.564  2.3385 -0.0637  1.6652
 9449SOL     OW39808   3.268   3.032   9.080 -0.2537  0.1915 -0.0468
 9449SOL    HW139809   3.250   2.988   8.997  0.8334  1.7516 -1.1211
 9449SOL    HW239810   3.214   3.111   9.077 -1.0476 -0.3792 -0.7716
 9450SOL     OW39811   0.460   4.460  10.418  0.7778  0.0288  0.0691
 9450SOL    HW139812   0.397   4.526  10.448 -0.9952 -2.4121  1.7067
 9450SOL    HW239813   0.447   4.384  10.475 -2.6401  0.1263 -0.5847
 9451SOL     OW39814   0.163   4.375   9.332  0.1248  0.4397  0.0592
 9451SOL    HW139815   0.253   4.351   9.355  0.2505 -0.6695 -1.5855
 9451SOL    HW239816   0.173   4.470   9.343  1.2341  0.1373  1.7503
 9452SOL     OW39817   4.361   0.126  17.609  0.5521 -1.1343  0.3700
 9452SOL    HW139818   4.399   0.214  17.604  0.6034 -1.0119  2.7729
 9452SOL    HW239819   4.285   0.129  17.551  0.5878 -0.9770  0.3324
 9453SOL     OW39820   1.497   0.920   2.985  0.0228 -0.2017 -0.0732
 9453SOL    HW139821   1.561   0.950   3.050 -0.5568  1.1283 -0.1326
 9453SOL    HW239822   1.435   0.992   2.973 -1.3200 -1.1708  0.9881
 9454SOL     OW39823   1.868   0.370   5.134 -0.2232  0.0298 -0.1263
 9454SOL    HW139824   1.813   0.329   5.201  0.6817  0.0527  0.6319
 9454SOL    HW239825   1.794   0.394   5.079  0.0447 -0.4647 -0.7010
 9455SOL     OW39826   4.395   0.008   9.560  0.0231 -0.4483  0.2831
 9455SOL    HW139827   4.360   4.706   9.647  2.2504 -3.1633  0.5677
 9455SOL    HW239828   4.422   0.099   9.574 -0.0713 -0.5634  1.1863
 9456SOL     OW39829   3.398   3.736  16.713 -0.0421 -0.2702  0.0482
 9456SOL    HW139830   3.462   3.705  16.777 -1.1478  1.4196  1.9803
 9456SOL    HW239831   3.452   3.791  16.657 -0.6945  1.8783  1.5266
 9457SOL     OW39832   0.561   1.012   7.736  0.3307 -0.4192 -0.2392
 9457SOL    HW139833   0.568   0.956   7.658  0.6652 -0.2954 -0.2976
 9457SOL    HW239834   0.555   0.949   7.808 -0.6709  1.5867  1.4139
 9458SOL     OW39835   0.795   4.049   2.765 -0.1621 -0.5707  0.6007
 9458SOL    HW139836   0.828   4.036   2.675  0.8532 -0.5671  0.9687
 9458SOL    HW239837   0.785   3.958   2.793 -1.3050 -1.0460 -1.2938
 9459SOL     OW39838   0.283   1.475  11.017  0.0578 -0.1282  0.0744
 9459SOL    HW139839   0.287   1.451  11.109  1.9166  1.4357  0.4038
 9459SOL    HW239840   0.297   1.569  11.021 -1.4770  0.1831 -1.3599
 9460SOL     OW39841   3.256   1.753   2.678 -0.0471 -0.0082  0.4790
 9460SOL    HW139842   3.185   1.734   2.739  0.0541 -0.0403  0.5858
 9460SOL    HW239843   3.261   1.680   2.616  1.5924 -0.5643  1.2788
 9461SOL     OW39844   3.921   4.336   6.014 -0.6894 -0.4964 -0.1099
 9461SOL    HW139845   3.833   4.360   6.045 -0.9985 -0.3838 -1.0722
 9461SOL    HW239846   3.897   4.290   5.934  2.3521 -0.0738 -1.2762
 9462SOL     OW39847   1.276   3.648   9.302 -0.6287  0.1198  0.7641
 9462SOL    HW139848   1.314   3.561   9.315 -0.5969  0.2847  1.8263
 9462SOL    HW239849   1.182   3.634   9.316 -0.8957 -0.7354 -1.9342
 9463SOL     OW39850   3.686   4.694   7.437 -0.7499 -0.2456  0.3797
 9463SOL    HW139851   3.592   4.677   7.449 -1.1058 -1.8469 -4.3454
 9463SOL    HW239852   3.732   4.671   7.518 -2.1535  1.5362  1.6733
 9464SOL     OW39853   0.462   1.514   2.574 -0.1926 -0.3294 -0.0219
 9464SOL    HW139854   0.555   1.502   2.554 -0.0253  1.0196 -0.0563
 9464SOL    HW239855   0.423   1.435   2.536  0.8006 -0.2381 -1.2503
 9465SOL     OW39856   2.108   1.042   4.207 -0.5965 -0.0233  0.2923
 9465SOL    HW139857   2.127   1.038   4.301  1.2866 -0.5423 -0.1072
 9465SOL    HW239858   2.102   1.135   4.185 -0.9598  0.0936  0.8731
 9466SOL     OW39859   4.318   1.899  12.294 -0.4872  0.3068 -0.0849
 9466SOL    HW139860   4.378   1.838  12.337 -2.2518 -1.7481 -0.5532
 9466SOL    HW239861   4.312   1.873  12.202  2.2039 -1.4908  0.2417
 9467SOL     OW39862   1.468   3.047   4.498 -0.6690  0.6693  0.6874
 9467SOL    HW139863   1.563   3.035   4.504 -1.0914 -2.5319  0.5334
 9467SOL    HW239864   1.442   2.978   4.558 -1.9240  0.1135 -0.4834
 9468SOL     OW39865   1.078   4.499  16.031  0.4771 -0.0131  0.2014
 9468SOL    HW139866   1.054   4.501  16.124  0.1373  2.0815  0.0525
 9468SOL    HW239867   1.051   4.586  16.002 -0.0117 -0.0493  0.5343
 9469SOL     OW39868   4.602   2.919  13.404  0.2096 -0.8051 -0.1621
 9469SOL    HW139869   4.580   2.876  13.487  1.0810 -2.0882 -0.6008
 9469SOL    HW239870   4.620   3.008  13.435 -0.0854 -1.0065  0.6001
 9470SOL     OW39871   3.608   1.642  11.019  0.3435  0.1190 -0.1674
 9470SOL    HW139872   3.647   1.615  10.936  0.5464 -0.1332  0.0105
 9470SOL    HW239873   3.528   1.682  10.982  0.4157  0.2779 -0.1510
 9471SOL     OW39874   4.641   1.375   7.676 -0.2790 -0.6791  0.7036
 9471SOL    HW139875   4.587   1.310   7.721 -1.4189  0.5703  1.1471
 9471SOL    HW239876   4.716   1.387   7.734 -0.7216 -0.4187  1.2224
 9472SOL     OW39877   3.353   1.596   1.072  0.2499 -0.5312 -0.0895
 9472SOL    HW139878   3.287   1.663   1.094 -0.1938 -0.8228 -0.5239
 9472SOL    HW239879   3.423   1.620   1.133 -0.4147 -1.3941  1.0227
 9473SOL     OW39880   2.383   1.269   4.188  0.4272  0.0507 -0.3435
 9473SOL    HW139881   2.397   1.231   4.275 -1.0736 -0.1601 -0.1982
 9473SOL    HW239882   2.393   1.364   4.192 -2.1434  0.3652 -1.4136
 9474SOL     OW39883   4.195   3.480  13.039  0.1129 -0.0758 -0.0979
 9474SOL    HW139884   4.285   3.506  13.058  0.2564  0.7331 -1.8940
 9474SOL    HW239885   4.211   3.445  12.952 -0.4823  0.0020 -0.2425
 9475SOL     OW39886   4.512   1.348   9.259  0.0128  0.4934  0.1056
 9475SOL    HW139887   4.498   1.440   9.284  0.8455  1.1928 -2.0372
 9475SOL    HW239888   4.427   1.315   9.287 -1.0678  1.4190 -2.1341
 9476SOL     OW39889   3.917   3.378   4.961  0.1845 -0.0552  0.5038
 9476SOL    HW139890   3.958   3.357   4.877  0.9307  1.5081  0.4749
 9476SOL    HW239891   3.829   3.351   4.935  0.7183 -1.3750  0.0243
 9477SOL     OW39892   0.123   1.037  10.588  0.2789  0.0571 -0.1212
 9477SOL    HW139893   0.151   0.947  10.570 -0.5838 -0.2177 -0.1019
 9477SOL    HW239894   0.053   1.043  10.523  1.7985 -0.2878 -1.8014
 9478SOL     OW39895   3.059   1.716   8.179 -0.3972 -0.8406  0.1091
 9478SOL    HW139896   3.148   1.698   8.209 -0.1399  0.0711 -0.1182
 9478SOL    HW239897   3.080   1.794   8.129  1.1421 -1.4350 -0.1761
 9479SOL     OW39898   2.866   0.979  15.185  0.0617 -0.6388  0.1295
 9479SOL    HW139899   2.798   0.964  15.251 -0.9747 -1.0545 -1.0399
 9479SOL    HW239900   2.923   0.902  15.191  1.1310  0.0606 -1.0751
 9480SOL     OW39901   1.950   0.037  14.904 -0.3415 -0.2080  0.0322
 9480SOL    HW139902   2.032   4.707  14.892 -0.6429 -0.6480 -0.2801
 9480SOL    HW239903   1.940   0.067  14.814  0.2527  0.1531  0.0842
 9481SOL     OW39904   2.622   2.893   5.992 -0.3641 -0.0723  0.0938
 9481SOL    HW139905   2.547   2.952   6.005  0.5177  0.9176  0.7121
 9481SOL    HW239906   2.695   2.937   6.035 -2.1343  1.6626  1.3264
 9482SOL     OW39907   2.790   2.609   7.758  0.3743  0.0140  0.2279
 9482SOL    HW139908   2.770   2.682   7.817  0.2975 -0.1560  0.4124
 9482SOL    HW239909   2.885   2.609   7.762  0.5649  0.9926 -4.0275
 9483SOL     OW39910   3.801   0.120  14.746  0.2288  0.0807  0.1311
 9483SOL    HW139911   3.742   0.053  14.781 -0.0673  0.0695 -0.4015
 9483SOL    HW239912   3.754   0.203  14.756 -1.0450 -0.4974 -1.1389
 9484SOL     OW39913   2.392   1.783   3.086 -0.4681 -0.2402  0.3127
 9484SOL    HW139914   2.330   1.855   3.097  0.4684  0.5313  0.4771
 9484SOL    HW239915   2.336   1.708   3.105 -0.2852 -0.2727  0.7244
 9485SOL     OW39916   0.168   1.926   6.640  0.0786  0.0410 -0.1164
 9485SOL    HW139917   0.097   1.975   6.682 -1.4581 -3.9806  1.9464
 9485SOL    HW239918   0.133   1.910   6.552  0.4670  0.1493 -0.2922
 9486SOL     OW39919   2.016   1.120  10.129 -0.3063  0.2821 -0.2524
 9486SOL    HW139920   2.036   1.027  10.131 -2.2166 -0.0639  1.9284
 9486SOL    HW239921   2.082   1.162  10.185 -0.1064 -2.1716  1.3690
 9487SOL     OW39922   4.543   1.768   4.976  1.0988  0.0093  0.1598
 9487SOL    HW139923   4.451   1.782   4.997  1.1211 -0.3075  0.4661
 9487SOL    HW239924   4.542   1.792   4.883  0.9491  0.3587  0.2503
 9488SOL     OW39925   3.271   0.672  11.674 -0.1369  0.7427  0.0675
 9488SOL    HW139926   3.218   0.663  11.595 -0.4685 -1.3925  0.5396
 9488SOL    HW239927   3.285   0.578  11.678 -0.0669  0.8886  2.9454
 9489SOL     OW39928   0.423   4.406  11.894 -0.4097 -0.0708  0.0318
 9489SOL    HW139929   0.410   4.314  11.915  0.0428  0.4224  2.5150
 9489SOL    HW239930   0.367   4.407  11.817 -0.2448  1.0149 -0.0710
 9490SOL     OW39931   3.776   1.778  17.563  0.6050  0.2129 -0.1748
 9490SOL    HW139932   3.686   1.807  17.550  0.1141 -1.1191  0.2583
 9490SOL    HW239933   3.775   1.701  17.619 -0.9978 -0.9611 -1.8418
 9491SOL     OW39934   2.096   2.929   1.086 -0.7299  0.5382 -0.2697
 9491SOL    HW139935   2.161   2.916   1.017  0.8971 -1.8589  1.7132
 9491SOL    HW239936   2.019   2.898   1.038 -1.6855  0.7562  1.1364
 9492SOL     OW39937   1.933   1.610  15.370  0.2139 -0.3128 -0.4168
 9492SOL    HW139938   1.848   1.591  15.410  0.1664 -0.2870 -0.5043
 9492SOL    HW239939   1.992   1.572  15.435  0.0392 -0.8359 -0.5641
 9493SOL     OW39940   3.669   2.438   6.792 -0.1780  0.3054  0.2898
 9493SOL    HW139941   3.617   2.512   6.822  0.6891  1.1951 -0.4247
 9493SOL    HW239942   3.749   2.458   6.842  0.5811 -0.6151 -0.5482
 9494SOL     OW39943   4.179   2.826   3.652 -0.5113 -0.1896  0.1429
 9494SOL    HW139944   4.247   2.887   3.679 -1.9812  0.5987  2.1526
 9494SOL    HW239945   4.099   2.874   3.674  1.0705  2.3379  0.3981
 9495SOL     OW39946   3.270   4.675  15.581 -0.2289  0.4142 -0.0188
 9495SOL    HW139947   3.327   4.599  15.595 -0.8335 -0.4934 -2.4934
 9495SOL    HW239948   3.282   0.011  15.659  1.3776 -0.4337  0.3192
 9496SOL     OW39949   2.946   4.615  11.469  0.1350  0.6992 -0.3189
 9496SOL    HW139950   2.992   4.533  11.451 -1.0534  0.4050 -2.0729
 9496SOL    HW239951   2.895   4.591  11.547 -2.7595 -0.4727 -2.5612
 9497SOL     OW39952   3.926   3.760   9.279  0.0734  0.4068 -0.1429
 9497SOL    HW139953   3.855   3.788   9.336  1.5554 -1.9654  2.8698
 9497SOL    HW239954   3.885   3.762   9.193 -2.2044 -0.2903  0.9213
 9498SOL     OW39955   4.242   1.477   0.593 -0.3839 -0.8865 -0.1953
 9498SOL    HW139956   4.179   1.539   0.630 -0.1056 -1.1787  0.7828
 9498SOL    HW239957   4.304   1.459   0.664  0.2646  1.8902 -0.0709
 9499SOL     OW39958   1.688   1.537   4.558 -0.1661 -0.0385  0.3403
 9499SOL    HW139959   1.715   1.553   4.648 -3.0316  1.8685  0.8613
 9499SOL    HW239960   1.760   1.480   4.530 -0.3192 -0.4072  0.7001
 9500SOL     OW39961   3.285   0.414   5.171  0.0511  0.1402  0.2914
 9500SOL    HW139962   3.269   0.320   5.169  1.0696 -0.0389  0.2399
 9500SOL    HW239963   3.209   0.444   5.220  0.7827  3.0112 -0.3323
 9501SOL     OW39964   0.062   1.954  13.183  0.4847 -0.6742 -0.2666
 9501SOL    HW139965   4.710   1.950  13.247 -0.9671 -3.8138 -2.0317
 9501SOL    HW239966   0.101   2.041  13.188  0.3072 -0.6461  0.6269
 9502SOL     OW39967   1.087   3.988   8.587  0.3878 -0.1593 -0.3310
 9502SOL    HW139968   1.111   3.909   8.539 -1.4862  0.2423 -1.9302
 9502SOL    HW239969   1.089   3.968   8.681  1.8488 -0.6467 -0.4705
 9503SOL     OW39970   1.021   2.444   9.699 -0.5622  0.3606  0.6645
 9503SOL    HW139971   1.006   2.368   9.643 -1.4017  0.4909  0.7180
 9503SOL    HW239972   0.986   2.513   9.642  1.3653 -1.4366 -2.7080
 9504SOL     OW39973   4.615   1.222   8.088 -0.3793  0.3125  0.5737
 9504SOL    HW139974   4.701   1.184   8.072 -1.0198 -1.4222  1.2444
 9504SOL    HW239975   4.598   1.242   7.995 -0.7283 -1.0408  0.3407
 9505SOL     OW39976   2.850   2.738  13.205  0.0253  0.0919 -0.8865
 9505SOL    HW139977   2.794   2.798  13.154 -0.7781  0.7408  0.7472
 9505SOL    HW239978   2.930   2.791  13.209  2.0075 -2.8040 -2.1225
 9506SOL     OW39979   0.656   2.194   7.663  0.0257 -0.3908 -0.1347
 9506SOL    HW139980   0.652   2.214   7.757 -0.9376 -0.7159 -0.1030
 9506SOL    HW239981   0.701   2.271   7.627 -0.1704 -1.3287 -2.3706
 9507SOL     OW39982   2.454   2.667  12.088  0.4728  0.4050  0.1908
 9507SOL    HW139983   2.527   2.709  12.043  0.4983  0.6266  0.4393
 9507SOL    HW239984   2.457   2.578  12.053 -1.1783  0.6424 -0.5629
 9508SOL     OW39985   2.452   2.032   7.464 -0.1257  0.6917 -0.0445
 9508SOL    HW139986   2.514   2.105   7.474  0.8075 -0.1139 -0.0204
 9508SOL    HW239987   2.491   1.984   7.537  2.1478  2.4009 -0.1207
 9509SOL     OW39988   0.551   0.652   5.520  0.0152  0.0158  0.3370
 9509SOL    HW139989   0.510   0.659   5.434  1.2724  0.1468 -0.2346
 9509SOL    HW239990   0.545   0.742   5.552  2.4632 -0.2912  1.6563
 9510SOL     OW39991   1.950   2.765  11.781  0.6728  0.2097  0.0212
 9510SOL    HW139992   1.873   2.819  11.764  1.3122  1.1058 -0.0478
 9510SOL    HW239993   1.997   2.817  11.847  1.1871 -0.7410  0.3942
 9511SOL     OW39994   0.517   4.304   7.237 -0.4022  0.5165 -0.6734
 9511SOL    HW139995   0.519   4.377   7.175 -1.9924 -0.2681 -1.6603
 9511SOL    HW239996   0.466   4.244   7.183 -0.6008 -0.4712  0.6291
 9512SOL     OW39997   3.404   3.130   2.327 -0.8669  0.2930  0.1435
 9512SOL    HW139998   3.368   3.074   2.395  0.9302 -2.1212 -0.8856
 9512SOL    HW239999   3.329   3.157   2.274 -2.3312 -2.4682  0.8099
 9513SOL     OW40000   4.083   1.379   3.382 -0.1324  0.2032 -0.1300
 9513SOL    HW140001   4.085   1.359   3.475  1.2438  0.5451 -0.0936
 9513SOL    HW240002   4.176   1.389   3.366 -0.3601 -0.7988 -2.1897
 9514SOL     OW40003   2.261   2.844   2.435  0.3186 -0.0475  0.6325
 9514SOL    HW140004   2.177   2.840   2.482 -0.2072  1.6571 -0.1525
 9514SOL    HW240005   2.266   2.765   2.381 -0.9354 -0.0673  0.5445
 9515SOL     OW40006   3.030   2.176   5.717 -0.0511 -0.0539  0.1272
 9515SOL    HW140007   3.008   2.197   5.807  0.6819  0.6355  0.1409
 9515SOL    HW240008   3.125   2.188   5.712  0.1506 -2.2109 -1.8719
 9516SOL     OW40009   3.771   4.286   9.784  0.3025 -0.0967  0.2022
 9516SOL    HW140010   3.743   4.216   9.843 -1.2173  1.0439  0.8236
 9516SOL    HW240011   3.696   4.344   9.788  0.4484 -0.1582  3.9243
 9517SOL     OW40012   4.214   2.377   9.871 -0.3101  0.0444  0.6330
 9517SOL    HW140013   4.282   2.392   9.806  0.2455 -1.3880  0.8911
 9517SOL    HW240014   4.221   2.285   9.897 -1.8994  0.3643  2.2085
 9518SOL     OW40015   0.999   4.501   3.445 -0.3543  0.1754 -0.0136
 9518SOL    HW140016   0.991   4.431   3.510  0.8979  0.5919  0.5956
 9518SOL    HW240017   0.939   4.559   3.492  0.6624 -1.4671  3.3071
 9519SOL     OW40018   4.631   0.897   1.999 -0.0327 -0.0881  0.1769
 9519SOL    HW140019   4.666   0.853   1.921  2.1338  0.9694  0.5381
 9519SOL    HW240020   4.552   0.847   2.013 -1.0648  0.7800 -2.5022
 9520SOL     OW40021   4.238   1.332  15.030 -0.8955  0.2297  0.0328
 9520SOL    HW140022   4.304   1.387  14.987 -1.1043  0.0552 -0.5095
 9520SOL    HW240023   4.267   1.355  15.118 -2.2893  0.3657  0.4596
 9521SOL     OW40024   1.601   3.829   7.671  0.0187  0.3338 -1.1160
 9521SOL    HW140025   1.663   3.765   7.705  0.3480  1.3594  0.1726
 9521SOL    HW240026   1.657   3.905   7.685  0.3949 -0.2339  0.4151
 9522SOL     OW40027   4.619   0.923   1.516  0.0111  0.3478  0.2728
 9522SOL    HW140028   4.587   1.012   1.505 -1.5207 -0.4907 -2.0751
 9522SOL    HW240029   4.536   0.877   1.505  0.0541  0.3516 -0.0605
 9523SOL     OW40030   4.437   1.814   3.989  0.1736 -0.8183 -0.3505
 9523SOL    HW140031   4.374   1.755   3.946 -2.2696  0.3947  1.5266
 9523SOL    HW240032   4.385   1.892   4.007  0.0815 -1.8114  3.5715
 9524SOL     OW40033   0.149   4.511   8.362  0.6313  0.0626  0.3237
 9524SOL    HW140034   0.056   4.533   8.356  0.4734  0.3461  3.4922
 9524SOL    HW240035   0.179   4.596   8.395  0.6442  0.0472  0.3521
 9525SOL     OW40036   1.667   2.811   6.182  0.3362 -0.7412  0.6346
 9525SOL    HW140037   1.603   2.756   6.137 -1.1899 -0.2148  2.1651
 9525SOL    HW240038   1.747   2.767   6.156 -0.4522 -0.5651 -2.0656
 9526SOL     OW40039   1.725   1.629   7.887 -0.2477 -0.0628  0.0672
 9526SOL    HW140040   1.661   1.599   7.952 -0.0091 -0.5742  0.0594
 9526SOL    HW240041   1.705   1.578   7.809  0.9380 -2.2684  1.2123
 9527SOL     OW40042   1.324   1.288   8.973  0.6365  0.3414 -0.1812
 9527SOL    HW140043   1.329   1.314   8.881 -1.5108 -0.0361 -0.4024
 9527SOL    HW240044   1.354   1.197   8.980  0.4204  0.2946  0.1158
 9528SOL     OW40045   0.342   4.127   7.087 -0.1228 -0.5374 -0.2145
 9528SOL    HW140046   0.292   4.046   7.097 -3.1602  1.0456 -2.9632
 9528SOL    HW240047   0.381   4.126   7.000  2.2924 -0.5371  0.8364
 9529SOL     OW40048   3.011   2.944  11.166  0.1477  1.1946  0.3860
 9529SOL    HW140049   3.034   2.891  11.089 -3.3892  1.1901 -0.7031
 9529SOL    HW240050   2.936   2.985  11.122 -0.6490 -1.4810 -0.7816
 9530SOL     OW40051   3.272   4.238   7.675  0.0616 -0.2907 -0.4557
 9530SOL    HW140052   3.358   4.205   7.698 -0.5789 -1.7708 -0.2138
 9530SOL    HW240053   3.244   4.167   7.617 -0.4856  0.2015 -0.8036
 9531SOL     OW40054   4.682   0.026  13.073 -0.5398 -0.0014 -0.4341
 9531SOL    HW140055   0.008   0.111  13.075 -1.2216  0.3357  0.3006
 9531SOL    HW240056   4.604   0.048  13.125  0.0922 -4.3919  2.3233
 9532SOL     OW40057   1.739   4.365   8.114 -0.2631 -0.2021 -0.7288
 9532SOL    HW140058   1.668   4.366   8.177  1.3470 -0.9020  1.0914
 9532SOL    HW240059   1.758   4.459   8.106 -1.2746 -0.0761 -1.6212
 9533SOL     OW40060   1.518   3.635   9.051  0.6212  0.2685  0.1364
 9533SOL    HW140061   1.469   3.554   9.059  1.3982 -0.0938  1.1719
 9533SOL    HW240062   1.472   3.666   8.973 -1.0947 -2.8750 -0.1037
 9534SOL     OW40063   1.718   0.711   4.482  0.4405 -0.2902 -0.2387
 9534SOL    HW140064   1.764   0.667   4.410  2.6928  0.5546  0.6817
 9534SOL    HW240065   1.735   0.800   4.451  2.2870  0.5182  3.1053
 9535SOL     OW40066   4.619   4.528  13.248  0.0146 -0.2625  0.3812
 9535SOL    HW140067   4.657   4.578  13.320 -4.6669 -0.0778  2.7002
 9535SOL    HW240068   4.655   4.583  13.178  0.0088 -0.9670 -0.1744
 9536SOL     OW40069   3.414   2.463  11.512  0.1095 -0.2489 -0.3525
 9536SOL    HW140070   3.486   2.514  11.475  1.2981 -2.5119 -1.1582
 9536SOL    HW240071   3.361   2.542  11.523  0.2266 -0.1682 -0.3703
 9537SOL     OW40072   0.682   1.734   6.710  0.6438 -0.1211 -0.4060
 9537SOL    HW140073   0.711   1.643   6.705  0.7260 -0.1747  1.0509
 9537SOL    HW240074   0.588   1.719   6.700  0.5887 -1.2643  1.7511
 9538SOL     OW40075   3.563   4.559   1.952  0.2963  0.1051  0.0558
 9538SOL    HW140076   3.635   4.580   1.892 -0.0536 -2.1238 -1.1692
 9538SOL    HW240077   3.591   4.476   1.992 -0.0043 -0.8386 -1.6763
 9539SOL     OW40078   4.074   4.160   5.333  0.4582 -0.2205 -0.4153
 9539SOL    HW140079   4.113   4.085   5.289  1.4068 -1.2389  2.1738
 9539SOL    HW240080   3.991   4.165   5.286 -2.3183 -1.5294  4.4138
 9540SOL     OW40081   1.064   3.915   8.859  0.2529  0.5212  0.0355
 9540SOL    HW140082   1.115   3.971   8.918 -0.5640  3.6449 -2.2705
 9540SOL    HW240083   1.068   3.839   8.917  0.1184  0.1684 -0.4199
 9541SOL     OW40084   2.805   2.442   7.992 -0.0728  0.2877 -0.3389
 9541SOL    HW140085   2.809   2.354   7.954 -0.8334  0.4929 -0.8960
 9541SOL    HW240086   2.763   2.478   7.914  0.0318 -1.3257 -1.1561
 9542SOL     OW40087   4.529   0.093   5.276 -0.0761 -0.5322  0.2197
 9542SOL    HW140088   4.451   0.133   5.237  1.4797 -0.4538 -2.8734
 9542SOL    HW240089   4.595   0.100   5.206  0.5833 -0.6598  0.8362
 9543SOL     OW40090   2.291   3.967   6.161 -0.0322 -0.0403  0.2167
 9543SOL    HW140091   2.362   3.928   6.213 -1.6105 -1.8513  0.9895
 9543SOL    HW240092   2.234   3.891   6.152 -0.5182  0.4392 -0.7433
 9544SOL     OW40093   2.910   2.368   3.632 -0.5816 -1.0147 -0.4652
 9544SOL    HW140094   2.863   2.451   3.625  0.3927 -0.4494 -0.3167
 9544SOL    HW240095   2.838   2.321   3.674  0.4206 -2.2650 -0.1531
 9545SOL     OW40096   0.182   0.849  13.169  0.2942  0.0043  0.0875
 9545SOL    HW140097   0.254   0.790  13.146 -0.7418 -1.2358  0.0536
 9545SOL    HW240098   0.162   0.811  13.254 -2.1701 -1.5345 -1.1911
 9546SOL     OW40099   2.885   2.325   6.547  0.0766  0.8745  0.0563
 9546SOL    HW140100   2.822   2.265   6.586  1.1351  0.6586  1.4056
 9546SOL    HW240101   2.885   2.394   6.613  1.8582  0.5517  0.3976
 9547SOL     OW40102   2.454   1.110  12.335  0.2393 -0.8393 -0.7232
 9547SOL    HW140103   2.369   1.153  12.329  1.5985  1.6464 -2.1636
 9547SOL    HW240104   2.444   1.049  12.262  0.9229 -0.5625 -1.0474
 9548SOL     OW40105   1.065   4.656   3.733  0.2596 -0.3120 -0.0942
 9548SOL    HW140106   1.096   4.623   3.818 -2.1826 -0.3494  0.7782
 9548SOL    HW240107   0.971   4.638   3.729  0.1227  0.3686  0.0014
 9549SOL     OW40108   3.084   0.955   4.709  0.1908  0.0769  0.6508
 9549SOL    HW140109   3.099   0.980   4.618  1.7593 -2.0695  0.3159
 9549SOL    HW240110   3.023   0.887   4.681 -0.3649  1.3345 -1.2090
 9550SOL     OW40111   4.269   3.552   6.977 -0.2343 -0.4106  0.2243
 9550SOL    HW140112   4.240   3.466   7.005  0.9164  0.3955  3.9621
 9550SOL    HW240113   4.361   3.528   6.963 -0.0736  0.1391  0.3186
 9551SOL     OW40114   4.536   0.590  14.900 -0.2491 -0.7306 -0.4166
 9551SOL    HW140115   4.486   0.512  14.924  0.0540 -0.5340  0.8759
 9551SOL    HW240116   4.609   0.577  14.961  1.4281  1.2963 -1.9697
 9552SOL     OW40117   4.081   2.200  10.687 -0.3951  0.1264  0.2709
 9552SOL    HW140118   4.042   2.169  10.768 -0.0407 -0.0701  0.3678
 9552SOL    HW240119   4.043   2.287  10.695  0.2671  0.3712  0.7509
 9553SOL     OW40120   0.443   0.222   6.085  0.2704  0.3852  0.1143
 9553SOL    HW140121   0.386   0.145   6.086  0.9243 -0.1197 -2.0757
 9553SOL    HW240122   0.389   0.284   6.037 -1.1556  0.3700  1.6941
 9554SOL     OW40123   0.325   4.652   6.769 -0.2390  0.2608 -0.1324
 9554SOL    HW140124   0.419   4.667   6.759 -0.0767 -0.9775 -0.4896
 9554SOL    HW240125   0.293   4.714   6.835  0.3530  1.2940 -0.8160
 9555SOL     OW40126   3.112   0.841   4.043  0.1136  0.3380  0.3897
 9555SOL    HW140127   3.028   0.799   4.023 -0.9502  2.5727  0.0839
 9555SOL    HW240128   3.169   0.782   3.994 -1.4160 -1.7038  1.0535
 9556SOL     OW40129   3.266   1.383   7.642  0.0302 -0.3755  0.4284
 9556SOL    HW140130   3.269   1.478   7.638  0.9595 -0.3849  0.9776
 9556SOL    HW240131   3.179   1.383   7.680 -0.1114  3.8809  0.0632
 9557SOL     OW40132   3.958   4.588   0.825 -0.0809  0.0043 -0.0052
 9557SOL    HW140133   3.990   4.646   0.756 -2.4180 -0.2731 -1.3148
 9557SOL    HW240134   3.920   4.647   0.890  1.6764  2.4914 -1.2306
 9558SOL     OW40135   0.709   3.113   0.816  0.3024 -0.7811  0.1050
 9558SOL    HW140136   0.707   3.190   0.759  4.1830 -1.7350 -1.2807
 9558SOL    HW240137   0.791   3.132   0.860  0.0155 -0.2254  0.4014
 9559SOL     OW40138   3.483   0.963   2.748 -0.0408  0.0690  0.0547
 9559SOL    HW140139   3.437   1.004   2.822  1.5084  1.2288  0.3655
 9559SOL    HW240140   3.535   0.889   2.781 -1.2330 -1.1016 -0.6609
 9560SOL     OW40141   2.309   1.822   4.548 -0.5271 -0.8579 -0.1739
 9560SOL    HW140142   2.220   1.831   4.580  0.1428  1.9702  0.8798
 9560SOL    HW240143   2.357   1.831   4.630 -0.8431  0.7318 -0.1583
 9561SOL     OW40144   1.130   0.963   3.244  0.1918  0.2000  0.2132
 9561SOL    HW140145   1.173   1.012   3.314  0.2419 -0.9507  0.9864
 9561SOL    HW240146   1.189   0.888   3.232  0.0691  0.1568 -0.1285
 9562SOL     OW40147   1.774   4.211   6.850 -0.0121  0.2438  0.7478
 9562SOL    HW140148   1.685   4.224   6.884  0.1156  0.9552  0.7975
 9562SOL    HW240149   1.806   4.300   6.862 -2.8528  1.7868 -3.2127
 9563SOL     OW40150   2.581   3.461   5.177 -0.5640 -0.2527 -0.6340
 9563SOL    HW140151   2.553   3.519   5.247  1.9587  2.0303 -1.4983
 9563SOL    HW240152   2.625   3.391   5.226 -2.5697  0.3558  1.9737
 9564SOL     OW40153   0.337   4.524  13.607  0.3429  0.3363  0.3715
 9564SOL    HW140154   0.245   4.497  13.615 -0.2539  1.9248 -0.9995
 9564SOL    HW240155   0.323   4.610  13.645 -1.4365 -0.5547  1.7503
 9565SOL     OW40156   2.906   2.743  12.282  0.2714 -0.7075 -0.1491
 9565SOL    HW140157   2.942   2.826  12.249  0.2031  0.5752  3.0160
 9565SOL    HW240158   2.976   2.683  12.255  0.5043 -0.5896  0.1982
 9566SOL     OW40159   4.425   0.737  16.477  0.1417 -0.0264 -0.0008
 9566SOL    HW140160   4.351   0.683  16.505  0.5293 -0.8514 -0.5441
 9566SOL    HW240161   4.500   0.691  16.515  0.3844  0.7300  0.4330
 9567SOL     OW40162   1.538   2.734   5.815 -0.0350  0.3142 -0.8225
 9567SOL    HW140163   1.488   2.702   5.891 -1.1916  1.9263 -0.8962
 9567SOL    HW240164   1.550   2.655   5.763 -1.3259 -0.8857  0.6750
 9568SOL     OW40165   1.385   0.256   3.034  0.5337  0.0145  0.3478
 9568SOL    HW140166   1.367   0.258   3.128  0.3714  3.1503  0.2280
 9568SOL    HW240167   1.475   0.224   3.032  0.6287  0.4826 -2.5141
   4.71771   4.71771  17.67412
