Membrane in water
40167
    1TCq1    O1    1   3.186   1.358  11.891 -0.3078 -0.4955  0.3116
    1TCq1    C1    2   3.149   1.304  11.777  0.1628  0.6745  0.4244
    1TCq1    O2    3   3.185   1.334  11.661  0.0482 -0.1932 -0.2844
    1TCq1    C2    4   3.016   1.248  11.791  0.5332  0.2829  0.5959
    1TCq1    C3    5   2.937   1.211  11.686  0.0809  0.3408  0.5512
    1TCq1    C4    6   2.808   1.160  11.704 -0.1932  0.5584 -0.8774
    1TCq1    C5    7   2.761   1.141  11.831 -0.8580  0.1069 -0.1770
    1TCq1    C6    8   2.842   1.179  11.931 -0.0697 -0.0052  0.2349
    1TCq1    C7    9   2.972   1.219  11.918  0.0872 -0.0522 -0.2746
    1TCq1    C8   10   2.783   1.172  12.060  0.1369  0.0377  0.3555
    1TCq1    O4   11   2.662   1.198  12.062 -0.3805 -0.6678 -0.8086
    1TCq1    C9   12   2.719   1.127  11.596  0.0316  0.0636  0.4180
    1TCq1    O5   13   2.597   1.103  11.630 -0.2795  0.5491  0.1377
    1TCq1    O6   14   2.758   1.113  11.475 -0.6508  0.6130 -0.4403
    1TCq1    H1   15   3.251   1.431  11.881 -0.8288  0.1528  1.6941
    1TCq1    H2   16   2.972   1.214  11.583  0.6785 -0.8256  0.7233
    1TCq1    H3   17   2.663   1.097  11.850 -2.0063  3.3926  1.5250
    1TCq1    H4   18   3.035   1.237  12.005 -1.9596 -1.7176  1.5176
    2MPD2     C   19   2.778   0.954  12.519 -0.2130  0.4920  0.2154
    2MPD2    C1   20   2.678   1.025  12.450 -0.4131 -0.3139 -0.2906
    2MPD2    C2   21   2.712   1.094  12.336  0.1628  0.9666  0.0453
    2MPD2    C3   22   2.834   1.079  12.280  0.3403 -0.3171  0.4610
    2MPD2    C4   23   2.926   1.006  12.343  1.0246 -0.1827 -0.0846
    2MPD2    C5   24   2.900   0.951  12.467  0.1792  0.0633  0.9155
    2MPD2     H   25   2.633   1.137  12.276  0.3420  0.1145 -0.8062
    2MPD2    H1   26   3.026   0.997  12.303  0.4298  0.7224 -1.7425
    2MPD2    H2   27   2.755   0.902  12.612  1.1979 -2.1218 -0.9092
    2MPD2    H3   28   2.976   0.892  12.517 -0.2847 -1.9201 -0.7222
    2MPD2     N   29   2.873   1.117  12.154 -0.0700  0.4155 -0.5712
    2MPD2    H5   30   2.960   1.078  12.118 -0.5040 -0.4930 -0.6219
    2MPD2    N1   31   2.542   1.038  12.494  0.5555  0.7392 -0.3288
    2MPD2    H7   32   2.483   1.099  12.438 -0.2789  1.3810  1.2493
    3TCq1    O1   33   2.892   1.124  10.529 -0.3643 -0.0892 -0.2910
    3TCq1    C1   34   2.762   1.102  10.523  0.0155 -0.1443  0.3339
    3TCq1    O2   35   2.703   1.036  10.442 -0.1435  0.3323  0.0173
    3TCq1    C2   36   2.711   1.230  10.561  0.0738 -0.6495 -0.2088
    3TCq1    C3   37   2.766   1.345  10.494 -0.0542 -0.4579 -0.7243
    3TCq1    C4   38   2.695   1.458  10.507  0.4852 -0.0446 -0.2298
    3TCq1    C5   39   2.574   1.470  10.569  0.6167 -0.3380 -0.5433
    3TCq1    C6   40   2.520   1.352  10.615 -0.3559 -1.0419 -0.2993
    3TCq1    C7   41   2.585   1.235  10.621 -0.1620 -0.5383  0.1478
    3TCq1    C8   42   2.373   1.344  10.641 -0.5765  0.2644  0.3658
    3TCq1    O4   43   2.325   1.232  10.643 -0.2057  0.2756 -0.2781
    3TCq1    C9   44   2.749   1.577  10.455  0.3977 -0.2325  0.5663
    3TCq1    O5   45   2.872   1.574  10.429  1.0028 -0.0247 -0.1363
    3TCq1    O6   46   2.677   1.670  10.416  0.1482  0.0698  0.1258
    3TCq1    H1   47   2.912   1.199  10.589  0.6215 -0.6398  0.0681
    3TCq1    H2   48   2.863   1.345  10.445 -0.5410  0.6525 -1.6784
    3TCq1    H3   49   2.514   1.560  10.564  0.5697 -0.1705  2.7367
    3TCq1    H4   50   2.539   1.137  10.633 -2.2604  0.5480  0.9726
    4MPD2     C   51   1.972   1.572  10.851  0.5104 -0.2142  0.6097
    4MPD2    C1   52   2.075   1.663  10.851  0.8132  0.2745  0.6951
    4MPD2    C2   53   2.191   1.621  10.795  0.4181  1.0628  0.2688
    4MPD2    C3   54   2.205   1.496  10.741 -0.0955  0.0158 -0.0324
    4MPD2    C4   55   2.111   1.395  10.758  0.7779  0.7752  0.6161
    4MPD2    C5   56   2.000   1.437  10.830 -0.3555 -0.3320 -0.2502
    4MPD2     H   57   2.275   1.688  10.784  1.0451 -0.2026 -2.6746
    4MPD2    H1   58   2.126   1.293  10.726 -2.7662  0.3772  0.1622
    4MPD2    H2   59   1.882   1.591  10.909  0.1761  2.4232 -0.7835
    4MPD2    H3   60   1.929   1.359  10.856 -0.0709 -0.8540 -1.0465
    4MPD2     N   61   2.321   1.472  10.671  0.3469 -0.6165 -0.2651
    4MPD2    H5   62   2.382   1.551  10.653 -1.2334  0.8622  0.8154
    4MPD2    N1   63   2.066   1.792  10.899 -0.2565 -0.4057 -0.1121
    4MPD2    H7   64   2.154   1.839  10.918 -1.2506  0.9275  1.2262
    5TCq1    O1   65   2.952   3.198  12.736 -0.1550 -0.1322 -0.6425
    5TCq1    C1   66   3.025   3.202  12.620  0.1381  0.0718 -0.7633
    5TCq1    O2   67   3.111   3.126  12.589  0.3116 -0.0278 -0.0240
    5TCq1    C2   68   2.936   3.262  12.528  0.5894 -0.7757 -0.2816
    5TCq1    C3   69   2.880   3.382  12.565 -0.5312 -0.3633 -0.6899
    5TCq1    C4   70   2.809   3.445  12.467  0.4910  1.0188 -0.8201
    5TCq1    C5   71   2.793   3.394  12.343  0.8177 -0.0608  0.0236
    5TCq1    C6   72   2.848   3.268  12.313 -0.3967 -0.1879  0.7695
    5TCq1    C7   73   2.921   3.202  12.414  0.2988 -0.1725  0.0505
    5TCq1    C8   74   2.825   3.211  12.179  0.1089 -0.0539  0.0559
    5TCq1    O4   75   2.914   3.139  12.136  0.9882  0.6727  0.2973
    5TCq1    C9   76   2.739   3.567  12.506 -0.0754 -0.0304  0.0080
    5TCq1    O5   77   2.637   3.599  12.442 -0.2627  0.3560  0.3512
    5TCq1    O6   78   2.796   3.629  12.598 -0.6311 -0.0645  0.1076
    5TCq1    H1   79   2.863   3.240  12.733 -1.0271 -2.0436 -1.4964
    5TCq1    H2   80   2.904   3.429  12.660  2.4472 -1.6290 -0.7949
    5TCq1    H3   81   2.742   3.440  12.259 -1.3614 -2.9538 -0.2467
    5TCq1    H4   82   2.965   3.108  12.383 -2.2623 -1.4404  0.2830
    6MPD2     C   83   2.548   3.288  11.952 -0.0485 -0.1822  0.3175
    6MPD2    C1   84   2.656   3.211  12.003 -0.3976  1.0051  0.1354
    6MPD2    C2   85   2.723   3.117  11.928 -0.2105 -0.4483 -0.8998
    6MPD2    C3   86   2.675   3.081  11.807  0.9533 -0.5713 -0.4187
    6MPD2    C4   87   2.567   3.144  11.759  0.7088  0.8738 -0.3136
    6MPD2    C5   88   2.506   3.244  11.828 -0.2960  0.1596 -0.0675
    6MPD2     H   89   2.819   3.074  11.955 -0.4980  0.2735  1.3114
    6MPD2    H1   90   2.516   3.122  11.666  2.2649  1.4931 -1.3132
    6MPD2    H2   91   2.488   3.365  11.999 -3.0637 -0.6556 -2.7498
    6MPD2    H3   92   2.426   3.298  11.778 -1.7914 -0.5267  1.5948
    6MPD2     N   93   2.734   2.970  11.746  0.5797  0.4733  0.5634
    6MPD2    H5   94   2.809   2.928  11.799 -0.3549 -0.0500  1.4822
    6MPD2    N1   95   2.698   3.241  12.134  0.0628  0.8852 -0.3776
    6MPD2    H7   96   2.630   3.280  12.199  1.3225 -0.2074  1.6066
    7TCq1    O1   97   4.177   2.542  13.767 -0.8601  0.2023 -0.2516
    7TCq1    C1   98   4.223   2.612  13.664 -0.5222  0.5952  0.0727
    7TCq1    O2   99   4.238   2.730  13.675  0.1997 -0.0116  0.1043
    7TCq1    C2  100   4.307   2.518  13.596  0.1231  0.3616 -0.5712
    7TCq1    C3  101   4.254   2.404  13.552 -0.4194 -0.4918  1.2457
    7TCq1    C4  102   4.345   2.311  13.510  0.5336 -0.0798 -0.7231
    7TCq1    C5  103   4.482   2.336  13.532  0.4044  0.8534 -0.0943
    7TCq1    C6  104   4.525   2.453  13.594 -0.1286  0.7696  0.2378
    7TCq1    C7  105   4.432   2.544  13.632 -0.0366  0.1082 -0.1860
    7TCq1    C8  106   4.665   2.465  13.632 -0.5857 -0.7618  0.2046
    7TCq1    O4  107   4.720   2.360  13.618  0.2513  0.2048 -0.1164
    7TCq1    C9  108   4.307   2.184  13.456  0.2115  0.2710 -0.6090
    7TCq1    O5  109   4.396   2.116  13.399  0.2658  0.2679  1.4001
    7TCq1    O6  110   4.181   2.155  13.461  0.0747 -0.5136  0.1258
    7TCq1    H1  111   4.181   2.445  13.757  2.0444  0.1273  1.7515
    7TCq1    H2  112   4.149   2.380  13.559 -0.3389 -0.4785  2.4594
    7TCq1    H3  113   4.555   2.264  13.499 -0.2053 -0.1235  0.7069
    7TCq1    H4  114   4.455   2.637  13.684 -2.5576 -0.4732  1.8960
    8MPD2     C  115   0.335   2.647  13.897 -0.0356  0.1901  0.9031
    8MPD2    C1  116   0.279   2.517  13.894 -0.8463 -0.2910  0.1324
    8MPD2    C2  117   0.171   2.489  13.811  0.0178 -0.7771  0.2193
    8MPD2    C3  118   0.109   2.596  13.746 -0.1858  0.0480 -0.4614
    8MPD2    C4  119   0.159   2.727  13.768 -1.0749  0.3340 -0.0388
    8MPD2    C5  120   0.275   2.755  13.842  0.1362  0.2440  0.3810
    8MPD2     H  121   0.134   2.388  13.797 -2.5482  0.2742 -0.5106
    8MPD2    H1  122   0.125   2.820  13.725 -0.4734  0.4568 -0.2572
    8MPD2    H2  123   0.422   2.671  13.956  0.6579  0.9589 -0.4271
    8MPD2    H3  124   0.315   2.856  13.843  2.1136 -0.5211  0.0885
    8MPD2     N  125   4.710   2.586  13.673  0.2064 -0.7228  0.6267
    8MPD2    H5  126   4.659   2.668  13.639  1.7894 -1.1560 -2.8249
    8MPD2    N1  127   0.331   2.416  13.979  0.1524  0.0419 -0.1460
    8MPD2    H7  128   0.402   2.448  14.044 -1.5559  2.1425  0.6579
    9TCq1    O1  129   2.924   1.373  10.882  0.5496 -0.5153  0.6468
    9TCq1    C1  130   3.010   1.362  10.777 -0.3684 -0.4064  0.0310
    9TCq1    O2  131   3.010   1.281  10.686  0.2209 -0.2225 -0.0780
    9TCq1    C2  132   3.130   1.432  10.813  0.2851 -0.1635 -0.1545
    9TCq1    C3  133   3.246   1.385  10.751  0.5800 -0.3736  0.0724
    9TCq1    C4  134   3.356   1.460  10.774  0.3020  0.2377 -0.0133
    9TCq1    C5  135   3.360   1.575  10.854  0.1402  0.0196  0.1339
    9TCq1    C6  136   3.245   1.611  10.909  0.4276  0.1796 -1.0295
    9TCq1    C7  137   3.127   1.546  10.890  0.3350  0.0431  1.1746
    9TCq1    C8  138   3.254   1.712  11.010 -0.0266  0.6560 -0.2010
    9TCq1    O4  139   3.340   1.799  11.006 -0.2799  0.1077 -0.1734
    9TCq1    C9  140   3.484   1.429  10.718  0.3783 -0.3572  0.1922
    9TCq1    O5  141   3.585   1.440  10.789  0.4397  0.1107 -0.3678
    9TCq1    O6  142   3.486   1.370  10.607 -0.1982  0.1081  0.9572
    9TCq1    H1  143   2.970   1.408  10.961  0.8329  0.1786  0.1697
    9TCq1    H2  144   3.254   1.289  10.703 -0.1944 -0.1173 -0.5741
    9TCq1    H3  145   3.447   1.637  10.870 -0.2431  0.8868 -1.1217
    9TCq1    H4  146   3.033   1.588  10.926  0.6449  0.0049  2.0157
   10MPD2     C  147   3.209   1.875  11.248  0.7766  0.3276  0.3119
   10MPD2    C1  148   3.137   1.764  11.219  0.2991 -0.0312 -0.3122
   10MPD2    C2  149   3.054   1.715  11.314  0.2114 -0.5533 -1.0798
   10MPD2    C3  150   3.029   1.783  11.433 -0.8369  0.1427  0.0946
   10MPD2    C4  151   3.094   1.904  11.451 -0.7928  0.0809  0.0224
   10MPD2    C5  152   3.190   1.948  11.361 -0.0790  0.4036 -0.6136
   10MPD2     H  153   2.994   1.629  11.288  0.2473 -0.9858  0.2630
   10MPD2    H1  154   3.078   1.968  11.537 -0.9882  0.9269 -0.6435
   10MPD2    H2  155   3.281   1.916  11.177  0.1536  1.5800  0.4109
   10MPD2    H3  156   3.222   2.051  11.374  0.4735  0.3327 -1.4244
   10MPD2     N  157   2.936   1.729  11.533 -0.4294 -0.2046  0.3129
   10MPD2    H5  158   2.925   1.777  11.622  2.2099  1.0288 -0.0230
   10MPD2    N1  159   3.162   1.691  11.105 -0.3600 -0.1083 -0.0763
   10MPD2    H7  160   3.116   1.602  11.087 -0.0566 -0.4240  0.6917
   11TCq1    O1  161   4.369   1.511  14.271 -0.3552 -0.6228  0.2134
   11TCq1    C1  162   4.240   1.467  14.274  0.0127  0.3073 -0.2643
   11TCq1    O2  163   4.201   1.357  14.240 -0.1712  0.4655  0.1662
   11TCq1    C2  164   4.181   1.556  14.367 -0.4345  0.3200  0.1823
   11TCq1    C3  165   4.265   1.595  14.474 -0.2175  0.0744  0.4455
   11TCq1    C4  166   4.205   1.679  14.565  0.3329  0.0462  0.2523
   11TCq1    C5  167   4.072   1.709  14.552  0.3607  0.0745  0.7289
   11TCq1    C6  168   3.993   1.655  14.454  0.2854  0.3153 -0.0818
   11TCq1    C7  169   4.048   1.575  14.357 -0.5495  0.4657 -0.2166
   11TCq1    C8  170   3.856   1.694  14.437  0.5037  0.0040  0.1761
   11TCq1    O4  171   3.841   1.807  14.483 -0.4870 -0.1230  0.0009
   11TCq1    C9  172   4.276   1.738  14.673  0.7824  0.3502  0.3537
   11TCq1    O5  173   4.235   1.853  14.704  0.5194 -0.3055 -0.5516
   11TCq1    O6  174   4.392   1.698  14.697  0.2168 -0.1975  0.0860
   11TCq1    H1  175   4.377   1.607  14.288 -2.9359 -0.3978  0.1401
   11TCq1    H2  176   4.371   1.578  14.482 -0.2809  0.3080  1.7600
   11TCq1    H3  177   4.016   1.775  14.619 -0.3812 -1.7960  1.9504
   11TCq1    H4  178   3.993   1.543  14.270  0.9090 -1.2561 -0.5025
   12MPD2     C  179   3.575   1.765  14.384  0.0544  0.1200  0.0985
   12MPD2    C1  180   3.626   1.632  14.360  0.0532  0.0348 -0.0862
   12MPD2    C2  181   3.549   1.539  14.304  0.1493 -0.2192 -0.3902
   12MPD2    C3  182   3.416   1.566  14.276 -0.3512 -0.3566 -0.3385
   12MPD2    C4  183   3.358   1.686  14.311  0.3661 -0.5103 -0.5296
   12MPD2    C5  184   3.439   1.787  14.371 -0.1860  0.6610  0.7711
   12MPD2     H  185   3.586   1.441  14.278 -1.7208 -1.5658  2.0611
   12MPD2    H1  186   3.255   1.709  14.285 -0.3873 -1.2312  1.8352
   12MPD2    H2  187   3.643   1.845  14.412 -0.3867  1.6568 -3.1661
   12MPD2    H3  188   3.402   1.885  14.399  1.3001  1.2329  0.7604
   12MPD2     N  189   3.346   1.456  14.223 -0.1336 -0.3802  0.2372
   12MPD2    H5  190   3.396   1.368  14.217 -1.2230 -1.0155  0.5592
   12MPD2    N1  191   3.765   1.608  14.381  0.1074  0.2039 -0.4170
   12MPD2    H7  192   3.795   1.512  14.366 -1.7679 -0.5206  0.4135
   13TCq1    O1  193   3.549   1.364  11.045  0.0676 -0.1234 -0.1814
   13TCq1    C1  194   3.481   1.272  11.109 -0.2266  0.1804  0.3825
   13TCq1    O2  195   3.434   1.278  11.225  0.4278 -0.3365  0.1596
   13TCq1    C2  196   3.419   1.194  11.010  1.1396  0.1588  0.5135
   13TCq1    C3  197   3.489   1.151  10.905  0.0229 -0.2185 -0.8311
   13TCq1    C4  198   3.428   1.070  10.811  0.3487 -0.1044 -0.3274
   13TCq1    C5  199   3.303   1.022  10.822  0.0711 -0.3224 -0.3577
   13TCq1    C6  200   3.226   1.073  10.933  0.2147 -0.6931 -0.3353
   13TCq1    C7  201   3.284   1.161  11.021 -0.1466  0.4217 -0.4890
   13TCq1    C8  202   3.079   1.051  10.938 -0.9094 -0.7941 -0.4139
   13TCq1    O4  203   3.019   1.111  11.025  0.1152 -0.1402 -0.4681
   13TCq1    C9  204   3.508   1.031  10.696  0.7245  0.5618 -0.8642
   13TCq1    O5  205   3.452   0.981  10.594  0.0626 -0.0058  0.2156
   13TCq1    O6  206   3.614   1.092  10.695 -0.4100 -0.2180 -0.1852
   13TCq1    H1  207   3.544   1.369  10.948  0.2361  1.2035 -0.1185
   13TCq1    H2  208   3.596   1.168  10.905  0.2926 -1.8935  0.4972
   13TCq1    H3  209   3.271   0.957  10.741  3.0371 -0.1211 -1.6864
   13TCq1    H4  210   3.228   1.217  11.095 -1.5484 -1.1175 -0.3807
   14MPD2     C  211   2.904   0.823  10.704 -0.4535 -0.3385  0.6916
   14MPD2    C1  212   2.917   0.915  10.805  0.6621  0.0956  0.3614
   14MPD2    C2  213   2.807   0.964  10.868 -0.0639  0.0705  0.0908
   14MPD2    C3  214   2.680   0.918  10.830  0.0587  0.0381  0.0420
   14MPD2    C4  215   2.666   0.824  10.727  0.2805  0.0239 -0.3172
   14MPD2    C5  216   2.782   0.780  10.662 -0.1834  0.2681 -0.1296
   14MPD2     H  217   2.816   1.025  10.958 -0.3512 -0.6306  0.5989
   14MPD2    H1  218   2.576   0.798  10.674  0.6658 -1.9520  0.0205
   14MPD2    H2  219   2.991   0.791  10.647  0.5788  2.7555  0.4946
   14MPD2    H3  220   2.771   0.705  10.584  0.7200  0.4873 -0.4734
   14MPD2     N  221   2.571   0.969  10.903  0.4268 -0.0247 -0.7693
   14MPD2    H5  222   2.578   1.052  10.960  0.9899  1.2661 -2.7067
   14MPD2    N1  223   3.046   0.957  10.841  0.5947  0.3586  0.2706
   14MPD2    H7  224   3.123   0.904  10.802 -0.4214  0.1303 -1.4261
   15TCq1    O1  225   3.237   0.570   1.884  0.2931 -0.0860  0.0056
   15TCq1    C1  226   3.349   0.611   1.820 -0.3038 -0.4326  0.1093
   15TCq1    O2  227   3.349   0.651   1.704  0.6974  0.0404 -0.2084
   15TCq1    C2  228   3.456   0.524   1.868 -0.3420 -0.1518  0.8083
   15TCq1    C3  229   3.480   0.510   2.000 -0.6406  0.2103 -0.2385
   15TCq1    C4  230   3.600   0.449   2.031 -0.1659 -0.3617  0.6329
   15TCq1    C5  231   3.681   0.393   1.939  0.1955  0.3939  0.0691
   15TCq1    C6  232   3.646   0.408   1.810  0.1871 -0.1473  0.1173
   15TCq1    C7  233   3.540   0.482   1.769 -0.4104 -0.4724 -0.0126
   15TCq1    C8  234   3.739   0.348   1.707 -0.1236  0.8817  0.4751
   15TCq1    O4  235   3.822   0.269   1.747 -0.3816  0.1623 -0.5025
   15TCq1    C9  236   3.636   0.429   2.168  1.0351 -0.3089 -0.1320
   15TCq1    O5  237   3.759   0.402   2.189 -0.4323 -0.1096 -0.0089
   15TCq1    O6  238   3.562   0.481   2.257 -0.0044 -0.3942  0.3803
   15TCq1    H1  239   3.249   0.501   1.953 -0.5431  0.8720  1.1075
   15TCq1    H2  240   3.415   0.546   2.079  1.1617 -1.2727  1.9286
   15TCq1    H3  241   3.772   0.343   1.971 -0.8042 -0.6733  1.2295
   15TCq1    H4  242   3.506   0.494   1.666 -1.1238  0.1071  0.2950
   16MPD2     C  243   3.773   0.422   1.340  0.0137  0.0108 -0.1238
   16MPD2    C1  244   3.810   0.373   1.469 -0.5040 -0.7322  0.4218
   16MPD2    C2  245   3.931   0.302   1.471  0.2288  0.5026 -0.0565
   16MPD2    C3  246   4.000   0.272   1.351 -0.4769  0.1315  0.0505
   16MPD2    C4  247   3.944   0.315   1.236 -0.5540 -0.3954 -0.7629
   16MPD2    C5  248   3.833   0.391   1.225  0.6778 -0.2100 -0.0311
   16MPD2     H  249   3.980   0.263   1.559 -0.1739  0.8074  0.2999
   16MPD2    H1  250   4.004   0.311   1.145 -0.4436  1.5101 -0.7685
   16MPD2    H2  251   3.686   0.487   1.339  0.0017 -0.0063 -0.1799
   16MPD2    H3  252   3.794   0.430   1.132  0.6857 -0.1988 -0.0297
   16MPD2     N  253   4.119   0.195   1.350  0.3969 -0.6994 -0.1693
   16MPD2    H5  254   4.168   0.192   1.439 -1.2235 -0.5890  0.7157
   16MPD2    N1  255   3.732   0.407   1.584 -0.5437 -0.1912  0.4239
   16MPD2    H7  256   3.658   0.476   1.574 -0.2481  0.2510  1.2626
   17TCq1    O1  257   2.481   0.853  12.066 -0.3326  0.0997  0.1911
   17TCq1    C1  258   2.602   0.824  12.122 -0.1195  0.0930  0.7633
   17TCq1    O2  259   2.612   0.770  12.231  0.3657  0.3870  0.3276
   17TCq1    C2  260   2.686   0.781  12.016  0.5390  0.3191  0.7480
   17TCq1    C3  261   2.634   0.770  11.888 -0.1701  0.8172 -0.1696
   17TCq1    C4  262   2.712   0.791  11.779  0.4346  0.0608 -0.2318
   17TCq1    C5  263   2.841   0.829  11.796 -0.0668  0.6440  0.0708
   17TCq1    C6  264   2.889   0.845  11.921 -0.0227 -0.0212  0.7920
   17TCq1    C7  265   2.813   0.818  12.030  0.2799  0.1725  0.7321
   17TCq1    C8  266   3.023   0.882  11.943  0.2237  0.2170 -0.6608
   17TCq1    O4  267   3.056   0.927  12.052  0.1614  0.0386  0.2603
   17TCq1    C9  268   2.659   0.779  11.648  0.6128 -0.1564 -0.6724
   17TCq1    O5  269   2.745   0.777  11.554 -0.1289 -0.3013  0.2465
   17TCq1    O6  270   2.532   0.772  11.636  0.0527  0.5448 -0.4499
   17TCq1    H1  271   2.478   0.880  11.972 -1.0159  0.3920  0.2977
   17TCq1    H2  272   2.535   0.727  11.871  0.6080 -1.2370  0.5499
   17TCq1    H3  273   2.897   0.854  11.707 -0.4626 -1.2391 -0.7122
   17TCq1    H4  274   2.845   0.840  12.131  1.3798 -0.5930  0.5503
   18MPD2     C  275   3.271   1.023  11.889  0.2798  0.2460 -0.6988
   18MPD2    C1  276   3.210   0.947  11.800 -0.2070 -0.0641 -0.4740
   18MPD2    C2  277   3.272   0.926  11.676 -0.5188 -0.0996  0.2336
   18MPD2    C3  278   3.390   0.997  11.645  0.1608  0.2590 -0.3934
   18MPD2    C4  279   3.452   1.083  11.737  0.4096  0.5814  0.9047
   18MPD2    C5  280   3.394   1.091  11.860 -0.2390 -0.4331  0.4839
   18MPD2     H  281   3.224   0.856  11.609  1.5667 -0.5025 -0.8238
   18MPD2    H1  282   3.549   1.129  11.719  1.0861 -1.3631 -0.3342
   18MPD2    H2  283   3.225   1.035  11.986 -0.4884  1.3507 -1.1942
   18MPD2    H3  284   3.445   1.138  11.944  0.3929  0.7210 -0.5431
   18MPD2     N  285   3.461   0.971  11.526  0.5688 -0.0729  0.3922
   18MPD2    H5  286   3.545   1.028  11.518  0.9599 -1.0979 -2.8619
   18MPD2    N1  287   3.088   0.889  11.827  0.2783  0.8917  0.2891
   18MPD2    H7  288   3.045   0.852  11.743 -3.3589  2.6290  1.4187
   19TMC2    C1  289   0.136   1.106  14.279 -0.3400  0.4203 -0.1147
   19TMC2    C2  290   0.159   1.152  14.149 -0.3300  0.6622  0.1762
   19TMC2    C3  291   0.046   1.138  14.068 -0.1442  0.2860 -0.7896
   19TMC2    C4  292   0.020   1.056  14.321 -0.1521  0.4117  0.4526
   19TMC2    C5  293   4.639   1.038  14.237 -0.1989 -0.0592 -0.3807
   19TMC2    C6  294   4.650   1.083  14.105  0.1285  0.2542  0.0027
   19TMC2     C  295   0.252   1.114  14.379 -0.4141 -0.5309  0.5799
   19TMC2     O  296   0.363   1.105  14.330 -0.1630 -0.0983  0.5060
   19TMC2     H  297   0.250   1.201  14.119 -0.6385  0.1123 -1.6783
   19TMC2    H1  298   0.008   1.013  14.420 -2.1743 -1.5560 -0.6541
   19TMC2    H2  299   4.567   1.077  14.036 -0.3341 -1.5232  0.7080
   19TMC2    C7  300   4.507   1.006  14.280  0.3221 -0.6953 -0.5220
   19TMC2    C8  301   0.052   1.199  13.934 -0.1230  0.3088  0.5644
   19TMC2    O1  302   4.417   0.978  14.200  0.1235 -0.0104 -0.2376
   19TMC2    O2  303   4.714   1.149  13.838  0.9443  0.1415 -0.3246
   19TMC2    O5  304   0.140   1.302  13.931 -0.2075 -0.8450 -0.7455
   19TMC2    H5  305   0.161   1.338  14.020 -1.9985  2.3439 -1.6144
   20MPD2     C  306   0.428   1.101  14.626 -0.3629 -0.1506  0.8478
   20MPD2    C1  307   0.289   1.112  14.630 -0.3524  0.1709  0.2626
   20MPD2    C2  308   0.227   1.144  14.746 -0.1535  0.2218  0.0758
   20MPD2    C3  309   0.290   1.151  14.862 -0.5641 -0.0256  0.0584
   20MPD2    C4  310   0.424   1.126  14.865  0.6245  0.5229 -0.5422
   20MPD2    C5  311   0.491   1.103  14.749 -0.4712  0.0064 -0.6153
   20MPD2     H  312   0.118   1.149  14.749 -0.1594 -0.5772  1.1780
   20MPD2    H1  313   0.487   1.139  14.952 -1.9855 -0.9034  1.5648
   20MPD2    H2  314   0.493   1.093  14.540  1.1280 -0.8392  2.0534
   20MPD2    H3  315   0.598   1.086  14.757 -0.6837 -0.4953  1.0858
   20MPD2     N  316   0.218   1.151  14.983  0.1331 -0.1974  0.0403
   20MPD2    H5  317   0.276   1.165  15.065 -0.7418 -0.6606  0.7366
   20MPD2    N1  318   0.211   1.113  14.509 -0.1534  0.2964  0.4545
   20MPD2    H7  319   0.113   1.132  14.526 -0.1510  1.9171 -1.3311
   21MPD2     C  320   1.922   2.418  14.910  0.1873 -0.2315  0.2523
   21MPD2    C1  321   1.953   2.330  15.011  0.5936 -0.3209 -0.0718
   21MPD2    C2  322   1.851   2.273  15.095 -0.4571  0.2041  0.3971
   21MPD2    C3  323   1.724   2.314  15.088 -0.4691 -0.0852 -0.8046
   21MPD2    C4  324   1.697   2.412  14.988  0.4368 -0.5326  0.6654
   21MPD2    C5  325   1.785   2.451  14.894  0.4895  0.5370 -0.0557
   21MPD2     H  326   1.883   2.195  15.164 -3.2524  0.7370  2.2881
   21MPD2    H1  327   1.599   2.453  14.968  0.8770 -1.2229 -3.0196
   21MPD2    H2  328   2.002   2.450  14.844  0.3326  1.8585  1.4243
   21MPD2    H3  329   1.759   2.521  14.816 -0.6112 -0.1472 -0.2968
   21MPD2     N  330   1.624   2.290  15.190 -0.4194 -0.7918 -0.0660
   21MPD2    H5  331   1.539   2.345  15.181 -1.4547 -2.5595 -1.0951
   21MPD2    N1  332   2.083   2.286  15.035 -0.4719 -0.1804  0.2435
   21MPD2    H7  333   2.089   2.227  15.118  1.1435 -0.4621 -0.0791
   22TCq2    C1  334   1.634   2.207  15.303  0.1463  0.6350 -0.8868
   22TCq2    O2  335   1.729   2.144  15.348 -0.6234  0.3615 -0.0714
   22TCq2    C2  336   1.507   2.195  15.371  0.5929  0.4428 -1.0266
   22TCq2    C3  337   1.503   2.147  15.503  0.0090 -0.1670  0.0546
   22TCq2    C4  338   1.399   2.179  15.580 -0.1885  0.8048  0.2231
   22TCq2    C5  339   1.290   2.251  15.536  0.0453 -0.0179  1.1792
   22TCq2    C6  340   1.299   2.310  15.412 -0.3056 -0.3895  0.2853
   22TCq2    C7  341   1.402   2.278  15.330  0.7410 -1.3763  0.1775
   22TCq2    C8  342   1.179   2.360  15.352 -0.7627 -0.3992 -0.3875
   22TCq2    O4  343   1.081   2.291  15.376  0.1990 -0.4747  0.2206
   22TCq2    C9  344   1.393   2.135  15.719  0.0260  0.5241  0.1432
   22TCq2    O5  345   1.298   2.180  15.788  0.2422  0.1431  0.3992
   22TCq2    O6  346   1.499   2.084  15.770  0.0503 -0.6800  0.2787
   22TCq2    H2  347   1.589   2.093  15.542  0.0174  1.0081  1.6516
   22TCq2    H3  348   1.226   2.294  15.613 -0.2790  0.5715  0.5778
   22TCq2    H4  349   1.397   2.310  15.227 -1.1700 -1.7327  0.1420
   23MPD2     C  350   3.477   2.557  14.341 -0.1225  0.1249 -0.7265
   23MPD2    C1  351   3.449   2.602  14.470  0.3826  0.7558  1.0419
   23MPD2    C2  352   3.371   2.719  14.486 -0.4558 -0.4679 -0.0127
   23MPD2    C3  353   3.331   2.785  14.372  0.3665 -0.0674  0.3018
   23MPD2    C4  354   3.365   2.743  14.245 -0.2735  0.2596  0.2148
   23MPD2    C5  355   3.438   2.628  14.229  0.1784  0.2509 -0.3763
   23MPD2     H  356   3.346   2.750  14.586 -1.8861  2.1207 -1.1685
   23MPD2    H1  357   3.348   2.801  14.155  0.1919 -0.5759 -0.4165
   23MPD2    H2  358   3.553   2.481  14.329 -0.1969  0.0290 -0.5972
   23MPD2    H3  359   3.468   2.601  14.128  0.1233  1.1032 -0.6181
   23MPD2     N  360   3.241   2.890  14.370  0.4928 -0.2208 -0.2011
   23MPD2    H5  361   3.210   2.927  14.281  0.7865 -2.3846 -1.1997
   23MPD2    N1  362   3.490   2.544  14.589 -0.4365  0.4998 -0.7180
   23MPD2    H7  363   3.471   2.597  14.674  0.5271 -1.4182  0.6809
   24TCq2    C1  364   3.185   2.943  14.479 -0.0398  1.0381 -0.3363
   24TCq2    O2  365   3.220   2.938  14.595  0.3634 -0.3532  0.5449
   24TCq2    C2  366   3.054   3.008  14.462  0.5836  0.2026  0.0365
   24TCq2    C3  367   2.976   3.000  14.341  1.0906  0.0610 -0.1070
   24TCq2    C4  368   2.842   3.028  14.345  0.7008  0.4049  0.1479
   24TCq2    C5  369   2.782   3.049  14.464 -0.1519  0.1609 -0.5212
   24TCq2    C6  370   2.853   3.063  14.579  0.4931  0.3038 -0.2310
   24TCq2    C7  371   2.990   3.046  14.579  0.5153  0.0588 -0.6562
   24TCq2    C8  372   2.787   3.003  14.694 -1.6168 -0.3456  0.0830
   24TCq2    O4  373   2.863   2.929  14.756  0.4825 -0.2587  0.2753
   24TCq2    C9  374   2.764   3.026  14.220 -0.1017 -0.1609 -0.4148
   24TCq2    O5  375   2.827   3.033  14.114 -0.5030 -0.6419  0.2925
   24TCq2    O6  376   2.646   2.992  14.235 -0.8008  0.1602 -0.2102
   24TCq2    H2  377   3.013   2.955  14.250  0.3567  0.1612 -0.4554
   24TCq2    H3  378   2.674   3.061  14.462  0.1490  2.9439 -0.2849
   24TCq2    H4  379   3.051   3.060  14.667  0.4153 -1.0001 -0.4125
   25TMC2    C1  380   2.073   0.008  11.852 -0.8243 -0.2964  0.5028
   25TMC2    C2  381   2.187   0.072  11.813  0.6199  0.0828  0.0415
   25TMC2    C3  382   2.176   0.205  11.804  0.5383  0.1295 -0.1624
   25TMC2    C4  383   1.960   0.073  11.903 -0.4411 -0.5930 -0.9843
   25TMC2    C5  384   1.970   0.209  11.913  0.5604 -0.3519 -0.4114
   25TMC2    C6  385   2.067   0.277  11.854 -0.0067 -0.8668 -0.7247
   25TMC2     C  386   2.086   4.587  11.834 -0.3075  0.3108  0.5533
   25TMC2     O  387   2.196   4.541  11.813 -0.3688 -0.0408 -0.0865
   25TMC2     H  388   2.278   0.026  11.775  0.3654 -1.0235  0.7673
   25TMC2    H1  389   1.876   0.016  11.939  1.1339 -0.6222  2.6474
   25TMC2    H2  390   2.089   0.380  11.879  1.4707 -1.2850 -0.3092
   25TMC2    C7  391   1.863   0.274  11.980 -0.3659  0.8108 -0.5161
   25TMC2    C8  392   2.301   0.272  11.774  0.0784  0.1869 -0.3294
   25TMC2    O1  393   1.804   0.201  12.054 -0.5186 -0.0747 -0.4057
   25TMC2    O2  394   2.405   0.237  11.830 -0.0384 -0.0906 -0.5273
   25TMC2    O5  395   2.278   0.399  11.745  0.3420  0.4116 -0.1383
   25TMC2    H5  396   2.192   0.412  11.701 -0.1503  1.1700  1.0417
   26MPD2     C  397   1.871   4.133  11.783  0.4754 -0.3576  0.1771
   26MPD2    C1  398   1.777   4.229  11.799 -1.5544 -0.1724 -0.2352
   26MPD2    C2  399   1.809   4.359  11.815 -0.5456  0.0150 -0.5256
   26MPD2    C3  400   1.938   4.398  11.826 -0.3888 -0.3797 -0.4355
   26MPD2    C4  401   2.035   4.305  11.825 -0.3573  0.0264 -0.0998
   26MPD2    C5  402   2.001   4.177  11.807 -0.1416  0.2164  0.4967
   26MPD2     H  403   1.725   4.427  11.822  0.0294  0.6963 -0.3088
   26MPD2    H1  404   2.140   4.324  11.847 -0.9430  3.1707  0.0390
   26MPD2    H2  405   1.859   4.026  11.771 -1.5526 -0.2360  1.0293
   26MPD2    H3  406   2.083   4.106  11.801 -1.4145 -1.1268 -0.8535
   26MPD2     N  407   1.966   4.533  11.843  0.3528 -0.4293 -0.2407
   26MPD2    H5  408   1.884   4.592  11.853  0.8117 -0.1947  2.1417
   26MPD2    N1  409   1.648   4.192  11.759  0.0564 -0.1032  0.1166
   26MPD2    H7  410   1.639   4.096  11.726  0.0992  0.2533 -0.9337
   27TMC2    C1  411   0.800   2.867  12.836 -0.6035 -0.4149  0.0724
   27TMC2    C2  412   0.671   2.870  12.792 -0.2902 -0.3201 -0.6508
   27TMC2    C3  413   0.639   2.949  12.686 -0.2550  0.0219 -0.1140
   27TMC2    C4  414   0.908   2.907  12.755 -0.1953  0.1194 -0.4346
   27TMC2    C5  415   0.873   2.972  12.639 -0.0188  0.3274 -0.0815
   27TMC2    C6  416   0.743   3.002  12.609 -0.6298 -0.1746  0.4532
   27TMC2     C  417   0.842   2.785  12.946 -0.3295  0.4969  0.2950
   27TMC2     O  418   0.936   2.831  13.011 -0.3271  0.2268  0.6754
   27TMC2     H  419   0.598   2.840  12.867 -0.6406 -0.0065 -0.8642
   27TMC2    H1  420   1.012   2.889  12.782  0.5915  2.0759 -2.1105
   27TMC2    H2  421   0.716   3.054  12.518 -0.6762  3.8325  2.7513
   27TMC2    C7  422   0.940   2.935  12.517  0.0445  0.1586 -0.0658
   27TMC2    C8  423   0.538   2.901  12.602 -0.2392 -0.6660 -0.0922
   27TMC2    O1  424   0.897   2.974  12.408 -0.3549  0.3963  0.8348
   27TMC2    O2  425   0.552   2.879  12.477 -0.1006  0.9210  0.1246
   27TMC2    O5  426   0.433   2.884  12.686 -0.4958  0.4019  0.0709
   27TMC2    H5  427   0.452   2.934  12.768  0.5974 -2.7570  1.7419
   28MPD2     C  428   0.820   2.375  13.246 -0.2862  0.5689 -0.2975
   28MPD2    C1  429   0.732   2.358  13.142  0.5369 -0.4368 -0.1426
   28MPD2    C2  430   0.713   2.457  13.047 -0.5870 -0.3060 -0.2461
   28MPD2    C3  431   0.785   2.576  13.053 -0.7510 -0.5015  0.2630
   28MPD2    C4  432   0.886   2.589  13.155  0.4032  0.2688 -0.3093
   28MPD2    C5  433   0.894   2.487  13.249 -0.7342 -0.3402  0.5519
   28MPD2     H  434   0.624   2.459  12.985 -1.1084  0.4819  0.5236
   28MPD2    H1  435   0.937   2.681  13.182 -3.0512  2.3286 -0.6975
   28MPD2    H2  436   0.831   2.299  13.323 -1.1366 -0.6337 -1.3520
   28MPD2    H3  437   0.963   2.499  13.332 -0.8705  1.6518  0.3810
   28MPD2     N  438   0.766   2.676  12.960  0.9203  0.3046  0.1063
   28MPD2    H5  439   0.689   2.664  12.895  0.6422 -1.3110  0.7247
   28MPD2    N1  440   0.661   2.241  13.152 -0.3797  0.3468  0.2657
   28MPD2    H7  441   0.669   2.186  13.237 -1.2779  1.0981  0.8353
   29MPD2     C  442   0.486   0.014  14.324  0.3547 -0.0174  0.0329
   29MPD2    C1  443   0.503   4.650  14.434 -0.1722 -0.6505  0.3195
   29MPD2    C2  444   0.511   4.697  14.562  0.0566 -0.6685 -0.4885
   29MPD2    C3  445   0.497   0.114  14.580 -0.0421 -0.0571  0.4978
   29MPD2    C4  446   0.479   0.196  14.470 -0.0055  0.1689  0.0593
   29MPD2    C5  447   0.482   0.150  14.344  0.0049 -0.0253  0.2551
   29MPD2     H  448   0.522   4.625  14.642  0.5740  0.7452  0.7190
   29MPD2    H1  449   0.454   0.301  14.477 -0.5706  0.0036  0.4930
   29MPD2    H2  450   0.475   4.695  14.224  1.0555  0.7061 -0.3438
   29MPD2    H3  451   0.486   0.210  14.254 -0.4323 -0.7257 -0.2289
   29MPD2     N  452   0.492   0.179  14.706  0.6377  0.2625  0.3800
   29MPD2    H5  453   0.485   0.280  14.706 -1.8097  0.0755  0.1567
   29MPD2    N1  454   0.525   4.512  14.418  0.0763  0.6639  0.6839
   29MPD2    H7  455   0.541   4.459  14.502  0.1183 -0.9243 -0.3315
   30TCq2    C1  456   0.514   0.129  14.830 -0.2604 -0.5843 -0.4464
   30TCq2    O2  457   0.503   0.009  14.859  0.4052  0.5342  0.3494
   30TCq2    C2  458   0.517   0.218  14.946  0.0600 -0.8879 -0.6035
   30TCq2    C3  459   0.530   0.152  15.067 -0.1589  0.5336  0.9552
   30TCq2    C4  460   0.522   0.227  15.180 -0.3391 -0.3461 -0.4197
   30TCq2    C5  461   0.526   0.366  15.180 -0.0694  0.4903  0.1598
   30TCq2    C6  462   0.507   0.420  15.060  0.1355 -0.3173  0.4792
   30TCq2    C7  463   0.488   0.355  14.942 -0.3250 -0.1269  0.7327
   30TCq2    C8  464   0.505   0.561  15.054  0.4054  0.0919 -0.5132
   30TCq2    O4  465   0.418   0.605  14.981 -0.2558  0.3782  0.1185
   30TCq2    C9  466   0.520   0.158  15.304 -0.2800 -0.1497  0.0365
   30TCq2    O5  467   0.507   0.034  15.309  0.2113  0.2037  0.6193
   30TCq2    O6  468   0.500   0.237  15.400  0.3481  0.1893  0.0227
   30TCq2    H2  469   0.549   0.046  15.082 -0.4280  0.3506  0.0172
   30TCq2    H3  470   0.531   0.419  15.274 -2.0998  0.3745  0.3281
   30TCq2    H4  471   0.477   0.406  14.846 -0.0515  0.3557  0.9575
   31MPD2     C  472   3.045   3.348  15.203 -0.3494 -0.4594  0.1446
   31MPD2    C1  473   2.955   3.454  15.196 -0.2217  0.6805  0.0175
   31MPD2    C2  474   2.886   3.489  15.311  0.1097  0.0245  0.4624
   31MPD2    C3  475   2.896   3.406  15.420  0.3027  0.2799  0.3315
   31MPD2    C4  476   2.988   3.303  15.423 -0.6028 -0.2558 -0.6626
   31MPD2    C5  477   3.072   3.281  15.317 -0.0274 -0.2694 -0.2171
   31MPD2     H  478   2.815   3.570  15.313  0.3888  0.2819 -0.1460
   31MPD2    H1  479   3.005   3.231  15.502  0.3317 -0.3416 -0.9388
   31MPD2    H2  480   3.106   3.320  15.117 -1.2096  0.6543 -0.8175
   31MPD2    H3  481   3.156   3.214  15.334  0.3180 -0.7249 -3.6017
   31MPD2     N  482   2.844   3.432  15.546  0.7005 -0.0805 -0.2793
   31MPD2    H5  483   2.862   3.365  15.620  0.2149 -0.3143 -0.3699
   31MPD2    N1  484   2.952   3.523  15.079 -0.0831  0.5497 -0.6028
   31MPD2    H7  485   3.018   3.497  15.007  0.9395 -2.6594  1.5108
   32TCq2    C1  486   2.768   3.538  15.582 -0.7429  0.3822 -0.1588
   32TCq2    O2  487   2.702   3.615  15.512  0.5914  0.6267  0.4595
   32TCq2    C2  488   2.747   3.540  15.725 -0.2923 -0.2506 -0.1429
   32TCq2    C3  489   2.632   3.598  15.769  0.0892 -0.0950  0.1807
   32TCq2    C4  490   2.621   3.641  15.897 -0.4603 -0.0147 -0.7867
   32TCq2    C5  491   2.723   3.653  15.983 -1.0530 -0.2752 -0.1373
   32TCq2    C6  492   2.846   3.600  15.941  0.1081 -0.1804  0.1932
   32TCq2    C7  493   2.857   3.544  15.818 -0.1345  0.2468 -0.4319
   32TCq2    C8  494   2.928   3.542  16.056 -0.2412 -0.2806  0.9780
   32TCq2    O4  495   2.970   3.426  16.043 -0.6869  0.0829  0.5846
   32TCq2    C9  496   2.487   3.675  15.932  0.0301  0.2462 -0.2534
   32TCq2    O5  497   2.411   3.728  15.844  0.2623 -0.1512  0.6478
   32TCq2    O6  498   2.465   3.706  16.054  0.0911  0.3157 -0.5476
   32TCq2    H2  499   2.542   3.583  15.709  0.4025 -0.2599 -0.2432
   32TCq2    H3  500   2.706   3.695  16.082 -1.2923  1.7023 -1.0050
   32TCq2    H4  501   2.941   3.478  15.801  1.3198  1.8939  0.3961
   33MPD2     C  502   3.109   0.613  10.955  0.1453  0.0234 -0.7317
   33MPD2    C1  503   3.230   0.651  10.899 -0.0705 -0.5457  0.1399
   33MPD2    C2  504   3.249   0.609  10.767 -0.1862  0.5525 -0.8052
   33MPD2    C3  505   3.151   0.544  10.694 -0.4824  0.7039  0.0489
   33MPD2    C4  506   3.033   0.505  10.759  0.0028 -0.6145  0.3710
   33MPD2    C5  507   3.006   0.545  10.887 -0.1782 -0.3613 -0.5263
   33MPD2     H  508   3.343   0.633  10.719  1.8424 -1.5871  2.0063
   33MPD2    H1  509   2.949   0.457  10.709 -1.2017  0.5438  1.2759
   33MPD2    H2  510   3.094   0.627  11.061 -1.3562 -1.6040 -0.7203
   33MPD2    H3  511   2.921   0.505  10.942  0.5933 -1.9095 -0.4779
   33MPD2     N  512   3.165   0.507  10.558 -0.1261  0.2140 -0.3726
   33MPD2    H5  513   3.085   0.456  10.519 -0.8758  0.5577  0.7210
   33MPD2    N1  514   3.320   0.718  10.984  0.0655  0.2846  0.6472
   33MPD2    H7  515   3.294   0.723  11.082  2.8348 -0.1510  1.4089
   34TCq2    C1  516   3.267   0.538  10.463 -0.0317  0.1714  0.4482
   34TCq2    O2  517   3.371   0.596  10.484  0.3769 -0.4713  0.2819
   34TCq2    C2  518   3.241   0.496  10.326 -1.0939 -0.8477  0.0548
   34TCq2    C3  519   3.122   0.433  10.293 -0.0291 -0.4772  0.2244
   34TCq2    C4  520   3.074   0.454  10.172  0.0416 -0.0744 -0.4632
   34TCq2    C5  521   3.145   0.523  10.079 -0.8483 -0.1959 -0.2680
   34TCq2    C6  522   3.266   0.587  10.109 -0.8506 -0.4021  0.3677
   34TCq2    C7  523   3.317   0.568  10.235  0.0250 -0.1986 -0.2783
   34TCq2    C8  524   3.322   0.691  10.025  0.5318 -0.1166  0.0582
   34TCq2    O4  525   3.406   0.763  10.072 -0.7817 -0.4020  0.2847
   34TCq2    C9  526   2.945   0.397  10.137  0.1058  0.3710 -0.9881
   34TCq2    O5  527   2.873   0.344  10.226 -0.5416 -0.2583 -0.8544
   34TCq2    O6  528   2.911   0.410  10.017  0.1260  0.0943  0.6482
   34TCq2    H2  529   3.060   0.368  10.354 -1.7227  0.1895 -0.7929
   34TCq2    H3  530   3.115   0.521   9.975  0.8782 -0.3675 -0.7619
   34TCq2    H4  531   3.403   0.625  10.269  1.1681 -0.1382 -3.3194
   35MPD2     C  532   0.474   2.754  11.908 -0.1484  0.0203 -0.3687
   35MPD2    C1  533   0.378   2.820  11.978 -0.7200 -0.1213  0.5307
   35MPD2    C2  534   0.289   2.903  11.902  0.3808 -0.5483 -0.0353
   35MPD2    C3  535   0.289   2.899  11.761  0.2360 -0.6232  0.8346
   35MPD2    C4  536   0.405   2.843  11.700  0.3101 -0.4841 -0.2733
   35MPD2    C5  537   0.490   2.766  11.773 -0.0331  0.2174 -0.8474
   35MPD2     H  538   0.213   2.965  11.947  1.6040 -0.0453  1.3465
   35MPD2    H1  539   0.436   2.854  11.596  1.5293  0.2849  0.1638
   35MPD2    H2  540   0.559   2.706  11.956  1.0087  0.7695 -1.6407
   35MPD2    H3  541   0.577   2.721  11.726  0.6168  0.2380  0.3185
   35MPD2     N  542   0.186   2.963  11.686 -0.3576 -0.4182 -0.6061
   35MPD2    H5  543   0.127   3.026  11.739  1.7561  1.9414 -1.0597
   35MPD2    N1  544   0.379   2.809  12.124 -0.2107 -0.3191  0.3074
   35MPD2    H7  545   0.453   2.754  12.167  1.4286  1.0532 -0.7312
   36TCq2    C1  546   0.161   2.948  11.552  0.1905 -0.2209  0.0293
   36TCq2    O2  547   0.236   2.917  11.458 -0.2110 -0.8317 -0.5838
   36TCq2    C2  548   0.023   2.972  11.517 -0.0973  0.6231 -0.0780
   36TCq2    C3  549   4.718   2.986  11.390  0.4418 -0.4562  0.0540
   36TCq2    C4  550   4.588   2.981  11.346 -0.1619  0.9737 -0.9653
   36TCq2    C5  551   4.495   2.933  11.432 -0.1884 -0.0696  0.7610
   36TCq2    C6  552   4.531   2.894  11.555  0.0183  0.1933 -0.0595
   36TCq2    C7  553   4.655   2.915  11.604 -0.0168 -0.5902  0.2311
   36TCq2    C8  554   4.445   2.792  11.608  0.6777  0.3582  0.0039
   36TCq2    O4  555   4.395   2.713  11.527  0.5121 -0.2466 -0.5418
   36TCq2    C9  556   4.549   3.019  11.218  0.6557  0.0665  0.1961
   36TCq2    O5  557   4.427   3.032  11.191  0.0246  0.3917  0.6603
   36TCq2    O6  558   4.638   3.075  11.154 -0.0068  0.6314 -0.1534
   36TCq2    H2  559   0.069   3.025  11.321 -0.0014 -0.2283 -0.2840
   36TCq2    H3  560   4.392   2.925  11.398  0.2268 -2.3018 -0.0226
   36TCq2    H4  561   4.677   2.877  11.703  0.3186  1.2196  0.8577
   37TMC2    C1  562   2.178   2.400  11.765  1.0821 -0.1560 -0.4575
   37TMC2    C2  563   2.094   2.292  11.755  0.8390 -0.2277  0.1740
   37TMC2    C3  564   2.156   2.163  11.761  0.1082 -0.4781  0.0387
   37TMC2    C4  565   2.307   2.381  11.776  0.4746  0.2263 -0.1630
   37TMC2    C5  566   2.363   2.259  11.779  0.2383 -0.2697 -0.3536
   37TMC2    C6  567   2.293   2.144  11.772  0.4839 -0.7219  0.8203
   37TMC2     C  568   2.125   2.513  11.838 -0.2177 -0.3431  0.2953
   37TMC2     O  569   2.003   2.526  11.838 -0.5701 -0.3479 -0.3825
   37TMC2     H  570   1.989   2.316  11.767  1.4788  1.4743  2.3679
   37TMC2    H1  571   2.376   2.463  11.792 -0.2400  0.9841 -0.9858
   37TMC2    H2  572   2.328   2.044  11.795 -1.1335 -1.3042  0.7670
   37TMC2    C7  573   2.495   2.266  11.839 -0.3034  0.4460 -0.3760
   37TMC2    C8  574   2.071   2.050  11.789  0.2436 -0.0889  0.0806
   37TMC2    O1  575   2.489   2.287  11.959  0.3557  0.3586 -0.2277
   37TMC2    O2  576   2.088   1.934  11.758  0.0014 -0.6113 -0.9856
   37TMC2    O5  577   1.996   2.079  11.902  0.7039  0.0464 -0.6059
   37TMC2    H5  578   2.020   2.163  11.947 -1.8085  0.1416  0.5420
   38MPD2     C  579   2.116   2.845  12.224 -0.4192 -0.3022 -0.2315
   38MPD2    C1  580   2.230   2.768  12.232  0.6127 -0.3242 -0.2735
   38MPD2    C2  581   2.262   2.682  12.129  0.0663  0.0576  0.1852
   38MPD2    C3  582   2.184   2.668  12.017 -0.8821 -0.0309  0.1566
   38MPD2    C4  583   2.070   2.748  12.008  0.6936 -0.2661 -0.1847
   38MPD2    C5  584   2.037   2.825  12.120 -0.3235 -0.6533  0.6621
   38MPD2     H  585   2.341   2.610  12.146  1.5147  1.3576 -1.1079
   38MPD2    H1  586   2.009   2.752  11.918  0.2663  0.3289  0.1351
   38MPD2    H2  587   2.095   2.921  12.300  2.2838  0.3383 -0.1385
   38MPD2    H3  588   1.954   2.892  12.097  1.6586  0.5173 -3.0929
   38MPD2     N  589   2.212   2.570  11.921 -0.0662  0.0448  0.4583
   38MPD2    H5  590   2.309   2.543  11.929 -0.1488 -0.2717  0.3936
   38MPD2    N1  591   2.312   2.749  12.343  0.6278 -0.5224  0.0433
   38MPD2    H7  592   2.381   2.674  12.339 -1.1912 -2.1462 -0.7544
   39MPD2     C  593   4.596   4.629   1.782 -0.2746 -0.1865  0.0036
   39MPD2    C1  594   4.499   0.001   1.805 -0.1495 -0.1610  0.1068
   39MPD2    C2  595   4.382   4.709   1.733  0.6343 -0.4861  0.1058
   39MPD2    C3  596   4.365   4.606   1.645 -0.0156  0.7777  0.4408
   39MPD2    C4  597   4.461   4.515   1.620 -0.2697  0.5644 -0.7404
   39MPD2    C5  598   4.573   4.518   1.700  0.4506 -0.0736  0.1013
   39MPD2     H  599   4.307   0.064   1.741  0.5258 -0.4487 -1.1781
   39MPD2    H1  600   4.450   4.425   1.560  0.8829  0.0061 -0.1111
   39MPD2    H2  601   4.685   4.639   1.844 -1.1029  1.0701  1.0056
   39MPD2    H3  602   4.643   4.438   1.683 -1.6362 -1.8287 -0.2831
   39MPD2     N  603   4.239   4.591   1.568 -0.6821 -0.0752  0.3904
   39MPD2    H5  604   4.230   4.505   1.515  0.0102 -1.1824  2.0879
   39MPD2    N1  605   4.525   0.113   1.886  0.1422 -0.3432 -0.4595
   39MPD2    H7  606   4.618   0.120   1.926 -0.8945  4.4561  1.2242
   40TCq2    C1  607   4.432   0.209   1.924 -0.6686  0.2367  0.1303
   40TCq2    O2  608   4.322   0.232   1.875 -0.1617 -0.2425 -0.1520
   40TCq2    C2  609   4.495   0.321   1.994  0.0219  0.6191  0.2802
   40TCq2    C3  610   4.420   0.439   2.001  0.7031 -0.6012 -0.6697
   40TCq2    C4  611   4.462   0.544   2.079  0.7639  0.2981  0.1655
   40TCq2    C5  612   4.569   0.527   2.162  0.1920  0.7791 -0.3758
   40TCq2    C6  613   4.642   0.411   2.153  0.7208  0.7165 -0.1783
   40TCq2    C7  614   4.601   0.304   2.074 -0.0695 -0.3285  0.0173
   40TCq2    C8  615   0.022   0.386   2.251 -0.7038  0.5877  0.2555
   40TCq2    O4  616   0.004   0.447   2.355  0.3113 -0.0460  0.3499
   40TCq2    C9  617   4.394   0.669   2.071  0.4123 -0.0105  0.8151
   40TCq2    O5  618   4.307   0.678   1.984  0.4232 -0.1007 -0.1954
   40TCq2    O6  619   4.446   0.768   2.133 -0.2761  0.3997 -0.3923
   40TCq2    H2  620   4.337   0.455   1.933  0.6335 -1.7932 -0.8581
   40TCq2    H3  621   4.611   0.610   2.217  0.5717 -0.9511  1.9014
   40TCq2    H4  622   4.628   0.201   2.095  0.9475  0.0074  0.4023
   41TMC2    C1  623   3.991   3.023  13.524  0.3323  0.2758  0.0585
   41TMC2    C2  624   3.942   3.126  13.598 -0.5913 -0.2028  0.0207
   41TMC2    C3  625   3.984   3.254  13.580  0.2652  0.7275 -0.3603
   41TMC2    C4  626   4.086   3.048  13.427  0.1508 -0.3191  0.4688
   41TMC2    C5  627   4.116   3.177  13.398  0.3863  0.4497 -0.0078
   41TMC2    C6  628   4.058   3.276  13.468  0.0140 -0.2115  0.0168
   41TMC2     C  629   3.956   2.882  13.551  0.2070 -0.0420 -0.1372
   41TMC2     O  630   3.972   2.804  13.459  0.3847  0.1870 -0.1815
   41TMC2     H  631   3.856   3.106  13.661 -2.2065 -0.3674 -2.2776
   41TMC2    H1  632   4.105   2.970  13.354  0.3793  1.3957 -1.3049
   41TMC2    H2  633   4.096   3.376  13.450  1.0013 -0.3019  1.6299
   41TMC2    C7  634   4.217   3.217  13.303 -0.2595 -0.7415 -0.9257
   41TMC2    C8  635   3.907   3.371  13.625  0.4827 -0.4723  0.2060
   41TMC2    O1  636   4.230   3.335  13.271 -0.2857 -0.1683 -0.0334
   41TMC2    O2  637   3.878   3.463  13.555 -0.9194 -0.0503  0.4965
   41TMC2    O5  638   3.828   3.328  13.725 -0.5171  0.3659 -0.3040
   41TMC2    H5  639   3.884   3.262  13.770 -0.7939  1.1065  1.1171
   42MPD2     C  640   3.862   2.620  13.661 -0.3058  0.5099  0.0420
   42MPD2    C1  641   3.882   2.737  13.734 -0.3891 -0.0792 -0.0031
   42MPD2    C2  642   3.855   2.728  13.873 -0.3268 -0.0405 -0.1843
   42MPD2    C3  643   3.807   2.612  13.934  0.5210  1.1807 -1.1435
   42MPD2    C4  644   3.795   2.499  13.857  0.1983  0.0685 -0.5817
   42MPD2    C5  645   3.824   2.506  13.723  0.3434 -0.3205  0.4390
   42MPD2     H  646   3.859   2.813  13.940  1.1017  0.6837 -1.2034
   42MPD2    H1  647   3.761   2.407  13.904 -0.2048  0.4705 -0.0827
   42MPD2    H2  648   3.879   2.615  13.554  0.8421 -0.4687  0.2684
   42MPD2    H3  649   3.810   2.418  13.661  1.8126 -0.7851  0.7579
   42MPD2     N  650   3.784   2.597  14.067  0.7500 -0.5233  0.2559
   42MPD2    H5  651   3.772   2.503  14.104  0.4563 -0.4903  0.2444
   42MPD2    N1  652   3.906   2.861  13.679 -0.4626  0.0492  0.2772
   42MPD2    H7  653   3.906   2.941  13.741 -1.1487  0.3953 -0.1585
   43MPD2     C  654   0.577   0.451   1.087  0.0457 -0.7230  0.4410
   43MPD2    C1  655   0.705   0.449   1.029  0.5166  0.0311  0.6402
   43MPD2    C2  656   0.789   0.561   1.042 -0.4922 -0.2059 -0.4210
   43MPD2    C3  657   0.738   0.674   1.103 -0.1243 -0.2866 -0.4170
   43MPD2    C4  658   0.612   0.679   1.150  0.6645  0.1465 -0.3687
   43MPD2    C5  659   0.537   0.568   1.139  0.2099 -0.5269 -0.1870
   43MPD2     H  660   0.890   0.556   1.003 -0.0922 -1.5008  0.7943
   43MPD2    H1  661   0.576   0.769   1.198 -1.8533 -0.5406 -1.0112
   43MPD2    H2  662   0.509   0.368   1.103 -0.6309 -0.0702  0.9309
   43MPD2    H3  663   0.438   0.575   1.183 -0.3740 -0.2251 -1.5283
   43MPD2     N  664   0.816   0.796   1.099  0.0395 -0.5000  0.5449
   43MPD2    H5  665   0.779   0.886   1.129  1.4769  0.6242 -1.0420
   43MPD2    N1  666   0.758   0.339   0.970 -0.1653  0.3335  0.0885
   43MPD2    H7  667   0.859   0.341   0.958 -0.1840  2.2262  0.2384
   44TCq2    C1  668   1.324   1.085   1.167 -0.1802 -0.1773  0.0123
   44TCq2    O2  669   1.394   0.988   1.186  0.2218  0.2125 -0.1023
   44TCq2    C2  670   1.201   1.067   1.091  0.0969  0.3063 -0.2566
   44TCq2    C3  671   1.134   1.174   1.039  0.3444  0.5351  0.5725
   44TCq2    C4  672   1.002   1.163   1.003  0.0574  0.0284  0.4896
   44TCq2    C5  673   0.939   1.042   1.021 -0.3051 -0.5480  0.0211
   44TCq2    C6  674   1.004   0.935   1.079 -0.1403 -0.1136  0.6631
   44TCq2    C7  675   1.139   0.945   1.108  0.3032 -0.2682  0.1167
   44TCq2    C8  676   0.950   0.801   1.068 -0.1097 -0.0641  0.2037
   44TCq2    O4  677   1.040   0.715   1.059  0.3349  0.2165 -0.1966
   44TCq2    C9  678   0.931   1.281   0.959 -0.1459  0.5378 -0.0116
   44TCq2    O5  679   0.807   1.258   0.935  0.4271  0.0340 -0.0221
   44TCq2    O6  680   0.987   1.390   0.991  0.0295  0.2845 -0.2209
   44TCq2    H2  681   1.181   1.271   1.027  0.3483  0.2281 -1.9509
   44TCq2    H3  682   0.837   1.031   0.986  0.1805 -1.5077 -1.0793
   44TCq2    H4  683   1.196   0.861   1.145 -0.0337 -0.0363  1.1493
   45TMC2    C1  684   1.666   3.138   9.723  0.5057  0.2994  0.1560
   45TMC2    C2  685   1.643   3.193   9.601  0.5391  0.4267  0.2758
   45TMC2    C3  686   1.666   3.324   9.585  0.4638  0.2928  0.4739
   45TMC2    C4  687   1.708   3.216   9.828  0.0741  0.1201  0.5487
   45TMC2    C5  688   1.726   3.354   9.813 -0.2921 -0.7953 -0.2732
   45TMC2    C6  689   1.694   3.410   9.690  0.6442 -0.2893  0.3062
   45TMC2     C  690   1.656   2.990   9.750 -0.2238  0.1207  0.3829
   45TMC2     O  691   1.696   2.940   9.848 -0.2565  0.3269 -1.0532
   45TMC2     H  692   1.605   3.136   9.517 -2.0800  0.7491  1.2447
   45TMC2    H1  693   1.724   3.169   9.925 -1.1511  1.3909  1.3586
   45TMC2    H2  694   1.704   3.517   9.676 -2.1932 -0.4932 -3.1662
   45TMC2    C7  695   1.741   3.439   9.926 -0.1072 -0.0703  0.1663
   45TMC2    C8  696   1.684   3.378   9.452 -0.0173 -0.3008 -0.2178
   45TMC2    O1  697   1.682   3.411  10.030  0.0435 -0.1974 -0.4046
   45TMC2    O2  698   1.618   3.470   9.405  0.6682 -0.4473  0.3461
   45TMC2    O5  699   1.802   3.338   9.396  0.1956  0.9441 -0.2485
   45TMC2    H5  700   1.847   3.269   9.449 -0.7307  0.3906 -0.1922
   46MPD2     C  701   1.687   2.697   9.680 -0.1462 -0.4461  0.1322
   46MPD2    C1  702   1.623   2.790   9.597  0.4811 -0.2174 -0.5909
   46MPD2    C2  703   1.557   2.745   9.486  0.4374  0.1053  0.1118
   46MPD2    C3  704   1.551   2.610   9.458 -0.0748 -0.4264  0.1355
   46MPD2    C4  705   1.617   2.518   9.531 -0.4039  0.1013  0.4655
   46MPD2    C5  706   1.689   2.565   9.642  0.1985 -0.4522  0.6747
   46MPD2     H  707   1.501   2.816   9.426  0.3017 -1.2017 -1.3046
   46MPD2    H1  708   1.617   2.413   9.504  1.1337  0.7008 -1.8751
   46MPD2    H2  709   1.745   2.724   9.768  0.6772  0.0611 -0.5746
   46MPD2    H3  710   1.752   2.500   9.703  0.5909 -1.0335 -0.3566
   46MPD2     N  711   1.470   2.575   9.349 -0.2797 -0.2548  0.3153
   46MPD2    H5  712   1.432   2.653   9.297 -0.7389 -0.1550  0.8033
   46MPD2    N1  713   1.621   2.929   9.635 -0.0391 -0.2958  0.1023
   46MPD2    H7  714   1.589   2.993   9.564  1.9493 -1.0861 -1.5000
   47TMC2    C1  715   2.612   2.985   9.879 -0.0337 -0.3233  0.2834
   47TMC2    C2  716   2.594   2.860   9.926  0.5439  0.6753  0.0338
   47TMC2    C3  717   2.478   2.802   9.895  0.4355 -1.3787 -0.3035
   47TMC2    C4  718   2.511   3.050   9.807 -0.4427 -0.2204 -0.6342
   47TMC2    C5  719   2.399   2.982   9.762 -0.0760 -0.3317  0.3614
   47TMC2    C6  720   2.374   2.857   9.819 -0.0922  0.7953  0.2089
   47TMC2     C  721   2.735   3.055   9.919  0.3164  0.1486  0.4252
   47TMC2     O  722   2.742   3.177   9.901  0.2057 -0.5987 -0.3244
   47TMC2     H  723   2.657   2.811  10.000  1.4258  0.2119 -1.0340
   47TMC2    H1  724   2.526   3.147   9.761 -0.1614 -0.4553 -1.0466
   47TMC2    H2  725   2.287   2.800   9.790  0.6627 -0.7991  1.0532
   47TMC2    C7  726   2.377   3.004   9.620  0.8486 -0.2400 -0.0457
   47TMC2    C8  727   2.445   2.685   9.973  0.4925  0.4766 -0.6517
   47TMC2    O1  728   2.405   3.115   9.577 -0.2612 -0.1047  0.5320
   47TMC2    O2  729   2.527   2.596   9.985 -0.2532 -0.2723 -0.2978
   47TMC2    O5  730   2.347   2.713  10.059  0.3904 -1.0596 -0.3353
   47TMC2    H5  731   2.301   2.795  10.032  2.2108  0.1841  0.2652
   48MPD2     C  732   3.029   3.106   9.979  0.1630 -0.2112  0.3279
   48MPD2    C1  733   2.971   2.989   9.961 -0.0099 -0.4634  0.7928
   48MPD2    C2  734   3.048   2.877   9.986  0.3416  0.5931 -0.1512
   48MPD2    C3  735   3.180   2.885  10.025  0.4350 -0.0894 -0.2666
   48MPD2    C4  736   3.238   3.013  10.035 -0.2190  0.1414  0.3027
   48MPD2    C5  737   3.164   3.122  10.001 -0.4348  0.0072 -0.3828
   48MPD2     H  738   3.009   2.776   9.988 -0.1829  0.7999  0.0085
   48MPD2    H1  739   3.339   3.033  10.067 -0.4996  1.3936  0.3793
   48MPD2    H2  740   2.967   3.192   9.961 -0.7917 -0.9711 -0.0339
   48MPD2    H3  741   3.214   3.218  10.009 -1.2130  0.4972 -1.3526
   48MPD2     N  742   3.244   2.761  10.064  0.1032 -0.1584 -0.1764
   48MPD2    H5  743   3.202   2.672  10.038  1.0772 -0.7227  0.1805
   48MPD2    N1  744   2.833   2.963   9.947  0.1470  0.1076  0.4364
   48MPD2    H7  745   2.804   2.866   9.948  0.7111 -0.0602  0.3588
   49MPD2     C  746   1.931   0.885  10.699  0.8677  0.1435 -0.2991
   49MPD2    C1  747   1.995   0.768  10.744  0.7699 -1.0769 -0.2201
   49MPD2    C2  748   1.968   0.724  10.872  0.2682 -0.2626  0.5065
   49MPD2    C3  749   1.882   0.801  10.958  0.1563 -0.0391 -0.2226
   49MPD2    C4  750   1.815   0.905  10.906  0.6241  0.3602  0.1950
   49MPD2    C5  751   1.838   0.944  10.778  0.0396  0.3290 -0.3209
   49MPD2     H  752   2.024   0.637  10.904 -1.5222 -1.2749  0.8625
   49MPD2    H1  753   1.741   0.967  10.955  1.6834  1.4159  0.4538
   49MPD2    H2  754   1.936   0.915  10.595  3.0016  3.1206  0.6752
   49MPD2    H3  755   1.794   1.036  10.740 -0.5147  1.1284  2.2076
   49MPD2     N  756   1.851   0.770  11.094 -0.0663 -0.1450  0.0710
   49MPD2    H5  757   1.792   0.839  11.141  1.0464  1.4297 -0.8536
   49MPD2    N1  758   2.094   0.705  10.661 -0.1019 -0.0927  0.3426
   49MPD2    H7  759   2.154   0.639  10.709  0.1728 -0.2311 -0.1950
   50TCq2    C1  760   2.140   0.748  10.540  0.4052 -0.3254  0.3234
   50TCq2    O2  761   2.114   0.843  10.470  0.3363  0.2415  0.6054
   50TCq2    C2  762   2.237   0.658  10.477 -0.1021 -0.6569  0.4556
   50TCq2    C3  763   2.318   0.707  10.379 -0.3282  0.1912 -0.0347
   50TCq2    C4  764   2.409   0.626  10.330  0.3224 -0.6496 -0.2113
   50TCq2    C5  765   2.426   0.493  10.365 -0.6290 -0.0118  0.2935
   50TCq2    C6  766   2.347   0.448  10.470 -1.0287  0.1384  0.2863
   50TCq2    C7  767   2.250   0.528  10.520  0.9786  0.9619  0.3994
   50TCq2    C8  768   2.347   0.307  10.494 -0.3049 -0.6504 -0.2846
   50TCq2    O4  769   2.369   0.230  10.403  0.0081  0.3220  0.1239
   50TCq2    C9  770   2.487   0.676  10.215 -0.8783  0.1263 -0.4001
   50TCq2    O5  771   2.580   0.597  10.172 -0.3255  0.1354  0.1444
   50TCq2    O6  772   2.456   0.777  10.148  0.1425  0.3749 -0.4522
   50TCq2    H2  773   2.303   0.806  10.339  0.9281  0.5282  0.3384
   50TCq2    H3  774   2.501   0.430  10.319 -1.0701 -1.0510  0.9923
   50TCq2    H4  775   2.166   0.479  10.566  0.7081 -0.9641 -2.1663
   51MPD2     C  776   2.439   3.690   2.242  0.7256 -0.3327 -0.1162
   51MPD2    C1  777   2.516   3.676   2.126 -0.4263  0.3585  0.5019
   51MPD2    C2  778   2.515   3.783   2.039  0.3034  0.1265 -0.0467
   51MPD2    C3  779   2.447   3.900   2.065  0.6935 -0.0076 -1.0069
   51MPD2    C4  780   2.364   3.899   2.180  0.7091  0.3090 -0.3462
   51MPD2    C5  781   2.355   3.799   2.267  0.6526 -0.5377  1.1448
   51MPD2     H  782   2.585   3.776   1.957  1.6917  0.0091  1.1469
   51MPD2    H1  783   2.296   3.981   2.200 -1.6912 -1.8438  0.4024
   51MPD2    H2  784   2.411   3.609   2.308 -1.6752  0.8911  0.3474
   51MPD2    H3  785   2.284   3.799   2.349  0.0903 -0.1066  0.6469
   51MPD2     N  786   2.440   4.016   1.976  0.1045 -0.6802  0.0745
   51MPD2    H5  787   2.374   4.087   2.007  1.1693  0.8174 -1.0845
   51MPD2    N1  788   2.588   3.562   2.084 -0.4815 -0.5350 -0.0559
   51MPD2    H7  789   2.644   3.584   2.003 -1.1535  2.0146  0.1720
   52TCq2    C1  790   2.511   4.024   1.858 -0.2234  0.5858 -0.4024
   52TCq2    O2  791   2.588   3.950   1.803  0.6160  0.4505  0.4366
   52TCq2    C2  792   2.493   4.154   1.787 -0.0337  0.3614 -0.4870
   52TCq2    C3  793   2.558   4.171   1.669 -0.0766 -0.0684 -0.6390
   52TCq2    C4  794   2.524   4.281   1.592  0.4393  0.1166  0.3094
   52TCq2    C5  795   2.442   4.382   1.642 -0.1964 -0.4238 -0.9090
   52TCq2    C6  796   2.384   4.360   1.763 -0.6835  0.4049 -0.1968
   52TCq2    C7  797   2.413   4.250   1.837 -0.2893  0.3894 -0.7579
   52TCq2    C8  798   2.302   4.468   1.818  0.3516  0.0290 -0.1889
   52TCq2    O4  799   2.317   4.582   1.776 -0.5839 -0.6709 -0.2393
   52TCq2    C9  800   2.575   4.284   1.458 -0.5258  0.2598 -0.0306
   52TCq2    O5  801   2.543   4.370   1.370 -0.5964 -0.2979  0.8618
   52TCq2    O6  802   2.653   4.187   1.427 -0.1778  0.2741 -0.4400
   52TCq2    H2  803   2.613   4.089   1.624  1.0800 -0.2046  1.0401
   52TCq2    H3  804   2.429   4.473   1.586 -0.5674  1.8751  2.9029
   52TCq2    H4  805   2.365   4.230   1.932 -2.6709 -1.4823 -2.3629
   53TMC2    C1  806   3.084   2.492  12.198 -0.6791  0.1314 -0.1713
   53TMC2    C2  807   3.203   2.540  12.255  0.6247  0.3311 -0.0617
   53TMC2    C3  808   3.197   2.620  12.366 -0.6030 -0.2137  0.0895
   53TMC2    C4  809   2.964   2.521  12.271  0.8592 -0.3220 -0.3974
   53TMC2    C5  810   2.968   2.614  12.383  0.0572  0.2023 -0.1394
   53TMC2    C6  811   3.084   2.662  12.433  0.6069  0.6037 -0.1917
   53TMC2     C  812   3.078   2.410  12.080  0.6957 -0.4042 -0.3477
   53TMC2     O  813   3.174   2.336  12.063 -0.1827 -0.3006 -0.5835
   53TMC2     H  814   3.290   2.527  12.191  0.8388  0.0270  0.2911
   53TMC2    H1  815   2.863   2.490  12.245  1.7484 -3.4312 -0.1706
   53TMC2    H2  816   3.086   2.740  12.509  0.5185  1.8972 -1.5145
   53TMC2    C7  817   2.867   2.721  12.357  0.4209 -0.1042  0.1128
   53TMC2    C8  818   3.320   2.679  12.398 -0.2236  0.5940  0.1621
   53TMC2    O1  819   2.824   2.742  12.242 -0.7512  0.4137 -0.4246
   53TMC2    O2  820   3.324   2.788  12.455  0.5526  1.4463 -0.5064
   53TMC2    O5  821   3.405   2.575  12.412  0.2466 -0.3494  0.3818
   53TMC2    H5  822   3.358   2.492  12.391  0.9057 -0.6993  0.2818
   54MPD2     C  823   3.004   2.298  11.811 -0.2206 -0.3826  0.0134
   54MPD2    C1  824   2.915   2.357  11.901  0.3557  0.0432  0.1617
   54MPD2    C2  825   2.777   2.354  11.876  0.1126 -0.0419 -0.2343
   54MPD2    C3  826   2.736   2.279  11.771 -0.6132 -0.3202 -0.9314
   54MPD2    C4  827   2.830   2.242  11.671  0.3269 -0.9998  0.3597
   54MPD2    C5  828   2.965   2.255  11.689  0.6781  0.0138 -0.4594
   54MPD2     H  829   2.711   2.405  11.945 -2.4605 -1.9231 -1.3236
   54MPD2    H1  830   2.800   2.182  11.586 -2.1489  0.4110  0.2451
   54MPD2    H2  831   3.112   2.290  11.819 -0.3107 -0.3005  1.4314
   54MPD2    H3  832   3.036   2.211  11.620 -0.4567  0.1191 -1.6797
   54MPD2     N  833   2.601   2.256  11.746  1.0047 -0.1264  0.4022
   54MPD2    H5  834   2.571   2.214  11.658  0.6295  0.3564  0.2967
   54MPD2    N1  835   2.959   2.437  12.010 -0.6238  0.2581 -1.1643
   54MPD2    H7  836   2.893   2.495  12.061  0.5705  0.2155  0.4399
   55MPD2     C  837   3.660   0.258  17.507  0.2491 -0.0692  0.6100
   55MPD2    C1  838   3.571   0.203  17.594  0.0450  0.5643  0.3068
   55MPD2    C2  839   3.453   0.266  17.617  0.0463 -0.3152  0.0145
   55MPD2    C3  840   3.430   0.393  17.570  0.0041 -0.1715  0.6101
   55MPD2    C4  841   3.514   0.454  17.486 -0.0138 -0.6191  0.2848
   55MPD2    C5  842   3.631   0.385  17.457 -0.3372 -0.4482 -1.5120
   55MPD2     H  843   3.380   0.225  17.685 -1.5532 -0.1303 -1.5888
   55MPD2    H1  844   3.500   0.553  17.444  0.8160  0.8476  3.5051
   55MPD2    H2  845   3.753   0.207  17.484 -0.7945 -0.4882 -2.5601
   55MPD2    H3  846   3.703   0.435  17.393  1.3339  1.9672  2.1963
   55MPD2     N  847   3.310   0.462  17.614 -0.2176 -0.2869 -0.0592
   55MPD2    H5  848   3.236   0.411  17.661 -0.2726  0.6858  0.9018
   55MPD2    N1  849   3.613   0.092  17.673 -0.4252 -0.2506 -0.7254
   55MPD2    H7  850   3.699   0.043  17.651  0.5726  1.9776 -1.7751
   56TCq2    C1  851   3.573   0.072   0.114 -0.3280  0.4016  0.5544
   56TCq2    O2  852   3.494   0.138   0.180  0.4281  0.0761  0.3796
   56TCq2    C2  853   3.662   4.703   0.180 -0.1488 -0.0413 -0.2871
   56TCq2    C3  854   3.720   4.600   0.109  0.1372 -0.8063  0.0074
   56TCq2    C4  855   3.784   4.510   0.185 -0.5238 -0.3716 -0.5296
   56TCq2    C5  856   3.816   4.525   0.315 -0.2197 -0.7754 -0.2767
   56TCq2    C6  857   3.760   4.631   0.379 -0.0629 -0.1328  0.7115
   56TCq2    C7  858   3.684   0.001   0.315  0.3628 -0.1317  0.0873
   56TCq2    C8  859   3.804   4.667   0.513 -0.2607 -0.0971 -0.0983
   56TCq2    O4  860   3.916   4.640   0.562 -0.6099  0.1386 -0.1827
   56TCq2    C9  861   3.841   4.402   0.111 -0.4877 -0.1660  0.5775
   56TCq2    O5  862   3.801   4.375  17.682 -0.3444  0.6879  0.3609
   56TCq2    O6  863   3.922   4.327   0.169  0.2056 -0.0386  0.0575
   56TCq2    H2  864   3.696   4.582   0.005  1.0910 -1.2904 -0.1349
   56TCq2    H3  865   3.884   4.457   0.364  2.4107  2.2077  0.2352
   56TCq2    H4  866   3.640   0.089   0.360 -0.1175 -0.2142 -0.2135
   57TMC2    C1  867   2.396   1.341  14.311 -0.1472  0.0481 -0.0319
   57TMC2    C2  868   2.490   1.242  14.315 -0.2342  0.3328 -0.1763
   57TMC2    C3  869   2.563   1.221  14.198  0.0543  1.3945 -0.0828
   57TMC2    C4  870   2.347   1.395  14.196 -0.4136  0.0517  0.6102
   57TMC2    C5  871   2.416   1.373  14.080  0.0949 -0.4388 -0.0457
   57TMC2    C6  872   2.522   1.284  14.076  0.0810 -0.0039 -0.5517
   57TMC2     C  873   2.314   1.348  14.433 -0.7825 -0.0116 -0.0461
   57TMC2     O  874   2.355   1.281  14.529  0.0561 -0.0894  0.1129
   57TMC2     H  875   2.520   1.202  14.411  0.9214 -2.9899 -1.8911
   57TMC2    H1  876   2.290   1.487  14.202  0.6630  0.5243  3.7353
   57TMC2    H2  877   2.562   1.257  13.979 -2.2741  1.2060 -1.8733
   57TMC2    C7  878   2.380   1.447  13.963 -0.2390 -0.1390 -0.8447
   57TMC2    C8  879   2.673   1.122  14.193  0.7746  0.1968 -0.6423
   57TMC2    O1  880   2.316   1.550  13.985  0.4074 -0.5795 -0.2764
   57TMC2    O2  881   2.749   1.109  14.287  0.5666  0.0652  0.1320
   57TMC2    O5  882   2.684   1.065  14.071 -0.1064 -0.4123 -0.5181
   57TMC2    H5  883   2.605   1.079  14.015 -1.9874  1.3006  2.5610
   58MPD2     C  884   1.912   1.549  14.679 -0.3491  0.6713 -0.9161
   58MPD2    C1  885   2.027   1.487  14.723  0.0873 -0.2900 -0.0197
   58MPD2    C2  886   2.117   1.436  14.638 -0.0606  0.2139  0.5163
   58MPD2    C3  887   2.093   1.437  14.508 -0.0598  0.3272  0.5330
   58MPD2    C4  888   1.986   1.503  14.458 -0.0140  1.0230  0.1396
   58MPD2    C5  889   1.892   1.564  14.544 -0.5463  0.7266  0.4050
   58MPD2     H  890   2.202   1.380  14.676  1.3386  0.5018 -2.1590
   58MPD2    H1  891   1.967   1.505  14.351 -0.4191  0.7523  0.2060
   58MPD2    H2  892   1.840   1.593  14.747 -0.2660  0.9811 -1.0259
   58MPD2    H3  893   1.803   1.618  14.515 -2.7467 -1.8134  2.4246
   58MPD2     N  894   2.187   1.397  14.405 -0.9552 -0.4640  0.4996
   58MPD2    H5  895   2.155   1.417  14.310 -0.1049  0.2511  0.3653
   58MPD2    N1  896   2.050   1.476  14.857  0.4459  0.0527 -0.6354
   58MPD2    H7  897   2.125   1.410  14.872 -0.7388 -0.7695  1.6713
   59MPD2     C  898   0.996   2.009  13.525 -0.2010 -0.3683  0.0646
   59MPD2    C1  899   1.027   2.092  13.420 -0.6205 -0.0534 -0.0784
   59MPD2    C2  900   1.077   2.219  13.439 -0.0460  0.0032  0.2013
   59MPD2    C3  901   1.116   2.264  13.562  0.6348  0.3434 -0.6344
   59MPD2    C4  902   1.085   2.185  13.674 -0.0776  0.1733  0.0978
   59MPD2    C5  903   1.034   2.057  13.655  0.7318  0.8083  0.2026
   59MPD2     H  904   1.085   2.283  13.352  0.9408  3.3570  2.7771
   59MPD2    H1  905   1.134   2.214  13.765 -0.4669  1.0113  0.0397
   59MPD2    H2  906   0.948   1.912  13.516  0.6443 -0.6321 -1.5668
   59MPD2    H3  907   1.044   1.998  13.745 -1.8496 -0.6491 -0.4582
   59MPD2     N  908   1.192   2.379  13.581 -0.4310  0.9806 -0.0583
   59MPD2    H5  909   1.214   2.403  13.677 -0.2213  1.9106 -0.3344
   59MPD2    N1  910   1.002   2.059  13.285  0.5679  0.1976 -0.8843
   59MPD2    H7  911   1.008   2.133  13.215  2.3997  0.2465 -0.6706
   60TCq2    C1  912   0.952   1.941  13.234 -0.0678  0.7862  0.4291
   60TCq2    O2  913   0.915   1.842  13.295 -0.4104  0.4584  0.1535
   60TCq2    C2  914   0.909   1.940  13.092 -0.1348  0.3723 -0.1454
   60TCq2    C3  915   0.819   1.842  13.053  0.1496 -0.2310 -0.4010
   60TCq2    C4  916   0.756   1.867  12.927  0.0943  0.1084  0.6187
   60TCq2    C5  917   0.779   1.984  12.857 -0.1153 -0.1771 -0.1878
   60TCq2    C6  918   0.870   2.073  12.905  0.2352 -0.5803 -0.6219
   60TCq2    C7  919   0.940   2.054  13.022 -1.0353  0.0575  0.9234
   60TCq2    C8  920   0.908   2.192  12.817  0.5912 -0.3116  0.1528
   60TCq2    O4  921   1.024   2.216  12.798 -0.1509 -0.2256  0.0633
   60TCq2    C9  922   0.643   1.782  12.893 -0.0346  1.1290  0.6846
   60TCq2    O5  923   0.554   1.825  12.818 -0.2013 -0.2858  0.4358
   60TCq2    O6  924   0.636   1.677  12.957 -0.0616  0.0594  0.4958
   60TCq2    H2  925   0.786   1.764  13.121 -1.2499  0.6390 -0.0796
   60TCq2    H3  926   0.720   1.996  12.767 -1.0741  4.2039  1.0188
   60TCq2    H4  927   1.034   2.105  13.040  1.0014 -2.4761 -2.4643
   61MPD2     C  928   4.309   3.089  14.311  0.0559  0.3030 -0.1674
   61MPD2    C1  929   4.343   3.157  14.430 -0.0626 -0.4543  0.4116
   61MPD2    C2  930   4.358   3.293  14.426  0.1782 -0.3317  0.0078
   61MPD2    C3  931   4.334   3.362  14.308  0.3711  0.9415 -0.2571
   61MPD2    C4  932   4.299   3.292  14.197 -0.4045 -0.0581 -0.3363
   61MPD2    C5  933   4.291   3.163  14.198 -1.0266 -0.6918 -0.0436
   61MPD2     H  934   4.410   3.346  14.505 -1.3091 -0.4417  1.0378
   61MPD2    H1  935   4.289   3.345  14.102  0.3501  2.4267  0.9852
   61MPD2    H2  936   4.307   2.981  14.304  0.8776  0.2061  1.1020
   61MPD2    H3  937   4.277   3.117  14.101 -1.7231 -0.7239  0.0735
   61MPD2     N  938   4.340   3.498  14.290  0.1480  0.0933  0.1733
   61MPD2    H5  939   4.325   3.535  14.197 -0.3928 -1.8659 -0.5130
   61MPD2    N1  940   4.367   3.088  14.552  0.1050  0.0548  0.0915
   61MPD2    H7  941   4.404   3.142  14.629  2.8289  0.9632 -1.8901
   62TCq2    C1  942   4.339   2.955  14.581 -0.0939  0.2768 -0.2169
   62TCq2    O2  943   4.297   2.865  14.507  0.1736 -0.0249  0.0728
   62TCq2    C2  944   4.335   2.932  14.729 -0.0815  0.6539 -0.3429
   62TCq2    C3  945   4.342   2.798  14.763  0.6777 -0.1199  0.0617
   62TCq2    C4  946   4.347   2.776  14.899  0.2700  0.4312  1.1083
   62TCq2    C5  947   4.338   2.878  14.991 -0.4038 -0.1893 -0.0641
   62TCq2    C6  948   4.322   3.007  14.939  0.0320  0.3570 -0.6687
   62TCq2    C7  949   4.315   3.036  14.811 -0.7304  0.2203  0.1015
   62TCq2    C8  950   4.302   3.124  15.020  0.2223 -0.4607 -0.1000
   62TCq2    O4  951   4.381   3.217  15.006 -0.2036  0.2957 -0.0198
   62TCq2    C9  952   4.351   2.636  14.950 -0.3914 -0.5405  0.0988
   62TCq2    O5  953   4.350   2.548  14.859  0.2153 -0.0846 -0.0864
   62TCq2    O6  954   4.340   2.613  15.075 -0.1505 -0.2204  0.3464
   62TCq2    H2  955   4.341   2.719  14.689 -0.2890  1.4342 -1.5783
   62TCq2    H3  956   4.355   2.857  15.096  1.2814 -0.3458 -0.3769
   62TCq2    H4  957   4.288   3.138  14.785  0.1700 -0.2645 -2.7253
   63TMC2    C1  958   3.664   2.775  11.492  0.1276 -0.1184 -0.2492
   63TMC2    C2  959   3.666   2.863  11.600  0.5958 -0.3288 -0.2091
   63TMC2    C3  960   3.732   2.981  11.584  0.8203  0.7391 -0.1264
   63TMC2    C4  961   3.714   2.818  11.368  0.6403 -0.3237  0.0340
   63TMC2    C5  962   3.768   2.943  11.358 -1.1118 -0.5744 -0.1100
   63TMC2    C6  963   3.782   3.020  11.464 -0.1267 -0.1741 -0.0019
   63TMC2     C  964   3.619   2.645  11.502 -0.6507 -0.1107  0.5135
   63TMC2     O  965   3.564   2.614  11.606 -0.4621 -0.0877 -0.0384
   63TMC2     H  966   3.621   2.833  11.694 -0.7422 -2.1306 -1.4225
   63TMC2    H1  967   3.716   2.765  11.273 -0.1809  0.7358 -0.5724
   63TMC2    H2  968   3.825   3.119  11.464 -0.3079 -0.0944 -0.2779
   63TMC2    C7  969   3.798   2.983  11.218  0.2550  0.7721 -0.5500
   63TMC2    C8  970   3.748   3.072  11.693 -0.1196  0.0008  0.4214
   63TMC2    O1  971   3.770   2.919  11.118 -0.2742  0.4947  0.0522
   63TMC2    O2  972   3.830   3.164  11.702 -0.1883 -0.0958  0.0632
   63TMC2    O5  973   3.632   3.066  11.765  0.1153 -0.5035 -0.6203
   63TMC2    H5  974   3.558   3.021  11.720  0.7414 -0.6761 -1.4801
   64MPD2     C  975   3.611   2.160  11.326 -0.6371  0.1598  0.4358
   64MPD2    C1  976   3.712   2.228  11.266 -0.0057  0.2524  0.1416
   64MPD2    C2  977   3.731   2.362  11.283  0.0588  0.8325 -0.5149
   64MPD2    C3  978   3.656   2.427  11.383 -0.1304  0.3174  1.3792
   64MPD2    C4  979   3.567   2.354  11.457 -0.1491  0.5826  0.9447
   64MPD2    C5  980   3.543   2.222  11.429 -0.7974  0.2729  0.5124
   64MPD2     H  981   3.807   2.413  11.225  0.5631  0.9573  0.2655
   64MPD2    H1  982   3.510   2.406  11.533 -0.2971 -0.5841  1.6285
   64MPD2    H2  983   3.586   2.059  11.297 -3.3545  1.2083 -0.8573
   64MPD2    H3  984   3.471   2.165  11.485 -0.7851  1.7131  1.9832
   64MPD2     N  985   3.669   2.568  11.402  0.2061  0.1534  0.1275
   64MPD2    H5  986   3.732   2.614  11.337 -0.9351  2.1601  0.4542
   64MPD2    N1  987   3.803   2.175  11.169 -0.9008 -0.2037 -0.3091
   64MPD2    H7  988   3.873   2.241  11.139 -2.0261  1.0503 -0.1847
   65MPD2     C  989   0.312   2.416  16.211  0.4335 -0.3159 -0.3852
   65MPD2    C1  990   0.361   2.394  16.087 -0.3475 -0.3686 -0.3898
   65MPD2    C2  991   0.362   2.265  16.036  0.1733 -0.1462 -0.2164
   65MPD2    C3  992   0.326   2.157  16.122 -0.2914  0.7075 -0.2789
   65MPD2    C4  993   0.269   2.193  16.244 -0.4982  0.3623 -0.1460
   65MPD2    C5  994   0.263   2.314  16.288 -0.3644  0.7382 -0.1932
   65MPD2     H  995   0.417   2.257  15.943 -3.0831 -0.5496 -2.1002
   65MPD2    H1  996   0.238   2.116  16.314 -0.2820  0.3260 -0.0891
   65MPD2    H2  997   0.309   2.515  16.253  0.6377 -0.0949 -0.8944
   65MPD2    H3  998   0.229   2.344  16.387  1.0131  1.6886 -0.0143
   65MPD2     N  999   0.319   2.017  16.095 -0.1721 -0.1560 -0.3195
   65MPD2    H5 1000   0.266   1.951  16.153  1.0621  0.2677  1.2990
   65MPD2    N1 1001   0.401   2.490  15.995  0.4608 -0.1390  0.1495
   65MPD2    H7 1002   0.431   2.453  15.906  2.1748  0.4822  0.4652
   66TCq2    C1 1003   0.397   2.626  16.011 -0.6393 -0.0024 -0.3446
   66TCq2    O2 1004   0.376   2.694  16.113  0.3459 -0.6131  0.1366
   66TCq2    C2 1005   0.459   2.693  15.896 -0.9139  0.0910  0.3719
   66TCq2    C3 1006   0.495   2.611  15.791 -0.1669  0.1558 -0.1956
   66TCq2    C4 1007   0.543   2.676  15.681 -0.2467  0.3207  0.5769
   66TCq2    C5 1008   0.546   2.811  15.678  0.0097  0.4520 -0.1835
   66TCq2    C6 1009   0.504   2.896  15.779  0.6289  0.1454 -0.6643
   66TCq2    C7 1010   0.455   2.830  15.895  0.9802 -0.2229 -0.2805
   66TCq2    C8 1011   0.529   3.042  15.785  0.1101  0.0750  0.2030
   66TCq2    O4 1012   0.588   3.089  15.691  0.3928  0.0591  0.0033
   66TCq2    C9 1013   0.605   2.589  15.584 -0.4092 -0.4909 -0.6051
   66TCq2    O5 1014   0.677   2.640  15.496 -0.1689  0.4036  0.7529
   66TCq2    O6 1015   0.587   2.467  15.607 -0.0316 -0.0332  0.2004
   66TCq2    H2 1016   0.515   2.505  15.792  0.1009  0.2089 -0.0987
   66TCq2    H3 1017   0.591   2.857  15.590  1.3442 -1.4297 -0.4855
   66TCq2    H4 1018   0.433   2.884  15.986  1.3907 -0.5391  0.0108
   67MPD2     C 1019   0.168   2.716  14.292 -0.5705 -0.1523  0.3014
   67MPD2    C1 1020   0.146   2.611  14.383 -0.4459 -0.6838 -0.0261
   67MPD2    C2 1021   0.084   2.496  14.336  0.1499  0.0005  0.6387
   67MPD2    C3 1022   0.042   2.483  14.207  0.5896  0.2570  0.3031
   67MPD2    C4 1023   0.042   2.586  14.122  0.0877 -0.4234  0.5125
   67MPD2    C5 1024   0.105   2.700  14.171  0.7454  0.5981 -0.6148
   67MPD2     H 1025   0.054   2.418  14.405  0.5486 -2.1645 -1.6490
   67MPD2    H1 1026   4.715   2.589  14.025  0.2496 -1.7263  0.3909
   67MPD2    H2 1027   0.222   2.803  14.328 -0.2964 -0.3148  0.2839
   67MPD2    H3 1028   0.113   2.788  14.107  3.5779  0.0213 -1.0265
   67MPD2     N 1029   4.692   2.371  14.156  0.4357  0.0491 -0.1105
   67MPD2    H5 1030   4.643   2.377  14.067  0.7829 -1.4792 -0.4100
   67MPD2    N1 1031   0.187   2.629  14.521 -0.2855 -0.2513  0.1519
   67MPD2    H7 1032   0.237   2.715  14.541  1.4309 -0.2696 -4.1974
   68TCq2    C1 1033   0.173   2.536  14.625  0.0877 -0.3381 -0.1784
   68TCq2    O2 1034   0.095   2.442  14.622 -0.1668  0.1720 -0.2587
   68TCq2    C2 1035   0.240   2.572  14.745  0.3131 -0.7538 -0.0514
   68TCq2    C3 1036   0.259   2.700  14.786 -0.7580  0.0267  0.3477
   68TCq2    C4 1037   0.325   2.719  14.900 -0.0171 -0.1438  0.3669
   68TCq2    C5 1038   0.347   2.613  14.984  0.7456  0.6989 -0.7452
   68TCq2    C6 1039   0.325   2.484  14.936 -0.6314  0.4840 -0.5924
   68TCq2    C7 1040   0.268   2.463  14.818 -0.5312  0.2375 -0.6420
   68TCq2    C8 1041   0.367   2.356  15.008  0.8816  0.3892 -0.2597
   68TCq2    O4 1042   0.334   2.250  14.954 -0.1994  0.3370 -0.0113
   68TCq2    C9 1043   0.350   2.851  14.948 -0.3163  0.4052  0.3173
   68TCq2    O5 1044   0.426   2.856  15.047  0.2400 -0.5528 -0.6290
   68TCq2    O6 1045   0.307   2.946  14.879 -0.4903 -0.1611  0.3089
   68TCq2    H2 1046   0.231   2.783  14.723  0.4874 -0.5793 -1.0125
   68TCq2    H3 1047   0.409   2.626  15.073 -0.6659  1.5222  0.1071
   68TCq2    H4 1048   0.240   2.364  14.784  1.3636  0.2265 -2.1711
   69TMC2    C1 1049   2.812   3.552  12.898 -0.1881 -0.1569  0.0351
   69TMC2    C2 1050   2.758   3.684  12.889  0.3214  0.0025  0.1084
   69TMC2    C3 1051   2.855   3.783  12.871  0.6222  0.3060  0.0627
   69TMC2    C4 1052   2.949   3.526  12.892  0.3502 -0.3861  0.2497
   69TMC2    C5 1053   3.030   3.627  12.849  0.8534  0.8223  0.5991
   69TMC2    C6 1054   2.989   3.758  12.847  0.1799 -0.3177 -0.0656
   69TMC2     C 1055   2.723   3.444  12.856 -0.5481  0.6487 -0.4913
   69TMC2     O 1056   2.768   3.330  12.866  0.0059 -0.3408 -0.1995
   69TMC2     H 1057   2.655   3.715  12.897  0.4034  0.0028  1.0925
   69TMC2    H1 1058   2.979   3.424  12.873 -0.5941 -0.6555  0.1908
   69TMC2    H2 1059   3.043   3.823  12.778  0.7082  1.0255  1.6123
   69TMC2    C7 1060   3.119   3.584  12.745 -0.7854 -0.2905  0.1001
   69TMC2    C8 1061   2.817   3.905  12.807  0.0097 -0.6219 -0.4374
   69TMC2    O1 1062   3.195   3.490  12.768 -0.9982 -0.0870 -0.0009
   69TMC2    O2 1063   2.876   4.004  12.845 -0.1427 -0.3227  0.3484
   69TMC2    O5 1064   2.804   3.867  12.676 -0.0318 -0.2368  0.2368
   69TMC2    H5 1065   2.787   3.770  12.667 -1.7730 -0.0501  1.6047
   70MPD2     C 1066   2.398   3.459  12.689  0.3468 -0.5006 -0.2214
   70MPD2    C1 1067   2.491   3.422  12.781  0.3008  0.4145  0.3510
   70MPD2    C2 1068   2.480   3.300  12.838 -0.1186 -0.6276 -0.2444
   70MPD2    C3 1069   2.363   3.231  12.830  0.2970 -1.0912  0.6964
   70MPD2    C4 1070   2.266   3.274  12.742 -0.3000 -0.9078  0.5327
   70MPD2    C5 1071   2.287   3.389  12.663 -0.2165 -0.3904  0.2207
   70MPD2     H 1072   2.549   3.257  12.911  2.0632 -0.7324 -2.3630
   70MPD2    H1 1073   2.173   3.220  12.732  0.2866 -2.1741  1.8900
   70MPD2    H2 1074   2.424   3.540  12.622 -2.2216  0.2755 -0.2788
   70MPD2    H3 1075   2.209   3.411  12.591  0.3444  0.7846 -0.0324
   70MPD2     N 1076   2.326   3.108  12.897  0.3151 -0.4185  0.6916
   70MPD2    H5 1077   2.239   3.063  12.869  0.9067 -1.2653  0.2226
   70MPD2    N1 1078   2.612   3.495  12.791  0.4194 -0.7729 -0.0427
   70MPD2    H7 1079   2.610   3.587  12.749 -1.6630 -0.6677  0.2617
   71TMC2    C1 1080   0.834   3.776   1.691  0.0640 -0.1651  0.3074
   71TMC2    C2 1081   0.958   3.738   1.719 -0.3264 -0.8654 -0.3408
   71TMC2    C3 1082   0.970   3.671   1.841  0.1869  0.1445 -0.1440
   71TMC2    C4 1083   0.730   3.779   1.780 -0.0146 -0.5228 -0.0255
   71TMC2    C5 1084   0.756   3.738   1.908 -0.6261 -0.2651  1.0212
   71TMC2    C6 1085   0.874   3.679   1.937 -0.1867  0.1332 -1.1077
   71TMC2     C 1086   0.808   3.843   1.567  0.3227 -1.0224 -0.5683
   71TMC2     O 1087   0.721   3.927   1.571 -0.0414  0.1102 -0.0797
   71TMC2     H 1088   1.037   3.760   1.648  0.8442 -0.9322  0.9374
   71TMC2    H1 1089   0.652   3.851   1.759  2.2467  2.3829  1.5022
   71TMC2    H2 1090   0.889   3.635   2.035 -1.4008  1.7887 -0.1727
   71TMC2    C7 1091   0.658   3.735   2.012 -0.2536 -0.2630 -0.3551
   71TMC2    C8 1092   1.090   3.601   1.881  0.0355  0.3750  0.6286
   71TMC2    O1 1093   0.695   3.757   2.130 -0.1359 -0.0143 -0.2278
   71TMC2    O2 1094   1.106   3.576   1.996  0.1211  0.0879 -0.3330
   71TMC2    O5 1095   1.159   3.554   1.769 -0.0255 -0.4201  0.6433
   71TMC2    H5 1096   1.126   3.575   1.679  1.2714  0.9656  0.4941
   72MPD2     C 1097   0.800   3.813   1.053  0.6005  0.1889  0.0224
   72MPD2    C1 1098   0.700   3.852   1.140  0.1260 -0.0036  0.3070
   72MPD2    C2 1099   0.726   3.844   1.277 -0.1234 -0.8596 -0.5881
   72MPD2    C3 1100   0.856   3.805   1.323  0.2520 -0.1449  0.2101
   72MPD2    C4 1101   0.953   3.775   1.228 -0.0143 -0.3730 -0.2866
   72MPD2    C5 1102   0.922   3.785   1.100  0.0199  0.1771  0.4638
   72MPD2     H 1103   0.643   3.852   1.346 -0.5217  1.2438 -1.3021
   72MPD2    H1 1104   1.058   3.764   1.254 -0.3114  1.1624  1.5679
   72MPD2    H2 1105   0.792   3.806   0.946  0.3413 -1.0802  0.1335
   72MPD2    H3 1106   0.998   3.757   1.029 -1.4049  1.5978 -1.6064
   72MPD2     N 1107   0.881   3.783   1.461 -0.0783  0.6727 -0.0941
   72MPD2    H5 1108   0.945   3.713   1.495  1.5923  0.8332 -2.9329
   72MPD2    N1 1109   0.573   3.895   1.099 -0.0736 -0.0587 -0.3931
   72MPD2    H7 1110   0.506   3.927   1.167 -0.4307  0.2788 -0.9109
   73TMC2    C1 1111   0.302   0.620  14.484  0.7032 -0.1232  0.0100
   73TMC2    C2 1112   0.218   0.671  14.577 -0.3270 -0.3685 -0.9093
   73TMC2    C3 1113   0.270   0.739  14.682 -0.1924  0.3718  1.1811
   73TMC2    C4 1114   0.434   0.626  14.517  0.1783  0.2564 -0.0751
   73TMC2    C5 1115   0.485   0.705  14.615 -0.2538  1.0637 -0.3602
   73TMC2    C6 1116   0.405   0.763  14.703 -0.4052  0.3322  0.3893
   73TMC2     C 1117   0.267   0.618  14.341 -0.0851  0.8227  0.5437
   73TMC2     O 1118   0.368   0.634  14.272  0.1107  0.1471 -0.0395
   73TMC2     H 1119   0.113   0.675  14.553 -0.1977  2.2871 -1.0442
   73TMC2    H1 1120   0.507   0.569  14.460  2.4645  0.4399  2.6333
   73TMC2    H2 1121   0.442   0.853  14.751 -0.9163  1.1153 -0.6834
   73TMC2    C7 1122   0.601   0.785  14.575 -0.9991  0.2323  0.7761
   73TMC2    C8 1123   0.181   0.808  14.775 -0.4559 -0.8314 -0.5846
   73TMC2    O1 1124   0.679   0.823  14.659  0.1242 -0.4566 -0.4401
   73TMC2    O2 1125   0.075   0.858  14.740 -0.2211 -0.5715  0.2290
   73TMC2    O5 1126   0.246   0.810  14.896  0.0689  0.1620 -0.0976
   73TMC2    H5 1127   0.324   0.751  14.896 -0.3802 -0.4378  0.7032
   74MPD2     C 1128   4.669   0.717  13.948  0.5216 -0.2578 -0.0922
   74MPD2    C1 1129   0.081   0.764  13.971 -0.4215 -0.1726  0.4182
   74MPD2    C2 1130   0.136   0.740  14.091 -0.4804 -0.3472  0.4026
   74MPD2    C3 1131   0.067   0.669  14.192 -0.8068 -0.1951  0.0905
   74MPD2    C4 1132   4.652   0.632  14.170  0.1778 -0.6595  0.2978
   74MPD2    C5 1133   4.598   0.651  14.048 -0.1847 -1.1597  0.0669
   74MPD2     H 1134   0.241   0.759  14.110 -0.2675 -1.1744  0.0697
   74MPD2    H1 1135   4.595   0.583  14.247 -1.6843 -0.8717 -1.2222
   74MPD2    H2 1136   4.625   0.724  13.849  0.6014 -0.9904 -0.1841
   74MPD2    H3 1137   4.493   0.629  14.032 -0.2841  0.2928 -1.3211
   74MPD2     N 1138   0.130   0.621  14.312 -0.3488 -0.2628 -0.1014
   74MPD2    H5 1139   0.066   0.578  14.378  1.2495  0.6321  2.0747
   74MPD2    N1 1140   0.158   0.834  13.874 -0.2953 -0.4760 -0.0998
   74MPD2    H7 1141   0.119   0.849  13.781  0.8626 -0.3115 -0.5632
   75TCq2    C1 1142   4.686   2.250  14.222 -0.8015  0.2593 -0.3085
   75TCq2    O2 1143   0.029   2.214  14.321 -0.2128  0.2074 -0.1925
   75TCq2    C2 1144   4.587   2.165  14.174 -0.2831  0.1641  0.0296
   75TCq2    C3 1145   4.536   2.085  14.271 -0.1094 -0.1267 -0.5621
   75TCq2    C4 1146   4.482   1.969  14.231 -0.3228  0.9797 -0.8067
   75TCq2    C5 1147   4.455   1.944  14.100  0.3677  0.6495  0.5387
   75TCq2    C6 1148   4.506   2.030  14.008 -0.8535 -0.1237 -0.0867
   75TCq2    C7 1149   4.563   2.148  14.038 -0.1776  0.4410 -0.4650
   75TCq2    C8 1150   4.484   1.998  13.869  0.4277 -0.6125  0.1070
   75TCq2    O4 1151   4.461   2.089  13.787 -0.9912  0.1651  0.0807
   75TCq2    C9 1152   4.439   1.874  14.331 -0.7351 -0.3683 -0.9831
   75TCq2    O5 1153   4.460   1.905  14.453 -0.1441 -0.9566 -0.7682
   75TCq2    O6 1154   4.443   1.753  14.292  0.2535 -0.0123  0.5567
   75TCq2    H2 1155   4.569   2.094  14.374  1.3939 -1.7906 -0.8874
   75TCq2    H3 1156   4.403   1.853  14.075  0.4997  0.3654  1.3162
   75TCq2    H4 1157   4.601   2.205  13.954 -0.6530  0.7412 -0.4791
   76MPD2     C 1158   4.010   2.866  12.597 -0.7216 -0.1036 -0.5923
   76MPD2    C1 1159   3.940   2.812  12.494 -0.0504 -0.2935 -0.3375
   76MPD2    C2 1160   3.966   2.689  12.451  0.3069 -0.6570 -0.1935
   76MPD2    C3 1161   4.070   2.618  12.503  0.4980 -1.0499  0.5213
   76MPD2    C4 1162   4.149   2.675  12.604 -0.4101  0.0341  0.1762
   76MPD2    C5 1163   4.122   2.796  12.651  0.0590 -0.7006  0.3055
   76MPD2     H 1164   3.908   2.652  12.368 -4.5620  1.0341  2.4611
   76MPD2    H1 1165   4.236   2.617  12.634  0.5132  2.6298  2.5352
   76MPD2    H2 1166   3.988   2.964  12.638 -1.7181 -0.5676 -0.0320
   76MPD2    H3 1167   4.193   2.834  12.724 -0.0810  3.0799 -1.4997
   76MPD2     N 1168   4.101   2.486  12.464 -0.1572 -0.0936 -0.3950
   76MPD2    H5 1169   4.177   2.437  12.511 -0.2868 -0.8673 -0.9923
   76MPD2    N1 1170   3.822   2.868  12.455 -0.4409 -0.0003 -0.2138
   76MPD2    H7 1171   3.779   2.807  12.387  0.5616 -0.2524 -0.6256
   77TCq2    C1 1172   4.025   2.401  12.385  0.5276 -0.5454  0.1528
   77TCq2    O2 1173   3.920   2.422  12.324  0.5203 -0.0694  0.0902
   77TCq2    C2 1174   4.092   2.271  12.373  0.5075 -0.2887 -0.3155
   77TCq2    C3 1175   4.007   2.174  12.339 -0.4916  0.5433  0.2674
   77TCq2    C4 1176   4.061   2.061  12.291 -0.2168 -0.0238  0.2198
   77TCq2    C5 1177   4.203   2.041  12.280  0.1491  0.6616 -0.8845
   77TCq2    C6 1178   4.283   2.144  12.328 -0.0016  0.7224 -0.4589
   77TCq2    C7 1179   4.227   2.265  12.377 -0.3327 -0.6350  0.2456
   77TCq2    C8 1180   4.430   2.140  12.325  0.1253 -0.4390  0.4608
   77TCq2    O4 1181   4.479   2.060  12.245  0.4907 -0.4427  0.1145
   77TCq2    C9 1182   3.966   1.957  12.244 -0.3166  0.0204 -0.8695
   77TCq2    O5 1183   4.035   1.856  12.208 -0.2862 -0.2475 -0.5446
   77TCq2    O6 1184   3.843   1.965  12.238 -0.6776  0.2063  0.4458
   77TCq2    H2 1185   3.899   2.178  12.347 -0.3070  1.9350  2.1250
   77TCq2    H3 1186   4.242   1.946  12.247 -1.1604  0.0755 -0.7625
   77TCq2    H4 1187   4.284   2.355  12.398 -0.5270 -0.3917 -0.2729
   78MPD1     C 1188   0.385   4.188   2.643 -0.3226 -0.0584 -0.1494
   78MPD1    C1 1189   0.463   4.078   2.606 -0.0867 -0.2928 -0.5637
   78MPD1    C2 1190   0.511   4.068   2.479  0.2536 -0.1606  0.6958
   78MPD1    C3 1191   0.464   4.153   2.385 -0.0978 -0.1843 -0.2958
   78MPD1    C4 1192   0.377   4.258   2.409  0.5210  0.0968  0.5698
   78MPD1    C5 1193   0.348   4.286   2.544 -0.0643 -0.6893  0.7856
   78MPD1     H 1194   0.585   3.991   2.460  0.6525  0.9847 -2.2554
   78MPD1    H1 1195   0.348   4.321   2.326  0.0321 -1.7719 -0.6911
   78MPD1    H2 1196   0.365   4.212   2.747 -0.6918 -0.3567 -0.1508
   78MPD1    H3 1197   0.317   4.385   2.575 -2.6234  0.0597 -4.1399
   78MPD1     N 1198   0.519   4.149   2.255 -0.1213  0.4281 -0.3553
   78MPD1    H5 1199   0.486   4.222   2.193  0.0135 -0.3002 -1.2811
   78MPD1    N1 1200   0.520   3.999   2.701  1.1552 -0.2337  0.9073
   78MPD1    H6 1201   0.473   3.999   2.792  3.1375 -2.0279  1.9404
   78MPD1    H7 1202   0.527   3.906   2.661 -0.4171  0.0218  0.0370
   79TCq2    C1 1203   0.629   4.079   2.204  0.6549 -0.0370  0.2888
   79TCq2    O2 1204   0.717   4.016   2.257 -0.4270 -0.4502 -0.5871
   79TCq2    C2 1205   0.642   4.099   2.064  0.5602  0.1523  0.3098
   79TCq2    C3 1206   0.534   4.138   1.985 -0.2832  0.0792 -0.5137
   79TCq2    C4 1207   0.559   4.172   1.854 -0.2837  0.3891  0.0454
   79TCq2    C5 1208   0.678   4.162   1.792  0.3075 -0.5588  0.0976
   79TCq2    C6 1209   0.782   4.116   1.869 -0.0608 -0.3305  0.1841
   79TCq2    C7 1210   0.768   4.094   2.002  0.5875 -0.1639 -0.3175
   79TCq2    C8 1211   0.914   4.102   1.806  0.2359  0.2215  1.4093
   79TCq2    O4 1212   1.012   4.056   1.861  0.7862  0.0247  0.1753
   79TCq2    C9 1213   0.439   4.210   1.771  0.9880  0.0252 -0.1256
   79TCq2    O5 1214   0.328   4.217   1.833  0.0330 -0.0624  0.0870
   79TCq2    O6 1215   0.447   4.220   1.644 -0.3554 -0.6406  0.1198
   79TCq2    H2 1216   0.432   4.124   2.021 -0.5395 -0.9647 -1.6284
   79TCq2    H3 1217   0.688   4.196   1.689  0.7816  1.0929  0.6813
   79TCq2    H4 1218   0.862   4.088   2.055  0.2198 -0.9452  0.2467
   80MPD2     C 1219   3.011   2.133  12.526 -0.3405  0.3705 -0.2811
   80MPD2    C1 1220   2.948   2.189  12.420  0.4552 -0.8490 -0.1096
   80MPD2    C2 1221   2.842   2.276  12.442 -0.3053 -0.2089  0.2119
   80MPD2    C3 1222   2.803   2.313  12.572  0.0935  0.3626  0.1711
   80MPD2    C4 1223   2.870   2.251  12.674  0.1943 -0.2058  0.4477
   80MPD2    C5 1224   2.969   2.159  12.651  0.2061 -0.1033 -0.2175
   80MPD2     H 1225   2.805   2.310  12.346 -1.2667  1.5130  1.1962
   80MPD2    H1 1226   2.838   2.271  12.776 -3.3773  1.7564 -1.0887
   80MPD2    H2 1227   3.096   2.066  12.519 -0.0112  0.5418  2.1098
   80MPD2    H3 1228   3.019   2.109  12.733 -2.0885  0.3178  1.4398
   80MPD2     N 1229   2.706   2.407  12.605 -0.0587  0.2230 -0.1933
   80MPD2    H5 1230   2.696   2.430  12.704 -2.2255  2.1998 -0.8998
   80MPD2    N1 1231   2.982   2.151  12.293 -0.1957  0.0641  0.5705
   80MPD2    H7 1232   2.908   2.157  12.224  0.6653  0.1313 -0.3549
   81TCq2    C1 1233   3.098   2.082  12.254 -0.1895 -0.5269 -0.4136
   81TCq2    O2 1234   3.207   2.081  12.312  0.2364  0.2710 -0.1529
   81TCq2    C2 1235   3.078   2.016  12.123 -0.0240  1.1201  0.2031
   81TCq2    C3 1236   3.190   1.985  12.052 -0.1605  1.0323  0.3997
   81TCq2    C4 1237   3.173   1.970  11.919 -0.9021 -0.3363  0.5972
   81TCq2    C5 1238   3.052   1.970  11.855  0.0987  0.1848 -0.0727
   81TCq2    C6 1239   2.943   1.983  11.935 -0.3457  0.5348 -0.3814
   81TCq2    C7 1240   2.951   2.007  12.069 -0.5041  0.1376  0.6206
   81TCq2    C8 1241   2.818   1.943  11.870  0.4589 -0.0742 -0.4368
   81TCq2    O4 1242   2.843   1.894  11.762 -0.3351  0.1978  0.5921
   81TCq2    C9 1243   3.298   1.959  11.848  0.1944 -0.2477  0.4811
   81TCq2    O5 1244   3.389   2.025  11.902 -0.0473  0.1144 -0.0760
   81TCq2    O6 1245   3.291   1.930  11.725  0.3287  0.0238  0.0104
   81TCq2    H2 1246   3.290   1.981  12.095 -0.1864 -0.8844  0.3015
   81TCq2    H3 1247   3.045   1.949  11.749  1.0768 -0.0458 -0.0923
   81TCq2    H4 1248   2.861   1.993  12.128  0.4173 -0.8782  1.7768
   82MPD2     C 1249   0.994   2.048  10.575 -0.3320  0.3294 -0.0212
   82MPD2    C1 1250   0.970   1.930  10.510 -0.1362  0.5868  0.2056
   82MPD2    C2 1251   1.032   1.816  10.552  0.2950 -0.1590  0.2157
   82MPD2    C3 1252   1.107   1.815  10.670  0.0739  0.8756 -0.6294
   82MPD2    C4 1253   1.145   1.939  10.722  0.3161  0.8610  0.1030
   82MPD2    C5 1254   1.088   2.052  10.672  0.6465  0.2339 -0.1119
   82MPD2     H 1255   1.016   1.724  10.496  1.7708 -2.4370  3.4929
   82MPD2    H1 1256   1.218   1.949  10.802  0.5890 -0.4071  0.0031
   82MPD2    H2 1257   0.965   2.138  10.523  1.6845  0.2818 -1.2163
   82MPD2    H3 1258   1.125   2.150  10.701  2.6742 -0.4567 -0.3520
   82MPD2     N 1259   1.165   1.699  10.728  0.7049 -0.4654  0.0211
   82MPD2    H5 1260   1.234   1.712  10.801 -0.2244  0.2853  0.7673
   82MPD2    N1 1261   0.885   1.943  10.399 -0.6669  0.3197  0.0618
   82MPD2    H7 1262   0.849   2.035  10.376 -0.5520 -0.0872 -1.6959
   83TCq2    C1 1263   1.109   1.575  10.703 -0.0121 -0.1733  0.5376
   83TCq2    O2 1264   1.003   1.543  10.651  0.6098 -0.2032 -0.3644
   83TCq2    C2 1265   1.162   1.481  10.807  0.0909 -0.4331  0.5673
   83TCq2    C3 1266   1.286   1.513  10.860  0.4296  0.6290  0.0353
   83TCq2    C4 1267   1.315   1.453  10.983 -0.2470  0.7848 -0.6931
   83TCq2    C5 1268   1.218   1.380  11.051  0.6166 -0.1034 -0.2118
   83TCq2    C6 1269   1.099   1.357  10.992  0.4900  0.0457 -0.1615
   83TCq2    C7 1270   1.071   1.403  10.868 -0.0470  0.0977  0.2910
   83TCq2    C8 1271   0.993   1.261  11.029 -0.7414 -0.4505 -0.2655
   83TCq2    O4 1272   0.941   1.192  10.945  0.3817  0.1738 -0.4215
   83TCq2    C9 1273   1.450   1.464  11.030 -0.1072 -0.5738 -0.4350
   83TCq2    O5 1274   1.487   1.387  11.126  0.1890  0.1732  0.2816
   83TCq2    O6 1275   1.510   1.569  10.997  0.3334  0.2420  0.1790
   83TCq2    H2 1276   1.372   1.559  10.813  0.5608  1.0975  0.7328
   83TCq2    H3 1277   1.233   1.346  11.153 -2.3223 -0.0639  0.2346
   83TCq2    H4 1278   0.985   1.375  10.808  0.8347  0.6405 -1.2351
   84TCq2    C1 1279   1.908   0.668  11.165 -0.0063  0.3766  0.1506
   84TCq2    O2 1280   2.005   0.598  11.136 -0.0775  0.0435  0.4284
   84TCq2    C2 1281   1.852   0.654  11.297  0.3097 -0.5451 -0.1644
   84TCq2    C3 1282   1.928   0.580  11.392  0.1306  0.2314 -0.1936
   84TCq2    C4 1283   1.896   0.588  11.528 -0.0730 -0.0566 -0.1201
   84TCq2    C5 1284   1.790   0.665  11.572  0.5544 -0.3414 -0.5348
   84TCq2    C6 1285   1.722   0.735  11.471 -0.0498 -0.2140  0.6868
   84TCq2    C7 1286   1.743   0.727  11.337  0.2862  0.1406 -0.2167
   84TCq2    C8 1287   1.617   0.837  11.504 -0.1271 -0.0613  0.0647
   84TCq2    O4 1288   1.565   0.901  11.415  0.1013  0.0835  0.1279
   84TCq2    C9 1289   1.993   0.539  11.628 -0.4944 -0.0737  0.4202
   84TCq2    O5 1290   1.973   0.568  11.745  0.2435 -0.6811  0.0121
   84TCq2    O6 1291   2.093   0.477  11.585 -0.9574  0.0127  0.1562
   84TCq2    H2 1292   2.017   0.523  11.369 -1.4671 -0.5509 -4.5642
   84TCq2    H3 1293   1.766   0.674  11.677 -0.7429  1.0609 -0.9549
   84TCq2    H4 1294   1.686   0.788  11.267  0.7035 -1.2227 -1.7549
   85MPD2     C 1295   2.638   3.619  16.674 -0.0828 -0.2504 -0.6279
   85MPD2    C1 1296   2.579   3.599  16.552 -0.0202 -0.4077  0.0238
   85MPD2    C2 1297   2.568   3.716  16.469 -0.1720  0.1343 -0.0749
   85MPD2    C3 1298   2.624   3.838  16.514 -0.5712 -0.0229  0.4629
   85MPD2    C4 1299   2.674   3.853  16.646 -0.9528  0.4773  0.2299
   85MPD2    C5 1300   2.675   3.739  16.724  0.2159 -0.0060  0.0400
   85MPD2     H 1301   2.527   3.703  16.369 -2.3818 -1.1131  0.9824
   85MPD2    H1 1302   2.716   3.940  16.695  0.3879  0.6317 -1.1758
   85MPD2    H2 1303   2.654   3.544  16.752  0.3639 -0.0782 -0.5568
   85MPD2    H3 1304   2.725   3.744  16.820 -2.0050 -0.1194  1.2051
   85MPD2     N 1305   2.624   3.940  16.413 -1.0820  0.3466  0.1996
   85MPD2    H5 1306   2.565   3.917  16.334  0.6907 -1.1070 -0.6938
   85MPD2    N1 1307   2.523   3.473  16.513 -1.3786  0.3773  0.1643
   85MPD2    H7 1308   2.501   3.465  16.415 -0.2493 -0.2191 -0.0476
   86TCq2    C1 1309   2.677   4.064  16.431  0.4444 -0.1162 -0.5565
   86TCq2    O2 1310   2.725   4.115  16.532  0.1595  0.1496  0.2007
   86TCq2    C2 1311   2.677   4.149  16.314  0.5383  0.3063  0.6342
   86TCq2    C3 1312   2.613   4.117  16.198 -0.1047  0.1787  0.1256
   86TCq2    C4 1313   2.565   4.223  16.121  0.8039  0.1348  0.4702
   86TCq2    C5 1314   2.599   4.355  16.144  0.3302 -0.0497  0.0105
   86TCq2    C6 1315   2.678   4.379  16.257  0.2042  0.2257 -0.2298
   86TCq2    C7 1316   2.723   4.278  16.338 -0.4043  0.6111  0.0795
   86TCq2    C8 1317   2.676   4.509  16.315 -0.2671  0.5775 -0.0511
   86TCq2    O4 1318   2.754   4.535  16.403 -0.2814 -0.2577 -0.4416
   86TCq2    C9 1319   2.487   4.187  16.004  0.2546 -0.7230  0.0751
   86TCq2    O5 1320   2.425   4.276  15.945  0.2395 -0.0606 -0.4712
   86TCq2    O6 1321   2.470   4.063  15.975  0.1940  0.3877  0.0548
   86TCq2    H2 1322   2.600   4.012  16.175  1.4925  0.1506 -0.6527
   86TCq2    H3 1323   2.575   4.431  16.071  0.1791  1.0130  1.1645
   86TCq2    H4 1324   2.777   4.309  16.426  0.0747 -0.2896  0.0971
   87MPD2     C 1325   0.849   3.299   1.902  0.5268 -0.1102 -0.6184
   87MPD2    C1 1326   0.902   3.274   1.774 -0.4707  0.0903  0.0608
   87MPD2    C2 1327   0.857   3.355   1.673  0.2908  0.1606  0.0298
   87MPD2    C3 1328   0.741   3.429   1.688  0.1305  0.6485 -0.5681
   87MPD2    C4 1329   0.679   3.437   1.811  0.0348 -0.1834  0.0457
   87MPD2    C5 1330   0.741   3.378   1.917 -0.3310  0.2919  0.6096
   87MPD2     H 1331   0.899   3.359   1.573  1.1175  4.2368  0.5417
   87MPD2    H1 1332   0.598   3.506   1.830 -0.6410 -0.8396 -0.4576
   87MPD2    H2 1333   0.885   3.233   1.981  2.1851 -0.1974 -1.4527
   87MPD2    H3 1334   0.699   3.388   2.017 -1.3860 -1.0568  0.2945
   87MPD2     N 1335   0.672   3.498   1.587  0.0677  0.5154  0.2077
   87MPD2    H5 1336   0.578   3.528   1.612  0.3389 -0.7378  2.6800
   87MPD2    N1 1337   1.013   3.188   1.755 -0.5081  0.7118  0.2293
   87MPD2    H7 1338   1.038   3.126   1.831 -1.8427  1.7284  1.5094
   88TCq2    C1 1339   1.096   3.180   1.647  0.1303 -0.0883 -0.7859
   88TCq2    O2 1340   1.099   3.238   1.537 -0.3607 -0.7060  0.1412
   88TCq2    C2 1341   1.186   3.073   1.679 -0.1388  0.1831  0.4911
   88TCq2    C3 1342   1.217   3.048   1.808 -0.1391 -0.4070 -0.8758
   88TCq2    C4 1343   1.235   2.919   1.851  0.6448 -0.0519 -0.3432
   88TCq2    C5 1344   1.238   2.812   1.764  0.5557 -0.3224 -0.6949
   88TCq2    C6 1345   1.211   2.841   1.630 -0.0093  0.2278 -0.2901
   88TCq2    C7 1346   1.192   2.968   1.584  1.0258  0.3106 -0.3533
   88TCq2    C8 1347   1.168   2.741   1.536  0.2478  0.1802 -0.4459
   88TCq2    O4 1348   1.180   2.766   1.416 -0.0352 -0.7478 -0.0313
   88TCq2    C9 1349   1.240   2.884   1.992  0.1752  0.7743 -0.2732
   88TCq2    O5 1350   1.265   2.766   2.026  0.1538 -0.0814 -0.4690
   88TCq2    O6 1351   1.218   2.984   2.067 -0.2169 -0.3230 -1.1893
   88TCq2    H2 1352   1.219   3.130   1.878 -0.9300 -0.3286 -0.9443
   88TCq2    H3 1353   1.260   2.715   1.807  0.2104 -1.5775 -3.3557
   88TCq2    H4 1354   1.166   2.983   1.480  0.9164  2.8618  0.0581
   89MPD2     C 1355   0.233   0.260   2.400  0.2245  0.5696  1.0028
   89MPD2    C1 1356   0.229   0.250   2.265 -0.4369 -0.0892  0.5586
   89MPD2    C2 1357   0.349   0.217   2.206  0.1256  0.4403 -0.0943
   89MPD2    C3 1358   0.459   0.176   2.279  0.0587  0.2033 -0.2812
   89MPD2    C4 1359   0.454   0.172   2.420  0.0787 -0.0574 -0.5122
   89MPD2    C5 1360   0.338   0.213   2.474 -0.3346  0.0293 -0.1646
   89MPD2     H 1361   0.357   0.223   2.098 -0.1025  1.7852 -0.0319
   89MPD2    H1 1362   0.540   0.143   2.479  1.1346  2.5571 -0.7420
   89MPD2    H2 1363   0.150   0.303   2.455  0.4202  1.3886  0.6568
   89MPD2    H3 1364   0.327   0.224   2.581 -2.2741  0.3893 -0.3991
   89MPD2     N 1365   0.580   0.134   2.214  0.3355  0.5598  0.3950
   89MPD2    H5 1366   0.583   0.150   2.114  1.2670  1.6445  0.5981
   89MPD2    N1 1367   0.120   0.305   2.195  0.7744 -0.8229  0.3780
   89MPD2    H7 1368   0.116   0.287   2.096 -1.4912  0.7805  0.1829
   90TCq2    C1 1369   0.699   0.095   2.273  0.0362 -0.4150 -0.9490
   90TCq2    O2 1370   0.730   0.066   2.386 -0.5089 -0.3452 -0.0010
   90TCq2    C2 1371   0.809   0.091   2.178 -0.5365  0.3841 -0.1067
   90TCq2    C3 1372   0.933   0.041   2.214 -0.1471 -0.2488  0.1748
   90TCq2    C4 1373   1.025   0.023   2.114  0.0059 -0.6296 -0.8801
   90TCq2    C5 1374   1.013   0.055   1.981  0.1602  0.4202 -0.1527
   90TCq2    C6 1375   0.894   0.115   1.961  0.0580 -0.1372  0.2633
   90TCq2    C7 1376   0.790   0.121   2.048 -0.5986  0.0327  0.0859
   90TCq2    C8 1377   0.864   0.159   1.823 -0.1935 -0.3523  0.3342
   90TCq2    O4 1378   0.748   0.193   1.806 -0.2329 -0.4823 -0.4356
   90TCq2    C9 1379   1.154   4.687   2.150 -0.0231  0.0601  0.4108
   90TCq2    O5 1380   1.245   4.670   2.062 -0.1289 -0.6828 -0.5819
   90TCq2    O6 1381   1.177   4.693   2.273 -0.5344 -0.3602 -0.5840
   90TCq2    H2 1382   0.949   0.000   2.313  1.1106 -0.4086 -0.1000
   90TCq2    H3 1383   1.086   0.023   1.907  0.1104 -1.1032  0.4561
   90TCq2    H4 1384   0.694   0.158   2.011  0.7276  0.5970 -2.8356
   91TMC2    C1 1385   2.880   0.592  16.949 -0.2506 -0.0493 -0.1552
   91TMC2    C2 1386   2.967   0.694  16.970 -0.3270 -0.4871 -0.4643
   91TMC2    C3 1387   2.904   0.805  17.021 -0.2515 -0.6059 -0.0981
   91TMC2    C4 1388   2.747   0.588  16.964  0.9650 -0.2666 -0.0898
   91TMC2    C5 1389   2.690   0.702  17.007  0.0078  0.3808  0.3563
   91TMC2    C6 1390   2.765   0.807  17.041  0.7036 -0.1506 -0.0177
   91TMC2     C 1391   2.942   0.461  16.923 -0.1165 -0.7591  0.3354
   91TMC2     O 1392   2.863   0.367  16.929  0.2125  0.1464  0.7063
   91TMC2     H 1393   3.073   0.701  16.946 -0.7857  0.9616 -2.0174
   91TMC2    H1 1394   2.689   0.496  16.960 -0.0053  0.2522  2.3379
   91TMC2    H2 1395   2.720   0.898  17.081 -0.8926 -0.8177 -0.3005
   91TMC2    C7 1396   2.544   0.698  17.039  0.1007  0.0148  0.1156
   91TMC2    C8 1397   2.984   0.925  17.037 -0.4351 -0.0945  0.1050
   91TMC2    O1 1398   2.519   0.752  17.143  0.4549  0.3636  0.3701
   91TMC2    O2 1399   3.111   0.919  17.040  0.0424  0.5673  0.3093
   91TMC2    O5 1400   2.915   1.028  16.982  0.0999 -0.1906 -0.5319
   91TMC2    H5 1401   2.829   1.004  16.942 -0.1771  0.4619 -0.3300
   92MPD2     C 1402   3.121   0.215  16.875 -0.4243  0.1108 -1.0769
   92MPD2    C1 1403   3.166   0.346  16.883  0.1792 -0.3101  0.2650
   92MPD2    C2 1404   3.298   0.381  16.867  0.0743  0.9722  0.0074
   92MPD2    C3 1405   3.393   0.279  16.835 -0.0853 -0.1708  1.1052
   92MPD2    C4 1406   3.350   0.148  16.820 -0.6206  0.8140  0.4753
   92MPD2    C5 1407   3.217   0.124  16.851 -0.3575  0.4349 -0.0420
   92MPD2     H 1408   3.328   0.485  16.864  0.9037  0.7243 -0.1773
   92MPD2    H1 1409   3.411   0.065  16.784 -1.0311  0.9492 -0.5536
   92MPD2    H2 1410   3.019   0.179  16.879 -0.4352 -0.0329 -2.7506
   92MPD2    H3 1411   3.180   0.022  16.854 -1.6872  0.8421 -2.7045
   92MPD2     N 1412   3.522   0.329  16.809 -0.6179 -0.4974  0.5536
   92MPD2    H5 1413   3.545   0.427  16.827 -1.0173 -0.3673  0.3662
   92MPD2    N1 1414   3.082   0.456  16.910 -0.6537 -0.2717  0.5951
   92MPD2    H7 1415   3.133   0.544  16.911 -3.3862  1.3303 -1.5177
   93MPD2     C 1416   4.054   4.442  14.020 -0.1915  0.7086 -0.3902
   93MPD2    C1 1417   4.042   4.561  14.089 -0.8415 -0.1358 -0.5996
   93MPD2    C2 1418   3.924   4.579  14.156 -0.1373 -0.1544  0.0195
   93MPD2    C3 1419   3.819   4.493  14.154  0.5315 -0.1333  0.1818
   93MPD2    C4 1420   3.834   4.377  14.081  0.1337  0.2257 -0.4486
   93MPD2    C5 1421   3.949   4.364  14.010 -0.3546 -0.4395  0.9782
   93MPD2     H 1422   3.920   4.674  14.209  0.8379 -0.1629  0.1195
   93MPD2    H1 1423   3.753   4.305  14.080  0.6807 -0.3910 -0.5665
   93MPD2    H2 1424   4.144   4.402  13.975  0.5264  1.0933  0.7133
   93MPD2    H3 1425   3.966   4.274  13.951 -3.7370 -0.3760 -0.0738
   93MPD2     N 1426   3.693   4.514  14.220  0.1588  0.3464 -0.5632
   93MPD2    H5 1427   3.618   4.451  14.191  1.1518 -1.6361  1.2328
   93MPD2    N1 1428   4.147   4.660  14.113 -0.0989 -0.1178  0.3267
   93MPD2    H7 1429   4.131   0.014  14.178 -0.3483 -0.6050  0.8333
   94TCq2    C1 1430   4.264   4.675  14.041 -0.0614 -1.1317 -0.6204
   94TCq2    O2 1431   4.286   4.621  13.934 -0.1850  0.4774 -0.5535
   94TCq2    C2 1432   4.329   0.076  14.065 -0.4066  0.2052  0.5861
   94TCq2    C3 1433   4.338   0.114  14.196  0.2147  0.1666 -0.2519
   94TCq2    C4 1434   4.421   0.215  14.235 -0.1919  0.4274 -0.7513
   94TCq2    C5 1435   4.505   0.281  14.148 -0.9827  0.1112  0.2586
   94TCq2    C6 1436   4.497   0.235  14.013  0.3862  0.1882 -0.4566
   94TCq2    C7 1437   4.412   0.131  13.974  0.8018 -0.1385 -0.4356
   94TCq2    C8 1438   4.595   0.275  13.914 -0.6031 -0.3585  0.3667
   94TCq2    O4 1439   4.568   0.258  13.793  0.2803  0.0271  0.6169
   94TCq2    C9 1440   4.453   0.239  14.377  0.1878  0.5493 -0.0568
   94TCq2    O5 1441   4.362   0.242  14.465  0.4014  0.5238 -0.1565
   94TCq2    O6 1442   4.577   0.258  14.397  0.2097 -0.3017  0.1523
   94TCq2    H2 1443   4.289   0.062  14.277 -0.0146 -1.1289 -1.2121
   94TCq2    H3 1444   4.575   0.359  14.175 -0.9594  0.1919 -0.0353
   94TCq2    H4 1445   4.422   0.096  13.872 -0.0846 -1.0974 -0.1849
   95TMC2    C1 1446   4.660   1.570  16.868 -0.1436  0.1361 -0.0658
   95TMC2    C2 1447   4.664   1.455  16.946 -0.1164 -0.0022 -0.6662
   95TMC2    C3 1448   4.580   1.453  17.047  0.3692  0.3498 -0.2342
   95TMC2    C4 1449   4.572   1.680  16.891 -0.0422  0.7822  0.0106
   95TMC2    C5 1450   4.481   1.665  16.989  0.4424  0.0498 -0.2903
   95TMC2    C6 1451   4.485   1.552  17.066 -0.2423 -0.4053 -0.3809
   95TMC2     C 1452   4.692   1.555  16.729 -0.4710 -0.0457 -0.0564
   95TMC2     O 1453   4.694   1.657  16.665 -0.3160 -0.6211 -0.0071
   95TMC2     H 1454   0.011   1.372  16.933  0.6836  0.5102  0.3755
   95TMC2    H1 1455   4.563   1.762  16.821 -1.6872  0.8435  0.3089
   95TMC2    H2 1456   4.416   1.546  17.150 -2.0731 -1.7183 -1.9791
   95TMC2    C7 1457   4.391   1.767  17.036 -1.2011  0.6251  0.4447
   95TMC2    C8 1458   4.546   1.330  17.120  0.2941 -0.1141  0.8268
   95TMC2    O1 1459   4.341   1.769  17.142  0.1464  0.3361  0.3149
   95TMC2    O2 1460   4.574   1.222  17.072 -0.3229 -0.2803  0.1014
   95TMC2    O5 1461   4.558   1.371  17.249 -0.0467 -0.0548  0.4298
   95TMC2    H5 1462   4.560   1.467  17.271 -1.3455  0.2906 -1.0066
   96MPD2     C 1463   0.129   1.315  16.295 -0.2140 -0.4505  0.1212
   96MPD2    C1 1464   0.084   1.440  16.324 -0.2099  0.3420  0.4295
   96MPD2    C2 1465   0.041   1.479  16.453  0.3480 -0.5387 -0.7303
   96MPD2    C3 1466   0.052   1.390  16.560  0.2409 -0.3029  0.3582
   96MPD2    C4 1467   0.103   1.266  16.527  0.0849  0.5483 -0.2223
   96MPD2    C5 1468   0.144   1.225  16.401 -0.0031 -0.9830 -0.2970
   96MPD2     H 1469   0.010   1.581  16.471  0.5083 -0.7080  0.5178
   96MPD2    H1 1470   0.098   1.190  16.604  2.2322 -0.5802 -1.1924
   96MPD2    H2 1471   0.153   1.286  16.193 -0.6729  0.1034 -0.1475
   96MPD2    H3 1472   0.175   1.123  16.381 -0.1116 -1.2537  0.9020
   96MPD2     N 1473   0.013   1.428  16.690  0.4337 -0.0954  0.2286
   96MPD2    H5 1474   0.016   1.351  16.757 -0.3140 -0.4720 -0.1716
   96MPD2    N1 1475   0.099   1.525  16.213  0.4780  0.3307 -0.0193
   96MPD2    H7 1476   0.152   1.495  16.132  0.0889 -1.4799  0.4068
   97MPD2     C 1477   1.705   4.368   1.852  0.3848 -0.0759  0.1116
   97MPD2    C1 1478   1.743   4.241   1.885  0.1748 -0.1005  0.4604
   97MPD2    C2 1479   1.853   4.181   1.824  0.6546 -0.7264 -0.2615
   97MPD2    C3 1480   1.932   4.257   1.732  0.3346 -0.2251 -0.5197
   97MPD2    C4 1481   1.885   4.380   1.697  0.2617 -0.3162  0.5011
   97MPD2    C5 1482   1.776   4.438   1.754  0.5146  0.0235 -0.1463
   97MPD2     H 1483   1.879   4.079   1.851 -0.7097 -1.1241 -0.4798
   97MPD2    H1 1484   1.949   4.439   1.632  0.3087  0.7136  1.4712
   97MPD2    H2 1485   1.619   4.413   1.900 -0.2500 -1.6211  0.4399
   97MPD2    H3 1486   1.749   4.539   1.725 -1.0733 -0.3877 -0.1092
   97MPD2     N 1487   2.046   4.210   1.665 -1.0201  0.1961 -0.0128
   97MPD2    H5 1488   2.090   4.279   1.605 -0.1828 -0.3614 -0.0316
   97MPD2    N1 1489   1.648   4.175   1.982  0.1271 -0.0103  0.4321
   97MPD2    H7 1490   1.563   4.225   2.008  1.5684  2.0622  1.0910
   98TCq2    C1 1491   2.087   4.083   1.666 -0.5444  0.1604 -0.0369
   98TCq2    O2 1492   2.065   3.995   1.745  0.1766 -0.1068  0.1723
   98TCq2    C2 1493   2.177   4.060   1.551  0.7094  0.4397 -0.2978
   98TCq2    C3 1494   2.256   3.949   1.554 -0.0155 -0.5226 -0.3783
   98TCq2    C4 1495   2.342   3.924   1.449 -0.1552 -0.1506  0.3347
   98TCq2    C5 1496   2.359   4.017   1.350  0.7561  0.3111  0.3850
   98TCq2    C6 1497   2.284   4.125   1.347  0.6369 -0.0196 -0.0753
   98TCq2    C7 1498   2.187   4.149   1.445 -0.1197  0.4211 -1.1977
   98TCq2    C8 1499   2.314   4.213   1.232 -0.1239 -0.7169 -0.1620
   98TCq2    O4 1500   2.420   4.217   1.176 -0.2852  0.3425 -0.4943
   98TCq2    C9 1501   2.416   3.804   1.443 -0.0691  0.2180  0.2795
   98TCq2    O5 1502   2.370   3.708   1.514 -0.1360 -0.1940  0.3967
   98TCq2    O6 1503   2.515   3.793   1.368 -0.0813  0.3974 -1.0802
   98TCq2    H2 1504   2.239   3.868   1.623 -0.9861  0.5764  0.6599
   98TCq2    H3 1505   2.430   3.991   1.272  0.6608 -0.3314  0.5146
   98TCq2    H4 1506   2.121   4.235   1.440 -1.7135 -0.6682  1.5440
   99MPD2     C 1507   1.542   1.302   1.587  0.3335  0.1193 -0.3880
   99MPD2    C1 1508   1.427   1.361   1.568 -0.4337 -0.1361  0.1043
   99MPD2    C2 1509   1.356   1.322   1.455 -0.0112  0.4013  0.2843
   99MPD2    C3 1510   1.398   1.225   1.366  0.1488  0.4158 -0.7159
   99MPD2    C4 1511   1.521   1.166   1.394 -0.0073 -0.1108 -0.3734
   99MPD2    C5 1512   1.589   1.211   1.502 -0.0029 -0.2425 -0.0459
   99MPD2     H 1513   1.267   1.379   1.428 -1.1311 -3.0493 -3.3153
   99MPD2    H1 1514   1.571   1.087   1.340  0.2113 -0.5566  0.4746
   99MPD2    H2 1515   1.608   1.327   1.668  0.6811 -0.6699 -0.4281
   99MPD2    H3 1516   1.691   1.172   1.508 -0.7019 -2.0600  0.1267
   99MPD2     N 1517   1.316   1.192   1.255 -0.0548  0.2586  0.9690
   99MPD2    H5 1518   1.228   1.242   1.249  0.7446  1.3318 -1.6613
   99MPD2    N1 1519   1.384   1.470   1.645 -0.1482  0.0604  0.1036
   99MPD2    H7 1520   1.291   1.502   1.621 -0.2633 -0.2064  0.1872
  100TCq2    C1 1521   1.460   1.533   1.740 -0.7387  0.0706 -0.5988
  100TCq2    O2 1522   1.578   1.516   1.775  0.3757 -0.1671  0.4558
  100TCq2    C2 1523   1.392   1.642   1.811  0.6667  0.2085 -0.4473
  100TCq2    C3 1524   1.470   1.725   1.884  0.4327 -0.4186  0.1308
  100TCq2    C4 1525   1.422   1.820   1.972 -0.7723 -0.5777 -0.8514
  100TCq2    C5 1526   1.287   1.829   1.968  0.1950 -0.1895  0.1900
  100TCq2    C6 1527   1.200   1.745   1.898 -0.2200 -0.1167  0.3744
  100TCq2    C7 1528   1.254   1.644   1.825 -0.3630  0.6651 -0.2328
  100TCq2    C8 1529   1.055   1.762   1.924  0.0401  0.4784 -0.5890
  100TCq2    O4 1530   1.029   1.858   1.998 -0.5094 -0.4385  0.5236
  100TCq2    C9 1531   1.511   1.918   2.035 -0.5071  0.0783 -0.0288
  100TCq2    O5 1532   1.459   2.016   2.089  0.2775  0.4339 -0.4752
  100TCq2    O6 1533   1.632   1.880   2.055 -0.3206  0.0345  0.6400
  100TCq2    H2 1534   1.577   1.722   1.864 -0.3577 -0.8852 -4.1280
  100TCq2    H3 1535   1.250   1.910   2.030  0.7014  1.1812 -1.2976
  100TCq2    H4 1536   1.188   1.578   1.771  0.5741  1.8541 -2.8477
  101MPD2     C 1537   1.656   2.864  12.868  0.0855 -0.3112 -0.1129
  101MPD2    C1 1538   1.528   2.898  12.867 -0.0201  0.4476 -0.2505
  101MPD2    C2 1539   1.452   2.880  12.980 -0.3934 -0.3093 -0.1164
  101MPD2    C3 1540   1.514   2.845  13.095  0.3010  0.6511 -0.1787
  101MPD2    C4 1541   1.645   2.815  13.099  0.0644  0.5761  0.2119
  101MPD2    C5 1542   1.720   2.822  12.978  0.1825  0.1183 -0.4158
  101MPD2     H 1543   1.350   2.915  12.986 -0.0184  0.8037 -0.1684
  101MPD2    H1 1544   1.698   2.788  13.190 -0.0451 -0.5031 -0.0370
  101MPD2    H2 1545   1.721   2.865  12.781 -1.3657  1.5876 -1.1595
  101MPD2    H3 1546   1.825   2.797  12.977 -0.1762 -1.3406 -0.8076
  101MPD2     N 1547   1.428   2.820  13.208 -0.6345  0.3331 -0.5406
  101MPD2    H5 1548   1.332   2.797  13.185  0.1393  0.1565 -3.6388
  101MPD2    N1 1549   1.472   2.943  12.743 -0.3356 -0.2893  0.0307
  101MPD2    H7 1550   1.542   2.962  12.672  0.0028 -0.2649  0.3700
  102TCq2    C1 1551   1.488   3.022  12.262  0.3743 -0.1339  0.6924
  102TCq2    O2 1552   1.593   2.967  12.288 -0.2662 -0.5511  0.1237
  102TCq2    C2 1553   1.380   3.039  12.368  0.7823 -0.0818 -1.1907
  102TCq2    C3 1554   1.282   3.136  12.341 -0.3872  0.2450  0.0250
  102TCq2    C4 1555   1.205   3.183  12.448  0.3720  0.8479  0.4875
  102TCq2    C5 1556   1.238   3.141  12.576 -0.1207  0.1345  0.4731
  102TCq2    C6 1557   1.337   3.051  12.597  0.4832 -0.4321  0.6238
  102TCq2    C7 1558   1.414   3.004  12.497 -0.0862  0.0680 -0.4095
  102TCq2    C8 1559   1.347   3.001  12.727  0.1488 -0.0647  0.4224
  102TCq2    O4 1560   1.255   3.015  12.807  0.3692  0.2919  0.1600
  102TCq2    C9 1561   1.104   3.285  12.434 -0.1321 -0.0018  0.4510
  102TCq2    O5 1562   1.088   3.325  12.313  0.2434  0.3262  0.0950
  102TCq2    O6 1563   1.066   3.345  12.532  0.1773  0.1236  0.6857
  102TCq2    H2 1564   1.257   3.173  12.242  0.9959  0.6848 -0.1715
  102TCq2    H3 1565   1.172   3.167  12.658  0.4632 -1.1224  1.3345
  102TCq2    H4 1566   1.479   2.919  12.507 -1.6796 -1.1335 -0.2815
  103TMC2    C1 1567   0.077   2.479  12.930  0.5974  0.0855  0.1474
  103TMC2    C2 1568   0.210   2.520  12.924  0.1397  0.0834 -0.0650
  103TMC2    C3 1569   0.238   2.643  12.984 -0.8737 -0.3627  0.0512
  103TMC2    C4 1570   4.704   2.560  12.975  0.9153 -0.6949 -0.0667
  103TMC2    C5 1571   0.021   2.679  13.035 -0.1861 -0.5906  0.6126
  103TMC2    C6 1572   0.149   2.729  13.036  0.0437 -0.4545  0.1286
  103TMC2     C 1573   0.039   2.373  12.841  0.2267  0.2481  0.6194
  103TMC2     O 1574   4.662   2.318  12.880  0.7781 -0.3096 -0.1587
  103TMC2     H 1575   0.284   2.445  12.899 -1.0361 -0.4416 -1.9764
  103TMC2    H1 1576   4.602   2.527  12.991  0.8722 -0.4313  0.2093
  103TMC2    H2 1577   0.181   2.819  13.087 -0.5597  0.4763 -1.1289
  103TMC2    C7 1578   4.637   2.770  13.066 -0.5022 -0.4521 -0.4984
  103TMC2    C8 1579   0.380   2.671  12.989  0.1512  0.6748 -0.3276
  103TMC2    O1 1580   4.520   2.733  13.072  0.0052 -0.1494 -0.0065
  103TMC2    O2 1581   0.417   2.761  13.062 -0.0691  0.2143  0.8801
  103TMC2    O5 1582   0.447   2.621  12.889  0.1530  0.0370  0.1180
  103TMC2    H5 1583   0.399   2.562  12.826 -2.0424  1.1340  0.7512
  104MPD2     C 1584   0.167   2.303  12.490  1.1424  0.3696 -0.0200
  104MPD2    C1 1585   0.075   2.315  12.594  0.6350  0.3715  0.4610
  104MPD2    C2 1586   4.662   2.294  12.569 -0.3125  0.2988 -0.0863
  104MPD2    C3 1587   4.627   2.236  12.448  0.3467  0.2036  0.1668
  104MPD2    C4 1588   4.718   2.226  12.341  0.2459  0.5902  0.4407
  104MPD2    C5 1589   0.127   2.262  12.363  0.4034  0.0369 -0.3888
  104MPD2     H 1590   4.585   2.315  12.642  0.4247  0.9756  0.5032
  104MPD2    H1 1591   4.690   2.187  12.244 -1.6558  0.0859  1.1811
  104MPD2    H2 1592   0.269   2.332  12.509  1.6659 -1.1436 -0.4922
  104MPD2    H3 1593   0.204   2.237  12.290  0.1076 -2.4286  0.1318
  104MPD2     N 1594   4.487   2.209  12.427  0.0740  0.6122 -0.2786
  104MPD2    H5 1595   4.422   2.236  12.501  1.5672  1.7799  0.5853
  104MPD2    N1 1596   0.114   2.366  12.725  0.7922  0.8202  0.7641
  104MPD2    H7 1597   0.203   2.414  12.721  1.8010 -1.1515 -0.7167
  105MPD2     C 1598   1.148   1.820   0.396  0.1480  0.2355  0.3398
  105MPD2    C1 1599   1.116   1.951   0.344 -0.4339  0.3498 -0.7766
  105MPD2    C2 1600   1.055   2.041   0.425 -0.0552 -0.0308  0.4578
  105MPD2    C3 1601   1.032   2.015   0.559  0.1518  0.6652  0.1505
  105MPD2    C4 1602   1.057   1.883   0.606 -0.3866 -0.3482 -0.6096
  105MPD2    C5 1603   1.114   1.789   0.522 -0.6715 -0.4778  0.4041
  105MPD2     H 1604   1.020   2.129   0.372  2.7865  1.2774  0.7498
  105MPD2    H1 1605   1.042   1.847   0.707 -2.1336  0.1859 -0.6762
  105MPD2    H2 1606   1.189   1.744   0.331  0.7031 -0.1363  1.1353
  105MPD2    H3 1607   1.112   1.686   0.554  2.6130 -1.0712 -1.3911
  105MPD2     N 1608   0.967   2.114   0.630 -0.8340  0.2947  0.5980
  105MPD2    H5 1609   0.961   2.204   0.584 -0.1407  0.5330  0.9711
  105MPD2    N1 1610   1.146   1.982   0.207 -0.2460 -0.2133  0.4376
  105MPD2    H7 1611   1.104   2.067   0.169  0.3656 -0.2547 -0.3379
  106TCq2    C1 1612   0.926   2.107   0.759 -0.0836 -0.2384  0.0312
  106TCq2    O2 1613   0.951   2.019   0.842 -0.2863  0.1789 -0.2043
  106TCq2    C2 1614   0.881   2.231   0.810 -0.0962 -0.6058  0.2658
  106TCq2    C3 1615   0.866   2.341   0.732 -0.2734  0.1960  1.1350
  106TCq2    C4 1616   0.840   2.460   0.793  0.7901 -0.1318 -0.5234
  106TCq2    C5 1617   0.824   2.464   0.926  0.5515  0.1684  0.1984
  106TCq2    C6 1618   0.842   2.347   1.000  0.0188  0.5329 -0.1760
  106TCq2    C7 1619   0.876   2.231   0.946  0.6075  0.1382 -0.3288
  106TCq2    C8 1620   0.812   2.330   1.147 -0.5584  0.2868  0.6440
  106TCq2    O4 1621   0.750   2.228   1.177  0.4608  0.3079  0.0445
  106TCq2    C9 1622   0.817   2.579   0.715  0.0669  0.1299 -0.3792
  106TCq2    O5 1623   0.764   2.674   0.768  0.1733  1.1047 -0.4441
  106TCq2    O6 1624   0.862   2.570   0.600  1.0222  0.2377 -0.1022
  106TCq2    H2 1625   0.880   2.344   0.625  0.9687  2.4050  1.3571
  106TCq2    H3 1626   0.804   2.558   0.976 -1.3509  0.5373 -1.2719
  106TCq2    H4 1627   0.887   2.141   1.006  2.3950  1.4974  1.3667
  107TMC2    C1 1628   1.302   1.757  11.600  0.2156 -0.3427 -0.4430
  107TMC2    C2 1629   1.236   1.735  11.480 -0.2405  1.0467 -0.4864
  107TMC2    C3 1630   1.239   1.604  11.425  0.0166  0.6643 -0.3578
  107TMC2    C4 1631   1.357   1.651  11.673 -0.5254 -0.9887  0.0724
  107TMC2    C5 1632   1.350   1.524  11.624  0.3283 -0.3874 -0.0940
  107TMC2    C6 1633   1.301   1.501  11.499 -0.2217  1.2278 -0.2223
  107TMC2     C 1634   1.234   1.867  11.678  0.1475 -0.4749 -0.4061
  107TMC2     O 1635   1.184   1.963  11.620 -0.6198  0.2159  0.3594
  107TMC2     H 1636   1.170   1.812  11.442  0.0059  2.3602  1.7448
  107TMC2    H1 1637   1.403   1.671  11.769  0.8306 -0.2906 -0.7190
  107TMC2    H2 1638   1.296   1.406  11.447  0.5790  0.1486  1.6624
  107TMC2    C7 1639   1.383   1.421  11.720 -0.6297  0.0738 -0.2633
  107TMC2    C8 1640   1.150   1.591  11.312 -0.3974  0.0055  0.2343
  107TMC2    O1 1641   1.374   1.445  11.837  0.3834 -0.3044  0.2932
  107TMC2    O2 1642   1.079   1.487  11.291  1.4101 -0.7277  0.1297
  107TMC2    O5 1643   1.182   1.684  11.225 -0.2159 -0.0796 -0.3693
  107TMC2    H5 1644   1.258   1.739  11.252  0.1318  0.1120 -1.7487
  108MPD2     C 1645   1.105   2.026  11.895  0.8336  0.3626  0.5603
  108MPD2    C1 1646   1.167   1.906  11.915 -0.0369 -0.1773 -0.7616
  108MPD2    C2 1647   1.173   1.856  12.045  0.0729 -0.8005  1.4057
  108MPD2    C3 1648   1.132   1.931  12.158 -0.3309  0.1561 -0.2244
  108MPD2    C4 1649   1.078   2.055  12.133 -0.1988 -0.8291 -0.2551
  108MPD2    C5 1650   1.071   2.096  12.005  0.4896 -0.6334 -0.3631
  108MPD2     H 1651   1.211   1.755  12.055 -0.3286 -1.1542 -0.6022
  108MPD2    H1 1652   1.033   2.110  12.215  0.1421  0.1815 -0.7466
  108MPD2    H2 1653   1.104   2.084  11.803  0.3290 -1.8665 -0.8410
  108MPD2    H3 1654   1.026   2.193  11.984  0.9660 -0.7567 -2.0027
  108MPD2     N 1655   1.123   1.882  12.295 -0.4085  0.2547 -0.1187
  108MPD2    H5 1656   1.066   1.925  12.366 -1.8977  0.0147 -1.1729
  108MPD2    N1 1657   1.223   1.832  11.812  0.8892  0.0596 -0.2510
  108MPD2    H7 1658   1.253   1.737  11.834 -2.3231 -0.9462 -0.2960
  109MPD2     C 1659   1.840   3.419   1.591 -0.0774  0.0890  0.0499
  109MPD2    C1 1660   1.826   3.499   1.705 -0.3893 -0.4547 -0.0699
  109MPD2    C2 1661   1.853   3.449   1.830  0.8132  0.1975 -0.5778
  109MPD2    C3 1662   1.895   3.317   1.835 -0.0565 -0.0800  0.5160
  109MPD2    C4 1663   1.915   3.238   1.725  0.6276 -0.3267  0.7642
  109MPD2    C5 1664   1.874   3.288   1.605  0.2751 -0.6018 -0.3579
  109MPD2     H 1665   1.834   3.498   1.925 -0.8490  0.9700 -1.3165
  109MPD2    H1 1666   1.952   3.138   1.740  1.8459 -0.4893 -3.2178
  109MPD2    H2 1667   1.840   3.460   1.490 -1.6073 -2.0421 -0.8127
  109MPD2    H3 1668   1.894   3.224   1.519 -0.5275 -0.2698 -0.7836
  109MPD2     N 1669   1.919   3.264   1.963  0.5236 -0.4344 -0.1838
  109MPD2    H5 1670   1.873   3.310   2.041 -0.9444 -1.7490 -0.2677
  109MPD2    N1 1671   1.791   3.633   1.678  0.5495 -0.6868  0.0295
  109MPD2    H7 1672   1.772   3.653   1.580  0.6824  0.9783  0.3478
  110TCq2    C1 1673   1.993   3.153   2.004  0.1649 -0.1347  0.2553
  110TCq2    O2 1674   2.064   3.080   1.943  0.0545  0.3996  0.4309
  110TCq2    C2 1675   2.016   3.154   2.146  0.1940  0.0003 -0.4551
  110TCq2    C3 1676   2.103   3.058   2.200  0.5808  0.8391  0.2804
  110TCq2    C4 1677   2.145   3.070   2.328  0.1838  0.1375 -0.2505
  110TCq2    C5 1678   2.091   3.166   2.410 -1.1360 -0.3858 -0.0480
  110TCq2    C6 1679   2.006   3.259   2.352 -0.4994  0.0616 -0.3100
  110TCq2    C7 1680   1.975   3.260   2.217  0.0480 -0.3773  0.5418
  110TCq2    C8 1681   1.970   3.383   2.416  0.3367 -0.2414 -0.8237
  110TCq2    O4 1682   1.980   3.482   2.342  0.1435  0.2810 -0.3434
  110TCq2    C9 1683   2.241   2.981   2.385 -0.2365  0.4222  0.5560
  110TCq2    O5 1684   2.312   2.922   2.295  0.0832 -0.2316 -0.3587
  110TCq2    O6 1685   2.278   2.996   2.503  0.0080 -0.1997 -0.4304
  110TCq2    H2 1686   2.152   2.987   2.134 -0.4871 -0.4190  0.8396
  110TCq2    H3 1687   2.124   3.174   2.513 -1.1498 -0.6374 -0.0237
  110TCq2    H4 1688   1.916   3.341   2.178  3.5431  0.0980 -3.7763
  111TMC2    C1 1689   1.951   2.633  11.218  0.2491  0.1575  0.4633
  111TMC2    C2 1690   2.020   2.612  11.109  0.0050  0.7702  0.3453
  111TMC2    C3 1691   2.156   2.573  11.115  0.2770  0.5749 -0.1133
  111TMC2    C4 1692   2.015   2.625  11.340  0.7721  0.0210  0.3705
  111TMC2    C5 1693   2.149   2.597  11.342  0.4262 -0.4227 -0.6972
  111TMC2    C6 1694   2.222   2.571  11.229 -0.4999 -0.9243  0.1472
  111TMC2     C 1695   1.826   2.711  11.203 -0.1788 -0.1737  0.2797
  111TMC2     O 1696   1.803   2.747  11.088  0.3631 -0.8652 -0.7446
  111TMC2     H 1697   1.986   2.625  11.007 -3.8025  0.3579  1.5697
  111TMC2    H1 1698   1.948   2.620  11.424  0.6990 -2.2488  0.1629
  111TMC2    H2 1699   2.326   2.543  11.239 -0.2707  0.0201  0.4404
  111TMC2    C7 1700   2.207   2.636  11.469 -0.1334  0.9386  0.7581
  111TMC2    C8 1701   2.240   2.598  10.998  0.2999 -0.3244  0.2131
  111TMC2    O1 1702   2.126   2.660  11.558 -0.1936 -0.3804  0.1739
  111TMC2    O2 1703   2.219   2.685  10.913 -0.1963  0.1021  0.3197
  111TMC2    O5 1704   2.352   2.522  11.006 -0.7883  0.5117  0.4045
  111TMC2    H5 1705   2.338   2.435  11.048 -0.2613 -0.1362 -0.7515
  112MPD2     C 1706   1.407   2.935  11.387 -1.2249  0.1962 -0.2163
  112MPD2    C1 1707   1.449   2.919  11.259 -0.7833 -0.5822 -0.2941
  112MPD2    C2 1708   1.572   2.849  11.237  0.1467 -0.2505 -1.0775
  112MPD2    C3 1709   1.650   2.806  11.338  0.3169  0.2856  0.1170
  112MPD2    C4 1710   1.599   2.820  11.466 -0.0760 -0.1287  0.8581
  112MPD2    C5 1711   1.486   2.887  11.486 -0.4552 -0.3575 -0.3896
  112MPD2     H 1712   1.596   2.837  11.132 -2.0712  2.9827 -1.9530
  112MPD2    H1 1713   1.655   2.781  11.550 -1.3577 -0.3389  1.6150
  112MPD2    H2 1714   1.311   2.977  11.416 -1.5910 -0.4651 -0.4820
  112MPD2    H3 1715   1.449   2.895  11.587  0.4502  0.3808 -0.1144
  112MPD2     N 1716   1.766   2.740  11.321  0.4497 -0.1093 -0.1749
  112MPD2    H5 1717   1.810   2.706  11.406  0.7256  1.9149  0.4717
  112MPD2    N1 1718   1.376   2.954  11.142 -0.8052 -0.0732  0.1125
  112MPD2    H7 1719   1.405   2.926  11.049  1.2249 -0.4644  0.8624
  113MPD2     C 1720   0.021   1.050   1.375 -0.0504 -0.6779 -0.1467
  113MPD2    C1 1721   4.696   1.174   1.330 -0.1622  0.2997 -0.1834
  113MPD2    C2 1722   4.562   1.196   1.336  0.2771  0.3204 -0.0770
  113MPD2    C3 1723   4.474   1.112   1.398  0.5994  0.1821  0.7779
  113MPD2    C4 1724   4.522   0.992   1.446 -0.0907  0.0168 -0.5889
  113MPD2    C5 1725   4.654   0.963   1.435 -0.5737  0.7275 -0.0229
  113MPD2     H 1726   4.523   1.291   1.301 -0.1573  0.7517  1.5764
  113MPD2    H1 1727   4.454   0.914   1.478 -1.4319  0.4680 -2.3395
  113MPD2    H2 1728   0.128   1.035   1.366 -0.2852 -1.7092 -1.2646
  113MPD2    H3 1729   4.696   0.867   1.461 -1.1487  1.3133  3.1102
  113MPD2     N 1730   4.332   1.139   1.409  0.5664 -0.3164  0.2264
  113MPD2    H5 1731   4.277   1.091   1.481 -1.6191  4.9254  2.0424
  113MPD2    N1 1732   0.054   1.284   1.287  0.6785  0.4991 -0.1433
  113MPD2    H7 1733   0.004   1.364   1.248  1.2963  1.1478  0.3953
  114TCq2    C1 1734   4.268   1.228   1.337  0.3727  0.0903  0.4566
  114TCq2    O2 1735   4.303   1.280   1.231 -0.6225  0.0432  0.9556
  114TCq2    C2 1736   4.126   1.212   1.367 -0.2962  0.2587  0.0179
  114TCq2    C3 1737   4.087   1.202   1.497 -0.8386  0.8717  0.0808
  114TCq2    C4 1738   3.957   1.167   1.523 -0.2625 -0.1056 -0.7728
  114TCq2    C5 1739   3.878   1.138   1.419 -1.2726  0.4992 -0.1891
  114TCq2    C6 1740   3.923   1.151   1.290 -0.1753 -0.2932 -0.4287
  114TCq2    C7 1741   4.053   1.183   1.262  0.1805  0.1238 -0.6551
  114TCq2    C8 1742   3.849   1.096   1.177 -0.1475  0.4404  0.4907
  114TCq2    O4 1743   3.888   1.132   1.067 -0.2716 -0.2722 -0.1607
  114TCq2    C9 1744   3.923   1.166   1.663 -0.4038 -0.7814 -0.6327
  114TCq2    O5 1745   3.990   1.229   1.744 -0.3055  0.5514 -0.0796
  114TCq2    O6 1746   3.817   1.108   1.691  0.3151 -0.2559  0.6326
  114TCq2    H2 1747   4.159   1.238   1.570  0.5605  2.6846 -2.2017
  114TCq2    H3 1748   3.773   1.120   1.442 -0.4125 -0.3255  3.1626
  114TCq2    H4 1749   4.090   1.210   1.164 -1.9883  0.5697 -1.3707
  115TMC2    C1 1750   0.125   3.335  17.670 -0.4196 -0.1115 -0.0374
  115TMC2    C2 1751   0.263   3.332  17.673  0.2766  0.3549 -0.3381
  115TMC2    C3 1752   0.330   3.452   0.011  0.1017  0.2127  0.3137
  115TMC2    C4 1753   0.049   3.447  17.683  0.3412 -1.0004 -0.0721
  115TMC2    C5 1754   0.120   3.559   0.016 -0.6399  0.2095 -0.3839
  115TMC2    C6 1755   0.255   3.566   0.021 -0.0501  0.4281  0.1036
  115TMC2     C 1756   0.059   3.209  17.684  0.1267 -0.2856 -0.4273
  115TMC2     O 1757   0.111   3.119  17.618 -0.3731  0.4609 -0.8003
  115TMC2     H 1758   0.306   3.234  17.659 -1.6019 -0.1482 -2.4523
  115TMC2    H1 1759   4.666   3.454  17.655  0.3356 -4.5017 -0.8876
  115TMC2    H2 1760   0.305   3.657   0.054  1.4531  0.6580 -2.8815
  115TMC2    C7 1761   0.035   3.679   0.017 -0.1306 -1.2630  0.5164
  115TMC2    C8 1762   0.467   3.465  17.659  0.0289  0.0349 -0.3977
  115TMC2    O1 1763   4.635   3.659   0.036  0.5799  0.2090 -0.3239
  115TMC2    O2 1764   0.529   3.566  17.633 -0.0142 -0.0702  0.1647
  115TMC2    O5 1765   0.524   3.348  17.680 -0.6285 -0.1518  0.4338
  115TMC2    H5 1766   0.459   3.292   0.037 -1.8485  0.1336 -0.9081
  116MPD2     C 1767   4.465   2.901   0.253  0.0917 -0.0864  0.0123
  116MPD2    C1 1768   4.564   2.872   0.167  0.4685  0.3467  0.6473
  116MPD2    C2 1769   4.638   2.981   0.116 -0.4667  0.3264  0.7927
  116MPD2    C3 1770   4.607   3.112   0.132  0.2173 -0.2715  0.1890
  116MPD2    C4 1771   4.502   3.129   0.220  0.0457 -0.8042 -0.4740
  116MPD2    C5 1772   4.438   3.026   0.288 -0.0820 -0.0422  0.2412
  116MPD2     H 1773   4.715   2.943   0.050  1.1038  1.1633  2.1110
  116MPD2    H1 1774   4.471   3.227   0.256  0.1424 -1.4091  1.2883
  116MPD2    H2 1775   4.419   2.820   0.307  0.6306  1.0937  2.2580
  116MPD2    H3 1776   4.366   3.051   0.365 -0.0382 -1.0775  0.6092
  116MPD2     N 1777   4.669   3.219   0.067  0.3156  0.2293 -0.5479
  116MPD2    H5 1778   4.642   3.313   0.095  1.1229  0.1272  0.5137
  116MPD2    N1 1779   4.586   2.736   0.148 -0.5315  0.5532 -0.1941
  116MPD2    H7 1780   4.517   2.680   0.197 -0.0583 -0.5123 -0.7432
  117TMC2    C1 1781   3.771   0.565  14.354 -0.1933  0.4347  0.2185
  117TMC2    C2 1782   3.772   0.446  14.282 -0.3258 -0.0861 -0.6531
  117TMC2    C3 1783   3.897   0.400  14.242 -0.0274  0.0272  0.0574
  117TMC2    C4 1784   3.883   0.625  14.399 -1.0763 -0.8778  1.0974
  117TMC2    C5 1785   4.003   0.576  14.362  0.1689 -0.2066 -0.5361
  117TMC2    C6 1786   4.011   0.463  14.285 -0.5400 -0.3936 -0.0007
  117TMC2     C 1787   3.649   0.636  14.380  0.2986  0.4870  0.1755
  117TMC2     O 1788   3.653   0.758  14.374 -0.0999  0.1364 -0.5971
  117TMC2     H 1789   3.686   0.385  14.257 -1.4414  1.9599 -1.7172
  117TMC2    H1 1790   3.865   0.719  14.449 -2.4751  0.2050 -1.4022
  117TMC2    H2 1791   4.104   0.423  14.248  0.7637  2.3212  0.2860
  117TMC2    C7 1792   4.130   0.642  14.395  0.4788 -0.5596 -0.2729
  117TMC2    C8 1793   3.915   0.261  14.209  0.9657  0.1524 -0.0704
  117TMC2    O1 1794   4.231   0.623  14.332  0.3870  0.3630 -0.1141
  117TMC2    O2 1795   3.834   0.194  14.147  0.5501 -0.2741 -0.4008
  117TMC2    O5 1796   3.996   0.213  14.299 -0.7812  0.4485  0.1672
  117TMC2    H5 1797   4.035   0.277  14.363 -2.7201  2.5843 -0.7861
  118MPD2     C 1798   4.204   0.887  14.665 -0.7652  0.0819 -0.2070
  118MPD2    C1 1799   4.210   0.824  14.543 -0.1841 -0.2034  0.3704
  118MPD2    C2 1800   4.315   0.874  14.465 -0.7919 -1.5149  0.5914
  118MPD2    C3 1801   4.387   0.996  14.495  0.6822 -0.2518 -0.4223
  118MPD2    C4 1802   4.361   1.065  14.611  0.0096 -0.0164  0.2122
  118MPD2    C5 1803   4.278   0.999  14.700  0.3672 -0.7680  0.0097
  118MPD2     H 1804   4.331   0.824  14.371 -1.0129  1.0844 -0.8423
  118MPD2    H1 1805   4.420   1.147  14.651 -1.8853  1.5775 -0.2312
  118MPD2    H2 1806   4.124   0.865  14.734  1.2355  0.1414  2.1392
  118MPD2    H3 1807   4.265   1.029  14.804 -0.3583  1.5611 -0.7515
  118MPD2     N 1808   4.488   1.036  14.412  0.5809  0.4797 -0.4126
  118MPD2    H5 1809   4.542   1.115  14.447 -0.9097  1.6022 -0.6586
  118MPD2    N1 1810   4.108   0.731  14.498 -0.0918 -0.5278  0.6035
  118MPD2    H7 1811   4.027   0.723  14.559 -0.3006  0.8139  0.4949
  119MPD2     C 1812   2.330   1.703  14.506 -0.2815 -0.0293 -0.9006
  119MPD2    C1 1813   2.224   1.779  14.552 -0.1926 -0.4448  0.3237
  119MPD2    C2 1814   2.158   1.854  14.453 -0.8476 -0.0450 -0.5983
  119MPD2    C3 1815   2.198   1.858  14.318  0.3328 -0.1134 -0.0843
  119MPD2    C4 1816   2.302   1.771  14.282 -0.0425  0.6608 -0.0299
  119MPD2    C5 1817   2.368   1.691  14.374 -0.1610 -0.6318 -0.3085
  119MPD2     H 1818   2.083   1.927  14.480  0.0907  0.8140 -0.2895
  119MPD2    H1 1819   2.330   1.760  14.177  1.9729  4.4954  0.0965
  119MPD2    H2 1820   2.389   1.642  14.574 -0.9377 -0.9485 -1.1567
  119MPD2    H3 1821   2.439   1.619  14.336  1.0030  0.3701 -0.0335
  119MPD2     N 1822   2.138   1.941  14.220  1.1133  0.4690 -0.2982
  119MPD2    H5 1823   2.151   1.905  14.126  0.9759 -2.5450  0.8350
  119MPD2    N1 1824   2.193   1.797  14.683  0.2132  0.2224  0.5753
  119MPD2    H7 1825   2.253   1.743  14.745 -0.1824 -2.1991 -1.1476
  120TCq2    C1 1826   2.047   2.042  14.243 -0.6234  0.7181 -0.2412
  120TCq2    O2 1827   2.028   2.105  14.347  0.4021 -0.1812  0.8400
  120TCq2    C2 1828   1.975   2.087  14.129  0.6718  0.3815 -0.0246
  120TCq2    C3 1829   2.026   2.079  14.001 -1.0527 -0.3552  0.4252
  120TCq2    C4 1830   1.951   2.117  13.892 -0.1948  0.4081 -0.3376
  120TCq2    C5 1831   1.824   2.162  13.916  0.4105 -0.7631  0.2451
  120TCq2    C6 1832   1.778   2.159  14.040 -0.3254  0.4299 -0.2277
  120TCq2    C7 1833   1.851   2.132  14.150 -0.1234 -0.0764 -1.0391
  120TCq2    C8 1834   1.640   2.179  14.060  0.3621  0.4478 -0.2438
  120TCq2    O4 1835   1.581   2.253  13.977 -0.3310 -0.0579  0.3558
  120TCq2    C9 1836   2.006   2.122  13.756 -0.1923 -0.8303  0.8443
  120TCq2    O5 1837   2.126   2.089  13.742 -0.2254  0.4422 -0.3919
  120TCq2    O6 1838   1.938   2.180  13.667  0.5090  0.2813  0.2936
  120TCq2    H2 1839   2.123   2.032  13.982 -1.8046  0.0542 -4.5022
  120TCq2    H3 1840   1.760   2.178  13.830  0.1052  0.0542  0.6256
  120TCq2    H4 1841   1.820   2.135  14.254 -1.5809  2.5746 -1.5530
  121TMC2    C1 1842   3.456   3.659  14.299  0.1319  0.3266  0.3644
  121TMC2    C2 1843   3.433   3.586  14.414  0.4023 -0.5119  0.1427
  121TMC2    C3 1844   3.317   3.522  14.433 -0.0034 -0.1858 -0.3410
  121TMC2    C4 1845   3.369   3.647  14.191  0.3836 -0.2898  0.2594
  121TMC2    C5 1846   3.254   3.568  14.207 -0.2593 -0.7871  0.6159
  121TMC2    C6 1847   3.227   3.520  14.331  0.0289 -0.0518  0.0152
  121TMC2     C 1848   3.594   3.704  14.281  0.5070 -0.1389  0.8503
  121TMC2     O 1849   3.681   3.683  14.365 -0.5013 -0.1357  0.2244
  121TMC2     H 1850   3.502   3.585  14.497  1.0483  4.5769 -0.3549
  121TMC2    H1 1851   3.388   3.692  14.094  3.4057  0.3380  1.1437
  121TMC2    H2 1852   3.132   3.477  14.359 -0.0526 -0.0600 -0.2716
  121TMC2    C7 1853   3.135   3.599  14.132  0.2666 -0.5672  0.8246
  121TMC2    C8 1854   3.296   3.475  14.569  0.2412 -0.0326 -0.0264
  121TMC2    O1 1855   3.038   3.597  14.202 -0.5545 -0.6223  0.2421
  121TMC2    O2 1856   3.335   3.532  14.666 -0.1568  0.0053  0.0412
  121TMC2    O5 1857   3.272   3.342  14.552  0.2650 -0.4490 -0.6183
  121TMC2    H5 1858   3.250   3.310  14.462  3.2682 -2.3462 -0.6697
  122MPD2     C 1859   3.854   3.755  14.153 -0.3135  0.5256 -0.5488
  122MPD2    C1 1860   3.732   3.818  14.115 -0.6049 -0.6696  0.2500
  122MPD2    C2 1861   3.728   3.908  14.016 -0.3289 -0.5158  0.1774
  122MPD2    C3 1862   3.843   3.953  13.959  0.2134  0.4709  0.3195
  122MPD2    C4 1863   3.960   3.908  14.008 -0.2130 -0.1238 -0.8324
  122MPD2    C5 1864   3.972   3.814  14.103  0.3855  0.9183 -0.3009
  122MPD2     H 1865   3.634   3.941  13.975 -0.8161  0.8706  2.3821
  122MPD2    H1 1866   4.056   3.938  13.966 -0.5731 -0.5632 -1.9772
  122MPD2    H2 1867   3.855   3.666  14.214  2.7724 -0.7582 -2.4619
  122MPD2    H3 1868   4.065   3.772  14.139  0.5296 -0.0990 -1.8611
  122MPD2     N 1869   3.843   4.050  13.857  0.1473  0.3895  0.2107
  122MPD2    H5 1870   3.936   4.057  13.817  0.4190  0.9388  0.9222
  122MPD2    N1 1871   3.611   3.769  14.165 -0.6319 -0.0051  0.0481
  122MPD2    H7 1872   3.528   3.802  14.116  1.3218  1.6196 -2.1978
  123MPD2     C 1873   1.957   1.961   8.259 -0.0551  0.1630  0.4446
  123MPD2    C1 1874   1.944   2.040   8.373  0.4294  0.6754 -0.3796
  123MPD2    C2 1875   2.022   2.017   8.477  0.3672  0.4015  0.3218
  123MPD2    C3 1876   2.122   1.921   8.472 -0.2739  0.2715 -0.5195
  123MPD2    C4 1877   2.142   1.847   8.361  0.0280  0.4330  0.0196
  123MPD2    C5 1878   2.067   1.875   8.252 -0.0073 -0.4003 -1.1074
  123MPD2     H 1879   2.006   2.074   8.568  3.3374  0.0999  1.0084
  123MPD2    H1 1880   2.214   1.769   8.341  2.1103  1.7999  2.0588
  123MPD2    H2 1881   1.896   1.974   8.170 -0.0201 -2.3715  0.0524
  123MPD2    H3 1882   2.089   1.825   8.159  1.8783  0.4753 -1.1324
  123MPD2     N 1883   2.199   1.893   8.595  0.0107  0.1536  0.1141
  123MPD2    H5 1884   2.193   1.949   8.679 -0.0627  0.1635  0.1014
  123MPD2    N1 1885   1.842   2.132   8.368 -0.2702 -0.0752 -0.5614
  123MPD2    H7 1886   1.774   2.101   8.299 -0.5275 -0.4573 -0.1346
  124TCq2    C1 1887   2.277   1.782   8.606  0.5189 -0.7435 -0.2640
  124TCq2    O2 1888   2.317   1.700   8.524  0.4547  0.1932 -0.6292
  124TCq2    C2 1889   2.345   1.764   8.733  0.4928  0.2529  0.3324
  124TCq2    C3 1890   2.453   1.676   8.735 -0.0302  0.1110  0.0019
  124TCq2    C4 1891   2.495   1.633   8.863 -0.2833  0.0879 -0.2974
  124TCq2    C5 1892   2.419   1.659   8.975 -0.2488  0.7278  0.8794
  124TCq2    C6 1893   2.311   1.738   8.967  0.0638  0.6600  0.0889
  124TCq2    C7 1894   2.272   1.787   8.848 -0.5271 -0.4200 -1.1255
  124TCq2    C8 1895   2.212   1.727   9.079 -0.3112 -0.5112 -0.2547
  124TCq2    O4 1896   2.093   1.721   9.049 -0.1605  0.3829  0.3956
  124TCq2    C9 1897   2.612   1.548   8.867  0.0800 -0.7242  0.2387
  124TCq2    O5 1898   2.654   1.514   8.981  0.0814  0.0366 -0.4402
  124TCq2    O6 1899   2.668   1.526   8.759  0.7870 -0.3956  0.3478
  124TCq2    H2 1900   2.511   1.642   8.650  0.0481  1.6370 -0.5441
  124TCq2    H3 1901   2.439   1.616   9.072 -0.3756 -3.0130 -0.7623
  124TCq2    H4 1902   2.181   1.846   8.845  1.3919  2.7307  2.1466
  125TMC2    C1 1903   1.962   3.425   9.030 -0.1112  0.8269 -0.9723
  125TMC2    C2 1904   1.901   3.434   8.906 -0.0612  0.0153  0.4989
  125TMC2    C3 1905   1.892   3.323   8.831 -0.7497  0.5762  0.5531
  125TMC2    C4 1906   2.011   3.311   9.085  0.4376 -0.1074  0.3691
  125TMC2    C5 1907   1.988   3.202   9.008  0.2697  0.4934 -0.3485
  125TMC2    C6 1908   1.924   3.199   8.881  0.7867  0.3254 -0.0808
  125TMC2     C 1909   1.975   3.546   9.107  0.7185  0.3040  0.7461
  125TMC2     O 1910   2.057   3.536   9.199  0.2381 -0.7612 -0.6907
  125TMC2     H 1911   1.851   3.520   8.864  0.3315  0.1415  0.2945
  125TMC2    H1 1912   2.067   3.316   9.177 -0.7652  0.9619  1.0343
  125TMC2    H2 1913   1.940   3.117   8.812 -3.2966 -1.1886  0.7757
  125TMC2    C7 1914   2.030   3.074   9.052 -0.3733  0.0665 -0.5183
  125TMC2    C8 1915   1.884   3.347   8.690 -0.4665  0.1832  0.3541
  125TMC2    O1 1916   1.975   2.978   9.000 -0.7899  0.3718  0.1698
  125TMC2    O2 1917   1.954   3.285   8.610  0.3745  0.1814  0.0345
  125TMC2    O5 1918   1.767   3.402   8.665 -0.2097  0.1742  0.0959
  125TMC2    H5 1919   1.706   3.407   8.742 -0.7379  0.1625 -0.3167
  126MPD1     C 1920   1.835   4.012   9.285  0.0022  0.3343 -0.1828
  126MPD1    C1 1921   1.754   3.973   9.178 -0.2070  0.0190  0.6747
  126MPD1    C2 1922   1.780   3.855   9.107  0.1156  0.2255  0.7130
  126MPD1    C3 1923   1.882   3.770   9.137  0.3987  0.8731  0.3432
  126MPD1    C4 1924   1.967   3.807   9.240 -0.7083  0.4500 -0.1710
  126MPD1    C5 1925   1.947   3.934   9.307 -0.3489 -1.0045 -0.3788
  126MPD1     H 1926   1.719   3.829   9.021  2.5802 -3.2534  0.0116
  126MPD1    H1 1927   2.063   3.760   9.261 -1.0535  0.2223  0.8835
  126MPD1    H2 1928   1.815   4.104   9.338  0.2071  1.1931 -1.5931
  126MPD1    H3 1929   2.020   3.963   9.381 -1.1503 -0.3372  0.1592
  126MPD1     N 1930   1.886   3.645   9.073 -0.1721  0.2668  0.4328
  126MPD1    H5 1931   1.812   3.630   9.005 -2.2055  0.9311  2.4901
  126MPD1    N1 1932   1.657   4.069   9.139 -0.3202  0.3090  0.2393
  126MPD1    H6 1933   1.588   4.040   9.071  0.1382  1.2852 -0.6426
  126MPD1    H7 1934   1.613   4.113   9.220 -0.8331 -1.7414  1.0917
  127MPD2     C 1935   3.201   1.847   9.862  0.3067 -0.1208  0.0522
  127MPD2    C1 1936   3.334   1.843   9.890 -0.4935 -0.2013 -0.1691
  127MPD2    C2 1937   3.391   1.955   9.949 -0.5799  0.8511 -0.0646
  127MPD2    C3 1938   3.311   2.065   9.959 -0.0752 -0.2804  0.9139
  127MPD2    C4 1939   3.180   2.073   9.918 -0.2239 -0.8232 -0.3151
  127MPD2    C5 1940   3.121   1.958   9.870 -0.1922  0.1356  0.0608
  127MPD2     H 1941   3.490   1.965   9.992  0.4151 -0.5036 -2.0383
  127MPD2    H1 1942   3.120   2.159   9.892  0.9656 -1.0804 -3.8758
  127MPD2    H2 1943   3.163   1.750   9.830  0.7482 -1.1597  2.7104
  127MPD2    H3 1944   3.016   1.960   9.842  0.2650  0.7839 -1.5593
  127MPD2     N 1945   3.380   2.179  10.008 -0.1145  0.2200  0.0951
  127MPD2    H5 1946   3.481   2.173  10.006  0.0224  2.3035  0.7898
  127MPD2    N1 1947   3.410   1.722   9.868  0.3905 -0.0689 -0.2716
  127MPD2    H7 1948   3.374   1.640   9.821 -2.3682  0.5320  0.7928
  128TCq2    C1 1949   3.548   1.716   9.879  0.0057 -0.1550  0.0145
  128TCq2    O2 1950   3.632   1.802   9.902  0.3550 -0.2284 -0.2558
  128TCq2    C2 1951   3.590   1.579   9.853 -0.0013  0.3624  0.3297
  128TCq2    C3 1952   3.717   1.549   9.792  0.4380  0.3943  0.2921
  128TCq2    C4 1953   3.740   1.423   9.749 -0.5558  0.0849 -0.3098
  128TCq2    C5 1954   3.640   1.331   9.760 -0.4837  1.2821  0.0953
  128TCq2    C6 1955   3.528   1.352   9.834  0.0109 -0.0001  0.6411
  128TCq2    C7 1956   3.505   1.476   9.881  0.0229 -0.4063  0.5747
  128TCq2    C8 1957   3.418   1.274   9.791  0.4918  0.3157 -0.1763
  128TCq2    O4 1958   3.315   1.339   9.773 -0.1760 -0.6374 -0.3699
  128TCq2    C9 1959   3.858   1.384   9.688 -0.1487 -0.2294  0.5011
  128TCq2    O5 1960   3.862   1.278   9.628  0.4108 -0.8990 -0.3768
  128TCq2    O6 1961   3.956   1.457   9.713  0.1218  0.4941 -0.1938
  128TCq2    H2 1962   3.783   1.630   9.762  0.4596 -0.9534 -3.2999
  128TCq2    H3 1963   3.657   1.230   9.723  1.3996  1.8940 -0.6722
  128TCq2    H4 1964   3.406   1.496   9.922  1.5414  1.2654  3.3839
  129MPD2     C 1965   2.722   2.630   2.352  0.5733 -0.0072 -0.6127
  129MPD2    C1 1966   2.616   2.708   2.321 -0.1208  0.5788 -0.5271
  129MPD2    C2 1967   2.645   2.830   2.272 -0.5226  0.1423 -0.0364
  129MPD2    C3 1968   2.774   2.877   2.243  0.3740  0.6853 -0.4021
  129MPD2    C4 1969   2.882   2.791   2.269  0.1701 -0.1457  0.4087
  129MPD2    C5 1970   2.849   2.666   2.318 -0.0865  0.4394  0.0921
  129MPD2     H 1971   2.565   2.900   2.253 -2.4393 -1.7145  1.0858
  129MPD2    H1 1972   2.983   2.810   2.235 -0.2362  1.2668  0.0397
  129MPD2    H2 1973   2.716   2.538   2.408  1.9215  0.5613  0.4915
  129MPD2    H3 1974   2.931   2.602   2.349 -1.4422 -1.1200  0.4154
  129MPD2     N 1975   2.774   3.000   2.180 -0.2946  0.1456  0.0304
  129MPD2    H5 1976   2.685   3.049   2.187  0.0145  0.9902 -1.8327
  129MPD2    N1 1977   2.482   2.670   2.359 -0.2208 -0.4262 -0.1273
  129MPD2    H7 1978   2.410   2.736   2.330 -0.6147 -0.8621 -0.1309
  130TCq2    C1 1979   2.440   2.554   2.423  0.1400 -0.4978  0.3162
  130TCq2    O2 1980   2.507   2.474   2.481 -0.2567  0.0107  0.4677
  130TCq2    C2 1981   2.296   2.544   2.460  0.6051 -0.0325  0.2458
  130TCq2    C3 1982   2.265   2.464   2.566  0.2683 -0.1164  0.3334
  130TCq2    C4 1983   2.136   2.467   2.611  0.1075  0.0691 -0.4758
  130TCq2    C5 1984   2.045   2.550   2.542 -0.5278 -0.0474 -0.0303
  130TCq2    C6 1985   2.078   2.618   2.431  0.2025  0.1246  0.1943
  130TCq2    C7 1986   2.207   2.614   2.383  0.0754 -0.0460 -0.0594
  130TCq2    C8 1987   1.983   2.699   2.349 -0.9364 -0.2169  0.0772
  130TCq2    O4 1988   2.006   2.716   2.229 -0.0208 -0.5097  0.0968
  130TCq2    C9 1989   2.090   2.386   2.721  0.1166 -0.2589 -0.0403
  130TCq2    O5 1990   1.965   2.381   2.735  0.1673 -0.7704 -0.0001
  130TCq2    O6 1991   2.172   2.318   2.789  0.2869 -0.3142  0.0471
  130TCq2    H2 1992   2.340   2.407   2.619  1.8375  1.3502 -0.3157
  130TCq2    H3 1993   1.943   2.543   2.578 -1.0828 -0.8999 -1.7835
  130TCq2    H4 1994   2.236   2.657   2.288 -0.5589  0.7983  0.1384
  131MPD2     C 1995   1.577   2.943   8.948  0.5718  0.4885 -0.3071
  131MPD2    C1 1996   1.644   2.827   8.981  0.2209  0.3388  0.7433
  131MPD2    C2 1997   1.631   2.713   8.903  0.4261 -0.2090  0.1800
  131MPD2    C3 1998   1.559   2.712   8.784  0.4302  0.1450  0.5552
  131MPD2    C4 1999   1.486   2.829   8.760 -0.3994 -0.6111  0.3527
  131MPD2    C5 2000   1.488   2.938   8.843  0.3067 -0.7965 -1.7697
  131MPD2     H 2001   1.676   2.618   8.929  2.7961  0.9127  0.2084
  131MPD2    H1 2002   1.416   2.821   8.678  1.5516  0.4306 -1.4332
  131MPD2    H2 2003   1.591   3.030   9.010  3.4792 -0.2130  0.0096
  131MPD2    H3 2004   1.439   3.029   8.812  0.5153 -0.8500 -2.2568
  131MPD2     N 2005   1.554   2.594   8.703 -0.2796  0.5319  0.3816
  131MPD2    H5 2006   1.603   2.508   8.728 -0.0177  0.4597 -0.3832
  131MPD2    N1 2007   1.718   2.827   9.102  0.4428 -0.4237 -0.1317
  131MPD2    H7 2008   1.720   2.913   9.156  2.2428  1.4416 -3.1731
  132TCq2    C1 2009   1.964   3.015   9.535 -0.6880 -0.5574  0.1792
  132TCq2    O2 2010   1.934   3.117   9.475 -0.1108  0.0106 -0.1847
  132TCq2    C2 2011   1.940   2.883   9.470 -0.7940  0.3949 -0.2974
  132TCq2    C3 2012   1.983   2.767   9.529 -0.4210  0.4481 -0.6096
  132TCq2    C4 2013   1.962   2.644   9.475  0.2270 -0.1126 -0.2305
  132TCq2    C5 2014   1.907   2.641   9.351 -0.3016  0.8623 -0.1483
  132TCq2    C6 2015   1.866   2.755   9.287  0.8552 -0.2951  0.3589
  132TCq2    C7 2016   1.875   2.879   9.345  0.2979  0.4055 -0.1596
  132TCq2    C8 2017   1.793   2.729   9.163  0.1617 -0.4215  0.9603
  132TCq2    O4 2018   1.811   2.613   9.131 -0.5163  0.4896 -0.1989
  132TCq2    C9 2019   2.006   2.525   9.548  0.4313  0.3743 -0.2613
  132TCq2    O5 2020   1.997   2.418   9.480  0.5824  0.0259 -0.1197
  132TCq2    O6 2021   2.057   2.535   9.664 -0.2375  0.1172 -0.2981
  132TCq2    H2 2022   2.042   2.777   9.619  1.7812  2.1572 -2.2497
  132TCq2    H3 2023   1.894   2.540   9.313  1.8668  0.6816 -0.3835
  132TCq2    H4 2024   1.870   2.973   9.290 -0.2235 -0.8640 -2.2753
  133MPD2     C 2025   1.090   3.296   9.090 -0.0930  0.1532 -0.0696
  133MPD2    C1 2026   1.170   3.243   9.186  0.1302  0.2349 -0.2357
  133MPD2    C2 2027   1.217   3.112   9.167  0.1640  0.5901  0.2343
  133MPD2    C3 2028   1.173   3.035   9.066  0.0741 -0.3002 -0.6059
  133MPD2    C4 2029   1.095   3.093   8.970  0.0047 -0.7008 -0.4644
  133MPD2    C5 2030   1.051   3.223   8.982 -0.0050 -0.3347 -0.1623
  133MPD2     H 2031   1.294   3.075   9.234 -0.3185  0.2205  0.5822
  133MPD2    H1 2032   1.065   3.042   8.879 -0.8776 -0.8619 -0.0821
  133MPD2    H2 2033   1.055   3.398   9.098  0.1272  0.1502  0.9299
  133MPD2    H3 2034   0.981   3.263   8.910 -0.6979 -2.6368 -0.7684
  133MPD2     N 2035   1.196   2.894   9.050  0.4366  0.1331 -0.8374
  133MPD2    H5 2036   1.139   2.853   8.976 -1.5650  2.1573 -0.4284
  133MPD2    N1 2037   1.205   3.331   9.293  0.4762  0.0569  0.0037
  133MPD2    H7 2038   1.160   3.422   9.303 -0.2446 -0.1429 -1.4661
  134TCq2    C1 2039   1.286   3.300   9.397  0.4232 -0.0890 -0.5226
  134TCq2    O2 2040   1.360   3.205   9.405  0.0799  0.5150 -0.2193
  134TCq2    C2 2041   1.287   3.400   9.503  0.7300 -0.7200 -0.3447
  134TCq2    C3 2042   1.264   3.532   9.483  0.3231 -0.2140  0.5946
  134TCq2    C4 2043   1.271   3.621   9.587  0.7818 -0.0521  0.0022
  134TCq2    C5 2044   1.296   3.580   9.714 -0.1019 -0.1788 -0.2234
  134TCq2    C6 2045   1.306   3.441   9.729  0.0865  0.4961  0.0894
  134TCq2    C7 2046   1.310   3.348   9.631  0.2437  0.5045 -0.5147
  134TCq2    C8 2047   1.352   3.380   9.850 -0.6309 -0.3449  0.2050
  134TCq2    O4 2048   1.390   3.264   9.840  0.6949 -0.7523  0.0374
  134TCq2    C9 2049   1.270   3.762   9.545  0.0811  0.1751  0.3197
  134TCq2    O5 2050   1.237   3.789   9.426  0.4900  0.8671  0.7886
  134TCq2    O6 2051   1.311   3.849   9.630 -0.4915 -0.1976  0.2193
  134TCq2    H2 2052   1.254   3.563   9.379  5.6271  1.0507  0.4837
  134TCq2    H3 2053   1.322   3.649   9.793 -0.4243 -0.0470 -0.2315
  134TCq2    H4 2054   1.318   3.241   9.648 -2.0719  0.9162  3.0626
  135MPD2     C 2055   3.491   4.048  10.278  0.3003 -0.6329  0.6556
  135MPD2    C1 2056   3.398   3.947  10.243  0.0926 -0.2536  0.8595
  135MPD2    C2 2057   3.443   3.833  10.192 -0.0615 -0.3662 -0.4601
  135MPD2    C3 2058   3.570   3.809  10.160 -1.0256  0.4297 -0.8722
  135MPD2    C4 2059   3.657   3.909  10.190  0.3697 -0.1962 -0.1694
  135MPD2    C5 2060   3.621   4.026  10.244 -0.1575 -0.1578 -0.1450
  135MPD2     H 2061   3.367   3.761  10.164 -1.5221  0.3566  1.7168
  135MPD2    H1 2062   3.764   3.906  10.170  0.3380  0.1515 -0.3930
  135MPD2    H2 2063   3.472   4.144  10.324  0.1130  0.5201 -1.8425
  135MPD2    H3 2064   3.703   4.096  10.258 -1.8957  1.8404  0.1481
  135MPD2     N 2065   3.621   3.687  10.113 -0.5509 -0.0849 -0.2673
  135MPD2    H5 2066   3.722   3.673  10.113 -0.4755  0.4448  0.4206
  135MPD2    N1 2067   3.257   3.960  10.267 -0.0200  0.5449  0.1574
  135MPD2    H7 2068   3.199   3.887  10.227 -0.7763  0.2920  1.7230
  136TCq2    C1 2069   3.208   4.063  10.345  0.0718  0.0690 -0.0314
  136TCq2    O2 2070   3.258   4.155  10.413 -0.0098  0.3891  0.2207
  136TCq2    C2 2071   3.063   4.081  10.319  0.4638  0.1097  0.2517
  136TCq2    C3 2072   2.995   3.993  10.243  1.2103 -0.0461  0.0614
  136TCq2    C4 2073   2.855   3.980  10.261  0.3509 -0.3890  0.3402
  136TCq2    C5 2074   2.789   4.048  10.360 -0.4263 -0.1764  0.2655
  136TCq2    C6 2075   2.860   4.132  10.435 -0.3257  0.7861  0.2577
  136TCq2    C7 2076   2.997   4.154  10.415  0.7975 -0.4126 -0.1212
  136TCq2    C8 2077   2.807   4.187  10.552 -0.1371  0.3647  0.2289
  136TCq2    O4 2078   2.856   4.289  10.595 -0.4734 -0.3455 -0.3161
  136TCq2    C9 2079   2.786   3.873  10.191  0.6504 -0.3538  0.1790
  136TCq2    O5 2080   2.663   3.883  10.186  0.8243 -0.0782  0.0491
  136TCq2    O6 2081   2.853   3.768  10.162 -0.2449 -0.3491  0.3616
  136TCq2    H2 2082   3.041   3.938  10.162 -0.5401  0.1373 -1.0498
  136TCq2    H3 2083   2.684   4.021  10.372 -0.2452 -0.7229  0.6281
  136TCq2    H4 2084   3.053   4.212  10.488 -0.7929 -1.6081  2.0515
  137MPD2     C 2085   3.399   2.520  11.121 -0.2580  0.1514  0.4370
  137MPD2    C1 2086   3.373   2.622  11.030 -0.0844 -0.2274 -0.0901
  137MPD2    C2 2087   3.334   2.740  11.083 -0.1066 -0.5847  0.3320
  137MPD2    C3 2088   3.293   2.754  11.211 -1.0406  0.2397  0.0220
  137MPD2    C4 2089   3.322   2.652  11.295  0.3496  0.6978 -0.2113
  137MPD2    C5 2090   3.372   2.533  11.254 -0.2804 -0.2843 -0.3262
  137MPD2     H 2091   3.309   2.825  11.020  2.2647  0.0421  0.2488
  137MPD2    H1 2092   3.287   2.661  11.398 -0.2686  1.6443 -0.4975
  137MPD2    H2 2093   3.418   2.425  11.073 -3.6011 -0.3825  0.2101
  137MPD2    H3 2094   3.388   2.457  11.330  0.1430  0.1287  0.0068
  137MPD2     N 2095   3.236   2.878  11.248 -0.5479  0.5559 -0.1288
  137MPD2    H5 2096   3.236   2.954  11.180 -0.1030  0.0397 -0.7006
  137MPD2    N1 2097   3.394   2.600  10.886  0.2545  0.0327  0.9296
  137MPD2    H7 2098   3.405   2.504  10.855  0.0815  0.6733 -1.0882
  138TCq2    C1 2099   3.391   2.704  10.792 -0.3186  0.3280 -0.3520
  138TCq2    O2 2100   3.431   2.817  10.807 -0.2827 -0.1619 -0.6813
  138TCq2    C2 2101   3.368   2.660  10.656 -0.0837 -0.2691  0.7065
  138TCq2    C3 2102   3.280   2.552  10.621 -0.6380 -0.7703  0.2961
  138TCq2    C4 2103   3.202   2.552  10.508  0.1706 -0.2151  0.4278
  138TCq2    C5 2104   3.203   2.664  10.427 -0.0430  0.4039 -0.2951
  138TCq2    C6 2105   3.280   2.765  10.457  0.4157  0.4491  0.6730
  138TCq2    C7 2106   3.365   2.765  10.567  0.7305 -0.1814 -0.7087
  138TCq2    C8 2107   3.247   2.894  10.406 -0.0550  0.3842 -0.1108
  138TCq2    O4 2108   3.320   2.987  10.437  0.4042 -0.3690  0.2489
  138TCq2    C9 2109   3.123   2.439  10.459 -0.0692  1.3770  0.0882
  138TCq2    O5 2110   3.151   2.327  10.505  1.0093  0.1614  0.4590
  138TCq2    O6 2111   3.024   2.477  10.392 -0.2037  0.2570  0.3902
  138TCq2    H2 2112   3.261   2.471  10.691 -0.8375 -0.2937  0.7980
  138TCq2    H3 2113   3.148   2.669  10.333  1.4311  2.7837 -1.0387
  138TCq2    H4 2114   3.437   2.846  10.576 -0.5647  0.7475  1.3397
  139TMC2    C1 2115   2.830   1.627  13.590 -0.2214 -0.5796 -0.8503
  139TMC2    C2 2116   2.777   1.616  13.470 -0.5824  0.7874  0.3167
  139TMC2    C3 2117   2.642   1.641  13.463 -0.0433 -0.5329  0.4136
  139TMC2    C4 2118   2.765   1.657  13.704 -0.2925 -0.4396  0.3906
  139TMC2    C5 2119   2.632   1.697  13.691 -0.7016  0.6003  0.2195
  139TMC2    C6 2120   2.572   1.693  13.567 -0.0106 -0.0660  0.0785
  139TMC2     C 2121   2.970   1.595  13.595  0.4088  0.9324  0.6338
  139TMC2     O 2122   3.027   1.545  13.500 -0.4855  0.0371  0.0593
  139TMC2     H 2123   2.835   1.581  13.385 -0.5991 -0.4651  0.8256
  139TMC2    H1 2124   2.818   1.653  13.799 -1.8238 -3.2469  1.1320
  139TMC2    H2 2125   2.475   1.740  13.553  0.3738  0.6335 -0.2089
  139TMC2    C7 2126   2.566   1.786  13.788 -0.3584 -0.2594  0.1436
  139TMC2    C8 2127   2.579   1.660  13.337 -0.6805 -0.2844 -0.3220
  139TMC2    O1 2128   2.506   1.881  13.742  0.2934  0.0614 -0.2287
  139TMC2    O2 2129   2.476   1.727  13.321 -0.3593  0.4385  0.3710
  139TMC2    O5 2130   2.631   1.581  13.245 -0.1078  0.3208  0.0653
  139TMC2    H5 2131   2.708   1.524  13.263  0.5147  1.7776  2.1076
  140MPD2     C 2132   3.213   1.689  13.851 -0.2400  0.4554  0.0271
  140MPD2    C1 2133   3.148   1.606  13.764 -0.2510  0.3803  0.0116
  140MPD2    C2 2134   3.202   1.476  13.747 -0.4397 -0.3761  0.5954
  140MPD2    C3 2135   3.324   1.441  13.814 -0.9655  0.1499 -0.0030
  140MPD2    C4 2136   3.391   1.530  13.893  0.6085  0.7342  0.3597
  140MPD2    C5 2137   3.332   1.655  13.914  0.3835  0.1224 -0.2006
  140MPD2     H 2138   3.148   1.398  13.696 -2.0757  0.2271  1.4201
  140MPD2    H1 2139   3.474   1.507  13.959  0.2398  0.2342  0.6467
  140MPD2    H2 2140   3.189   1.792  13.877  1.3338  0.7619  0.2875
  140MPD2    H3 2141   3.386   1.731  13.970 -0.3690  2.3138 -2.4986
  140MPD2     N 2142   3.361   1.305  13.799  0.1062 -0.0530 -0.1015
  140MPD2    H5 2143   3.307   1.241  13.741 -0.5508  0.6232 -0.2309
  140MPD2    N1 2144   3.030   1.647  13.707  0.1464  0.4876  0.0873
  140MPD2    H7 2145   2.977   1.714  13.763  0.8441  2.1209 -1.2173
  141TCq2    C1 2146   3.794   2.688  14.166 -0.1283  1.1936  0.7562
  141TCq2    O2 2147   3.808   2.808  14.153 -0.4732  1.2674  0.1487
  141TCq2    C2 2148   3.808   2.639  14.299 -0.1219 -0.1603  0.8015
  141TCq2    C3 2149   3.813   2.504  14.313  0.4340  0.1763  0.1450
  141TCq2    C4 2150   3.860   2.456  14.426  0.3170 -0.5742 -0.3979
  141TCq2    C5 2151   3.886   2.533  14.531 -0.3750 -0.2821  0.0203
  141TCq2    C6 2152   3.873   2.673  14.518 -0.1649  0.6323  0.0219
  141TCq2    C7 2153   3.832   2.732  14.401  0.0714  0.0380  0.4846
  141TCq2    C8 2154   3.910   2.761  14.633  0.2658  0.1867  0.6631
  141TCq2    O4 2155   3.934   2.703  14.738  0.3937  0.6616  0.0215
  141TCq2    C9 2156   3.873   2.311  14.447 -0.2022  0.1305  1.0512
  141TCq2    O5 2157   3.823   2.237  14.358 -0.0040  0.3774  0.1062
  141TCq2    O6 2158   3.924   2.270  14.551  0.3636  0.7284 -0.3619
  141TCq2    H2 2159   3.801   2.433  14.232  1.5227 -0.5225  0.5947
  141TCq2    H3 2160   3.922   2.484  14.621  0.1252  3.2571  1.7427
  141TCq2    H4 2161   3.814   2.836  14.379 -1.8501 -0.3148  0.3923
  142MPD2     C 2162   1.859   1.207  10.208 -0.9348  0.0327 -0.8372
  142MPD2    C1 2163   1.723   1.184  10.181 -1.1133  0.1997 -0.6066
  142MPD2    C2 2164   1.667   1.238  10.064 -0.0297 -0.1346  0.3056
  142MPD2    C3 2165   1.754   1.315   9.986 -1.0053  0.1426  0.4623
  142MPD2    C4 2166   1.887   1.334  10.016 -0.4878 -0.5601  1.0953
  142MPD2    C5 2167   1.940   1.285  10.132 -0.1583 -0.7911 -0.1293
  142MPD2     H 2168   1.563   1.226  10.037 -0.2058 -0.9087  1.2782
  142MPD2    H1 2169   1.950   1.381   9.941  0.0004  1.2352  2.6648
  142MPD2    H2 2170   1.898   1.162  10.299 -0.5175  0.2630 -0.9041
  142MPD2    H3 2171   2.046   1.279  10.154 -0.5303 -1.7034  1.4429
  142MPD2     N 2172   1.714   1.380   9.863 -0.4754 -0.3201 -0.6228
  142MPD2    H5 2173   1.775   1.449   9.821 -0.3859  0.0871  0.1654
  142MPD2    N1 2174   1.646   1.105  10.274 -0.5294  0.0702  0.2668
  142MPD2    H7 2175   1.702   1.056  10.343  0.8557  1.4532  0.1261
  143TCq2    C1 2176   1.601   1.359   9.795  0.0171 -0.3584 -0.8460
  143TCq2    O2 2177   1.511   1.280   9.817 -0.3179 -0.0215  0.6080
  143TCq2    C2 2178   1.581   1.444   9.677  0.8269  0.0325 -0.2595
  143TCq2    C3 2179   1.461   1.452   9.609 -0.4129  0.3879 -0.4672
  143TCq2    C4 2180   1.464   1.510   9.486 -0.2565  0.3332 -0.1908
  143TCq2    C5 2181   1.577   1.564   9.428  0.0294 -0.1500 -0.2080
  143TCq2    C6 2182   1.694   1.554   9.501  0.6564  0.3493 -0.4743
  143TCq2    C7 2183   1.697   1.483   9.620 -0.5739 -0.0226 -0.3174
  143TCq2    C8 2184   1.815   1.590   9.434  0.3257  0.1170  0.2195
  143TCq2    O4 2185   1.816   1.581   9.311 -0.0764 -0.1518  0.0675
  143TCq2    C9 2186   1.342   1.492   9.416  0.3394 -0.0907  0.2748
  143TCq2    O5 2187   1.255   1.420   9.463 -0.1673  0.0442 -0.8998
  143TCq2    O6 2188   1.335   1.548   9.303 -0.7918 -0.8281 -0.0758
  143TCq2    H2 2189   1.378   1.393   9.647  1.5354 -1.6999  0.5871
  143TCq2    H3 2190   1.569   1.601   9.327 -0.7460 -0.5318 -0.2890
  143TCq2    H4 2191   1.790   1.437   9.651 -0.8704  0.9109  1.9686
  144MPD2     C 2192   4.337   0.542   1.211 -0.1171  0.5396  0.6543
  144MPD2    C1 2193   4.370   0.450   1.115 -1.1691  0.0881 -0.1295
  144MPD2    C2 2194   4.486   0.374   1.124  0.0218  0.5164  0.5855
  144MPD2    C3 2195   4.567   0.407   1.234 -0.9106 -0.1094 -0.2699
  144MPD2    C4 2196   4.535   0.500   1.329 -0.3203 -0.5901 -0.2398
  144MPD2    C5 2197   4.417   0.562   1.317 -0.5174 -0.3005 -0.2966
  144MPD2     H 2198   4.499   0.304   1.042 -2.5352  0.3605  0.3053
  144MPD2    H1 2199   4.607   0.527   1.405 -0.2789  1.5845 -1.0349
  144MPD2    H2 2200   4.249   0.605   1.214 -2.8707 -3.2051 -2.0097
  144MPD2    H3 2201   4.397   0.619   1.407 -0.8015  0.3438 -0.7736
  144MPD2     N 2202   4.692   0.351   1.239 -0.6564 -0.4796 -0.0338
  144MPD2    H5 2203   0.038   0.398   1.299 -0.3367  1.9509 -2.2512
  144MPD2    N1 2204   4.280   0.412   1.014 -0.0653 -0.3405 -0.0384
  144MPD2    H7 2205   4.306   0.331   0.960  0.2562  0.3330 -0.9030
  145TCq2    C1 2206   0.003   0.241   1.166  0.0143 -0.8293  0.4322
  145TCq2    O2 2207   4.661   0.155   1.107  0.9021 -0.2658  0.0679
  145TCq2    C2 2208   0.130   0.184   1.206 -0.1967 -0.1345 -0.5423
  145TCq2    C3 2209   0.145   0.047   1.207  0.0464 -0.0546 -0.0197
  145TCq2    C4 2210   0.253   4.717   1.276  0.2808  0.5139  0.1857
  145TCq2    C5 2211   0.330   0.086   1.350 -0.1155  0.7949  0.1767
  145TCq2    C6 2212   0.306   0.220   1.346 -0.2224  0.7582  0.5643
  145TCq2    C7 2213   0.208   0.270   1.276  0.2817 -0.2479  0.0677
  145TCq2    C8 2214   0.428   0.301   1.372  0.7900 -0.0656 -0.1977
  145TCq2    O4 2215   0.533   0.242   1.357  0.6515  0.4550 -0.1534
  145TCq2    C9 2216   0.299   4.586   1.244  0.2334 -0.3864  0.2904
  145TCq2    O5 2217   0.222   4.522   1.167  0.5459 -0.1461 -0.2856
  145TCq2    O6 2218   0.399   4.540   1.302 -0.2043  0.1069  0.0608
  145TCq2    H2 2219   0.089   4.708   1.138 -1.0799  1.3398 -0.3457
  145TCq2    H3 2220   0.412   0.044   1.407 -1.8674  0.8897  2.7740
  145TCq2    H4 2221   0.205   0.376   1.254 -0.5599 -0.6415 -1.7133
  146TMC2    C1 2222   0.755   3.888  11.689 -0.4205  0.4434  0.2020
  146TMC2    C2 2223   0.664   3.881  11.586  0.7070  0.3756 -0.5306
  146TMC2    C3 2224   0.682   3.771  11.505 -0.3847  0.3777 -0.6588
  146TMC2    C4 2225   0.869   3.805  11.695  0.3465  0.6641  0.1951
  146TMC2    C5 2226   0.880   3.703  11.607  0.3914  0.0708 -0.3402
  146TMC2    C6 2227   0.782   3.684  11.508 -0.1255 -0.5129  0.1313
  146TMC2     C 2228   0.697   3.933  11.816  0.3332  0.7972  0.9377
  146TMC2     O 2229   0.602   4.008  11.805  0.2897  0.2086 -0.1560
  146TMC2     H 2230   0.574   3.939  11.568  1.8086  1.9673 -0.8976
  146TMC2    H1 2231   0.960   3.840  11.743  0.2794 -0.6361  1.2630
  146TMC2    H2 2232   0.786   3.604  11.436 -1.3324 -0.8088  0.3945
  146TMC2    C7 2233   1.008   3.644  11.582  0.2643 -0.1456  1.0653
  146TMC2    C8 2234   0.599   3.757  11.391  0.4994 -0.0860 -0.7001
  146TMC2    O1 2235   1.032   3.634  11.464 -0.5835 -0.1239  0.3517
  146TMC2    O2 2236   0.480   3.724  11.398  0.1964 -0.2366 -0.5829
  146TMC2    O5 2237   0.656   3.835  11.301 -0.2830 -0.4355  0.1776
  146TMC2    H5 2238   0.739   3.871  11.341  0.1399  0.1793 -1.2659
  147MPD2     C 2239   1.436   3.428  11.738 -0.0319 -0.1089  0.3724
  147MPD2    C1 2240   1.392   3.505  11.844 -0.1630  0.7921 -0.2594
  147MPD2    C2 2241   1.269   3.565  11.835 -0.1482 -0.5449 -0.4650
  147MPD2    C3 2242   1.204   3.569  11.706 -0.5924  0.2056 -0.0115
  147MPD2    C4 2243   1.265   3.507  11.603  0.2893 -0.2947  0.0765
  147MPD2    C5 2244   1.377   3.432  11.614  0.5409 -0.4066  1.0433
  147MPD2     H 2245   1.223   3.613  11.921  0.3842 -0.5686 -0.1699
  147MPD2    H1 2246   1.226   3.503  11.502  1.7555 -0.8545 -0.4769
  147MPD2    H2 2247   1.527   3.370  11.749 -0.3099 -0.9012 -1.5651
  147MPD2    H3 2248   1.424   3.378  11.533 -0.1476  0.3785  0.1160
  147MPD2     N 2249   1.076   3.632  11.698 -0.2341 -0.4003 -0.4924
  147MPD2    H5 2250   1.022   3.662  11.780  1.9152  0.0198  0.7598
  147MPD2    N1 2251   1.468   3.506  11.962 -0.1974 -0.2937  0.0773
  147MPD2    H7 2252   1.554   3.453  11.963  0.8166  1.3429  0.1530
  148MPD2     C 2253   1.391   2.407  10.671 -0.7209 -0.1721  0.2644
  148MPD2    C1 2254   1.482   2.314  10.631 -0.6801 -0.3470 -0.0905
  148MPD2    C2 2255   1.459   2.214  10.542 -0.9788 -0.5261 -0.3719
  148MPD2    C3 2256   1.333   2.205  10.481  0.2640  0.4087  0.1202
  148MPD2    C4 2257   1.244   2.306  10.503 -0.3971 -0.7777 -0.6042
  148MPD2    C5 2258   1.276   2.405  10.596  0.0737  0.0277 -0.3958
  148MPD2     H 2259   1.538   2.146  10.515  1.0178  1.6952 -0.1551
  148MPD2    H1 2260   1.158   2.324  10.439 -0.1816 -2.5462 -1.3769
  148MPD2    H2 2261   1.386   2.481  10.749 -1.9842  0.4392 -0.4053
  148MPD2    H3 2262   1.199   2.480  10.611 -0.3477 -0.2521 -1.1427
  148MPD2     N 2263   1.299   2.103  10.385  0.2658 -0.0545  0.0132
  148MPD2    H5 2264   1.208   2.121  10.345 -1.6581 -1.0442  3.9294
  148MPD2    N1 2265   1.618   2.323  10.676 -0.3416  0.1178  0.3632
  148MPD2    H7 2266   1.681   2.251  10.642  0.0829 -0.4769  2.3969
  149TCq2    C1 2267   1.664   2.418  10.759 -0.6002 -0.1293 -0.4702
  149TCq2    O2 2268   1.619   2.532  10.783  0.3921  0.6666  0.2713
  149TCq2    C2 2269   1.812   2.402  10.776  0.1248  0.6900  0.6638
  149TCq2    C3 2270   1.895   2.505  10.755 -0.3726  0.4094  0.2406
  149TCq2    C4 2271   2.026   2.479  10.740  0.1868  0.3128  0.0232
  149TCq2    C5 2272   2.065   2.344  10.727 -0.0584 -0.4997  0.0280
  149TCq2    C6 2273   1.980   2.243  10.764  0.5110 -0.1933 -0.5932
  149TCq2    C7 2274   1.856   2.278  10.798 -0.7955  0.9706  0.6851
  149TCq2    C8 2275   1.994   2.108  10.716  0.0980 -0.2546  0.7659
  149TCq2    O4 2276   1.892   2.036  10.725  0.3311  0.0645 -0.1969
  149TCq2    C9 2277   2.104   2.569  10.663 -0.1275  0.1255 -0.1740
  149TCq2    O5 2278   2.206   2.525  10.609  0.4052  1.1735 -0.9607
  149TCq2    O6 2279   2.040   2.667  10.618  0.4693  0.6553  0.0409
  149TCq2    H2 2280   1.860   2.604  10.730  1.3989  0.9573 -0.1141
  149TCq2    H3 2281   2.166   2.328  10.693 -0.2908  0.3862 -1.0974
  149TCq2    H4 2282   1.791   2.204  10.842  0.6194 -0.1590  0.8989
  150MPD2     C 2283   2.707   1.777  12.272  0.4815 -1.0954  0.4340
  150MPD2    C1 2284   2.814   1.712  12.206 -0.1746  0.1566  0.1678
  150MPD2    C2 2285   2.937   1.707  12.263 -0.4892 -0.5191 -0.5332
  150MPD2    C3 2286   2.951   1.766  12.386 -0.6101  0.1650  0.3541
  150MPD2    C4 2287   2.846   1.837  12.442 -0.5996 -0.3307 -0.1864
  150MPD2    C5 2288   2.721   1.835  12.398  0.4568 -0.7222  0.0023
  150MPD2     H 2289   3.026   1.659  12.225  0.5349  0.0449  1.1364
  150MPD2    H1 2290   2.862   1.892  12.534  4.3847 -1.0993 -0.5623
  150MPD2    H2 2291   2.608   1.763  12.229  1.1135 -0.1219 -1.3331
  150MPD2    H3 2292   2.639   1.890  12.442  2.1016 -0.2202  2.5172
  150MPD2     N 2293   3.073   1.754  12.460 -0.3028  0.6556  0.0448
  150MPD2    H5 2294   3.075   1.793  12.554  0.7160  1.3907 -0.2774
  150MPD2    N1 2295   2.788   1.646  12.079 -0.4805 -0.1182  0.3668
  150MPD2    H7 2296   2.693   1.636  12.044 -0.6045 -1.6240  1.1239
  151TCq2    C1 2297   3.186   1.690  12.409  0.5041 -0.2315 -0.0478
  151TCq2    O2 2298   3.237   1.670  12.299 -0.2961  0.0226  0.1216
  151TCq2    C2 2299   3.286   1.662  12.518 -0.0729  0.8051 -0.5480
  151TCq2    C3 2300   3.248   1.584  12.624 -0.2733 -0.5026 -0.1184
  151TCq2    C4 2301   3.349   1.548  12.709  0.2483  0.4370  0.3560
  151TCq2    C5 2302   3.481   1.569  12.685 -0.3021  0.3367  0.4253
  151TCq2    C6 2303   3.517   1.648  12.574 -0.1714  0.7438 -0.1198
  151TCq2    C7 2304   3.415   1.701  12.496  0.4103 -0.5356  0.3700
  151TCq2    C8 2305   3.653   1.695  12.541  0.5423 -0.5709  0.1579
  151TCq2    O4 2306   3.676   1.748  12.430 -0.0348  0.1770  0.4345
  151TCq2    C9 2307   3.322   1.505  12.845 -0.0421 -0.6002 -0.2206
  151TCq2    O5 2308   3.213   1.448  12.876 -0.4103  0.4026 -0.3887
  151TCq2    O6 2309   3.416   1.500  12.931 -0.5652 -0.2974  0.1069
  151TCq2    H2 2310   3.152   1.545  12.655 -0.1063  0.4381  1.5487
  151TCq2    H3 2311   3.553   1.547  12.763 -1.2405  0.0089  1.1982
  151TCq2    H4 2312   3.436   1.753  12.403 -0.8837 -1.5596 -0.4995
  152MPD2     C 2313   2.350   1.676  13.022 -0.5824  0.7562 -0.5040
  152MPD2    C1 2314   2.428   1.703  12.918  0.0850  0.4545  0.5324
  152MPD2    C2 2315   2.373   1.742  12.801  0.0880 -0.8396  0.0175
  152MPD2    C3 2316   2.238   1.742  12.784  0.5704 -0.1478  0.4118
  152MPD2    C4 2317   2.156   1.735  12.898  0.3837 -0.2206 -0.0395
  152MPD2    C5 2318   2.210   1.685  13.015 -0.2213 -0.4562  0.0309
  152MPD2     H 2319   2.440   1.766  12.719 -1.4930 -0.1463 -1.0741
  152MPD2    H1 2320   2.049   1.719  12.897  0.1861  0.8367  3.8189
  152MPD2    H2 2321   2.394   1.643  13.116  0.3783 -1.0175 -1.5861
  152MPD2    H3 2322   2.135   1.656  13.087 -1.2347 -0.2525 -0.9490
  152MPD2     N 2323   2.187   1.755  12.659 -0.0048 -0.0740  0.3323
  152MPD2    H5 2324   2.261   1.744  12.590  1.4987  0.6521  1.8168
  152MPD2    N1 2325   2.569   1.691  12.932 -0.4427  0.5215  0.2474
  152MPD2    H7 2326   2.610   1.672  13.023 -2.3820 -0.4828  0.9051
  153TCq2    C1 2327   2.661   1.720  12.838  0.2935 -0.1428  0.7466
  153TCq2    O2 2328   2.653   1.780  12.733 -0.1343 -0.6020 -0.3275
  153TCq2    C2 2329   2.795   1.694  12.889  0.4140  0.4126  0.5559
  153TCq2    C3 2330   2.817   1.609  12.991 -0.0891 -0.2765 -0.4225
  153TCq2    C4 2331   2.937   1.604  13.043  0.0424 -0.1350  0.1154
  153TCq2    C5 2332   3.038   1.676  12.996  0.2882 -0.6773 -0.2573
  153TCq2    C6 2333   3.019   1.757  12.894 -0.4608 -0.0056  0.0388
  153TCq2    C7 2334   2.898   1.762  12.828  0.4663 -0.3961  0.1250
  153TCq2    C8 2335   3.124   1.830  12.822  0.1592  0.3598 -0.1058
  153TCq2    O4 2336   3.093   1.857  12.706  0.1052 -0.3836 -0.7047
  153TCq2    C9 2337   2.962   1.511  13.151 -0.3333 -0.0701  0.2845
  153TCq2    O5 2338   3.073   1.484  13.191 -0.3693  0.1571 -0.0392
  153TCq2    O6 2339   2.866   1.448  13.202 -0.1626  0.3349 -0.5030
  153TCq2    H2 2340   2.738   1.541  13.022 -1.6360  1.5182 -0.3895
  153TCq2    H3 2341   3.129   1.671  13.054 -0.7016  0.8650  1.4440
  153TCq2    H4 2342   2.876   1.832  12.749 -1.5558 -0.1860  0.8718
  154MPD2     C 2343   0.553   2.405   0.447  0.0518 -0.0610 -0.3859
  154MPD2    C1 2344   0.509   2.311   0.535  0.3179  1.1198  0.4529
  154MPD2    C2 2345   0.401   2.345   0.622  0.2363  0.0871 -0.4821
  154MPD2    C3 2346   0.339   2.468   0.621 -0.5288 -0.7115 -0.2403
  154MPD2    C4 2347   0.393   2.560   0.531  0.2640  0.1001 -0.1596
  154MPD2    C5 2348   0.498   2.531   0.447  0.5302 -0.6193 -0.1582
  154MPD2     H 2349   0.373   2.267   0.692  1.8473  0.3038  0.4000
  154MPD2    H1 2350   0.355   2.661   0.536 -1.8956 -0.7946  2.0202
  154MPD2    H2 2351   0.627   2.372   0.375  0.0331 -2.3380  0.6217
  154MPD2    H3 2352   0.530   2.606   0.376 -1.0595  0.8257  0.6528
  154MPD2     N 2353   0.233   2.494   0.713 -0.2988  0.2792 -0.3678
  154MPD2    H5 2354   0.201   2.410   0.760 -0.6483 -0.0363 -1.1609
  154MPD2    N1 2355   0.579   2.186   0.524 -0.2276 -0.0837  0.4475
  154MPD2    H7 2356   0.649   2.192   0.451 -1.7127  1.9181 -0.8206
  155TCq2    C1 2357   0.572   2.093   0.623  0.4996 -0.0636 -0.8758
  155TCq2    O2 2358   0.505   2.091   0.725 -0.2494  1.0611 -0.3648
  155TCq2    C2 2359   0.668   1.983   0.596 -0.2388 -0.2301  0.1434
  155TCq2    C3 2360   0.692   1.890   0.696  0.7378  0.3893 -0.1705
  155TCq2    C4 2361   0.758   1.773   0.672  0.4699  0.3252 -0.3787
  155TCq2    C5 2362   0.774   1.731   0.541 -0.0925 -0.1721 -0.9940
  155TCq2    C6 2363   0.746   1.827   0.446  0.2116  0.7638  0.1100
  155TCq2    C7 2364   0.698   1.950   0.472  0.4996  0.8892  0.2565
  155TCq2    C8 2365   0.783   1.784   0.310 -0.3859  0.5097  0.0794
  155TCq2    O4 2366   0.839   1.678   0.299  0.3743 -0.2672 -0.3157
  155TCq2    C9 2367   0.767   1.677   0.776  0.7166  0.7562  0.2301
  155TCq2    O5 2368   0.808   1.562   0.757 -0.8190  0.7428  0.0245
  155TCq2    O6 2369   0.738   1.720   0.891 -0.3065  0.0224 -0.5168
  155TCq2    H2 2370   0.661   1.912   0.798  1.1248 -1.3183  0.3233
  155TCq2    H3 2371   0.805   1.631   0.514 -0.9959 -1.1515  1.5923
  155TCq2    H4 2372   0.658   2.011   0.392  1.0465  1.7306  0.6247
  156MPD2     C 2373   3.536   4.052  11.759 -0.7927  0.4262  0.0464
  156MPD2    C1 2374   3.405   4.024  11.735  0.0258 -0.3516 -0.1565
  156MPD2    C2 2375   3.319   3.994  11.838  0.2169 -0.6209  0.4844
  156MPD2    C3 2376   3.360   4.009  11.972  0.7218  0.0976  0.7152
  156MPD2    C4 2377   3.493   4.033  11.997 -0.0039  0.4992 -0.1011
  156MPD2    C5 2378   3.575   4.059  11.895  0.0743 -0.0055 -0.6032
  156MPD2     H 2379   3.219   3.958  11.814 -0.6715  1.9767  0.2903
  156MPD2    H1 2380   3.536   4.035  12.097  0.0543  2.2343 -0.1574
  156MPD2    H2 2381   3.597   4.086  11.677 -2.2805  0.9185 -0.8607
  156MPD2    H3 2382   3.674   4.094  11.921  0.0926  1.3338 -2.5144
  156MPD2     N 2383   3.270   3.987  12.079  0.3095  0.9916  0.0307
  156MPD2    H5 2384   3.182   3.946  12.049 -0.2143  0.9507  1.6194
  156MPD2    N1 2385   3.372   4.021  11.597 -0.0318  0.4607  0.2205
  156MPD2    H7 2386   3.443   4.054  11.533 -0.7108  0.9740 -0.2668
  157TCq2    C1 2387   3.250   3.986  11.543 -0.3110 -1.0010  0.4512
  157TCq2    O2 2388   3.133   3.976  11.584  0.2346  0.2185  0.0717
  157TCq2    C2 2389   3.257   3.978  11.396 -0.0354  0.1544  0.4034
  157TCq2    C3 2390   3.360   4.031  11.326  0.3361  0.0128  0.8758
  157TCq2    C4 2391   3.340   4.095  11.208  0.6582 -0.0073  0.7465
  157TCq2    C5 2392   3.215   4.104  11.154 -0.3133  0.1180 -0.0980
  157TCq2    C6 2393   3.117   4.050  11.227 -0.2121  0.6245 -0.0795
  157TCq2    C7 2394   3.139   3.976  11.340  0.0929 -0.3274  0.2441
  157TCq2    C8 2395   2.992   4.109  11.235  0.0266 -0.1787  0.4653
  157TCq2    O4 2396   2.902   4.047  11.291 -0.2657 -0.3634 -0.1551
  157TCq2    C9 2397   3.456   4.154  11.136 -0.4286 -0.7244 -0.0018
  157TCq2    O5 2398   3.444   4.169  11.010 -0.5075  0.2010  0.4741
  157TCq2    O6 2399   3.552   4.189  11.203  0.8154 -0.1963 -0.0540
  157TCq2    H2 2400   3.459   4.024  11.367  0.4351  1.0665  0.8055
  157TCq2    H3 2401   3.200   4.156  11.060 -2.1470 -0.7258 -0.2795
  157TCq2    H4 2402   3.059   3.921  11.387  0.4045 -0.0099  1.1552
  158TMC2    C1 2403   2.997   2.611  13.359 -0.6079 -0.4476 -1.4372
  158TMC2    C2 2404   3.041   2.623  13.228  0.5323  0.3482  0.1014
  158TMC2    C3 2405   2.960   2.697  13.142 -0.4280  0.7674 -0.6961
  158TMC2    C4 2406   2.872   2.658  13.401 -0.1871  0.0068 -0.1619
  158TMC2    C5 2407   2.805   2.737  13.313 -0.2925  0.1829 -0.2790
  158TMC2    C6 2408   2.846   2.753  13.182  0.3603  0.3606 -0.8632
  158TMC2     C 2409   3.060   2.508  13.441  0.5968  0.3502  0.2603
  158TMC2     O 2410   3.118   2.415  13.385 -0.0759 -0.6063 -0.0754
  158TMC2     H 2411   3.139   2.585  13.201  1.0752  0.9642  1.2445
  158TMC2    H1 2412   2.847   2.650  13.506 -1.9598  1.0084 -0.5023
  158TMC2    H2 2413   2.776   2.802  13.115 -0.3549 -1.7797 -1.6866
  158TMC2    C7 2414   2.670   2.789  13.349 -0.3369 -0.4211  0.1113
  158TMC2    C8 2415   2.991   2.701  13.002 -0.0720 -0.2252 -0.1567
  158TMC2    O1 2416   2.624   2.873  13.275  0.9330 -0.1307  0.5935
  158TMC2    O2 2417   3.071   2.623  12.947  0.3734 -0.0844 -0.1278
  158TMC2    O5 2418   2.955   2.820  12.957 -0.0461  0.4511 -0.0289
  158TMC2    H5 2419   2.904   2.881  13.016 -0.4625  0.7621 -0.7005
  159MPD2     C 2420   3.146   2.269  13.900  0.2701  0.0396  0.1637
  159MPD2    C1 2421   3.100   2.394  13.927 -0.0376 -0.4338  0.7696
  159MPD2    C2 2422   3.058   2.470  13.820 -0.3024 -0.1930 -1.0184
  159MPD2    C3 2423   3.071   2.431  13.687  0.3428  0.5741  0.1201
  159MPD2    C4 2424   3.125   2.312  13.667  0.9587  0.3324  0.5651
  159MPD2    C5 2425   3.153   2.226  13.773 -0.0360 -0.8237  0.0402
  159MPD2     H 2426   3.018   2.569  13.835  1.7226  0.3202  0.8528
  159MPD2    H1 2427   3.148   2.284  13.565 -0.5094  2.5626 -0.3796
  159MPD2    H2 2428   3.186   2.208  13.981  1.7614  1.5680  0.5922
  159MPD2    H3 2429   3.206   2.132  13.761 -0.4106 -1.0395  0.0921
  159MPD2     N 2430   3.032   2.516  13.578  0.3631 -0.2113  0.1062
  159MPD2    H5 2431   2.988   2.603  13.606  0.1577 -0.2565 -0.0765
  159MPD2    N1 2432   3.098   2.435  14.062  0.3111 -0.9010  0.2519
  159MPD2    H7 2433   3.136   2.372  14.132 -0.0823  2.4044  3.4273
  160TMC2    C1 2434   3.188   1.241   1.489  0.0469  0.2861  0.5586
  160TMC2    C2 2435   3.264   1.142   1.544  0.1765  0.2506 -0.1789
  160TMC2    C3 2436   3.380   1.113   1.477  0.2947 -0.5332 -0.1169
  160TMC2    C4 2437   3.216   1.293   1.365  0.8102 -0.6282 -0.6389
  160TMC2    C5 2438   3.343   1.274   1.320 -0.3789  0.6003  0.0835
  160TMC2    C6 2439   3.430   1.187   1.379 -0.2495 -0.8860 -0.1775
  160TMC2     C 2440   3.054   1.262   1.547 -0.3599 -0.4542  0.6304
  160TMC2     O 2441   3.027   1.211   1.655  0.5802  0.1241 -0.7394
  160TMC2     H 2442   3.239   1.084   1.632 -0.7732  2.2914  0.8998
  160TMC2    H1 2443   3.154   1.362   1.309 -0.8989 -0.3215  1.6346
  160TMC2    H2 2444   3.536   1.174   1.361  0.1056  1.6129  0.1451
  160TMC2    C7 2445   3.389   1.343   1.204  0.0901 -0.8586  0.4304
  160TMC2    C8 2446   3.455   0.997   1.523 -0.8422 -0.3434 -0.1832
  160TMC2    O1 2447   3.309   1.375   1.116 -0.1564 -0.2116 -0.5047
  160TMC2    O2 2448   3.575   0.988   1.501  0.7960 -0.3313 -0.3024
  160TMC2    O5 2449   3.362   0.897   1.512 -0.4912  0.0613 -0.4462
  160TMC2    H5 2450   3.280   0.936   1.476 -1.2911 -1.6158 -0.4796
  161MPD2     C 2451   2.856   1.446   1.672  0.5583 -0.0582 -0.4569
  161MPD2    C1 2452   2.888   1.445   1.535  0.1366  0.4941  0.1059
  161MPD2    C2 2453   2.805   1.520   1.448 -0.4702  0.6350  0.1080
  161MPD2    C3 2454   2.687   1.578   1.496 -0.5034 -0.3475  0.2189
  161MPD2    C4 2455   2.657   1.563   1.632 -0.4233 -0.0426 -0.3659
  161MPD2    C5 2456   2.743   1.506   1.720 -0.2450  0.6058 -0.4280
  161MPD2     H 2457   2.829   1.533   1.343  1.4857 -0.5965  0.4074
  161MPD2    H1 2458   2.570   1.614   1.673 -1.1089 -1.1915 -0.3946
  161MPD2    H2 2459   2.912   1.390   1.746  0.2388  0.4379  0.1568
  161MPD2    H3 2460   2.716   1.505   1.825  1.6627  0.0799  0.0654
  161MPD2     N 2461   2.589   1.656   1.425  0.5526 -0.1190 -0.3017
  161MPD2    H5 2462   2.499   1.674   1.468  0.0669  0.3166 -1.4889
  161MPD2    N1 2463   2.993   1.365   1.480  0.5461 -0.1320 -0.2336
  161MPD2    H7 2464   2.998   1.368   1.379 -1.7823  0.9896 -0.3162
  162TMC2    C1 2465   1.490   3.665   0.773 -0.0730  0.5611 -0.2937
  162TMC2    C2 2466   1.555   3.770   0.707  0.0365 -0.1487 -0.0007
  162TMC2    C3 2467   1.609   3.865   0.786 -0.7407 -0.4521  0.0549
  162TMC2    C4 2468   1.501   3.637   0.909  0.0719  0.5971 -0.1214
  162TMC2    C5 2469   1.566   3.729   0.982 -0.1920 -0.2942 -0.4077
  162TMC2    C6 2470   1.627   3.845   0.921 -0.2339 -0.0336 -0.1886
  162TMC2     C 2471   1.457   3.558   0.678  0.2855 -0.5173  0.8556
  162TMC2     O 2472   1.513   3.569   0.570 -0.4551  0.0938  0.2576
  162TMC2     H 2473   1.563   3.787   0.601  1.5450  0.7291  0.2518
  162TMC2    H1 2474   1.454   3.550   0.955  0.8939 -0.4776 -1.2974
  162TMC2    H2 2475   1.688   3.912   0.980 -1.5246  1.8244 -0.9712
  162TMC2    C7 2476   1.562   3.734   1.128  0.2089  0.7496 -0.4277
  162TMC2    C8 2477   1.677   3.973   0.723  0.2763  0.6208 -0.9985
  162TMC2    O1 2478   1.574   3.843   1.179  0.2141 -0.3311  0.3207
  162TMC2    O2 2479   1.663   4.005   0.606  0.4492  0.2738  0.0760
  162TMC2    O5 2480   1.800   3.975   0.789  0.3977 -0.3264  0.0579
  162TMC2    H5 2481   1.809   3.895   0.845 -2.6504 -2.1039 -2.0262
  163MPD2     C 2482   1.232   3.140   0.514  0.2275 -0.6647 -0.3200
  163MPD2    C1 2483   1.333   3.215   0.456  0.0683 -0.2492 -0.7807
  163MPD2    C2 2484   1.387   3.322   0.527  0.5718  0.2644 -0.8757
  163MPD2    C3 2485   1.341   3.348   0.660  0.2353  0.4169 -0.2423
  163MPD2    C4 2486   1.247   3.268   0.720 -0.0608 -0.0327  0.5561
  163MPD2    C5 2487   1.195   3.167   0.644  0.1632 -0.8164 -0.3123
  163MPD2     H 2488   1.453   3.390   0.475 -0.8793  1.5790 -1.0138
  163MPD2    H1 2489   1.203   3.290   0.816 -1.5370  0.8886 -0.3399
  163MPD2    H2 2490   1.185   3.048   0.482  0.7429 -1.5345  1.4383
  163MPD2    H3 2491   1.119   3.109   0.695  0.6386 -0.7199  0.5095
  163MPD2     N 2492   1.388   3.455   0.728 -0.1295  0.3499  0.0821
  163MPD2    H5 2493   1.348   3.460   0.822  1.4156 -0.9422  0.8140
  163MPD2    N1 2494   1.380   3.172   0.329 -0.1463  0.6568 -0.5840
  163MPD2    H7 2495   1.328   3.095   0.288  1.0097 -1.2767  1.5557
  164TCq2    C1 2496   1.956   1.847  10.956 -0.2590  0.2382  0.1838
  164TCq2    O2 2497   1.838   1.816  10.948 -0.3230 -0.2570  0.0333
  164TCq2    C2 2498   1.988   1.974  11.019 -0.8611  0.7625  0.1240
  164TCq2    C3 2499   2.119   2.017  11.035 -0.5527  0.4902 -0.1537
  164TCq2    C4 2500   2.142   2.141  11.080  0.1032 -0.4839 -0.5924
  164TCq2    C5 2501   2.040   2.221  11.124 -0.0786 -0.0968  0.1735
  164TCq2    C6 2502   1.916   2.176  11.103  0.8179  0.4399 -0.3262
  164TCq2    C7 2503   1.883   2.057  11.050  0.4210  0.4580  0.3309
  164TCq2    C8 2504   1.802   2.255  11.140 -0.1374  0.3551 -0.5600
  164TCq2    O4 2505   1.696   2.231  11.083 -0.3902 -0.4912 -0.7519
  164TCq2    C9 2506   2.280   2.182  11.096  0.6367 -0.4789  0.4200
  164TCq2    O5 2507   2.298   2.295  11.151 -0.1319  0.3465  0.3255
  164TCq2    O6 2508   2.357   2.125  11.018  0.0999  0.2154 -0.6351
  164TCq2    H2 2509   2.204   1.955  11.012  0.7778  1.6657  1.5636
  164TCq2    H3 2510   2.062   2.323  11.155 -1.7441  0.3831 -0.2526
  164TCq2    H4 2511   1.780   2.027  11.035  0.5919  0.1136 -0.1489
  165MPD2     C 2512   2.002   4.442   2.011  0.1290  0.4565 -0.6541
  165MPD2    C1 2513   2.115   4.498   1.967 -0.0753 -0.3013  0.1671
  165MPD2    C2 2514   2.145   4.634   1.987 -0.9558  0.1400 -0.1685
  165MPD2    C3 2515   2.053   4.720   2.045 -0.3873 -0.8847 -0.2172
  165MPD2    C4 2516   1.941   4.662   2.090 -0.1799  0.2860  0.9528
  165MPD2    C5 2517   1.929   4.525   2.090  0.1335 -0.0402 -0.0098
  165MPD2     H 2518   2.238   4.671   1.947 -1.4762 -1.0665 -2.4618
  165MPD2    H1 2519   1.874   0.008   2.142 -1.9979 -1.3220  0.6997
  165MPD2    H2 2520   1.979   4.336   2.010  2.1514  0.0136 -1.0022
  165MPD2    H3 2521   1.852   4.484   2.154  1.1450 -0.2229  1.0713
  165MPD2     N 2522   2.068   0.138   2.044  0.5172 -0.3674  0.0613
  165MPD2    H5 2523   1.988   0.193   2.073  1.4975 -0.1955  2.4016
  165MPD2    N1 2524   2.201   4.420   1.891  0.0689 -0.4602 -0.3040
  165MPD2    H7 2525   2.187   4.319   1.899 -1.1149 -0.3427 -0.8265
  166TCq2    C1 2526   2.178   0.201   2.015 -0.4881 -0.2790  0.5292
  166TCq2    O2 2527   2.288   0.172   1.972  0.2133 -0.4155 -0.3159
  166TCq2    C2 2528   2.162   0.346   1.990  0.4165 -0.1466 -0.3804
  166TCq2    C3 2529   2.033   0.382   1.956  0.0654  0.4211  0.1029
  166TCq2    C4 2530   2.017   0.487   1.872 -0.0252 -0.3898  0.7772
  166TCq2    C5 2531   2.119   0.554   1.814  0.4693 -0.3259 -0.0961
  166TCq2    C6 2532   2.248   0.517   1.850 -0.4065  0.6903  0.5893
  166TCq2    C7 2533   2.271   0.409   1.929  0.8945  0.1947 -0.0597
  166TCq2    C8 2534   2.364   0.571   1.777 -0.1008  0.5509 -0.2828
  166TCq2    O4 2535   2.471   0.516   1.800  0.6088  0.1870 -0.0666
  166TCq2    C9 2536   1.878   0.533   1.846  0.1057  0.6604  0.1119
  166TCq2    O5 2537   1.850   0.621   1.760  0.2384 -0.4538 -1.0302
  166TCq2    O6 2538   1.785   0.483   1.917  0.3832  0.0069  0.3453
  166TCq2    H2 2539   1.944   0.335   1.995  2.1816 -3.3337  0.4481
  166TCq2    H3 2540   2.102   0.641   1.753  1.1072  1.0146  1.6218
  166TCq2    H4 2541   2.374   0.383   1.951  1.9843  3.2313 -1.6296
  167TMC2    C1 2542   1.597   2.413  12.517 -0.4758 -0.3410  0.0212
  167TMC2    C2 2543   1.646   2.483  12.622  0.2144 -0.9171  0.7574
  167TMC2    C3 2544   1.703   2.409  12.716  0.3158  0.2080 -0.6648
  167TMC2    C4 2545   1.593   2.279  12.507  1.0756 -0.4026  0.5871
  167TMC2    C5 2546   1.628   2.206  12.615 -0.1615 -0.3433 -0.0325
  167TMC2    C6 2547   1.693   2.270  12.719 -0.0717 -0.0593 -0.4213
  167TMC2     C 2548   1.516   2.493  12.427  0.2238  0.1149  0.1688
  167TMC2     O 2549   1.536   2.464  12.311 -0.2896 -0.0555  0.0062
  167TMC2     H 2550   1.665   2.589  12.626  0.3000 -1.0032  2.8297
  167TMC2    H1 2551   1.535   2.236  12.426  0.9773  1.1129 -0.1651
  167TMC2    H2 2552   1.707   2.212  12.810 -0.2141  0.8598  0.1854
  167TMC2    C7 2553   1.629   2.066  12.612  0.4642  0.0964 -0.5949
  167TMC2    C8 2554   1.782   2.477  12.812  0.4374 -0.0901  0.5340
  167TMC2    O1 2555   1.649   2.018  12.725  0.2146 -0.4699  0.0867
  167TMC2    O2 2556   1.794   2.597  12.809 -0.8835  0.7618 -0.3279
  167TMC2    O5 2557   1.883   2.391  12.846 -0.3831  0.1932  0.1315
  167TMC2    H5 2558   1.871   2.308  12.795 -2.1866  0.5084  0.0588
  168MPD2     C 2559   1.297   2.634  12.289 -0.1531 -0.0417 -0.3142
  168MPD2    C1 2560   1.328   2.643  12.428  0.0346  0.1090  0.5293
  168MPD2    C2 2561   1.243   2.718  12.505  0.4113  0.3428 -0.0224
  168MPD2    C3 2562   1.138   2.794  12.450  0.2556 -0.3648  0.1109
  168MPD2    C4 2563   1.122   2.797  12.313  0.4619  0.8561 -0.4605
  168MPD2    C5 2564   1.194   2.706  12.236 -0.3177  0.6270  0.4419
  168MPD2     H 2565   1.262   2.722  12.612  1.3945 -1.1211 -0.1434
  168MPD2    H1 2566   1.050   2.859  12.262  1.8529  3.1670  0.4057
  168MPD2    H2 2567   1.361   2.578  12.222 -1.0957 -1.1993 -0.2311
  168MPD2    H3 2568   1.186   2.705  12.127 -0.8301 -0.5086  0.4899
  168MPD2     N 2569   1.056   2.860  12.547 -0.2306  0.1022  0.3845
  168MPD2    H5 2570   1.064   2.844  12.647  0.8908 -0.2658  0.2267
  168MPD2    N1 2571   1.435   2.577  12.490  0.3714  0.0425 -0.3394
  168MPD2    H7 2572   1.443   2.583  12.591  2.7221  1.6101 -0.6326
  169MPD1     C 2573   3.637   1.803   9.428  0.4573 -0.4168  0.2273
  169MPD1    C1 2574   3.752   1.732   9.443  0.2345 -0.0994  0.1382
  169MPD1    C2 2575   3.748   1.598   9.446 -0.0028 -0.0697  0.1384
  169MPD1    C3 2576   3.623   1.536   9.463 -0.1636 -0.2628  0.1961
  169MPD1    C4 2577   3.508   1.616   9.474  0.3393  0.4056  0.1341
  169MPD1    C5 2578   3.516   1.750   9.444  0.6349  0.0317 -0.0235
  169MPD1     H 2579   3.840   1.542   9.434  1.7071  2.8594 -0.5865
  169MPD1    H1 2580   3.407   1.579   9.477 -0.1339  1.6752 -0.0634
  169MPD1    H2 2581   3.647   1.910   9.410  0.8729 -0.4596  0.2071
  169MPD1    H3 2582   3.427   1.808   9.426  0.4123 -0.7845 -1.6214
  169MPD1     N 2583   3.624   1.399   9.441  0.4032  0.0260 -0.0540
  169MPD1    H5 2584   3.708   1.343   9.429 -0.2879 -1.5715  2.6030
  169MPD1    N1 2585   3.867   1.792   9.393  0.4369 -0.6365 -0.9564
  169MPD1    H6 2586   3.865   1.891   9.417 -2.6352 -1.3530  1.9023
  169MPD1    H7 2587   3.956   1.749   9.418  0.7732  0.9774  0.5945
  170MPD1     C 2588   1.500   4.503  13.061  0.0784 -0.3602  0.1416
  170MPD1    C1 2589   1.423   4.503  13.173 -0.1710  0.0094  0.3122
  170MPD1    C2 2590   1.456   4.594  13.273 -0.0367 -0.4661 -0.8226
  170MPD1    C3 2591   1.570   4.668  13.263 -0.2081  0.0923 -0.2824
  170MPD1    C4 2592   1.640   4.678  13.149  0.0953  0.8129 -0.3291
  170MPD1    C5 2593   1.600   4.593  13.049  0.2506  0.3949  0.7440
  170MPD1     H 2594   1.393   4.600  13.361  1.3068  1.6289 -0.0068
  170MPD1    H1 2595   1.724   0.019  13.123  0.5205  0.6156  0.5809
  170MPD1    H2 2596   1.486   4.446  12.969 -2.7929  2.1951 -0.9889
  170MPD1    H3 2597   1.670   4.597  12.966 -0.8399 -0.1949 -0.1931
  170MPD1     N 2598   1.608   0.011  13.382 -0.0269 -0.3950  0.6239
  170MPD1    H5 2599   1.559   4.711  13.468 -1.1731 -1.0713 -0.1897
  170MPD1    N1 2600   1.299   4.437  13.176  0.1904 -0.2469 -0.5534
  170MPD1    H6 2601   1.289   4.350  13.124 -1.1479 -0.0876 -0.5668
  170MPD1    H7 2602   1.253   4.436  13.267  2.0759  1.2450  0.4214
  171MPD1     C 2603   0.501   1.132  16.002  0.2903 -0.3569  0.5865
  171MPD1    C1 2604   0.476   1.004  15.953 -0.8670 -0.0621  0.3929
  171MPD1    C2 2605   0.576   0.911  15.985 -0.3607 -0.3220 -0.0704
  171MPD1    C3 2606   0.687   0.934  16.065  0.8340 -0.1432 -0.2933
  171MPD1    C4 2607   0.696   1.056  16.122  0.2198 -0.8229  0.0491
  171MPD1    C5 2608   0.602   1.154  16.089 -0.0928 -1.1618  0.3447
  171MPD1     H 2609   0.568   0.813  15.941  0.6001  0.1834 -1.3662
  171MPD1    H1 2610   0.776   1.094  16.184  0.3866 -0.0467 -0.6572
  171MPD1    H2 2611   0.442   1.215  15.965 -0.4992  0.0327  2.7133
  171MPD1    H3 2612   0.618   1.254  16.128 -2.2903 -1.0353  0.9059
  171MPD1     N 2613   0.784   0.838  16.094 -0.1906 -0.1497 -1.0385
  171MPD1    H5 2614   0.861   0.871  16.151 -0.0582 -3.7386  0.8710
  171MPD1    N1 2615   0.375   0.978  15.861  0.3181 -0.1636  0.5367
  171MPD1    H6 2616   0.290   1.033  15.859 -0.3599 -1.2048  0.4900
  171MPD1    H7 2617   0.357   0.878  15.856  0.8193 -0.1947 -0.5569
  172MPD1     C 2618   4.638   4.505   0.680 -0.3099 -0.3433 -0.0491
  172MPD1    C1 2619   4.585   4.622   0.640  0.6004  0.4162  0.5925
  172MPD1    C2 2620   4.633   0.017   0.689  0.2696 -0.1109  0.2590
  172MPD1    C3 2621   0.015   0.012   0.782  0.4180  0.7037 -0.0126
  172MPD1    C4 2622   0.061   4.620   0.833  0.1638 -0.1642 -0.2935
  172MPD1    C5 2623   0.009   4.508   0.781  0.0340 -0.4439 -0.7653
  172MPD1     H 2624   4.601   0.115   0.656  0.6295  0.5602  1.9010
  172MPD1    H1 2625   0.142   4.620   0.905 -0.3842  0.0208  0.3285
  172MPD1    H2 2626   4.603   4.412   0.638 -0.8452  0.6247 -1.7473
  172MPD1    H3 2627   0.059   4.417   0.813  1.6580  0.8851  0.4381
  172MPD1     N 2628   0.081   0.132   0.812  0.0948  0.3780 -0.7615
  172MPD1    H5 2629   0.164   0.123   0.870  0.6577 -1.1727 -1.8174
  172MPD1    N1 2630   4.483   4.618   0.538  0.6829 -0.2349 -0.0477
  172MPD1    H6 2631   4.435   4.530   0.520 -0.1509  0.3893 -0.9033
  172MPD1    H7 2632   4.440   4.708   0.520  0.6809 -0.2700 -0.2221
  173MPD1     C 2633   0.655   0.282  16.144  0.5134 -0.3264  0.2151
  173MPD1    C1 2634   0.724   0.164  16.177 -0.0362 -0.1939  0.2445
  173MPD1    C2 2635   0.777   0.093  16.076  0.0962  0.4109  0.1978
  173MPD1    C3 2636   0.756   0.126  15.941  0.5795 -1.2312  0.0285
  173MPD1    C4 2637   0.692   0.249  15.913 -0.1041 -0.3928 -0.4265
  173MPD1    C5 2638   0.648   0.323  16.011  0.3918 -0.2818  0.3444
  173MPD1     H 2639   0.834   0.003  16.099 -5.7790 -3.0586  1.2136
  173MPD1    H1 2640   0.666   0.283  15.813  1.4024 -0.7676 -0.9573
  173MPD1    H2 2641   0.631   0.349  16.225 -0.2794 -1.2510  0.7407
  173MPD1    H3 2642   0.595   0.416  15.995  0.9857 -0.2469 -1.3380
  173MPD1     N 2643   0.826   0.047  15.844  0.2364 -0.5325  0.4634
  173MPD1    H5 2644   0.896   4.705  15.879 -2.1563 -1.7344  3.0647
  173MPD1    N1 2645   0.740   0.132  16.309  0.2644 -0.0249  0.4702
  173MPD1    H6 2646   0.686   0.197  16.366 -2.5089 -1.0211 -1.0308
  173MPD1    H7 2647   0.840   0.140  16.326  0.3267  0.6895 -0.2240
  174MPD1     C 2648   0.860   0.107  14.834  0.6241 -0.3467 -0.3859
  174MPD1    C1 2649   0.834   4.695  14.866 -0.0635  0.4389 -0.5536
  174MPD1    C2 2650   0.850   4.662  14.999  0.8072 -0.2284 -0.2104
  174MPD1    C3 2651   0.890   0.032  15.101  0.2341  0.1698  0.9001
  174MPD1    C4 2652   0.913   0.164  15.064 -0.1639  0.7346 -0.2667
  174MPD1    C5 2653   0.906   0.192  14.934 -0.5603  0.8146  0.8199
  174MPD1     H 2654   0.824   4.563  15.036 -0.6836 -0.5840 -2.2036
  174MPD1    H1 2655   0.943   0.245  15.129  1.5698  1.5907 -2.1530
  174MPD1    H2 2656   0.860   0.133  14.729  2.5700  0.0935 -0.2686
  174MPD1    H3 2657   0.933   0.289  14.893  1.2163 -0.3590 -0.8412
  174MPD1     N 2658   0.912   4.707  15.233 -0.3641  0.1663  0.3489
  174MPD1    H5 2659   0.961   0.051  15.292 -0.5241 -1.1963  1.9806
  174MPD1    N1 2660   0.794   4.604  14.764  0.2051 -0.2130  0.2621
  174MPD1    H6 2661   0.761   4.520  14.811 -0.5844  0.6810  1.2880
  174MPD1    H7 2662   0.736   4.657  14.700 -0.9572  0.4053  1.8402
  175MPD1     C 2663   0.047   0.524  15.951  0.2209 -0.1815  0.8083
  175MPD1    C1 2664   4.648   0.485  16.009 -0.4552 -0.6698  0.0762
  175MPD1    C2 2665   4.635   0.497  16.145 -0.1502  0.0702  0.0219
  175MPD1    C3 2666   0.017   0.533  16.227  0.2098  0.9328 -0.2601
  175MPD1    C4 2667   0.136   0.560  16.166  0.3663  0.2967  0.1964
  175MPD1    C5 2668   0.147   0.551  16.035 -0.3816  0.3315 -0.5599
  175MPD1     H 2669   4.543   0.462  16.190 -0.4710 -0.4812 -1.0487
  175MPD1    H1 2670   0.221   0.583  16.229 -0.7397  0.8958  1.4720
  175MPD1    H2 2671   0.069   0.521  15.845  0.9876 -1.5963  1.0082
  175MPD1    H3 2672   0.251   0.560  16.007 -0.9022  1.1488 -2.2913
  175MPD1     N 2673   0.009   0.545  16.370  0.6298 -0.5530 -0.1347
  175MPD1    H5 2674   0.093   0.569  16.422 -1.1097  3.0805  0.9356
  175MPD1    N1 2675   4.534   0.473  15.931  0.6609 -0.2226 -0.0405
  175MPD1    H6 2676   4.452   0.434  15.977 -0.2859  1.6708 -0.0980
  175MPD1    H7 2677   4.552   0.429  15.841 -0.1264 -1.1200  0.2423
  176MPD1     C 2678   1.332   4.109   0.994  0.8732 -0.2347  0.0917
  176MPD1    C1 2679   1.365   4.133   0.867 -0.2276  0.1647  0.3562
  176MPD1    C2 2680   1.320   4.049   0.767  0.4450  0.6924  0.1511
  176MPD1    C3 2681   1.263   3.929   0.807 -0.2136 -0.3091  0.1068
  176MPD1    C4 2682   1.243   3.905   0.938  0.1120 -0.1397 -0.1782
  176MPD1    C5 2683   1.281   3.989   1.035 -0.5771  0.5471  0.4611
  176MPD1     H 2684   1.326   4.074   0.662  2.4491  0.0870  0.1288
  176MPD1    H1 2685   1.211   3.807   0.971 -2.2594 -0.0707 -2.2596
  176MPD1    H2 2686   1.349   4.179   1.075 -1.6237  1.2690 -0.7011
  176MPD1    H3 2687   1.269   3.963   1.140 -0.6829  3.5376  1.1993
  176MPD1     N 2688   1.213   3.847   0.703 -0.5786 -0.3075  0.2332
  176MPD1    H5 2689   1.216   3.881   0.607 -3.7306 -0.3612  0.1068
  176MPD1    N1 2690   1.419   4.260   0.839  0.1248  0.0092  0.1197
  176MPD1    H6 2691   1.475   4.305   0.911  2.0563 -1.3243 -0.5331
  176MPD1    H7 2692   1.465   4.267   0.748  1.5059 -1.0199  0.7342
  177MPD1     C 2693   4.219   2.327  10.039  0.2693 -0.0390  0.1156
  177MPD1    C1 2694   4.135   2.269   9.947  0.3108 -0.2078 -0.3632
  177MPD1    C2 2695   3.999   2.303   9.959  0.8404  0.0258 -0.8808
  177MPD1    C3 2696   3.950   2.372  10.063 -0.2691 -0.4149 -0.5003
  177MPD1    C4 2697   4.037   2.409  10.161 -0.4924 -0.7165 -0.3654
  177MPD1    C5 2698   4.171   2.399  10.146  0.3599 -0.5194  0.7398
  177MPD1     H 2699   3.934   2.269   9.879  1.1691  2.0446 -1.9890
  177MPD1    H1 2700   4.003   2.465  10.247  0.0318 -1.5592  0.3854
  177MPD1    H2 2701   4.326   2.309  10.041  0.3714  0.5228 -0.3274
  177MPD1    H3 2702   4.236   2.433  10.226  0.6775  2.0877 -0.6188
  177MPD1     N 2703   3.812   2.390  10.077 -0.2128 -0.2376 -0.8071
  177MPD1    H5 2704   3.753   2.327  10.023  1.9055 -1.4742 -1.6639
  177MPD1    N1 2705   4.186   2.214   9.828  0.7828  0.1259 -0.2586
  177MPD1    H6 2706   4.125   2.148   9.782 -0.8343  0.9274  0.7401
  177MPD1    H7 2707   4.279   2.173   9.836  0.4063 -0.6583  0.0148
  178MPD1     C 2708   1.866   3.616   0.531  0.0139 -0.4597  0.1197
  178MPD1    C1 2709   1.837   3.540   0.419 -0.0170  0.3200  0.2849
  178MPD1    C2 2710   1.922   3.545   0.304  0.2674 -0.1814  0.1191
  178MPD1    C3 2711   2.029   3.631   0.296  0.1572  0.9070 -0.2266
  178MPD1    C4 2712   2.050   3.713   0.411  0.4514  0.2802  0.4655
  178MPD1    C5 2713   1.977   3.697   0.525 -0.5595 -0.0140 -0.9386
  178MPD1     H 2714   1.906   3.465   0.233 -0.7623  0.1472 -0.0197
  178MPD1    H1 2715   2.136   3.780   0.413  0.1673  0.6628 -0.5057
  178MPD1    H2 2716   1.805   3.615   0.621  2.1567 -0.5941  1.5721
  178MPD1    H3 2717   2.006   3.767   0.602 -0.3094  0.6523 -1.6373
  178MPD1     N 2718   2.119   3.625   0.183 -0.0998 -0.5257  0.0876
  178MPD1    H5 2719   2.205   3.679   0.193 -0.1187 -0.8885  2.2134
  178MPD1    N1 2720   1.756   3.431   0.434 -0.0848  0.7098  0.0773
  178MPD1    H6 2721   1.674   3.448   0.492  0.1817 -1.8487  1.1892
  178MPD1    H7 2722   1.718   3.396   0.346 -1.9966  0.5557  0.9644
  179MPD1     C 2723   2.412   1.437  15.837  0.4458  0.6227  0.1375
  179MPD1    C1 2724   2.325   1.537  15.809  0.0103 -0.6977  0.0261
  179MPD1    C2 2725   2.230   1.562  15.900 -1.3608 -0.0046 -0.7089
  179MPD1    C3 2726   2.223   1.500  16.021  0.0326 -0.3742  0.7760
  179MPD1    C4 2727   2.321   1.408  16.057  0.2246 -0.1444  0.5334
  179MPD1    C5 2728   2.416   1.380  15.965  0.3862  0.2741 -0.8962
  179MPD1     H 2729   2.159   1.632  15.858 -1.9403 -0.9572 -1.3101
  179MPD1    H1 2730   2.325   1.372  16.159  1.5721  2.2973  1.3413
  179MPD1    H2 2731   2.505   1.419  15.785 -0.4981  1.2863 -1.7794
  179MPD1    H3 2732   2.502   1.320  15.992  0.4825  0.5436 -0.6090
  179MPD1     N 2733   2.121   1.521  16.124 -0.3509  0.6566 -0.0876
  179MPD1    H5 2734   2.130   1.465  16.208 -0.0544 -2.3071 -2.1072
  179MPD1    N1 2735   2.302   1.595  15.677  0.6355  0.3644 -0.5785
  179MPD1    H6 2736   2.258   1.686  15.687  1.7967  0.9246 -0.6056
  179MPD1    H7 2737   2.393   1.597  15.631  1.5261  1.4136  1.2399
  180MPD1     C 2738   0.716   3.788  15.016  0.6918 -0.7208  0.4996
  180MPD1    C1 2739   0.834   3.827  14.954 -0.4729  0.5526 -0.3373
  180MPD1    C2 2740   0.861   3.778  14.829  0.0032 -0.2212 -0.4540
  180MPD1    C3 2741   0.788   3.686  14.763  0.4754 -0.4104  0.2765
  180MPD1    C4 2742   0.683   3.635  14.830  0.4359  0.1863 -0.2961
  180MPD1    C5 2743   0.652   3.680  14.957  0.0527 -0.7346  0.1109
  180MPD1     H 2744   0.946   3.827  14.783  0.0886  0.0214 -0.0408
  180MPD1    H1 2745   0.630   3.556  14.777  0.2051 -0.0048  0.2278
  180MPD1    H2 2746   0.697   3.813  15.120  1.2030 -0.7937  0.6135
  180MPD1    H3 2747   0.570   3.644  15.019 -1.1212 -0.4204 -1.2533
  180MPD1     N 2748   0.838   3.649  14.642  0.5233  0.6730 -0.1009
  180MPD1    H5 2749   0.922   3.701  14.619 -0.0379  1.4331 -0.4147
  180MPD1    N1 2750   0.909   3.928  15.013 -0.8056  0.2192 -0.7831
  180MPD1    H6 2751   0.902   3.939  15.114 -1.2608 -0.0002 -0.7926
  180MPD1    H7 2752   1.001   3.950  14.975 -1.2071  1.1274 -1.2401
  181MPD1     C 2753   3.052   4.537  10.432  1.0413 -0.8049  0.4266
  181MPD1    C1 2754   3.068   4.677  10.456  0.1550  0.2074 -0.5528
  181MPD1    C2 2755   3.174   0.014  10.396  0.4193  0.4290  0.6104
  181MPD1    C3 2756   3.283   4.658  10.347 -0.1968 -0.1603  0.3028
  181MPD1    C4 2757   3.280   4.526  10.354  0.3481  0.3085 -0.7803
  181MPD1    C5 2758   3.165   4.470  10.401 -0.1891 -0.1232 -0.5570
  181MPD1     H 2759   3.180   0.122  10.392  0.5402  0.3923 -0.2519
  181MPD1    H1 2760   3.359   4.457  10.326  0.8799  0.5992  0.0153
  181MPD1    H2 2761   2.966   4.473  10.445  1.0425 -1.1172 -1.0469
  181MPD1    H3 2762   3.156   4.362  10.392 -2.0532 -0.0537  0.5640
  181MPD1     N 2763   3.411   4.714  10.309  0.3789 -0.5622  0.8754
  181MPD1    H5 2764   3.487   4.647  10.301  0.5403 -0.0397 -1.9441
  181MPD1    N1 2765   2.967   0.031  10.516 -0.2781 -0.5128  0.4302
  181MPD1    H6 2766   2.994   0.118  10.561 -0.0107 -0.1267 -0.4762
  181MPD1    H7 2767   2.934   4.704  10.599 -1.0810  2.3376  1.8124
  182MPD1     C 2768   4.651   4.079   1.396  0.5949  0.0006 -0.4498
  182MPD1    C1 2769   4.589   4.120   1.514  0.2374 -0.7496 -0.7045
  182MPD1    C2 2770   4.449   4.137   1.499  0.4339  0.5170 -0.0354
  182MPD1    C3 2771   4.381   4.101   1.382 -0.3689  0.4320  0.1683
  182MPD1    C4 2772   4.449   4.046   1.277 -0.7909 -0.9441 -0.1635
  182MPD1    C5 2773   4.582   4.049   1.283 -0.2970  0.5097 -0.2029
  182MPD1     H 2774   4.389   4.175   1.581  0.0024 -1.3409  0.5020
  182MPD1    H1 2775   4.390   4.033   1.187 -0.6457 -0.1798 -0.3674
  182MPD1    H2 2776   0.037   4.084   1.393  0.6837 -2.0231 -0.5990
  182MPD1    H3 2777   4.628   4.024   1.188 -1.1309  0.4920 -0.5988
  182MPD1     N 2778   4.240   4.112   1.375 -0.0834  0.1490  0.0076
  182MPD1    H5 2779   4.200   4.051   1.304 -0.5331 -0.9382  1.2001
  182MPD1    N1 2780   4.659   4.167   1.622  0.8815  0.4127 -0.4129
  182MPD1    H6 2781   4.603   4.151   1.706 -0.5634  1.8269 -1.0894
  182MPD1    H7 2782   0.029   4.130   1.642  1.3130  0.9065 -1.5221
  183MPD1     C 2783   4.118   3.487   9.179 -0.3712  0.6373  0.2095
  183MPD1    C1 2784   4.223   3.548   9.230  0.8988  0.0014 -0.2909
  183MPD1    C2 2785   4.204   3.653   9.312 -0.1272 -0.4896  0.5160
  183MPD1    C3 2786   4.086   3.721   9.321 -0.3714 -0.1426 -0.1963
  183MPD1    C4 2787   3.978   3.664   9.261  0.3948 -0.0327 -0.0146
  183MPD1    C5 2788   3.992   3.548   9.195 -0.6425  0.1796 -0.1642
  183MPD1     H 2789   4.290   3.696   9.362 -0.0016 -0.1764  0.0343
  183MPD1    H1 2790   3.883   3.717   9.255  1.6367  2.2818  0.6637
  183MPD1    H2 2791   4.123   3.390   9.129 -1.7085  0.6140  0.1164
  183MPD1    H3 2792   3.901   3.506   9.151  0.0310 -1.4372 -0.0091
  183MPD1     N 2793   4.072   3.837   9.401 -0.2542 -0.3131  0.0242
  183MPD1    H5 2794   4.154   3.884   9.438 -0.2928 -0.6127  0.5024
  183MPD1    N1 2795   4.345   3.473   9.239 -0.2042 -0.2863 -0.7884
  183MPD1    H6 2796   4.359   3.416   9.156 -0.7483 -2.3208  0.5055
  183MPD1    H7 2797   4.422   3.539   9.250 -1.7264  1.0616  1.6717
  184MPD1     C 2798   4.591   1.858   9.804  0.2272  0.4282 -0.5768
  184MPD1    C1 2799   4.559   1.959   9.889  0.2576 -0.4202  0.0368
  184MPD1    C2 2800   4.434   1.952   9.957 -0.1427 -0.1237  0.0389
  184MPD1    C3 2801   4.348   1.846   9.924  0.6490  0.4546 -0.9606
  184MPD1    C4 2802   4.377   1.751   9.831 -0.3442 -0.3252 -0.0729
  184MPD1    C5 2803   4.503   1.757   9.777  0.3645  0.4879  0.9735
  184MPD1     H 2804   4.398   2.033  10.019 -1.0433  0.8200 -1.7176
  184MPD1    H1 2805   4.307   1.673   9.806 -1.1277  1.1225 -2.4796
  184MPD1    H2 2806   4.691   1.854   9.762 -0.1873 -2.4763 -1.3427
  184MPD1    H3 2807   4.526   1.671   9.715 -4.5751  0.1062 -0.3814
  184MPD1     N 2808   4.218   1.841   9.981 -0.1475  0.2253  0.2209
  184MPD1    H5 2809   4.147   1.786   9.933 -0.0802  1.7430 -1.6019
  184MPD1    N1 2810   4.635   2.076   9.883  0.4275 -0.2177 -0.1086
  184MPD1    H6 2811   4.645   2.118   9.975 -2.8802 -1.0713  0.6267
  184MPD1    H7 2812   0.009   2.048   9.861 -0.2533 -1.6979 -1.1644
  185MPD1     C 2813   3.894   1.106  10.094 -0.2110  0.0907 -0.1655
  185MPD1    C1 2814   3.780   1.166  10.145 -0.2146  0.6114  0.3064
  185MPD1    C2 2815   3.771   1.305  10.139 -0.4143 -0.0179 -0.7246
  185MPD1    C3 2816   3.866   1.378  10.066 -0.0462 -0.6337 -0.2185
  185MPD1    C4 2817   3.970   1.318  10.006 -0.8225  0.0561  0.1651
  185MPD1    C5 2818   3.984   1.180  10.020  0.0361 -0.0575 -0.0210
  185MPD1     H 2819   3.697   1.359  10.196  0.6289 -0.1729  0.7708
  185MPD1    H1 2820   4.035   1.381   9.946 -0.9533  0.8206  0.8185
  185MPD1    H2 2821   3.902   0.999  10.108  0.0613  0.3432  1.7076
  185MPD1    H3 2822   4.071   1.130   9.976 -0.4268  0.6378 -1.7111
  185MPD1     N 2823   3.866   1.517  10.059  0.1277  0.2743  0.8528
  185MPD1    H5 2824   3.936   1.559   9.997 -0.7884 -2.2476 -1.8680
  185MPD1    N1 2825   3.691   1.099  10.232 -1.2437 -0.4892 -0.0029
  185MPD1    H6 2826   3.601   1.142  10.248 -1.3944 -1.8169  2.5827
  185MPD1    H7 2827   3.665   1.006  10.199  0.0461 -0.3652 -1.4058
  186MPD1     C 2828   3.261   1.978  16.457 -0.5475 -0.0637  0.2073
  186MPD1    C1 2829   3.269   2.011  16.590 -0.0690 -0.2904 -0.3845
  186MPD1    C2 2830   3.161   2.092  16.635  0.3282  0.3988  0.4234
  186MPD1    C3 2831   3.043   2.099  16.559  0.6673  0.1148  0.6427
  186MPD1    C4 2832   3.032   2.045  16.433  0.6718 -1.0265  0.1028
  186MPD1    C5 2833   3.143   1.982  16.383 -0.1259 -0.8232  0.0585
  186MPD1     H 2834   3.161   2.123  16.739  0.6471  0.4107  0.4193
  186MPD1    H1 2835   2.939   2.056  16.378 -0.1235 -0.6065  1.5470
  186MPD1    H2 2836   3.349   1.944  16.405 -0.6493 -1.5953  1.0273
  186MPD1    H3 2837   3.134   1.938  16.284 -0.0900  1.0736 -0.7800
  186MPD1     N 2838   2.940   2.163  16.627  0.0130  0.0933 -1.1040
  186MPD1    H5 2839   2.949   2.180  16.727  0.5110 -0.5161 -1.0430
  186MPD1    N1 2840   3.395   2.010  16.651 -0.2093 -0.9005  0.5349
  186MPD1    H6 2841   3.393   2.013  16.752 -2.1168  0.8650  0.4299
  186MPD1    H7 2842   3.458   1.943  16.608  0.3134 -1.4689  2.1980
  187MPD1     C 2843   0.384   4.624   0.702 -0.7903  0.3304  0.1357
  187MPD1    C1 2844   0.343   4.651   0.574  0.3371 -0.2668 -0.3515
  187MPD1    C2 2845   0.428   4.612   0.475  0.5628  0.1317 -0.6061
  187MPD1    C3 2846   0.540   4.531   0.492  1.1036  0.2732 -0.1746
  187MPD1    C4 2847   0.566   4.492   0.619 -0.5225  0.8807 -0.1988
  187MPD1    C5 2848   0.498   4.544   0.726  0.2721 -0.0273 -0.2067
  187MPD1     H 2849   0.418   4.656   0.377 -2.4291  2.6623  0.8308
  187MPD1    H1 2850   0.651   4.430   0.647  0.5296  1.8743 -1.1986
  187MPD1    H2 2851   0.335   4.663   0.790  0.7525 -1.1349  1.6363
  187MPD1    H3 2852   0.533   4.523   0.826  3.3725  1.8494 -0.9089
  187MPD1     N 2853   0.639   4.491   0.398  0.3688  0.2802 -0.3028
  187MPD1    H5 2854   0.726   4.450   0.431 -0.9309 -1.8199  0.4949
  187MPD1    N1 2855   0.258   0.037   0.550  0.1416  0.1290 -0.5710
  187MPD1    H6 2856   0.205   0.019   0.464  1.0097  1.7247 -1.4421
  187MPD1    H7 2857   0.191   0.051   0.625 -0.3926 -2.7687 -0.4916
  188MPD1     C 2858   0.651   3.813  10.479  0.0498 -0.5411 -0.3313
  188MPD1    C1 2859   0.643   3.810  10.342  0.0734 -0.0814 -0.6825
  188MPD1    C2 2860   0.719   3.719  10.267 -0.0456 -0.0684  0.4651
  188MPD1    C3 2861   0.818   3.645  10.334 -0.0563 -0.2320  1.2338
  188MPD1    C4 2862   0.841   3.659  10.471 -0.6282 -0.2383  0.1675
  188MPD1    C5 2863   0.742   3.732  10.542  0.3500  0.2995  0.0721
  188MPD1     H 2864   0.705   3.709  10.160  1.7717  0.4969  0.1776
  188MPD1    H1 2865   0.907   3.597  10.530 -2.5915 -0.9140  1.6777
  188MPD1    H2 2866   0.578   3.874  10.530  0.9573  0.4425 -0.2216
  188MPD1    H3 2867   0.749   3.728  10.650  0.4182  1.1507  0.0934
  188MPD1     N 2868   0.895   3.547  10.265 -0.0379  0.2673 -0.2401
  188MPD1    H5 2869   0.964   3.496  10.320  0.7622  0.6607 -0.8966
  188MPD1    N1 2870   0.532   3.869  10.284 -0.8037  0.0645 -0.5108
  188MPD1    H6 2871   0.549   3.898  10.188 -1.3953  1.7829 -0.1057
  188MPD1    H7 2872   0.506   3.952  10.337 -1.1514 -0.2614 -0.1664
  189MPD1     C 2873   3.409   4.698   1.071  0.2575 -0.0701  0.2202
  189MPD1    C1 2874   3.308   4.704   1.168 -0.7158  0.3800 -0.0287
  189MPD1    C2 2875   3.176   4.692   1.121 -0.0383 -0.0503 -0.2103
  189MPD1    C3 2876   3.151   4.698   0.981  0.2419  0.3655 -0.2082
  189MPD1    C4 2877   3.260   4.704   0.896 -0.6949 -0.4058  0.3124
  189MPD1    C5 2878   3.389   4.692   0.941 -0.0562  0.3069  0.6332
  189MPD1     H 2879   3.090   4.672   1.184  1.8737 -0.0281  2.3723
  189MPD1    H1 2880   3.249   4.701   0.788 -0.3143  2.1630  0.2137
  189MPD1    H2 2881   3.511   4.693   1.110  1.7713  0.5803 -3.6459
  189MPD1    H3 2882   3.474   4.702   0.875 -0.6125 -0.8810 -0.2626
  189MPD1     N 2883   3.015   4.698   0.938 -0.3777  0.0037 -0.0644
  189MPD1    H5 2884   2.939   4.697   1.005 -0.7602 -2.9554 -0.5576
  189MPD1    N1 2885   3.339   4.682   1.303  0.4164  0.7831  0.2209
  189MPD1    H6 2886   3.424   0.010   1.328  0.4310  1.1184 -0.5049
  189MPD1    H7 2887   3.275   4.710   1.377 -1.5021 -1.3787 -0.6316
  190MPD1     C 2888   1.384   3.724  15.700 -0.3234  0.1865  0.3229
  190MPD1    C1 2889   1.508   3.700  15.647  0.4098 -0.0376 -0.4983
  190MPD1    C2 2890   1.606   3.645  15.730 -0.2738 -0.3472 -0.7801
  190MPD1    C3 2891   1.574   3.583  15.852  0.8931 -0.7003 -0.8575
  190MPD1    C4 2892   1.444   3.589  15.894  0.1453 -0.7801  0.8208
  190MPD1    C5 2893   1.349   3.658  15.817  0.1838  0.4221 -0.6236
  190MPD1     H 2894   1.706   3.639  15.687 -0.2585  0.8938 -0.9128
  190MPD1    H1 2895   1.402   3.545  15.983  1.8012  0.3447  2.1542
  190MPD1    H2 2896   1.309   3.775  15.641  0.5688 -0.6139 -1.5229
  190MPD1    H3 2897   1.246   3.657  15.851  0.2759 -3.0040 -0.4733
  190MPD1     N 2898   1.682   3.540  15.930 -0.0119  0.1812  0.2447
  190MPD1    H5 2899   1.773   3.541  15.885  0.6945 -0.5822  1.6729
  190MPD1    N1 2900   1.546   3.761  15.525 -0.3144 -0.1690 -0.0849
  190MPD1    H6 2901   1.607   3.704  15.467 -0.5604 -2.1005  1.5854
  190MPD1    H7 2902   1.468   3.789  15.466 -2.1649 -0.8413  2.0513
  191MPD1     C 2903   1.085   0.091  11.601  0.7383  0.0360 -0.4644
  191MPD1    C1 2904   1.182   0.188  11.611  0.5159  0.1456  0.3632
  191MPD1    C2 2905   1.211   0.230  11.737 -0.0085 -0.0933  0.0138
  191MPD1    C3 2906   1.140   0.185  11.846  0.1096  0.0738 -1.1184
  191MPD1    C4 2907   1.045   0.087  11.839  0.3756  0.4291 -0.3000
  191MPD1    C5 2908   1.018   0.052  11.709  0.3599 -0.2615  0.1504
  191MPD1     H 2909   1.282   0.311  11.747 -0.9362  0.7844 -0.6113
  191MPD1    H1 2910   0.985   0.048  11.920 -0.4021 -1.8199 -1.9791
  191MPD1    H2 2911   1.050   0.054  11.505  1.1809 -0.4185 -0.4528
  191MPD1    H3 2912   0.931   4.713  11.686  0.8993 -0.3758 -1.5748
  191MPD1     N 2913   1.170   0.248  11.973  0.2536 -0.8053  0.2474
  191MPD1    H5 2914   1.230   0.330  11.964  0.9499 -1.2757  0.5606
  191MPD1    N1 2915   1.230   0.253  11.497 -0.1402 -0.0670  0.4398
  191MPD1    H6 2916   1.327   0.283  11.512  0.3888 -0.2733 -2.5270
  191MPD1    H7 2917   1.235   0.182  11.424  0.2284 -0.2375  0.6288
  192MPD1     C 2918   0.755   0.098  12.925 -0.8305  0.0730  0.7620
  192MPD1    C1 2919   0.766   0.234  12.894 -0.2062 -0.2023 -0.1498
  192MPD1    C2 2920   0.848   0.273  12.795  0.6842 -0.6442 -0.2834
  192MPD1    C3 2921   0.904   0.183  12.706 -0.3361  0.3001 -0.3146
  192MPD1    C4 2922   0.890   0.045  12.741 -0.3298  0.4480 -0.1053
  192MPD1    C5 2923   0.817   0.009  12.845  0.4492 -0.0343 -0.6947
  192MPD1     H 2924   0.852   0.380  12.778 -0.8031 -0.6607 -0.6807
  192MPD1    H1 2925   0.943   4.689  12.687  1.1478  2.0698 -0.9897
  192MPD1    H2 2926   0.704   0.054  13.010 -0.2101  0.6852  1.4594
  192MPD1    H3 2927   0.802   4.627  12.871  0.6380  0.4450  1.2919
  192MPD1     N 2928   0.991   0.226  12.596 -0.3352 -0.5031 -0.9940
  192MPD1    H5 2929   1.054   0.158  12.555 -0.9375 -0.6269 -1.7076
  192MPD1    N1 2930   0.708   0.320  12.989 -0.0857 -0.4718  0.0608
  192MPD1    H6 2931   0.678   0.407  12.946 -2.0689 -0.8369  0.7033
  192MPD1    H7 2932   0.628   0.280  13.036 -0.7817 -1.2155 -1.7474
  193MPD1     C 2933   0.732   0.408  16.577 -0.0051 -0.0425  0.1111
  193MPD1    C1 2934   0.676   0.522  16.629 -0.5627  0.1293 -0.5865
  193MPD1    C2 2935   0.760   0.606  16.701  0.0776 -0.0434 -0.1117
  193MPD1    C3 2936   0.887   0.564  16.728 -0.1793  0.0902 -0.2653
  193MPD1    C4 2937   0.929   0.436  16.704  0.3811 -0.1855 -0.3940
  193MPD1    C5 2938   0.858   0.363  16.615 -0.5254  0.0185  0.3659
  193MPD1     H 2939   0.715   0.699  16.736 -0.0316  0.0189 -0.4156
  193MPD1    H1 2940   1.030   0.402  16.722 -0.0293 -1.9932 -1.4935
  193MPD1    H2 2941   0.684   0.344  16.505  0.9599  0.1728 -0.7249
  193MPD1    H3 2942   0.894   0.265  16.585  0.5555  0.8615 -1.0998
  193MPD1     N 2943   0.981   0.643  16.792 -0.2726 -0.1597  0.3882
  193MPD1    H5 2944   1.066   0.602  16.830 -0.9270 -0.9832  0.9599
  193MPD1    N1 2945   0.545   0.561  16.578 -0.5615  0.0190  0.1768
  193MPD1    H6 2946   0.502   0.616  16.653 -0.4067  0.6434 -0.1955
  193MPD1    H7 2947   0.478   0.486  16.564 -0.7319  0.2171 -0.0740
  194MPD1     C 2948   3.112   3.078  17.007  0.4415 -0.9399  0.0514
  194MPD1    C1 2949   3.151   2.990  16.908  0.4690  0.8087  0.0610
  194MPD1    C2 2950   3.250   2.905  16.943 -0.3968  0.5948  0.4121
  194MPD1    C3 2951   3.312   2.908  17.069 -0.5277 -0.0110  0.0697
  194MPD1    C4 2952   3.267   2.995  17.163 -0.4020 -0.1930  0.0509
  194MPD1    C5 2953   3.162   3.084  17.134  0.3052 -0.6345  0.6435
  194MPD1     H 2954   3.292   2.836  16.871  0.2930  1.7760 -0.3022
  194MPD1    H1 2955   3.308   3.002  17.263 -0.1783  2.3434 -0.1998
  194MPD1    H2 2956   3.019   3.130  16.983  0.5884 -1.5067 -1.7193
  194MPD1    H3 2957   3.107   3.143  17.207 -1.1372 -0.5180 -0.5428
  194MPD1     N 2958   3.415   2.823  17.105 -0.0745  0.2561 -0.3697
  194MPD1    H5 2959   3.437   2.826  17.204 -2.2811  3.4983  0.0376
  194MPD1    N1 2960   3.091   2.970  16.788  0.2466 -0.0659  0.4227
  194MPD1    H6 2961   3.052   3.059  16.758  0.7183 -0.0183 -0.0530
  194MPD1    H7 2962   3.146   2.938  16.708  1.9657 -0.9033  1.9184
  195MPD1     C 2963   0.276   0.230   0.001  0.3603  0.4031  0.2453
  195MPD1    C1 2964   0.150   0.179   0.009  0.0397 -0.2410 -0.0370
  195MPD1    C2 2965   0.135   0.063   0.087 -0.1317  0.2069  0.1517
  195MPD1    C3 2966   0.241   4.718   0.141 -0.3384 -0.4138  0.1999
  195MPD1    C4 2967   0.360   0.046   0.119  0.3837  0.1628  0.7769
  195MPD1    C5 2968   0.381   0.168   0.066 -0.0732 -0.3819 -0.1000
  195MPD1     H 2969   0.035   0.027   0.109  0.2924 -0.8890  0.2744
  195MPD1    H1 2970   0.442   0.004   0.176  0.3679 -1.2781 -0.2501
  195MPD1    H2 2971   0.293   0.315  17.625  0.6410  1.9533  2.3100
  195MPD1    H3 2972   0.482   0.206   0.068 -0.1908 -0.0828  0.2849
  195MPD1     N 2973   0.239   4.590   0.190  0.3869 -0.1362  0.0983
  195MPD1    H5 2974   0.327   4.539   0.196  0.0229 -0.8217 -0.3160
  195MPD1    N1 2975   0.033   0.259  17.664 -0.0463 -0.0222  0.5072
  195MPD1    H6 2976   4.671   0.203  17.648  0.1443 -0.0121 -0.5630
  195MPD1    H7 2977   0.045   0.315  17.580 -4.2406  0.0823 -0.0304
  196MPD1     C 2978   0.128   3.152   0.791 -0.0459  0.5801 -0.0041
  196MPD1    C1 2979   0.026   3.242   0.762 -0.1682  0.8105  0.1232
  196MPD1    C2 2980   0.052   3.379   0.776  0.1433 -0.3203  1.0272
  196MPD1    C3 2981   0.181   3.421   0.811  0.5970 -0.4986 -0.6955
  196MPD1    C4 2982   0.281   3.333   0.825  0.3606  0.4270  0.8277
  196MPD1    C5 2983   0.257   3.197   0.829  0.2776  0.1787  0.0504
  196MPD1     H 2984   4.696   3.449   0.748  2.8790  3.0622  1.7490
  196MPD1    H1 2985   0.383   3.370   0.818  0.7011 -0.2980  1.8466
  196MPD1    H2 2986   0.108   3.046   0.793 -1.4031  0.8724  1.4187
  196MPD1    H3 2987   0.341   3.129   0.815 -1.6289 -1.9118 -1.2744
  196MPD1     N 2988   0.213   3.561   0.823  1.1308 -0.0853 -0.8301
  196MPD1    H5 2989   0.308   3.580   0.853  0.2790  1.8509  0.6330
  196MPD1    N1 2990   4.628   3.204   0.698  0.3173 -0.3216  0.1825
  196MPD1    H6 2991   4.556   3.275   0.697  2.4624  1.8417  1.2256
  196MPD1    H7 2992   4.586   3.118   0.734 -0.2329 -0.3619 -0.5525
  197MPD1     C 2993   0.270   0.903   0.630 -0.5606  0.0123  0.3318
  197MPD1    C1 2994   0.259   1.037   0.649 -0.1949  0.0951  0.2422
  197MPD1    C2 2995   0.217   1.110   0.537  0.0185  0.2128  0.2842
  197MPD1    C3 2996   0.166   1.052   0.420  0.1079 -0.2870 -0.1543
  197MPD1    C4 2997   0.168   0.917   0.418  0.2148 -0.3148 -0.5979
  197MPD1    C5 2998   0.225   0.846   0.515 -0.5789  0.0498  0.5156
  197MPD1     H 2999   0.222   1.218   0.544  0.4259  0.1349  1.2054
  197MPD1    H1 3000   0.128   0.858   0.337  1.6702 -0.7973 -0.9619
  197MPD1    H2 3001   0.311   0.843   0.711  2.5118  3.2197  1.0970
  197MPD1    H3 3002   0.231   0.738   0.506  2.1981  0.2227  0.1522
  197MPD1     N 3003   0.119   1.123   0.310 -0.0205 -0.0050  1.0079
  197MPD1    H5 3004   0.079   1.073   0.232  1.8633  0.6400 -0.3559
  197MPD1    N1 3005   0.324   1.090   0.760 -0.5229  0.1086 -0.3052
  197MPD1    H6 3006   0.301   1.187   0.782  0.2105  0.0530  0.6873
  197MPD1    H7 3007   0.304   1.028   0.838 -0.0647 -1.9643 -1.8381
  198MPD1     C 3008   1.611   4.214  17.176 -0.6315  1.2186  0.5524
  198MPD1    C1 3009   1.601   4.350  17.201 -0.4003 -0.5194  0.0834
  198MPD1    C2 3010   1.687   4.445  17.134 -0.0732 -0.2782  0.4069
  198MPD1    C3 3011   1.761   4.409  17.023 -0.0229 -0.4889  0.5741
  198MPD1    C4 3012   1.765   4.271  16.992  0.1957  0.7038  0.0070
  198MPD1    C5 3013   1.701   4.182  17.073 -0.4373  0.0952  0.4348
  198MPD1     H 3014   1.683   4.551  17.155  0.7004 -0.3474  0.8785
  198MPD1    H1 3015   1.830   4.237  16.913  0.5294  1.6961 -0.1437
  198MPD1    H2 3016   1.553   4.131  17.214  0.9827  0.9917  2.5001
  198MPD1    H3 3017   1.713   4.079  17.043 -1.8141  0.6366 -2.0140
  198MPD1     N 3018   1.820   4.518  16.949  0.0635 -0.3893 -0.0729
  198MPD1    H5 3019   1.817   4.610  16.991 -0.0580 -0.9145  1.0583
  198MPD1    N1 3020   1.526   4.384  17.310  0.1572  0.0173  0.1935
  198MPD1    H6 3021   1.491   4.480  17.312 -1.3403 -0.5096 -0.3883
  198MPD1    H7 3022   1.443   4.327  17.328  0.6742  0.0846  2.8532
  199MPD1     C 3023   4.235   0.371   9.914 -0.1015  0.3647 -0.6577
  199MPD1    C1 3024   4.198   0.260   9.984  0.4728  0.5683 -0.5764
  199MPD1    C2 3025   4.081   0.194   9.948  0.4069  0.3168 -0.1272
  199MPD1    C3 3026   4.001   0.248   9.854 -0.3494 -0.1046 -0.6712
  199MPD1    C4 3027   4.037   0.359   9.779 -0.8431 -0.0365  0.4594
  199MPD1    C5 3028   4.157   0.417   9.816 -0.1465 -0.2195  0.1456
  199MPD1     H 3029   4.055   0.115  10.017  0.9933  2.2203  2.3018
  199MPD1    H1 3030   3.965   0.403   9.710  0.0687  2.8354  1.3443
  199MPD1    H2 3031   4.322   0.433   9.933 -1.4590  2.0479 -0.0234
  199MPD1    H3 3032   4.176   0.515   9.775 -1.7327  0.0666  0.0867
  199MPD1     N 3033   3.868   0.203   9.836 -0.3427  0.1159 -0.2455
  199MPD1    H5 3034   3.821   0.255   9.762 -0.6763 -0.5290 -0.4806
  199MPD1    N1 3035   4.283   0.215  10.086  0.4678 -0.3981 -0.1668
  199MPD1    H6 3036   4.382   0.238  10.080  0.5071 -0.9701 -1.7056
  199MPD1    H7 3037   4.273   0.118  10.114 -1.7341 -0.1541 -0.0941
  200MPD1     C 3038   2.722   0.860  15.392 -0.5351  0.1328  0.0944
  200MPD1    C1 3039   2.716   0.880  15.261 -0.0790  0.3594  0.1976
  200MPD1    C2 3040   2.778   0.993  15.209 -0.8340 -0.3264 -0.0879
  200MPD1    C3 3041   2.852   1.073  15.293  0.0828  0.6415 -0.8066
  200MPD1    C4 3042   2.871   1.047  15.425  0.1186  0.7784  0.1001
  200MPD1    C5 3043   2.804   0.933  15.473  0.3554 -0.1720 -0.7392
  200MPD1     H 3044   2.781   1.018  15.104  2.9999  0.7929  0.2817
  200MPD1    H1 3045   2.922   1.110  15.497 -1.2618  1.0737  0.8136
  200MPD1    H2 3046   2.662   0.783  15.440  1.4860 -1.3912  0.1677
  200MPD1    H3 3047   2.799   0.910  15.579  2.3007  1.4748 -0.2728
  200MPD1     N 3048   2.897   1.200  15.236  0.0665  0.3356  0.1525
  200MPD1    H5 3049   2.891   1.210  15.135  1.0564 -2.4230 -0.1612
  200MPD1    N1 3050   2.634   0.798  15.183  0.0125  0.0454 -0.1990
  200MPD1    H6 3051   2.609   0.709  15.225  0.1598  1.5678  3.0844
  200MPD1    H7 3052   2.668   0.778  15.089  0.4730 -3.1798  0.6433
  201MPD1     C 3053   0.113   4.495  13.538 -0.0752  0.3073  0.0099
  201MPD1    C1 3054   0.161   4.560  13.640 -0.3623 -0.0037 -0.8659
  201MPD1    C2 3055   0.289   4.531  13.685 -0.6923 -0.8249  0.1489
  201MPD1    C3 3056   0.353   4.419  13.646 -0.0319 -0.1261  0.0265
  201MPD1    C4 3057   0.297   4.344  13.542 -0.5003  0.7546 -0.4895
  201MPD1    C5 3058   0.183   4.392  13.484  0.1049  0.3575  0.6153
  201MPD1     H 3059   0.333   4.592  13.764  1.8317 -1.4293 -0.8084
  201MPD1    H1 3060   0.359   4.267  13.498  0.0422  0.1133  1.3698
  201MPD1    H2 3061   0.017   4.520  13.494 -0.8915  0.4647  1.8705
  201MPD1    H3 3062   0.134   4.342  13.402  0.7048  1.6431 -0.5341
  201MPD1     N 3063   0.467   4.391  13.721 -0.0304  0.0654 -0.5355
  201MPD1    H5 3064   0.480   4.442  13.808 -2.1217 -0.2080 -0.0740
  201MPD1    N1 3065   0.101   4.681  13.676  0.3529  0.4147  0.7898
  201MPD1    H6 3066   0.002   4.689  13.653  1.0348  2.1650 -1.5603
  201MPD1    H7 3067   0.138   0.002  13.761  0.2034 -0.4630  1.2945
  202MPD1     C 3068   4.408   2.811  10.020  0.0810 -0.7447 -0.0877
  202MPD1    C1 3069   4.344   2.933  10.054  0.3108 -0.3253 -0.7102
  202MPD1    C2 3070   4.415   3.051  10.054 -0.2058 -0.3701 -0.0693
  202MPD1    C3 3071   4.548   3.050  10.009  0.0057 -0.4001 -0.8836
  202MPD1    C4 3072   4.611   2.928   9.988  0.0362  0.4152  0.2222
  202MPD1    C5 3073   4.540   2.810   9.987  0.1355  0.5532  0.8491
  202MPD1     H 3074   4.367   3.146  10.078 -0.3297  0.0128 -1.8202
  202MPD1    H1 3075   4.719   2.920   9.981  0.0689  0.1618  0.9576
  202MPD1    H2 3076   4.352   2.718  10.013 -2.0694  0.4492  1.0684
  202MPD1    H3 3077   4.598   2.723   9.961  0.3188  1.3122 -1.2637
  202MPD1     N 3078   4.622   3.171   9.997  0.2312  0.1387  0.4257
  202MPD1    H5 3079   4.718   3.163   9.966 -0.4253 -2.7735 -0.7955
  202MPD1    N1 3080   4.207   2.944  10.042 -0.0090  0.6116 -0.6302
  202MPD1    H6 3081   4.155   2.866  10.080 -0.4739 -0.0890 -2.6833
  202MPD1    H7 3082   4.167   3.017  10.100 -0.9546 -0.2075 -0.2614
  203MPD1     C 3083   3.678   0.952  12.970 -0.3677  0.0328 -0.2099
  203MPD1    C1 3084   3.653   0.912  12.836 -0.1548 -0.3145  0.1941
  203MPD1    C2 3085   3.620   0.778  12.824  0.0563 -0.3719  0.3812
  203MPD1    C3 3086   3.628   0.686  12.929  0.8860  0.1978  0.0318
  203MPD1    C4 3087   3.669   0.727  13.056  0.8170 -0.2373 -0.0687
  203MPD1    C5 3088   3.689   0.862  13.072  0.8175  0.1654 -0.1990
  203MPD1     H 3089   3.590   0.735  12.729  1.5259 -2.6922  0.9591
  203MPD1    H1 3090   3.670   0.664  13.144 -0.9917 -2.6434 -1.7970
  203MPD1    H2 3091   3.687   1.058  12.991  0.4460 -0.0437 -0.1601
  203MPD1    H3 3092   3.706   0.904  13.171  1.7385  0.6902 -0.5775
  203MPD1     N 3093   3.588   0.554  12.904 -0.2394  0.0342 -0.1463
  203MPD1    H5 3094   3.554   0.542  12.809 -1.4036  4.3182 -0.2657
  203MPD1    N1 3095   3.627   1.009  12.733  0.7566 -0.2292  0.0198
  203MPD1    H6 3096   3.652   0.961  12.647  0.0691  0.9828 -0.8595
  203MPD1    H7 3097   3.677   1.098  12.735 -0.5742  0.4723  2.7202
  204MPD1     C 3098   3.549   1.173   0.545  0.0829  0.2345  0.7619
  204MPD1    C1 3099   3.662   1.184   0.469 -0.2264  0.0685  0.6336
  204MPD1    C2 3100   3.654   1.182   0.331  0.3599 -0.5897  0.0313
  204MPD1    C3 3101   3.527   1.170   0.272 -0.7064  0.0861  0.0041
  204MPD1    C4 3102   3.418   1.168   0.351  0.0270  0.1420 -0.0138
  204MPD1    C5 3103   3.426   1.172   0.484  0.6009  0.3330 -0.7324
  204MPD1     H 3104   3.744   1.168   0.273  0.4640 -1.2329  0.3504
  204MPD1    H1 3105   3.321   1.175   0.302  1.4688  0.5965 -2.7930
  204MPD1    H2 3106   3.548   1.164   0.653  1.7667  2.1348  0.9437
  204MPD1    H3 3107   3.335   1.173   0.542  0.7469 -1.0534 -0.4808
  204MPD1     N 3108   3.525   1.157   0.135  0.1748 -0.3963 -0.0910
  204MPD1    H5 3109   3.616   1.148   0.091  0.6198  1.1134  0.5357
  204MPD1    N1 3110   3.790   1.186   0.525 -0.7226 -0.4139 -0.4593
  204MPD1    H6 3111   3.856   1.126   0.476 -0.0060  0.1676 -0.2057
  204MPD1    H7 3112   3.785   1.161   0.623 -2.1031 -3.0375 -1.2086
  205MPD1     C 3113   4.126   0.219  17.149 -0.0807 -0.2253 -0.2923
  205MPD1    C1 3114   4.078   0.094  17.178  0.2591  0.9118  0.1020
  205MPD1    C2 3115   3.940   0.066  17.185 -0.2869  1.0412  0.6244
  205MPD1    C3 3116   3.850   0.171  17.163  0.4202 -0.2555  0.3258
  205MPD1    C4 3117   3.901   0.291  17.121  0.9892 -0.1470 -0.1503
  205MPD1    C5 3118   4.039   0.312  17.113 -0.1408 -0.1991  0.1784
  205MPD1     H 3119   3.911   4.690  17.223  0.9565  0.9482  1.3268
  205MPD1    H1 3120   3.837   0.371  17.086 -1.3434 -1.3843  1.2990
  205MPD1    H2 3121   4.230   0.248  17.136 -1.1520  3.2179 -1.1091
  205MPD1    H3 3122   4.066   0.410  17.078  1.2611  0.1143  2.1302
  205MPD1     N 3123   3.707   0.167  17.172 -0.5160  0.1441  0.0376
  205MPD1    H5 3124   3.659   0.254  17.152 -0.9051  0.6097  3.0402
  205MPD1    N1 3125   4.173   4.713  17.185 -0.2962  0.1381  0.0416
  205MPD1    H6 3126   4.222   4.703  17.096 -0.1100  1.2924  0.0204
  205MPD1    H7 3127   4.127   4.623  17.192 -1.5627  0.8366  0.5233
  206MPD1     C 3128   3.798   3.088  17.254  0.0967 -0.1146  0.3099
  206MPD1    C1 3129   3.840   3.029  17.137  0.3125 -0.0744  0.2847
  206MPD1    C2 3130   3.765   3.030  17.026  0.4111  0.2157 -0.2452
  206MPD1    C3 3131   3.635   3.078  17.023  0.1099  0.6472  0.3737
  206MPD1    C4 3132   3.590   3.132  17.144  0.0482 -0.2852  0.1909
  206MPD1    C5 3133   3.671   3.128  17.260  0.1446  0.1089 -0.1966
  206MPD1     H 3134   3.825   3.000  16.941  1.8602  0.0886  0.8277
  206MPD1    H1 3135   3.488   3.166  17.162  0.2765  0.2970  0.3981
  206MPD1    H2 3136   3.846   3.089  17.351  1.0178  1.0814 -0.1694
  206MPD1    H3 3137   3.628   3.164  17.352  0.2315  2.9794 -1.2901
  206MPD1     N 3138   3.554   3.083  16.908 -0.1304 -0.1591 -0.5255
  206MPD1    H5 3139   3.461   3.123  16.908  0.3444  0.9745 -2.1343
  206MPD1    N1 3140   3.972   2.997  17.139 -0.2207  0.3642  0.2727
  206MPD1    H6 3141   4.015   2.994  17.231 -0.1582  2.5000  0.3075
  206MPD1    H7 3142   3.999   2.915  17.084  0.4194  1.1003 -0.5007
  207MPD1     C 3143   0.665   0.657  10.536 -1.0068 -0.8219 -0.0723
  207MPD1    C1 3144   0.720   0.708  10.416 -0.4842  0.3595  0.0684
  207MPD1    C2 3145   0.840   0.773  10.427  0.8770 -0.4193 -0.1642
  207MPD1    C3 3146   0.917   0.769  10.536 -0.2669  0.3818  0.5827
  207MPD1    C4 3147   0.865   0.723  10.653 -0.4472  0.4247 -0.3289
  207MPD1    C5 3148   0.735   0.671  10.647  0.6749  0.1937  0.3407
  207MPD1     H 3149   0.881   0.818  10.337  0.6624  0.0008 -0.0511
  207MPD1    H1 3150   0.917   0.720  10.749  1.4478 -1.5313 -1.4224
  207MPD1    H2 3151   0.566   0.612  10.540 -1.3865 -0.1130 -1.7268
  207MPD1    H3 3152   0.689   0.634  10.738  0.4832 -1.1316 -0.2988
  207MPD1     N 3153   1.050   0.816  10.548 -0.0168  0.0612  0.1162
  207MPD1    H5 3154   1.087   0.826  10.642  0.3919 -1.6134  0.1402
  207MPD1    N1 3155   0.638   0.703  10.303 -0.0588  0.1904  0.4171
  207MPD1    H6 3156   0.576   0.624  10.316  0.5430  0.2914  3.9022
  207MPD1    H7 3157   0.699   0.690  10.222 -1.2520  1.5393 -0.6868
  208MPD1     C 3158   3.965   3.914  17.390 -0.0359  0.5172  0.0164
  208MPD1    C1 3159   3.979   4.044  17.427  0.3093 -0.3798  0.0990
  208MPD1    C2 3160   3.929   4.081  17.547  0.1563 -0.3920  0.3570
  208MPD1    C3 3161   3.909   3.987  17.649 -0.5015 -0.1165 -0.3017
  208MPD1    C4 3162   3.932   3.858  17.616  0.1726 -0.2440 -0.3214
  208MPD1    C5 3163   3.933   3.823  17.486  0.1303  0.6508  0.2529
  208MPD1     H 3164   3.916   4.187  17.568 -3.4050 -1.1200  1.8451
  208MPD1    H1 3165   3.906   3.780  17.686 -2.2558 -0.0400 -1.0057
  208MPD1    H2 3166   3.962   3.893  17.283 -1.2941  0.4963  0.0525
  208MPD1    H3 3167   3.921   3.718  17.465  0.1902  0.6805  0.0692
  208MPD1     N 3168   3.857   4.035   0.079 -0.4260 -0.5520 -0.0026
  208MPD1    H5 3169   3.818   4.129   0.079 -0.4638 -0.5708 -1.3138
  208MPD1    N1 3170   4.002   4.150  17.335 -0.1014  0.2134 -0.0748
  208MPD1    H6 3171   4.079   4.135  17.271 -0.6010  0.4229 -0.7296
  208MPD1    H7 3172   4.026   4.231  17.392 -1.3601  0.5413 -0.0039
  209MPD1     C 3173   1.740   4.270  10.916 -0.2586 -0.6151 -0.3974
  209MPD1    C1 3174   1.831   4.368  10.885  0.3562  0.2439 -0.6619
  209MPD1    C2 3175   1.809   4.492  10.943  0.0229  0.4023  0.0026
  209MPD1    C3 3176   1.712   4.523  11.035  0.1827 -0.4543  0.2608
  209MPD1    C4 3177   1.623   4.417  11.067 -0.1862  0.0752 -0.0347
  209MPD1    C5 3178   1.637   4.300  11.001  0.1722  0.5897 -0.2643
  209MPD1     H 3179   1.879   4.569  10.913  1.3653 -0.3680  1.1664
  209MPD1    H1 3180   1.541   4.418  11.138  0.5034  2.1291  0.7347
  209MPD1    H2 3181   1.758   4.177  10.864  0.7059 -0.8633  0.3791
  209MPD1    H3 3182   1.560   4.227  11.023  0.1629  0.6029 -0.2530
  209MPD1     N 3183   1.709   4.646  11.098  0.5726  0.1006 -0.0647
  209MPD1    H5 3184   1.769   4.718  11.058  0.6390 -0.1220 -0.3660
  209MPD1    N1 3185   1.933   4.357  10.791  0.1841 -0.4101 -0.8528
  209MPD1    H6 3186   2.005   4.429  10.792  0.2446 -0.4885  0.5290
  209MPD1    H7 3187   1.964   4.261  10.796 -2.2941 -1.1071  0.9456
  210MPD1     C 3188   1.325   0.657  11.800 -1.1141 -0.6123 -1.1133
  210MPD1    C1 3189   1.417   0.558  11.821  0.3417 -0.4628 -0.8173
  210MPD1    C2 3190   1.474   0.502  11.713  0.5912 -0.2909 -0.1063
  210MPD1    C3 3191   1.435   0.536  11.585 -0.4621 -0.3491 -0.1349
  210MPD1    C4 3192   1.336   0.632  11.566  0.2690  0.3766  0.1227
  210MPD1    C5 3193   1.278   0.686  11.676  0.1603  0.3799 -0.1880
  210MPD1     H 3194   1.551   0.428  11.731 -1.8269 -1.9810  3.2607
  210MPD1    H1 3195   1.299   0.652  11.466 -0.2489  1.5763  0.5515
  210MPD1    H2 3196   1.266   0.684  11.886 -0.2962 -0.4479 -0.6006
  210MPD1    H3 3197   1.198   0.755  11.653 -0.8852 -0.6741  0.3115
  210MPD1     N 3198   1.482   0.458  11.475 -0.0457  0.1332 -0.8104
  210MPD1    H5 3199   1.471   0.493  11.381  0.6870 -0.0298 -0.9497
  210MPD1    N1 3200   1.437   0.503  11.950  0.1598 -0.0567  0.2027
  210MPD1    H6 3201   1.420   0.570  12.025  1.2266 -1.3589  1.5985
  210MPD1    H7 3202   1.527   0.457  11.960 -0.6508 -0.8821  3.6575
  211MPD1     C 3203   4.408   4.545  16.859  0.0947 -0.3925 -0.2195
  211MPD1    C1 3204   4.291   4.532  16.929  0.0055 -0.5163  0.4907
  211MPD1    C2 3205   4.182   4.616  16.896 -0.5071 -0.8556  0.0155
  211MPD1    C3 3206   4.208   0.008  16.819  0.2341  0.5084 -0.6948
  211MPD1    C4 3207   4.327   0.024  16.763 -0.1418  0.4920  0.9083
  211MPD1    C5 3208   4.426   4.649  16.778  0.0666 -0.3479  0.3575
  211MPD1     H 3209   4.081   4.593  16.928 -0.2800 -1.4072  0.3330
  211MPD1    H1 3210   4.352   0.110  16.702  0.1349 -0.8514 -0.8755
  211MPD1    H2 3211   4.483   4.468  16.850 -0.8898 -1.4291  0.5356
  211MPD1    H3 3212   4.519   4.660  16.724  0.4417  1.0759  1.2713
  211MPD1     N 3213   4.107   0.105  16.804 -0.0459  0.3758  0.8106
  211MPD1    H5 3214   4.023   0.075  16.851  0.3471 -2.2662 -0.1815
  211MPD1    N1 3215   4.267   4.415  17.004 -0.6699 -0.0686  0.3701
  211MPD1    H6 3216   4.206   4.431  17.085 -2.5849 -0.9293 -0.9000
  211MPD1    H7 3217   4.341   4.351  17.035  0.0855  0.3130 -0.6635
  212MPD1     C 3218   3.437   3.234   0.057 -0.5724 -0.2285 -0.1165
  212MPD1    C1 3219   3.300   3.233   0.083  0.5012  0.5528  0.3395
  212MPD1    C2 3220   3.228   3.147  17.689  0.2833  0.2075  0.7473
  212MPD1    C3 3221   3.286   3.073  17.597 -0.6215 -0.1453  0.0146
  212MPD1    C4 3222   3.421   3.066  17.582  0.5689 -0.1942 -0.2496
  212MPD1    C5 3223   3.497   3.151  17.655 -0.0036  0.2812 -0.4192
  212MPD1     H 3224   3.120   3.145   0.010  0.4035  1.4007  2.0578
  212MPD1    H1 3225   3.467   2.998  17.511 -0.7202 -0.2037 -1.0594
  212MPD1    H2 3226   3.503   3.297   0.116 -2.1184 -0.6394  2.0415
  212MPD1    H3 3227   3.602   3.150  17.628  0.0722  3.1449 -0.1795
  212MPD1     N 3228   3.214   2.981  17.525 -0.7493 -0.3016  0.7891
  212MPD1    H5 3229   3.269   2.917  17.469  0.8799 -0.1598  2.2675
  212MPD1    N1 3230   3.237   3.338   0.153 -0.0567  0.2094 -0.0701
  212MPD1    H6 3231   3.304   3.371   0.222 -1.4552 -0.2972  1.5312
  212MPD1    H7 3232   3.151   3.305   0.196 -0.7105  1.1935 -0.6406
  213MPD1     C 3233   1.045   3.866  16.381  0.1481 -0.0315 -0.2743
  213MPD1    C1 3234   0.988   3.749  16.335  0.6104  0.0476 -0.3303
  213MPD1    C2 3235   0.963   3.752  16.199  0.3530 -0.0365 -0.1367
  213MPD1    C3 3236   1.030   3.838  16.105  0.3716  0.0044 -0.3930
  213MPD1    C4 3237   1.109   3.940  16.162  0.2479  0.1120  0.3750
  213MPD1    C5 3238   1.112   3.951  16.298  0.2124 -0.7278  0.0171
  213MPD1     H 3239   0.915   3.663  16.159  0.5557 -0.8622  1.4813
  213MPD1    H1 3240   1.178   3.998  16.101 -1.1143 -0.0597 -1.3267
  213MPD1    H2 3241   1.025   3.898  16.482 -1.4876  1.4432 -1.0748
  213MPD1    H3 3242   1.174   4.030  16.340 -0.2613  0.0718 -0.7804
  213MPD1     N 3243   0.996   3.812  15.967  0.2362  0.9504  0.2621
  213MPD1    H5 3244   0.933   3.737  15.942  1.8474 -0.1809 -0.3989
  213MPD1    N1 3245   0.893   3.687  16.420  0.2418  0.5064 -0.0437
  213MPD1    H6 3246   0.927   3.673  16.515  3.1278  1.1855 -0.9665
  213MPD1    H7 3247   0.872   3.596  16.377 -1.0871  0.9277 -0.2751
  214MPD1     C 3248   0.439   3.359  15.289 -0.0404  0.3388  0.1878
  214MPD1    C1 3249   0.498   3.320  15.410  0.0919  0.1940 -0.5691
  214MPD1    C2 3250   0.589   3.407  15.462 -0.6922  0.0864  0.0747
  214MPD1    C3 3251   0.609   3.539  15.405 -0.1224  0.6947  0.0691
  214MPD1    C4 3252   0.530   3.577  15.298 -0.8665  0.3895  0.5367
  214MPD1    C5 3253   0.453   3.483  15.236 -0.1213  0.2402 -0.3703
  214MPD1     H 3254   0.654   3.375  15.542 -2.5283  0.7284  1.7995
  214MPD1    H1 3255   0.528   3.678  15.259  0.3128 -0.8631 -2.8290
  214MPD1    H2 3256   0.364   3.297  15.240 -1.3422  0.4423  2.0561
  214MPD1    H3 3257   0.386   3.515  15.157  1.5088  1.0949 -1.3937
  214MPD1     N 3258   0.691   3.640  15.459 -0.2653  0.0012  0.2291
  214MPD1    H5 3259   0.695   3.730  15.412 -0.9869  0.4230  0.9816
  214MPD1    N1 3260   0.485   3.187  15.442 -0.1284  0.1287 -0.1169
  214MPD1    H6 3261   0.391   3.153  15.424 -0.1181 -0.3009  0.6127
  214MPD1    H7 3262   0.510   3.165  15.539 -0.2749  2.7652  0.5326
  215MPD1     C 3263   0.104   4.617  11.159  0.5138  0.6237 -0.0429
  215MPD1    C1 3264   0.136   4.659  11.288  0.0505  0.1832  0.7796
  215MPD1    C2 3265   0.255   0.008  11.302  0.2354 -0.2981 -0.3116
  215MPD1    C3 3266   0.331   0.049  11.202  0.0680 -0.0630  0.3379
  215MPD1    C4 3267   0.297   0.019  11.075 -0.0131 -0.0869 -0.0707
  215MPD1    C5 3268   0.188   4.655  11.056 -0.6225 -0.0580 -0.1738
  215MPD1     H 3269   0.297   0.032  11.399 -2.4907  2.5966  0.1779
  215MPD1    H1 3270   0.363   0.036  10.991  0.2016  1.7320  0.4674
  215MPD1    H2 3271   0.021   4.554  11.130  0.6292  0.2504  0.4414
  215MPD1    H3 3272   0.176   4.623  10.954 -1.0669 -2.3546  0.6044
  215MPD1     N 3273   0.460   0.097  11.234  0.4043  0.2132 -0.6218
  215MPD1    H5 3274   0.489   0.085  11.331 -1.2156  3.0351  0.2310
  215MPD1    N1 3275   0.065   4.614  11.394 -0.7331  0.7106 -0.7207
  215MPD1    H6 3276   0.083   4.677  11.471 -0.4692  0.4466 -0.5666
  215MPD1    H7 3277   4.688   4.600  11.372 -0.3738 -1.6516 -0.8698
  216MPD1     C 3278   3.307   1.900  16.954 -0.3972 -0.6007  0.2408
  216MPD1    C1 3279   3.422   1.828  16.990  0.2416  0.1952  0.3414
  216MPD1    C2 3280   3.465   1.828  17.126 -0.7255 -0.1528  0.0130
  216MPD1    C3 3281   3.390   1.897  17.222 -0.3638 -0.0883  0.1988
  216MPD1    C4 3282   3.284   1.978  17.182 -0.7034  0.0047  0.0382
  216MPD1    C5 3283   3.248   1.980  17.053 -0.5701  0.3488 -0.5314
  216MPD1     H 3284   3.547   1.763  17.157  0.8454  2.1026  0.6230
  216MPD1    H1 3285   3.239   2.043  17.256  1.1330 -0.4559  1.5816
  216MPD1    H2 3286   3.261   1.898  16.856 -1.3652 -4.3409  0.7636
  216MPD1    H3 3287   3.148   2.014  17.030  0.4459  2.4174 -1.9099
  216MPD1     N 3288   3.434   1.882  17.360  0.0009 -0.2842  0.3593
  216MPD1    H5 3289   3.524   1.838  17.376  0.7008  1.5536  1.4368
  216MPD1    N1 3290   3.475   1.732  16.903  0.1865  0.0976 -1.1283
  216MPD1    H6 3291   3.475   1.773  16.811  1.4202 -0.7512 -1.5128
  216MPD1    H7 3292   3.563   1.684  16.922  0.0171  0.2954  0.2165
  217MPD1     C 3293   3.131   3.024   9.518 -0.1223  0.3154 -0.3525
  217MPD1    C1 3294   3.162   3.157   9.495  0.2914  0.5674 -0.0239
  217MPD1    C2 3295   3.265   3.216   9.570 -0.2087  0.1815 -1.0726
  217MPD1    C3 3296   3.324   3.141   9.665  0.3851 -0.2153 -0.0964
  217MPD1    C4 3297   3.280   3.009   9.697 -0.1198  0.6366  0.4283
  217MPD1    C5 3298   3.182   2.949   9.623  1.0355 -0.5698  0.5844
  217MPD1     H 3299   3.294   3.320   9.573 -1.9760  0.5503  3.3726
  217MPD1    H1 3300   3.325   2.942   9.769  0.4264 -2.0854 -2.3871
  217MPD1    H2 3301   3.045   2.991   9.462  0.3040 -0.2830 -0.6528
  217MPD1    H3 3302   3.145   2.848   9.635 -0.0140 -0.3201 -0.5450
  217MPD1     N 3303   3.411   3.217   9.745 -0.1347  0.4401  0.3138
  217MPD1    H5 3304   3.418   3.317   9.725  0.6544 -0.2778 -3.0093
  217MPD1    N1 3305   3.100   3.233   9.390 -0.2216  0.6130  0.0031
  217MPD1    H6 3306   3.009   3.204   9.355  0.8551 -0.3565 -1.9723
  217MPD1    H7 3307   3.096   3.333   9.408  0.2099  0.7764 -0.8089
  218MPD1     C 3308   0.442   1.484  13.660  0.7706 -0.6392 -0.1296
  218MPD1    C1 3309   0.560   1.450  13.601 -0.7167 -0.2265 -0.7414
  218MPD1    C2 3310   0.575   1.328  13.539  0.5069 -0.5011  0.2616
  218MPD1    C3 3311   0.467   1.243  13.514  0.3527 -0.0448  0.0827
  218MPD1    C4 3312   0.346   1.275  13.563  0.0934  0.2235 -0.2539
  218MPD1    C5 3313   0.331   1.394  13.629  0.3556  0.0272 -0.2890
  218MPD1     H 3314   0.670   1.307  13.490  0.1428 -0.5804 -0.4067
  218MPD1    H1 3315   0.253   1.223  13.542  0.8922 -1.7357  1.0623
  218MPD1    H2 3316   0.430   1.577  13.714  0.7236 -0.2439 -0.8260
  218MPD1    H3 3317   0.237   1.415  13.679  0.1468  0.4784 -0.8696
  218MPD1     N 3318   0.485   1.133  13.423 -0.5082  0.3267 -0.0971
  218MPD1    H5 3319   0.581   1.106  13.403 -0.2576  0.2009  1.2573
  218MPD1    N1 3320   0.675   1.529  13.638 -0.4413 -0.0665 -0.4766
  218MPD1    H6 3321   0.647   1.626  13.653  0.3508 -0.2334  2.1130
  218MPD1    H7 3322   0.752   1.529  13.571  0.5023 -1.4616  0.6186
  219MPD1     C 3323   1.126   0.710  12.797  0.2501  0.2297  0.6471
  219MPD1    C1 3324   1.100   0.839  12.827 -0.0375  0.0499  0.4518
  219MPD1    C2 3325   0.970   0.865  12.869 -0.3814  0.1448  0.1806
  219MPD1    C3 3326   0.882   0.763  12.906  0.3417  0.3085  0.0321
  219MPD1    C4 3327   0.914   0.631  12.866  0.6045 -0.9986  0.1490
  219MPD1    C5 3328   1.043   0.602  12.825  0.5918  0.5182 -1.1517
  219MPD1     H 3329   0.961   0.972  12.885 -1.4572  0.0513  0.2261
  219MPD1    H1 3330   0.846   0.550  12.890 -0.7684  0.0532 -0.1747
  219MPD1    H2 3331   1.218   0.685  12.745 -0.0332 -1.3596  0.8981
  219MPD1    H3 3332   1.071   0.499  12.807 -0.0599 -0.2220  1.9444
  219MPD1     N 3333   0.753   0.784  12.967 -0.7963 -0.2261  0.2285
  219MPD1    H5 3334   0.701   0.700  12.992 -0.6524 -0.1854  0.6651
  219MPD1    N1 3335   1.194   0.938  12.795 -0.0712  0.5146  1.0448
  219MPD1    H6 3336   1.179   1.023  12.850 -0.0804  1.4863 -0.4817
  219MPD1    H7 3337   1.292   0.914  12.791  0.2681  1.9511  0.6221
  220MPD1     C 3338   1.242   1.024   9.782  0.1039  0.3654  0.1075
  220MPD1    C1 3339   1.245   1.055   9.915  0.8442 -0.1036  0.3368
  220MPD1    C2 3340   1.210   0.954  10.006  0.3513 -0.6029 -0.0192
  220MPD1    C3 3341   1.174   0.825   9.960 -0.2468 -0.2543 -0.0901
  220MPD1    C4 3342   1.173   0.803   9.824  0.4082  0.0721 -0.1773
  220MPD1    C5 3343   1.206   0.905   9.738 -0.0229 -0.4099 -0.0360
  220MPD1     H 3344   1.211   0.965  10.114 -0.7150 -0.1532 -0.0477
  220MPD1    H1 3345   1.145   0.707   9.783  0.4404 -0.5543  1.2441
  220MPD1    H2 3346   1.282   1.091   9.706 -1.4625  0.0679 -0.9618
  220MPD1    H3 3347   1.199   0.889   9.631  3.1914  1.1966 -0.4678
  220MPD1     N 3348   1.128   0.730  10.054  0.3715  0.4018 -0.0938
  220MPD1    H5 3349   1.125   0.751  10.153  0.1221 -2.0047  0.4299
  220MPD1    N1 3350   1.275   1.181   9.957 -0.1562 -0.0335 -0.1877
  220MPD1    H6 3351   1.323   1.181  10.047  1.6889 -0.7557 -1.1741
  220MPD1    H7 3352   1.343   1.223   9.894 -0.7441  0.6514 -0.3664
  221MPD1     C 3353   3.044   0.815  16.649 -0.4424 -0.4346  0.0288
  221MPD1    C1 3354   2.952   0.712  16.634  0.1160 -0.7188 -0.1560
  221MPD1    C2 3355   3.001   0.592  16.582 -0.4534 -0.5189 -0.4336
  221MPD1    C3 3356   3.138   0.569  16.569  0.4355  0.1835  0.7364
  221MPD1    C4 3357   3.223   0.671  16.578 -0.1065  0.0489 -0.0546
  221MPD1    C5 3358   3.174   0.799  16.621 -0.0129 -0.3676  0.2805
  221MPD1     H 3359   2.938   0.506  16.559 -0.9571 -0.4684  0.7906
  221MPD1    H1 3360   3.330   0.660  16.561 -0.2348 -0.4155 -0.5600
  221MPD1    H2 3361   3.030   0.916  16.687 -1.6157 -0.2424 -0.9085
  221MPD1    H3 3362   3.241   0.883  16.633  0.0332 -0.5427  1.2627
  221MPD1     N 3363   3.198   0.452  16.535  0.0928  0.6530  0.7852
  221MPD1    H5 3364   3.298   0.449  16.519  0.2108  1.1129  1.4243
  221MPD1    N1 3365   2.817   0.734  16.646 -0.0481 -0.1652  0.0116
  221MPD1    H6 3366   2.786   0.820  16.690 -0.0257 -0.1080 -0.0838
  221MPD1    H7 3367   2.757   0.657  16.675  0.3137  0.0650  1.3643
  222MPD1     C 3368   1.393   2.812   0.587  0.3228  0.3044  0.6656
  222MPD1    C1 3369   1.423   2.716   0.679 -0.3832  0.0326  0.3641
  222MPD1    C2 3370   1.555   2.694   0.711  0.1519 -0.1217  0.8842
  222MPD1    C3 3371   1.653   2.766   0.650  0.4409  0.2592 -0.1064
  222MPD1    C4 3372   1.624   2.857   0.550  0.1477 -0.4882 -0.3497
  222MPD1    C5 3373   1.494   2.867   0.517  0.1629 -0.4206  0.1273
  222MPD1     H 3374   1.581   2.634   0.797 -1.6903 -1.1326  0.7429
  222MPD1    H1 3375   1.694   2.922   0.499 -0.0058  0.2537  0.3836
  222MPD1    H2 3376   1.292   2.840   0.559 -0.0661  0.4920  2.2311
  222MPD1    H3 3377   1.462   2.942   0.445  0.1280 -0.9949 -0.4515
  222MPD1     N 3378   1.790   2.764   0.694  0.4628  0.4509  0.3060
  222MPD1    H5 3379   1.859   2.832   0.664  2.3796 -2.4371 -1.8385
  222MPD1    N1 3380   1.318   2.656   0.760  0.1024  0.9353 -0.2131
  222MPD1    H6 3381   1.344   2.564   0.795 -0.5944  0.6822 -0.3534
  222MPD1    H7 3382   1.227   2.651   0.716  0.5662  0.7235 -1.1316
  223MPD1     C 3383   2.530   2.575   1.497  0.5118 -0.6974 -0.7159
  223MPD1    C1 3384   2.543   2.708   1.460 -0.6686  0.3099  0.0252
  223MPD1    C2 3385   2.454   2.750   1.360  0.0205  0.0801 -1.1607
  223MPD1    C3 3386   2.362   2.673   1.299  0.0915 -0.2986  0.6891
  223MPD1    C4 3387   2.357   2.537   1.338  0.1396  0.1714  0.3443
  223MPD1    C5 3388   2.446   2.495   1.434  0.2527  0.2424  0.5964
  223MPD1     H 3389   2.442   2.855   1.338  0.0879  0.3907  0.2798
  223MPD1    H1 3390   2.292   2.459   1.300  0.1267  1.4448 -2.2202
  223MPD1    H2 3391   2.598   2.537   1.572  1.6021  1.8507 -0.4282
  223MPD1    H3 3392   2.437   2.391   1.461  1.6657 -0.3560 -1.2886
  223MPD1     N 3393   2.285   2.730   1.196 -0.2464  0.0072 -0.3690
  223MPD1    H5 3394   2.297   2.825   1.164 -1.7248  0.1895 -0.3883
  223MPD1    N1 3395   2.612   2.801   1.540 -0.2911 -0.5924  0.1287
  223MPD1    H6 3396   2.636   2.884   1.487  2.1802 -0.0983  2.0137
  223MPD1    H7 3397   2.691   2.757   1.586 -0.0643  0.2658  0.5563
  224MPD1     C 3398   3.662   3.739   9.670 -0.6032 -0.4650 -0.1242
  224MPD1    C1 3399   3.678   3.869   9.721 -0.0515  0.8100  0.4694
  224MPD1    C2 3400   3.775   3.891   9.812 -0.3955  0.2087  0.6836
  224MPD1    C3 3401   3.861   3.790   9.856  0.1203 -0.3420  0.6904
  224MPD1    C4 3402   3.846   3.665   9.803 -0.2614  0.4174 -0.0426
  224MPD1    C5 3403   3.747   3.639   9.714  0.7049 -0.4707  0.4002
  224MPD1     H 3404   3.775   3.994   9.846  0.7131 -0.0170  1.3631
  224MPD1    H1 3405   3.908   3.582   9.836 -0.1403 -1.1327 -4.0470
  224MPD1    H2 3406   3.580   3.710   9.605 -0.6843  0.0245 -0.2378
  224MPD1    H3 3407   3.734   3.535   9.686 -1.9612  0.3669 -1.4727
  224MPD1     N 3408   3.969   3.809   9.948  0.2156  0.2650 -0.0962
  224MPD1    H5 3409   4.017   3.729   9.988 -1.1026 -0.4280  0.0980
  224MPD1    N1 3410   3.585   3.969   9.699  0.2614  0.2962 -0.0671
  224MPD1    H6 3411   3.511   3.964   9.630 -0.0646 -0.2844  0.3253
  224MPD1    H7 3412   3.623   4.063   9.686 -0.1555  0.2741 -1.4173
  225MPD1     C 3413   1.113   1.091  12.466  0.0184  0.0936 -0.6883
  225MPD1    C1 3414   1.015   1.060  12.366  0.0926  0.4471 -0.4150
  225MPD1    C2 3415   0.885   1.099  12.391  1.3945 -0.1050  0.0855
  225MPD1    C3 3416   0.852   1.173  12.501 -0.0809 -0.1393 -0.1672
  225MPD1    C4 3417   0.952   1.198  12.598 -0.0737 -0.2774 -0.0650
  225MPD1    C5 3418   1.080   1.154  12.585 -0.7182 -0.5988 -0.8456
  225MPD1     H 3419   0.805   1.071  12.324 -0.7548 -1.0123  3.0324
  225MPD1    H1 3420   0.925   1.251  12.688 -0.1114  1.4097 -1.0691
  225MPD1    H2 3421   1.217   1.061  12.459 -0.2247 -0.8479 -0.1985
  225MPD1    H3 3422   1.152   1.179  12.662 -2.7996 -2.7338  1.8235
  225MPD1     N 3423   0.718   1.217  12.530  0.2097  0.0263 -0.1217
  225MPD1    H5 3424   0.695   1.237  12.627  0.7699  0.8040 -0.1496
  225MPD1    N1 3425   1.051   1.004  12.242 -0.4163 -0.0098 -0.5646
  225MPD1    H6 3426   1.142   0.958  12.248 -1.1796 -1.5172 -0.3964
  225MPD1    H7 3427   0.974   0.941  12.218 -0.4973 -0.4337  0.7698
  226MPD1     C 3428   2.302   0.088   9.546 -0.2143  0.4948  0.2162
  226MPD1    C1 3429   2.296   4.712   9.644  0.1060  0.3513 -0.0277
  226MPD1    C2 3430   2.419   4.648   9.680 -0.6442 -0.4419 -0.3411
  226MPD1    C3 3431   2.536   4.696   9.633 -0.0270  0.3265 -0.1047
  226MPD1    C4 3432   2.542   0.086   9.555 -0.1208  0.3632 -0.1443
  226MPD1    C5 3433   2.425   0.132   9.505  0.2994 -0.9283  0.8595
  226MPD1     H 3434   2.422   4.553   9.733  1.2862  0.6814  1.5565
  226MPD1    H1 3435   2.632   0.124   9.508 -0.2452  1.0168  0.1408
  226MPD1    H2 3436   2.208   0.126   9.509  1.5623  4.5496 -0.1067
  226MPD1    H3 3437   2.424   0.204   9.424  0.6702  0.2750  1.9335
  226MPD1     N 3438   2.653   4.631   9.679 -0.3279 -0.1661  0.1612
  226MPD1    H5 3439   2.647   4.540   9.724  2.0507 -0.6277 -0.4512
  226MPD1    N1 3440   2.172   4.652   9.670 -0.2360  0.2796 -0.1807
  226MPD1    H6 3441   2.161   4.612   9.763  0.1489 -0.2052 -0.3424
  226MPD1    H7 3442   2.089   4.704   9.641 -1.1706  0.6249  3.0999
  227MPD1     C 3443   3.126   3.788   9.863 -0.3538  0.3975  0.7332
  227MPD1    C1 3444   3.229   3.858   9.808  0.2905 -1.0774  0.5477
  227MPD1    C2 3445   3.207   3.989   9.768  0.2611 -0.0310  0.1582
  227MPD1    C3 3446   3.081   4.043   9.779  0.6603 -0.2582 -0.0715
  227MPD1    C4 3447   2.976   3.970   9.830  0.1718  0.2403 -0.3246
  227MPD1    C5 3448   3.000   3.841   9.872 -0.2314 -0.2657 -0.2288
  227MPD1     H 3449   3.286   4.044   9.718  0.5931 -1.2464 -0.6621
  227MPD1    H1 3450   2.881   4.012   9.861 -0.2636 -1.5634  0.7886
  227MPD1    H2 3451   3.134   3.681   9.878 -1.4739  0.3661  1.1064
  227MPD1    H3 3452   2.920   3.781   9.913  0.2406 -0.5526  0.2646
  227MPD1     N 3453   3.065   4.174   9.728  0.3108 -0.1841 -0.0740
  227MPD1    H5 3454   3.152   4.225   9.716  0.8017 -0.5040  2.2719
  227MPD1    N1 3455   3.359   3.794   9.779  0.4141  0.0728  0.6494
  227MPD1    H6 3456   3.434   3.850   9.739 -0.5001  0.9890  0.2156
  227MPD1    H7 3457   3.400   3.730   9.847  1.6523  0.1721 -0.0069
  228MPD1     C 3458   2.279   3.548  11.894 -0.1373 -0.0632 -0.0061
  228MPD1    C1 3459   2.160   3.567  11.827 -0.6958  0.1571 -0.2419
  228MPD1    C2 3460   2.046   3.554  11.900  0.6667 -0.0795 -0.4062
  228MPD1    C3 3461   2.050   3.543  12.042 -0.2445 -0.2644  0.4240
  228MPD1    C4 3462   2.172   3.532  12.111  0.2579  0.3935  0.1020
  228MPD1    C5 3463   2.281   3.534  12.029  0.0121  1.0299 -0.1168
  228MPD1     H 3464   1.948   3.552  11.854  1.0268 -0.9298 -1.1227
  228MPD1    H1 3465   2.187   3.527  12.218 -1.9865  1.0061  0.4509
  228MPD1    H2 3466   2.369   3.548  11.833  0.5337 -1.1690  0.9919
  228MPD1    H3 3467   2.380   3.513  12.069 -0.6299 -0.4424  0.6955
  228MPD1     N 3468   1.922   3.520  12.102 -0.2052 -0.5533 -0.3189
  228MPD1    H5 3469   1.847   3.505  12.036  1.3354  1.3731 -2.4978
  228MPD1    N1 3470   2.172   3.557  11.688  0.0315 -0.6755  0.0941
  228MPD1    H6 3471   2.096   3.599  11.634 -1.1933 -2.6845  0.2410
  228MPD1    H7 3472   2.261   3.591  11.655  0.0090 -1.3999 -0.7153
  229MPD1     C 3473   1.361   2.602  15.635 -0.4683 -0.0018  0.8269
  229MPD1    C1 3474   1.443   2.633  15.528  0.1319  0.2115  0.0787
  229MPD1    C2 3475   1.579   2.599  15.538  0.0725  0.2012  0.1364
  229MPD1    C3 3476   1.634   2.530  15.653  0.3808  0.4545  0.2162
  229MPD1    C4 3477   1.553   2.524  15.764 -0.3480  0.7084  0.0416
  229MPD1    C5 3478   1.419   2.566  15.756  0.3205  0.4384  0.3340
  229MPD1     H 3479   1.648   2.610  15.455 -0.9875 -1.4175 -0.9468
  229MPD1    H1 3480   1.588   2.500  15.864 -1.5248 -0.1894  0.2420
  229MPD1    H2 3481   1.253   2.604  15.621 -0.4354 -0.3364  0.5079
  229MPD1    H3 3482   1.349   2.544  15.836  0.2171 -0.9155 -0.1291
  229MPD1     N 3483   1.765   2.472  15.653 -0.4876  0.3645 -0.3121
  229MPD1    H5 3484   1.799   2.423  15.735  0.2573 -0.9608 -1.4218
  229MPD1    N1 3485   1.394   2.685  15.413  0.6086  0.9499 -0.2158
  229MPD1    H6 3486   1.449   2.761  15.375 -1.1916  0.1158 -4.5310
  229MPD1    H7 3487   1.298   2.717  15.424 -0.4787 -2.4982  0.3791
  230MPD1     C 3488   2.604   2.313  16.121 -0.3260  0.8219  0.2563
  230MPD1    C1 3489   2.606   2.199  16.042 -0.0006  0.2293  0.1699
  230MPD1    C2 3490   2.522   2.196  15.936 -0.3820 -0.5415 -0.1749
  230MPD1    C3 3491   2.450   2.307  15.897 -0.4538  0.6621  0.5918
  230MPD1    C4 3492   2.482   2.427  15.960  0.7346  1.0383  0.0402
  230MPD1    C5 3493   2.551   2.428  16.072  0.3124  0.2135 -0.2595
  230MPD1     H 3494   2.515   2.107  15.873 -0.9996 -0.8094  0.2657
  230MPD1    H1 3495   2.450   2.524  15.924 -0.7930 -0.7126 -3.2938
  230MPD1    H2 3496   2.655   2.323  16.216 -0.0131 -1.5240  0.3597
  230MPD1    H3 3497   2.568   2.521  16.125  2.4047 -0.8265  0.9017
  230MPD1     N 3498   2.358   2.306  15.788  0.8965  0.1560  0.0861
  230MPD1    H5 3499   2.356   2.218  15.737  1.9089 -0.2053  0.6602
  230MPD1    N1 3500   2.662   2.086  16.102  0.1111  0.0275 -0.3763
  230MPD1    H6 3501   2.738   2.117  16.162  0.3220  1.7052 -1.5314
  230MPD1    H7 3502   2.712   2.030  16.033 -2.4994 -1.3253 -1.1802
  231MPD1     C 3503   4.215   3.971  15.655  1.0579 -0.1715 -0.3077
  231MPD1    C1 3504   4.293   4.048  15.564  0.3864 -1.1584 -0.2875
  231MPD1    C2 3505   4.423   4.014  15.539  0.0281  0.0738  0.1114
  231MPD1    C3 3506   4.477   3.896  15.595 -0.2406  0.0062  0.2271
  231MPD1    C4 3507   4.406   3.829  15.687 -0.3956 -0.4041  0.1523
  231MPD1    C5 3508   4.276   3.868  15.711 -0.0619  0.8176  0.7317
  231MPD1     H 3509   4.483   4.072  15.469 -0.5983 -0.7631 -1.1105
  231MPD1    H1 3510   4.442   3.736  15.729 -0.6668 -0.4875  0.1987
  231MPD1    H2 3511   4.115   4.005  15.681  1.9087  1.1572  1.2749
  231MPD1    H3 3512   4.227   3.805  15.785  0.5222 -0.8321 -0.2928
  231MPD1     N 3513   4.606   3.855  15.552  0.2191  0.2371  0.5009
  231MPD1    H5 3514   4.652   3.912  15.481  2.1667 -2.4990 -0.4481
  231MPD1    N1 3515   4.243   4.166  15.506  0.7881  0.0630 -0.4590
  231MPD1    H6 3516   4.141   4.167  15.502  0.7397 -0.0649  0.6926
  231MPD1    H7 3517   4.275   4.195  15.414 -1.5773 -0.4654 -1.4720
  232MPD1     C 3518   2.826   4.691   1.803  0.4183  0.1875  0.0477
  232MPD1    C1 3519   2.720   4.626   1.752  0.3439  0.1685  0.0134
  232MPD1    C2 3520   2.639   4.695   1.663 -0.6232  0.3503 -0.0614
  232MPD1    C3 3521   2.679   0.100   1.616  0.8762  0.4455 -0.7123
  232MPD1    C4 3522   2.789   0.161   1.671 -0.2141  0.3862 -0.1980
  232MPD1    C5 3523   2.858   0.092   1.770  0.8956 -0.4260  0.7221
  232MPD1     H 3524   2.545   4.659   1.622 -2.2153  3.4678  0.8736
  232MPD1    H1 3525   2.818   0.264   1.657 -1.3722  0.6661 -0.5629
  232MPD1    H2 3526   2.876   4.646   1.888  1.1016  0.5883 -0.1397
  232MPD1    H3 3527   2.942   0.135   1.824  0.2627  0.5505  0.9212
  232MPD1     N 3528   2.594   0.158   1.518  0.9177 -0.0214  0.5057
  232MPD1    H5 3529   2.512   0.107   1.487  2.6058 -1.8578 -0.9028
  232MPD1    N1 3530   2.671   4.507   1.812  0.3414  0.4230  0.3949
  232MPD1    H6 3531   2.740   4.454   1.864 -0.3047 -0.3238  0.4922
  232MPD1    H7 3532   2.628   4.453   1.736 -2.1538  1.5230  1.0238
  233MPD1     C 3533   2.731   3.898   2.333  0.4202  0.0022 -0.0797
  233MPD1    C1 3534   2.830   3.836   2.407  0.4011 -0.8544 -0.0975
  233MPD1    C2 3535   2.958   3.831   2.360  0.3446  0.4802 -0.2066
  233MPD1    C3 3536   2.991   3.883   2.235 -0.2827  0.5479 -0.1533
  233MPD1    C4 3537   2.896   3.946   2.162  0.4599  0.9055 -0.5355
  233MPD1    C5 3538   2.769   3.953   2.213 -0.9071 -0.6218  0.0180
  233MPD1     H 3539   3.031   3.787   2.428 -0.8987 -0.4576  0.4982
  233MPD1    H1 3540   2.917   3.993   2.066  0.2257 -0.0042 -1.0297
  233MPD1    H2 3541   2.631   3.915   2.369  0.7880  0.8522  0.5333
  233MPD1    H3 3542   2.702   4.007   2.148  0.0836  0.2388 -0.2956
  233MPD1     N 3543   3.120   3.863   2.183 -0.6849 -0.1130 -0.1890
  233MPD1    H5 3544   3.139   3.910   2.095 -3.5953 -2.4334 -2.0375
  233MPD1    N1 3545   2.807   3.810   2.543  0.3352  0.1452  0.0955
  233MPD1    H6 3546   2.863   3.728   2.569 -1.4369 -1.3997 -0.9528
  233MPD1    H7 3547   2.708   3.790   2.556  0.7361 -1.0641  1.3459
  234MPD1     C 3548   0.120   2.242  10.204 -0.5762 -0.8431 -0.6288
  234MPD1    C1 3549   4.708   2.237  10.222 -0.1788 -0.6948  0.6105
  234MPD1    C2 3550   4.649   2.362  10.243  0.1797 -0.0675 -0.0771
  234MPD1    C3 3551   0.005   2.477  10.253  0.6664 -0.6740  0.2469
  234MPD1    C4 3552   0.143   2.485  10.239  0.0156  0.3887  0.2281
  234MPD1    C5 3553   0.193   2.363  10.215 -0.6361 -0.5122 -0.5846
  234MPD1     H 3554   4.541   2.366  10.255  0.1999  1.3480 -0.2704
  234MPD1    H1 3555   0.210   2.570  10.244 -0.5918  1.0927 -3.1397
  234MPD1    H2 3556   0.184   2.157  10.181  3.7463  1.8679  1.3683
  234MPD1    H3 3557   0.301   2.357  10.204 -0.4911 -1.9713  1.5284
  234MPD1     N 3558   4.656   2.595  10.282  0.7754 -0.4269 -0.8924
  234MPD1    H5 3559   4.558   2.580  10.304  0.3127  1.5546 -1.6429
  234MPD1    N1 3560   4.635   2.119  10.183 -0.4290  0.6451  0.3748
  234MPD1    H6 3561   4.683   2.030  10.194  2.2348  2.0518  0.3668
  234MPD1    H7 3562   4.551   2.117  10.240 -0.6677 -1.4348 -0.0602
  235MPD1     C 3563   1.175   2.583   7.821 -0.5342  0.9555 -0.2012
  235MPD1    C1 3564   1.220   2.682   7.907 -0.1251  0.1277 -0.3311
  235MPD1    C2 3565   1.290   2.636   8.015 -0.1564 -0.2302 -0.1525
  235MPD1    C3 3566   1.310   2.503   8.034  0.3492 -0.0283  0.3929
  235MPD1    C4 3567   1.262   2.408   7.946  0.2109  0.1813  0.5468
  235MPD1    C5 3568   1.201   2.447   7.826  0.6687 -0.3320 -0.4185
  235MPD1     H 3569   1.339   2.706   8.082 -0.8544  2.5499 -2.5507
  235MPD1    H1 3570   1.273   2.301   7.950  0.1790  0.1429 -0.4376
  235MPD1    H2 3571   1.122   2.609   7.730 -1.1556 -1.9747 -0.6549
  235MPD1    H3 3572   1.157   2.379   7.755  4.5670 -2.8012 -0.5044
  235MPD1     N 3573   1.378   2.459   8.153  0.0321 -0.1400 -0.2874
  235MPD1    H5 3574   1.398   2.532   8.221 -1.4401  0.1255 -0.1441
  235MPD1    N1 3575   1.230   2.812   7.868 -0.0920  0.4462  0.5375
  235MPD1    H6 3576   1.146   2.834   7.813  0.1572 -1.5616 -0.6584
  235MPD1    H7 3577   1.228   2.878   7.945 -0.1415  0.1346  0.8019
  236MPD1     C 3578   0.760   2.299   9.736 -0.1740  0.3099  0.2700
  236MPD1    C1 3579   0.780   2.170   9.700  0.3354  0.8002  0.7043
  236MPD1    C2 3580   0.867   2.102   9.788 -0.4134  0.4387  0.1749
  236MPD1    C3 3581   0.912   2.151   9.910  0.3111 -0.1217 -0.3842
  236MPD1    C4 3582   0.881   2.280   9.942  0.2986  0.4025  0.3637
  236MPD1    C5 3583   0.804   2.352   9.855  0.8466  0.3102 -0.0736
  236MPD1     H 3584   0.876   1.996   9.767  1.5124  1.2883 -3.2810
  236MPD1    H1 3585   0.916   2.319  10.037  0.1544  2.2738 -0.3445
  236MPD1    H2 3586   0.698   2.365   9.677  0.0463  0.7931  0.5738
  236MPD1    H3 3587   0.769   2.450   9.884  0.3597 -0.1608  0.9184
  236MPD1     N 3588   0.996   2.080  10.000  0.2708  0.2097 -0.2000
  236MPD1    H5 3589   1.020   2.125  10.088 -0.7497  1.1709 -0.4180
  236MPD1    N1 3590   0.731   2.119   9.579  0.3099  0.2757  0.4025
  236MPD1    H6 3591   0.649   2.164   9.538 -0.7412 -1.4828  0.5869
  236MPD1    H7 3592   0.713   2.020   9.594  0.5588  0.0348 -0.9149
  237MPD1     C 3593   0.484   4.371  15.709  0.2154  0.1437 -0.1211
  237MPD1    C1 3594   0.356   4.406  15.741  0.0265 -0.1037  0.2640
  237MPD1    C2 3595   0.291   4.521  15.687  0.3743 -0.2339 -0.0971
  237MPD1    C3 3596   0.354   4.584  15.578  0.3924 -0.0596  0.5901
  237MPD1    C4 3597   0.488   4.548  15.541  0.1290  0.4447  1.2895
  237MPD1    C5 3598   0.538   4.434  15.598 -0.3375  0.1026  0.0840
  237MPD1     H 3599   0.192   4.554  15.715  0.6653  0.0002  0.6544
  237MPD1    H1 3600   0.541   4.586  15.455  0.5002 -1.0049  0.8878
  237MPD1    H2 3601   0.537   4.289  15.755  1.1525 -1.0746 -3.3824
  237MPD1    H3 3602   0.634   4.395  15.567  0.7939  2.5736  0.4708
  237MPD1     N 3603   0.293   4.681  15.488  0.0919 -1.1199 -0.3514
  237MPD1    H5 3604   0.356   4.713  15.415  0.8649 -0.6471  0.5264
  237MPD1    N1 3605   0.298   4.351  15.855  0.2559  0.3402  0.0343
  237MPD1    H6 3606   0.347   4.265  15.878  0.3811  0.1385 -0.9671
  237MPD1    H7 3607   0.197   4.339  15.852  0.2001  0.9122 -0.2353
  238MPD1     C 3608   2.519   4.370  14.961  0.1713 -0.4765  0.0317
  238MPD1    C1 3609   2.480   4.331  15.088 -0.0346  0.7411 -0.5902
  238MPD1    C2 3610   2.354   4.272  15.103 -0.2032 -0.0061  0.0510
  238MPD1    C3 3611   2.264   4.273  14.996  0.4991  0.4686  0.1238
  238MPD1    C4 3612   2.306   4.312  14.872  0.0452  0.6508  0.0375
  238MPD1    C5 3613   2.434   4.357  14.853  0.8165  0.3806 -0.1094
  238MPD1     H 3614   2.315   4.241  15.200 -0.6967  0.1205 -0.1129
  238MPD1    H1 3615   2.241   4.310  14.786  1.1772 -0.7695 -0.7829
  238MPD1    H2 3616   2.616   4.413  14.940  0.3073  0.5432  2.7976
  238MPD1    H3 3617   2.468   4.389  14.755 -0.2808 -0.5763 -0.8089
  238MPD1     N 3618   2.127   4.230  14.993  0.0403  0.1561  0.2753
  238MPD1    H5 3619   2.072   4.252  14.910 -1.0337 -1.4663  0.5532
  238MPD1    N1 3620   2.579   4.337  15.190  0.0594 -0.4410 -0.2364
  238MPD1    H6 3621   2.627   4.427  15.180  0.0746 -0.4159  0.0869
  238MPD1    H7 3622   2.536   4.325  15.281 -0.9863  2.1615 -0.3710
  239MPD1     C 3623   2.241   1.198  15.251 -1.0298 -0.2244  0.5853
  239MPD1    C1 3624   2.319   1.091  15.212 -0.1550 -0.2736 -0.5168
  239MPD1    C2 3625   2.264   1.012  15.110 -0.9090  0.1610 -0.4076
  239MPD1    C3 3626   2.135   1.034  15.065 -0.5250  0.2593 -0.3377
  239MPD1    C4 3627   2.059   1.128  15.122  0.2437  0.6786 -0.1875
  239MPD1    C5 3628   2.112   1.219  15.209 -0.6588  0.5278 -0.2942
  239MPD1     H 3629   2.331   0.936  15.073 -2.7542 -1.2866 -0.8011
  239MPD1    H1 3630   1.957   1.152  15.095  0.0908 -0.6927 -0.8635
  239MPD1    H2 3631   2.280   1.279  15.311 -2.3074  0.4927  0.4417
  239MPD1    H3 3632   2.055   1.307  15.236 -3.2717 -1.4728  0.7044
  239MPD1     N 3633   2.078   0.948  14.959  0.5189 -0.3716  0.1771
  239MPD1    H5 3634   1.989   0.980  14.925  1.6064  1.1575 -1.2259
  239MPD1    N1 3635   2.457   1.080  15.242 -0.7452  0.5078  0.6359
  239MPD1    H6 3636   2.463   1.103  15.341 -1.4041  2.8321  0.1323
  239MPD1    H7 3637   2.492   0.984  15.243 -0.1177  0.7117 -1.6550
  240MPD1     C 3638   1.937   4.545  15.143  0.3228 -0.0722 -0.1884
  240MPD1    C1 3639   1.849   4.568  15.043  0.1272 -1.0076  0.7580
  240MPD1    C2 3640   1.734   4.495  15.043 -0.3402 -0.4289  0.0360
  240MPD1    C3 3641   1.709   4.387  15.126  0.3291 -0.7630 -0.7046
  240MPD1    C4 3642   1.810   4.353  15.216 -0.4018 -0.7915 -0.5229
  240MPD1    C5 3643   1.922   4.434  15.224  0.6134  0.1861  0.0893
  240MPD1     H 3644   1.662   4.516  14.965  0.2505  0.4427 -0.2769
  240MPD1    H1 3645   1.802   4.267  15.281 -1.1262 -0.1990  0.1762
  240MPD1    H2 3646   2.019   4.614  15.162  0.3108  0.4010 -1.8153
  240MPD1    H3 3647   1.985   4.412  15.309  0.7104  0.1328  0.0030
  240MPD1     N 3648   1.596   4.307  15.091  0.0467  0.1699 -0.4815
  240MPD1    H5 3649   1.527   4.341  15.025 -2.2007  1.2785  2.4663
  240MPD1    N1 3650   1.856   4.680  14.957  0.0255  0.1698 -0.6846
  240MPD1    H6 3651   1.826   4.660  14.861  0.7835 -2.5277 -0.3579
  240MPD1    H7 3652   1.954   4.701  14.940  0.0212  2.3994  2.2009
  241MPD1     C 3653   0.980   3.452  15.361 -0.5687  0.5861  0.3219
  241MPD1    C1 3654   1.099   3.493  15.423  0.2307 -0.0987  0.5826
  241MPD1    C2 3655   1.164   3.601  15.367 -0.5386 -0.7681 -0.0456
  241MPD1    C3 3656   1.130   3.641  15.239 -0.4436  0.6136  0.3916
  241MPD1    C4 3657   1.015   3.593  15.182 -0.0818 -0.3403  0.4048
  241MPD1    C5 3658   0.945   3.498  15.246  0.2072  0.1997 -0.4453
  241MPD1     H 3659   1.243   3.644  15.427 -0.3258 -2.1292  0.6572
  241MPD1    H1 3660   0.987   3.637  15.087  0.1508 -2.9204 -0.8610
  241MPD1    H2 3661   0.916   3.380  15.412  0.7072  1.2549  2.8725
  241MPD1    H3 3662   0.856   3.454  15.203 -0.0159 -0.6310  0.8702
  241MPD1     N 3663   1.206   3.741  15.173 -0.4458  0.0323  0.2703
  241MPD1    H5 3664   1.159   3.774  15.090  0.6894 -2.5612 -1.3971
  241MPD1    N1 3665   1.120   3.478  15.559  0.2847 -0.6886  0.2673
  241MPD1    H6 3666   1.098   3.392  15.609  1.2288 -1.3683 -0.5014
  241MPD1    H7 3667   1.214   3.510  15.583  0.3464 -0.5267 -0.1926
  242MPD1     C 3668   1.522   3.165  16.150 -0.2475  0.2190 -0.4317
  242MPD1    C1 3669   1.586   3.047  16.144  0.9243  0.7320  0.8865
  242MPD1    C2 3670   1.638   3.006  16.024 -0.1307 -0.1843 -0.1854
  242MPD1    C3 3671   1.624   3.081  15.911 -0.1396 -0.0069 -0.0026
  242MPD1    C4 3672   1.554   3.201  15.920  0.2322 -0.1188 -0.2028
  242MPD1    C5 3673   1.499   3.246  16.040  0.1681 -0.0790 -0.1854
  242MPD1     H 3674   1.682   2.907  16.019  0.7351  0.2085 -0.2769
  242MPD1    H1 3675   1.527   3.251  15.828  2.0804 -0.3064 -0.8521
  242MPD1    H2 3676   1.467   3.195  16.238 -1.6510 -1.6562 -0.6407
  242MPD1    H3 3677   1.432   3.330  16.042 -0.0252 -0.2797  1.6076
  242MPD1     N 3678   1.672   3.033  15.789 -0.6662 -0.1399  0.3060
  242MPD1    H5 3679   1.653   3.088  15.705 -1.3291 -0.3028  0.3497
  242MPD1    N1 3680   1.611   2.966  16.256 -0.1715 -0.3071  0.5416
  242MPD1    H6 3681   1.618   2.868  16.227 -0.1416  0.2913 -1.4342
  242MPD1    H7 3682   1.531   2.965  16.319 -0.7657  1.5468 -0.2084
  243MPD1     C 3683   3.969   2.015   1.022 -0.6095  0.4494  0.5961
  243MPD1    C1 3684   3.945   2.059   0.894 -0.0942 -0.4082 -0.1817
  243MPD1    C2 3685   3.837   2.008   0.830 -0.3934 -0.2755  0.3647
  243MPD1    C3 3686   3.763   1.910   0.880 -0.4064  0.1087 -0.3719
  243MPD1    C4 3687   3.784   1.864   1.015 -1.3120  0.6475  1.2369
  243MPD1    C5 3688   3.881   1.921   1.084  0.5420 -0.1110 -0.0929
  243MPD1     H 3689   3.816   2.050   0.732 -2.5519 -0.2130  0.8440
  243MPD1    H1 3690   3.726   1.788   1.065  2.0034 -2.7526 -0.0545
  243MPD1    H2 3691   4.046   2.060   1.085  0.5861 -1.9672  0.8701
  243MPD1    H3 3692   3.899   1.902   1.189 -1.0524 -2.6619 -0.2783
  243MPD1     N 3693   3.657   1.849   0.803 -0.0222 -0.2028  0.0189
  243MPD1    H5 3694   3.651   1.877   0.705 -0.2984 -1.5844 -0.3661
  243MPD1    N1 3695   4.011   2.178   0.849  0.1654 -0.1537  0.4341
  243MPD1    H6 3696   4.105   2.183   0.886  0.6213  1.5025 -0.9807
  243MPD1    H7 3697   4.004   2.190   0.748 -1.8976 -0.4603  0.5434
  244MPD1     C 3698   2.730   1.256   0.611 -0.1857 -0.0011 -0.0900
  244MPD1    C1 3699   2.789   1.305   0.493 -0.2056  0.2912  1.0979
  244MPD1    C2 3700   2.908   1.375   0.500 -0.4181 -0.1909 -0.2544
  244MPD1    C3 3701   2.969   1.395   0.628 -0.2868 -0.6741 -1.1583
  244MPD1    C4 3702   2.909   1.342   0.738  0.2484 -0.3690 -0.1074
  244MPD1    C5 3703   2.788   1.276   0.727 -0.3521  0.6497 -0.0602
  244MPD1     H 3704   2.953   1.390   0.403 -1.6766 -0.5435 -0.8919
  244MPD1    H1 3705   2.948   1.354   0.838 -0.0372  2.0921 -0.2939
  244MPD1    H2 3706   2.635   1.203   0.608 -0.1408 -0.1017  0.2937
  244MPD1    H3 3707   2.734   1.247   0.817  0.8867  1.8795  1.0907
  244MPD1     N 3708   3.092   1.472   0.627 -0.2848  0.0418  0.2999
  244MPD1    H5 3709   3.125   1.501   0.535 -0.8042  0.2783  0.1846
  244MPD1    N1 3710   2.737   1.263   0.366  0.6219  0.5028 -0.6487
  244MPD1    H6 3711   2.752   1.340   0.302  0.4100  0.0782 -1.2078
  244MPD1    H7 3712   2.636   1.252   0.364  0.7060  0.0604 -2.6361
  245MPD1     C 3713   0.534   1.342  14.150 -0.9270  0.4587 -0.2138
  245MPD1    C1 3714   0.491   1.405  14.266  0.5675  0.0046 -0.4531
  245MPD1    C2 3715   0.460   1.537  14.264  0.1960  0.8709 -0.0816
  245MPD1    C3 3716   0.487   1.616  14.155  1.0491  0.7460 -0.1648
  245MPD1    C4 3717   0.521   1.554  14.035  0.3286 -0.0328  0.0959
  245MPD1    C5 3718   0.542   1.421  14.039  1.0186  0.3084  0.1853
  245MPD1     H 3719   0.447   1.588  14.359 -2.1815 -2.5306  1.3918
  245MPD1    H1 3720   0.521   1.605  13.939  1.4245 -2.0904 -0.9904
  245MPD1    H2 3721   0.550   1.235  14.155 -1.7916  0.3556  0.4263
  245MPD1    H3 3722   0.548   1.378  13.940 -0.3135 -0.0624  0.2615
  245MPD1     N 3723   0.475   1.756  14.170  0.3383 -0.2507  0.0496
  245MPD1    H5 3724   0.450   1.799  14.258 -0.9716 -1.1631  0.1317
  245MPD1    N1 3725   0.501   1.339  14.390  0.5614  0.6277 -0.1522
  245MPD1    H6 3726   0.439   1.385  14.456  1.4220 -0.3736  1.3650
  245MPD1    H7 3727   0.471   1.243  14.374  0.6139  0.6586 -0.4427
  246MPD1     C 3728   1.344   3.358  10.363 -0.6348 -1.2148 -0.4290
  246MPD1    C1 3729   1.268   3.461  10.322  0.0588  0.1376  0.5713
  246MPD1    C2 3730   1.263   3.485  10.184  0.0234 -0.2089  0.1340
  246MPD1    C3 3731   1.325   3.412  10.093  0.3659 -0.0144  0.1350
  246MPD1    C4 3732   1.403   3.301  10.133 -0.1601  0.1699  0.5379
  246MPD1    C5 3733   1.417   3.284  10.274 -0.4896 -0.1252  0.0183
  246MPD1     H 3734   1.207   3.571  10.150 -3.5412 -2.8538 -0.6930
  246MPD1    H1 3735   1.452   3.237  10.061 -1.8930  0.9218 -1.3135
  246MPD1    H2 3736   1.351   3.305  10.457  0.4969 -0.5933 -0.1703
  246MPD1    H3 3737   1.461   3.188  10.295 -0.3942 -0.3187 -1.0353
  246MPD1     N 3738   1.307   3.443   9.962  0.6358  0.1242 -0.1318
  246MPD1    H5 3739   1.260   3.531   9.947 -3.7092 -2.1442  0.0660
  246MPD1    N1 3740   1.188   3.528  10.414  0.4207 -0.0161 -0.6889
  246MPD1    H6 3741   1.185   3.628  10.397  0.1231  0.6413  3.2417
  246MPD1    H7 3742   1.218   3.516  10.511 -1.7909  2.3906  0.2809
  247MPD1     C 3743   4.144   2.203  16.940 -0.3413 -0.0426  0.6962
  247MPD1    C1 3744   4.130   2.117  17.042  0.3748 -0.4168  0.1956
  247MPD1    C2 3745   4.210   2.012  17.035  0.0414  0.0811  0.4953
  247MPD1    C3 3746   4.282   1.970  16.925  0.2774 -0.5878  0.7017
  247MPD1    C4 3747   4.281   2.044  16.812 -0.1858  0.2449  0.1093
  247MPD1    C5 3748   4.217   2.168  16.826 -0.2845 -0.6414 -0.5827
  247MPD1     H 3749   4.209   1.952  17.126  2.9257  2.0157  1.8291
  247MPD1    H1 3750   4.338   2.034  16.721 -1.4704  1.0692 -0.7871
  247MPD1    H2 3751   4.094   2.299  16.941 -0.5203 -0.1273  0.0302
  247MPD1    H3 3752   4.212   2.241  16.746  0.2450 -0.1353 -0.1601
  247MPD1     N 3753   4.366   1.855  16.930 -0.8626 -0.9799  0.9069
  247MPD1    H5 3754   4.406   1.828  16.841  1.2955  0.4186  1.4631
  247MPD1    N1 3755   4.063   2.150  17.157  0.1563 -0.1865 -0.1399
  247MPD1    H6 3756   3.977   2.200  17.138 -0.2817 -1.9924 -2.7949
  247MPD1    H7 3757   4.040   2.072  17.218 -0.0328 -0.5655 -0.6983
  248MPD1     C 3758   0.811   1.799  17.499 -0.2186  0.4167  0.0815
  248MPD1    C1 3759   0.694   1.864  17.534  0.2862 -0.3305  0.8193
  248MPD1    C2 3760   0.689   1.890  17.668  0.1086  0.5575 -0.6823
  248MPD1    C3 3761   0.774   1.838   0.075 -0.3684  0.1568 -0.1762
  248MPD1    C4 3762   0.881   1.763   0.032  0.3720 -0.2157  0.1108
  248MPD1    C5 3763   0.900   1.751  17.590  0.1480 -0.6657  0.7261
  248MPD1     H 3764   0.601   1.938   0.019 -0.0256 -1.1774  1.0266
  248MPD1    H1 3765   0.962   1.720   0.091 -0.0734 -0.2273  0.7130
  248MPD1    H2 3766   0.842   1.786  17.396  1.2661 -2.7103  0.9229
  248MPD1    H3 3767   0.986   1.697  17.551 -0.3649 -0.4319 -0.7192
  248MPD1     N 3768   0.744   1.871   0.207 -0.1964  0.1047 -0.2612
  248MPD1    H5 3769   0.655   1.919   0.217 -0.3710 -0.0583 -0.9893
  248MPD1    N1 3770   0.614   1.929  17.444 -0.1286  0.3398  0.3507
  248MPD1    H6 3771   0.521   1.936  17.484  0.3375 -0.5137  1.5948
  248MPD1    H7 3772   0.615   1.880  17.355 -1.3761  0.6774  0.1609
  249MPD1     C 3773   2.218   4.617  10.801 -0.5066 -0.6957 -0.0623
  249MPD1    C1 3774   2.216   0.009  10.879 -0.2769  0.5585 -0.2709
  249MPD1    C2 3775   2.243   0.130  10.816  0.1426 -0.2352 -0.0758
  249MPD1    C3 3776   2.287   0.147  10.683  0.7257 -0.9122 -0.1915
  249MPD1    C4 3777   2.299   0.024  10.615 -0.2316 -0.4170 -0.1876
  249MPD1    C5 3778   2.266   4.625  10.673 -0.1374 -0.3783  0.1360
  249MPD1     H 3779   2.242   0.224  10.870  0.4443 -1.3299  1.8383
  249MPD1    H1 3780   2.326   0.013  10.510  1.0945 -2.3224  0.3383
  249MPD1    H2 3781   2.190   4.519  10.837  1.5870 -1.4591 -0.5225
  249MPD1    H3 3782   2.258   4.539  10.609  1.0495 -1.4965  1.5080
  249MPD1     N 3783   2.318   0.277  10.626 -0.4696  0.1069 -0.3716
  249MPD1    H5 3784   2.303   0.361  10.680  0.3467 -0.8233  1.3179
  249MPD1    N1 3785   2.153   4.720  11.000 -0.0621 -0.6246  0.0985
  249MPD1    H6 3786   2.171   0.079  11.060 -0.2273 -0.0973 -0.5688
  249MPD1    H7 3787   2.145   4.630  11.047 -0.0692 -0.5999  0.1454
  250MPD2     C 3788   2.438   0.555  13.386 -0.2904 -0.0453  0.2335
  250MPD2    C1 3789   2.459   0.595  13.257 -0.0297 -0.2734  0.5109
  250MPD2    C2 3790   2.477   0.501  13.163  0.5156 -0.2184  0.3807
  250MPD2    C3 3791   2.474   0.362  13.197 -0.5018 -0.1424 -0.2509
  250MPD2    C4 3792   2.437   0.327  13.322 -0.3775 -0.1859 -0.2142
  250MPD2    C5 3793   2.423   0.424  13.419  0.4511  0.2171 -0.7643
  250MPD2     H 3794   2.508   0.534  13.064 -1.1660  0.6480  0.1317
  250MPD2    H1 3795   2.434   0.221  13.346  0.9708  0.2015  1.6860
  250MPD2    H2 3796   2.416   0.630  13.461  0.9264 -0.0951  0.6427
  250MPD2    H3 3797   2.404   0.408  13.524  2.0783  0.2514 -0.4704
  250MPD2     N 3798   2.491   0.261  13.097 -0.7696  0.0463  0.0092
  250MPD2    H5 3799   2.516   0.289  13.003 -0.3049  0.9675  0.4136
  250MPD2    N1 3800   2.468   0.732  13.218  0.1036  0.4633 -0.4449
  250MPD2    H7 3801   2.481   0.749  13.119 -2.1960  3.0439 -0.3056
  251TMC3    C1 3802   2.543   0.953  13.226 -0.4205  0.5485 -0.1607
  251TMC3    C2 3803   2.496   1.080  13.251  0.6054 -0.4402 -0.4819
  251TMC3    C3 3804   2.589   1.175  13.279  0.5577  0.1420 -0.9621
  251TMC3    C4 3805   2.680   0.936  13.201  0.6291 -0.0158 -0.7001
  251TMC3    C5 3806   2.766   1.038  13.239  0.3506  0.0420  0.4105
  251TMC3    C6 3807   2.720   1.159  13.274  0.1278  1.2309 -0.0557
  251TMC3     C 3808   2.474   0.848  13.296 -0.3212 -0.3258  0.3197
  251TMC3     O 3809   2.448   0.860  13.416 -0.5576  0.0062  0.4050
  251TMC3     H 3810   2.389   1.094  13.263  0.8824  1.4110 -0.0514
  251TMC3    H1 3811   2.719   0.840  13.168  1.1738  0.5677 -1.7294
  251TMC3    H2 3812   2.776   1.250  13.297  0.1281  1.8221 -2.4239
  251TMC3    C7 3813   2.913   1.022  13.250 -0.0107  0.0867 -0.6840
  251TMC3    C8 3814   2.552   1.240  13.403  0.1112  0.0297 -0.1298
  251TMC3    O1 3815   2.980   1.119  13.276 -0.3921  0.5005  0.2423
  251TMC3    O2 3816   2.643   1.241  13.483 -0.0685  0.2797 -0.3517
  252TMC3    C1 3817   3.538   1.179   9.435 -0.1888  0.0927 -0.2934
  252TMC3    C2 3818   3.658   1.123   9.473  0.8389  0.5334  0.4714
  252TMC3    C3 3819   3.667   0.993   9.511  0.2227 -0.3349  0.3265
  252TMC3    C4 3820   3.429   1.098   9.419 -0.0868  1.0816  0.0852
  252TMC3    C5 3821   3.446   0.967   9.440 -0.1755 -0.4504  0.1432
  252TMC3    C6 3822   3.563   0.913   9.492  0.4978  0.0595 -0.2492
  252TMC3     C 3823   3.512   1.321   9.436 -0.1279  0.0706 -0.0312
  252TMC3     O 3824   3.396   1.352   9.440 -0.5651  0.0806 -0.1591
  252TMC3     H 3825   3.750   1.180   9.468  1.4637 -0.2655  2.9206
  252TMC3    H1 3826   3.330   1.136   9.397 -0.7093  0.7280  2.2849
  252TMC3    H2 3827   3.575   0.805   9.494  2.8007  0.2759 -2.0805
  252TMC3    C7 3828   3.337   0.879   9.413 -0.5353 -0.8430  0.0930
  252TMC3    C8 3829   3.796   0.937   9.517 -0.6125 -0.3990  0.2698
  252TMC3    O1 3830   3.243   0.902   9.335 -0.1179  0.1396 -0.6220
  252TMC3    O2 3831   3.804   0.822   9.470 -0.2304 -0.0435 -0.2362
  253MPD2     C 3832   4.687   0.382  15.565  0.2852 -0.2058 -0.0354
  253MPD2    C1 3833   4.555   0.358  15.595  0.0842  0.7807 -0.1829
  253MPD2    C2 3834   4.524   0.263  15.692  0.7527 -0.3279 -0.0353
  253MPD2    C3 3835   4.626   0.206  15.772  0.1178 -0.4745  0.5393
  253MPD2    C4 3836   0.035   0.230  15.742 -0.6209 -0.3629 -0.7353
  253MPD2    C5 3837   0.057   0.325  15.644 -0.0768 -0.0172 -0.0908
  253MPD2     H 3838   4.424   0.238  15.724 -0.5379  0.3785 -3.5851
  253MPD2    H1 3839   0.121   0.185  15.791 -1.3882 -1.5787 -0.5039
  253MPD2    H2 3840   4.719   0.455  15.492 -0.8164 -0.2894 -0.6030
  253MPD2    H3 3841   0.161   0.349  15.626  0.5124 -2.5318  0.0254
  253MPD2     N 3842   4.601   0.131  15.889 -0.1281 -0.1074  0.3618
  253MPD2    H5 3843   4.673   0.130  15.961 -1.9320  0.1047  2.1592
  253MPD2    N1 3844   4.450   0.418  15.526 -0.8275 -1.0643 -0.1688
  253MPD2    H7 3845   4.356   0.391  15.554 -1.4966  0.5354 -0.8424
  254TMC3    C1 3846   4.443   0.061  16.040 -0.5380  0.2084 -0.1202
  254TMC3    C2 3847   4.327   0.118  16.072 -0.3765 -0.0646 -0.1958
  254TMC3    C3 3848   4.296   0.156  16.200 -0.2932  0.2053 -0.1567
  254TMC3    C4 3849   4.528   0.027  16.135  0.0560 -0.0721  0.4098
  254TMC3    C5 3850   4.489   0.036  16.265  0.3553 -0.0402  0.0923
  254TMC3    C6 3851   4.371   0.101  16.300  0.1289 -0.2009  0.2430
  254TMC3     C 3852   4.480   0.071  15.901  0.0760  0.1426  0.3181
  254TMC3     O 3853   4.389   0.051  15.822  0.5709  0.3251 -0.1070
  254TMC3     H 3854   4.272   0.160  15.988 -2.4154 -1.7417  0.3073
  254TMC3    H1 3855   4.618   4.690  16.119  1.9762  2.6415  1.1962
  254TMC3    H2 3856   4.341   0.131  16.400  0.6203 -0.8783  0.6004
  254TMC3    C7 3857   4.583   0.035  16.369  0.1487 -0.5011 -0.2470
  254TMC3    C8 3858   4.249   0.288  16.234  0.1703 -0.0251 -0.4146
  254TMC3    O1 3859   4.537   4.720  16.477 -0.7759 -0.5748  0.1765
  254TMC3    O2 3860   4.266   0.319  16.352  0.5669 -0.5891  0.0475
  255MPD2     C 3861   2.583   3.642  11.704 -0.2595 -0.3265 -0.4179
  255MPD2    C1 3862   2.527   3.570  11.597  0.2797  0.2250 -0.3321
  255MPD2    C2 3863   2.588   3.449  11.565  0.3493 -0.0865 -0.7668
  255MPD2    C3 3864   2.707   3.408  11.620 -0.2801  0.0449  0.2257
  255MPD2    C4 3865   2.760   3.483  11.722 -0.1785  0.6961  0.8586
  255MPD2    C5 3866   2.696   3.598  11.759  0.2666 -0.3148 -0.1578
  255MPD2     H 3867   2.542   3.388  11.488 -0.9372  0.8429 -0.7326
  255MPD2    H1 3868   2.853   3.451  11.767 -0.4855 -0.9434  0.3344
  255MPD2    H2 3869   2.541   3.735  11.739  0.3901  0.4669 -1.7509
  255MPD2    H3 3870   2.751   3.657  11.832  0.1631  3.1069 -2.8090
  255MPD2     N 3871   2.766   3.298  11.552 -0.0804 -0.7155 -0.2638
  255MPD2    H5 3872   2.729   3.265  11.464  3.6293 -1.4235 -1.5551
  255MPD2    N1 3873   2.431   3.639  11.513  0.7960 -0.3903  0.4191
  255MPD2    H7 3874   2.400   3.731  11.540 -1.2940 -0.1064 -2.7936
  256TMC3    C1 3875   2.297   3.655  11.315  0.4538  0.0006  0.0424
  256TMC3    C2 3876   2.351   3.782  11.289 -0.8594 -0.2197  0.0375
  256TMC3    C3 3877   2.331   3.840  11.167  0.5672  0.6028 -0.1522
  256TMC3    C4 3878   2.240   3.583  11.209  0.5120  0.3253 -0.2373
  256TMC3    C5 3879   2.220   3.650  11.095 -0.5231  0.4390 -0.2788
  256TMC3    C6 3880   2.263   3.775  11.075 -0.3325 -0.5150  0.2718
  256TMC3     C 3881   2.357   3.573  11.421 -0.2062 -0.4289  0.4211
  256TMC3     O 3882   2.352   3.451  11.402 -0.4068  0.5380  0.1255
  256TMC3     H 3883   2.417   3.829  11.360  2.6190 -1.2409 -2.5143
  256TMC3    H1 3884   2.229   3.475  11.218 -0.5504  0.6104  1.6813
  256TMC3    H2 3885   2.238   3.827  10.984  1.0043  0.1715  0.2969
  256TMC3    C7 3886   2.160   3.582  10.975  0.1763 -0.0224  0.3798
  256TMC3    C8 3887   2.407   3.954  11.121  0.0825 -0.8898 -0.3306
  256TMC3    O1 3888   2.192   3.625  10.862  0.7291 -0.3644  0.2358
  256TMC3    O2 3889   2.446   4.027  11.210 -0.1533  0.5074 -0.1734
  257MPD2     C 3890   1.814   0.973  13.548 -0.6058 -0.3843 -0.6605
  257MPD2    C1 3891   1.787   0.899  13.439 -0.0031 -0.0002  0.1831
  257MPD2    C2 3892   1.775   0.761  13.456  0.6042  0.5278 -0.0193
  257MPD2    C3 3893   1.792   0.694  13.569  0.0068 -0.0939  0.3250
  257MPD2    C4 3894   1.825   0.775  13.680 -0.5463  0.1688  0.8155
  257MPD2    C5 3895   1.830   0.912  13.666  0.0605 -0.3323  0.5434
  257MPD2     H 3896   1.748   0.705  13.367  0.8133 -0.7628  0.7350
  257MPD2    H1 3897   1.840   0.736  13.780  0.2160  2.1038  1.4591
  257MPD2    H2 3898   1.824   1.081  13.541 -0.2592 -0.2793  1.5205
  257MPD2    H3 3899   1.841   0.965  13.760 -1.1290 -1.8611  1.5520
  257MPD2     N 3900   1.790   0.552  13.576  0.4468  0.3455 -0.2196
  257MPD2    H5 3901   1.782   0.501  13.489 -3.5039 -0.2576  0.4800
  257MPD2    N1 3902   1.765   0.965  13.319  0.8012  0.3834 -0.1204
  257MPD2    H7 3903   1.780   1.066  13.327 -2.5575  0.7892  1.2432
  258TMC3    C1 3904   1.778   0.330  13.668  0.3433  0.1087 -0.1317
  258TMC3    C2 3905   1.743   0.282  13.540 -0.1399  0.2931 -0.2148
  258TMC3    C3 3906   1.738   0.145  13.526  0.2375 -0.1198  0.2458
  258TMC3    C4 3907   1.794   0.255  13.782  0.4043 -0.5499  0.2090
  258TMC3    C5 3908   1.772   0.120  13.751  0.2231 -0.1513  0.3302
  258TMC3    C6 3909   1.738   0.059  13.629 -0.1981  0.0348 -0.4220
  258TMC3     C 3910   1.812   0.473  13.687  0.1940 -0.1840  0.1277
  258TMC3     O 3911   1.842   0.508  13.798  0.1336  0.6406 -0.8190
  258TMC3     H 3912   1.710   0.336  13.452 -2.5016  0.4561  0.7740
  258TMC3    H1 3913   1.811   0.294  13.882  0.0524  0.0451  0.0373
  258TMC3    H2 3914   1.727   4.674  13.615 -0.8223 -0.1562  1.6162
  258TMC3    C7 3915   1.772   0.020  13.858 -0.2331 -0.4467  0.1282
  258TMC3    C8 3916   1.716   0.092  13.393 -0.2820  0.2819  0.5594
  258TMC3    O1 3917   1.692   4.648  13.841 -0.4793 -0.1108 -0.2461
  258TMC3    O2 3918   1.762   0.158  13.300 -0.1195 -0.3918  0.0986
  259MPD2     C 3919   1.420   1.822   0.720 -0.7128  0.3832 -0.0194
  259MPD2    C1 3920   1.482   1.860   0.839 -0.2316 -1.2086  0.0904
  259MPD2    C2 3921   1.603   1.802   0.871  0.1731  0.3028 -0.7285
  259MPD2    C3 3922   1.657   1.702   0.789 -0.5219 -0.2999 -0.0133
  259MPD2    C4 3923   1.593   1.679   0.672 -0.5460 -0.2226  0.1084
  259MPD2    C5 3924   1.483   1.743   0.630 -0.1426  0.0151  0.3534
  259MPD2     H 3925   1.647   1.817   0.969  1.8050 -0.5516 -1.3159
  259MPD2    H1 3926   1.631   1.607   0.600 -0.0881  2.6116 -2.5042
  259MPD2    H2 3927   1.330   1.874   0.691  0.2898  1.1471 -1.7560
  259MPD2    H3 3928   1.433   1.723   0.536 -1.3993  3.3431  0.3202
  259MPD2     N 3929   1.780   1.640   0.829 -0.1675  0.2039 -0.1086
  259MPD2    H5 3930   1.828   1.677   0.911 -0.2420 -0.3700  0.1910
  259MPD2    N1 3931   1.410   1.949   0.923  0.6195 -0.0562  0.2197
  259MPD2    H7 3932   1.319   1.985   0.895  0.5292 -0.0037  0.5763
  260TMC3    C1 3933   1.910   1.445   0.866 -0.3089 -0.9537  0.1499
  260TMC3    C2 3934   1.960   1.324   0.825 -0.1644  0.4833  0.2327
  260TMC3    C3 3935   2.011   1.234   0.910 -0.6144 -0.0623 -0.5501
  260TMC3    C4 3936   1.897   1.472   0.995  0.3639  0.1468 -0.5427
  260TMC3    C5 3937   1.919   1.363   1.081 -0.3575 -0.5615 -0.7267
  260TMC3    C6 3938   1.996   1.253   1.041  0.1199  0.1335 -1.1285
  260TMC3     C 3939   1.825   1.520   0.773  0.8230  0.0108 -0.2526
  260TMC3     O 3940   1.782   1.446   0.677 -0.2627 -0.1778 -0.5420
  260TMC3     H 3941   1.963   1.300   0.719 -1.0044  1.0901  0.0717
  260TMC3    H1 3942   1.845   1.556   1.039 -1.0358  0.0853 -2.0685
  260TMC3    H2 3943   2.018   1.170   1.107  1.4984  1.7877  0.4934
  260TMC3    C7 3944   1.902   1.379   1.226  0.0745 -0.4537  0.5871
  260TMC3    C8 3945   2.109   1.139   0.855 -0.3424  0.6204  0.1819
  260TMC3    O1 3946   2.002   1.343   1.286 -0.2469  1.0322  0.2602
  260TMC3    O2 3947   2.158   1.176   0.749  0.1735  0.0595 -0.5334
  261MPD2     C 3948   2.098   0.208  12.525 -0.4255 -0.3497 -0.7052
  261MPD2    C1 3949   2.202   0.266  12.591  0.2200 -0.2279  0.6181
  261MPD2    C2 3950   2.214   0.398  12.604 -0.3297  0.3575  0.2316
  261MPD2    C3 3951   2.145   0.480  12.517  1.1037 -0.0069  0.1733
  261MPD2    C4 3952   2.034   0.425  12.451 -0.3178 -0.2225 -0.0610
  261MPD2    C5 3953   2.008   0.293  12.464  0.8546  0.5918 -0.1118
  261MPD2     H 3954   2.293   0.440  12.665 -1.8874 -0.3965  2.7894
  261MPD2    H1 3955   1.960   0.480  12.393  1.0194 -0.4024 -1.9359
  261MPD2    H2 3956   2.081   0.101  12.532 -1.3109 -0.2668 -1.5132
  261MPD2    H3 3957   1.926   0.245  12.414  1.3184 -0.7086  0.3783
  261MPD2     N 3958   2.184   0.614  12.506  0.2631 -0.0018 -0.0964
  261MPD2    H5 3959   2.260   0.632  12.571 -1.1889 -1.0952  1.9013
  261MPD2    N1 3960   2.291   0.190  12.666  0.3249 -0.1170  0.4425
  261MPD2    H7 3961   2.361   0.233  12.725  0.0764  0.2524  0.4729
  262TMC3    C1 3962   2.198   0.844  12.468  0.0779 -0.0158 -0.2094
  262TMC3    C2 3963   2.165   0.951  12.387 -0.4715 -0.6332  0.5520
  262TMC3    C3 3964   2.217   1.071  12.412  0.0390  0.1621 -1.2254
  262TMC3    C4 3965   2.291   0.849  12.566 -0.4897  0.6273  0.3526
  262TMC3    C5 3966   2.347   0.975  12.588 -0.0210  1.1930  0.3496
  262TMC3    C6 3967   2.309   1.085  12.512 -0.2764  0.0743 -0.0205
  262TMC3     C 3968   2.146   0.713  12.418 -0.2510  0.1396  0.2923
  262TMC3     O 3969   2.081   0.712  12.313 -0.1701 -0.0897 -0.1509
  262TMC3     H 3970   2.083   0.950  12.316  0.4970  1.7357 -0.6019
  262TMC3    H1 3971   2.319   0.766  12.630  0.5185 -1.3889 -2.6875
  262TMC3    H2 3972   2.339   1.184  12.546  0.1615 -0.3005  0.6983
  262TMC3    C7 3973   2.493   0.980  12.603 -0.1919  0.4549 -0.8430
  262TMC3    C8 3974   2.257   1.153  12.303  0.5341 -0.3290 -0.2222
  262TMC3    O1 3975   2.545   0.933  12.701  0.6742 -0.0096  0.6205
  262TMC3    O2 3976   2.348   1.232  12.323 -0.0909  0.0455 -0.2488
  263MPD2     C 3977   3.428   4.542  11.384 -0.4362  0.0695  0.3436
  263MPD2    C1 3978   3.493   4.628  11.473  0.2748  0.3143 -0.2254
  263MPD2    C2 3979   3.579   0.007  11.420  0.4088 -0.5391  0.0898
  263MPD2    C3 3980   3.589   0.022  11.283  0.6799  0.6720 -0.6495
  263MPD2    C4 3981   3.522   4.663  11.203 -0.3446 -0.5159 -0.0887
  263MPD2    C5 3982   3.442   4.560  11.248 -0.4881 -0.2205 -0.5068
  263MPD2     H 3983   3.627   0.073  11.492 -1.5167  0.5571  0.3719
  263MPD2    H1 3984   3.521   4.660  11.095 -0.4218 -3.7504  0.0014
  263MPD2    H2 3985   3.378   4.449  11.410 -4.4981  1.6538 -1.8023
  263MPD2    H3 3986   3.386   4.495  11.183 -0.4924 -0.8658  0.1337
  263MPD2     N 3987   3.676   0.123  11.225 -0.1182 -0.0319 -0.7444
  263MPD2    H5 3988   3.719   0.189  11.289 -0.9476  0.2852 -0.5117
  263MPD2    N1 3989   3.493   4.599  11.608  0.0157  1.0133 -0.1346
  263MPD2    H7 3990   3.460   4.507  11.636  1.5644 -0.1910 -2.3197
  264TMC3    C1 3991   3.791   0.250  11.071 -0.3305 -0.1681  0.4244
  264TMC3    C2 3992   3.770   0.356  11.151  0.4442  0.2688 -0.2430
  264TMC3    C3 3993   3.856   0.460  11.138  0.2103 -0.0480  0.4325
  264TMC3    C4 3994   3.901   0.237  10.993  0.1526  0.0873  0.5294
  264TMC3    C5 3995   3.990   0.340  10.987  0.2293 -0.4883 -0.2360
  264TMC3    C6 3996   3.967   0.458  11.056 -0.3528 -0.0791  0.3901
  264TMC3     C 3997   3.713   0.127  11.097  0.0831 -0.0126  0.2763
  264TMC3     O 3998   3.716   0.035  11.016  0.4142  0.5911  0.6157
  264TMC3     H 3999   3.677   0.361  11.206  1.2142 -0.3395  1.1271
  264TMC3    H1 4000   3.927   0.141  10.950 -0.3051  0.2456 -0.0929
  264TMC3    H2 4001   4.024   0.549  11.041 -1.4871  0.5242 -0.2763
  264TMC3    C7 4002   4.122   0.307  10.949 -0.2614 -0.2963 -0.1206
  264TMC3    C8 4003   3.859   0.558  11.248  0.1203 -0.0068 -0.8596
  264TMC3    O1 4004   4.148   0.219  10.871 -0.5226 -0.5053 -0.2159
  264TMC3    O2 4005   3.976   0.602  11.260  0.4967  0.1474  0.1254
  265MPD2     C 4006   1.124   0.048  15.984  0.4876  0.9813 -0.0839
  265MPD2    C1 4007   1.128   0.173  15.928  0.1500  0.3235 -0.0626
  265MPD2    C2 4008   1.174   0.191  15.802 -0.5415  1.2980 -1.0701
  265MPD2    C3 4009   1.233   0.091  15.733 -0.2807 -0.1745  0.5904
  265MPD2    C4 4010   1.237   4.686  15.787  0.9250  0.2064 -0.0177
  265MPD2    C5 4011   1.179   4.666  15.915 -0.2759 -0.3860  0.8451
  265MPD2     H 4012   1.178   0.292  15.762  0.1443  0.9486 -1.8837
  265MPD2    H1 4013   1.276   4.604  15.727 -0.6163 -0.3244 -0.3213
  265MPD2    H2 4014   1.078   0.028  16.080  1.5371 -2.4441 -0.2807
  265MPD2    H3 4015   1.171   4.570  15.965 -2.5649 -0.3270  0.6002
  265MPD2     N 4016   1.310   0.103  15.617 -0.1099 -0.2690  0.4784
  265MPD2    H5 4017   1.366   0.022  15.590 -0.5866 -1.4882  3.1143
  265MPD2    N1 4018   1.074   0.288  15.990  0.1483  0.4333  0.2848
  265MPD2    H7 4019   1.062   0.370  15.931 -1.7813  0.1802  0.3309
  266TMC3    C1 4020   0.995   0.427  16.168  0.0616 -0.5028 -0.0388
  266TMC3    C2 4021   1.009   0.463  16.300 -0.2377  0.0288  0.4034
  266TMC3    C3 4022   0.974   0.588  16.346 -0.8825 -0.3745  0.3213
  266TMC3    C4 4023   0.933   0.513  16.083 -0.1347 -0.7692 -0.2617
  266TMC3    C5 4024   0.891   0.638  16.139 -0.5982  0.2792  0.1792
  266TMC3    C6 4025   0.913   0.676  16.264 -0.1405 -0.1830 -0.5052
  266TMC3     C 4026   1.040   0.295  16.125  0.0970  0.3311 -0.0231
  266TMC3     O 4027   1.053   0.207  16.211 -0.1513  0.3763 -0.2001
  266TMC3     H 4028   1.048   0.390  16.371  0.8689 -0.2419 -0.4858
  266TMC3    H1 4029   0.917   0.484  15.980  1.8052 -2.2712 -0.1345
  266TMC3    H2 4030   0.885   0.773  16.303  0.0351 -0.0324 -0.7498
  266TMC3    C7 4031   0.785   0.705  16.065 -0.7208 -0.1226  0.2577
  266TMC3    C8 4032   1.093   0.641  16.409 -0.8434 -0.4318 -0.0032
  266TMC3    O1 4033   0.694   0.642  16.005 -0.0594  0.1886  0.5924
  266TMC3    O2 4034   1.195   0.572  16.400 -0.3661 -0.4449 -0.4342
  267MPD2     C 4035   4.180   1.713   0.324  0.4992 -0.0631  0.3670
  267MPD2    C1 4036   4.174   1.809   0.231 -0.2267  0.2453 -0.4529
  267MPD2    C2 4037   4.053   1.814   0.159  0.3594  0.8647 -0.8085
  267MPD2    C3 4038   3.948   1.725   0.184  0.4507  0.2680 -0.3467
  267MPD2    C4 4039   3.957   1.628   0.280 -0.1939  1.0704 -0.5846
  267MPD2    C5 4040   4.070   1.636   0.359  0.4217  0.9821  0.5295
  267MPD2     H 4041   4.044   1.897   0.089 -2.7838  0.0562 -1.3854
  267MPD2    H1 4042   3.876   1.565   0.316 -0.7847  0.3028 -3.1973
  267MPD2    H2 4043   4.269   1.705   0.387  1.5009  2.4598 -0.7503
  267MPD2    H3 4044   4.060   1.577   0.450  0.0675  0.6815  0.2954
  267MPD2     N 4045   3.817   1.745   0.128  0.1002  0.7389 -0.3222
  267MPD2    H5 4046   3.741   1.687   0.162  0.0542  1.1508  0.2799
  267MPD2    N1 4047   4.280   1.907   0.229 -0.0546  0.1219  0.1121
  267MPD2    H7 4048   4.353   1.896   0.298  1.0389 -2.3600 -1.4464
  268TMC3    C1 4049   4.395   2.109   0.190 -0.2689  1.0586 -0.2620
  268TMC3    C2 4050   4.381   2.228   0.128 -0.0302  0.6069 -0.3127
  268TMC3    C3 4051   4.397   2.349   0.204 -0.3023  0.8510  0.1252
  268TMC3    C4 4052   4.444   2.100   0.317 -0.2811  0.5249  0.1861
  268TMC3    C5 4053   4.464   2.211   0.387  0.8526 -0.5731 -0.6725
  268TMC3    C6 4054   4.429   2.333   0.337  0.1885  0.7321  0.1680
  268TMC3     C 4055   4.287   2.017   0.151  0.2644  0.3202 -0.8334
  268TMC3     O 4056   4.204   2.054   0.066  0.3135  0.1381 -0.1328
  268TMC3     H 4057   4.361   2.234   0.022 -0.7365 -0.4209 -0.2318
  268TMC3    H1 4058   4.482   2.002   0.346  2.3475  0.2972 -4.0495
  268TMC3    H2 4059   4.450   2.426   0.389  1.1145 -0.5365  2.0225
  268TMC3    C7 4060   4.487   2.182   0.531  0.2854  0.4467  0.8621
  268TMC3    C8 4061   4.345   2.478   0.161 -0.1995  0.1311 -0.5060
  268TMC3    O1 4062   4.537   2.076   0.563  0.4194 -0.2793  0.5095
  268TMC3    O2 4063   4.369   2.582   0.227  0.4804  0.3332  0.2858
  269MPD2     C 4064   3.624   0.840  15.644  0.1926 -0.4362 -0.2767
  269MPD2    C1 4065   3.512   0.890  15.706 -0.2724  0.0311 -0.2156
  269MPD2    C2 4066   3.494   1.032  15.706  0.3229  0.0810  0.5748
  269MPD2    C3 4067   3.577   1.112  15.624 -0.3662  0.1891  0.0257
  269MPD2    C4 4068   3.677   1.051  15.543 -0.3429  0.6584  1.0954
  269MPD2    C5 4069   3.705   0.919  15.564  0.1642 -0.2322 -0.4157
  269MPD2     H 4070   3.403   1.078  15.744  2.4585  3.0109  2.0727
  269MPD2    H1 4071   3.737   1.108  15.473 -0.7929  0.2107  0.3512
  269MPD2    H2 4072   3.650   0.736  15.663 -2.4567 -1.1137 -0.3675
  269MPD2    H3 4073   3.787   0.874  15.509 -0.6497 -1.3438 -0.7118
  269MPD2     N 4074   3.542   1.248  15.607  0.3894  0.5763 -0.2044
  269MPD2    H5 4075   3.471   1.285  15.670  1.5407  2.2874  0.0862
  269MPD2    N1 4076   3.430   0.799  15.782 -0.1519  0.5844 -1.0708
  269MPD2    H7 4077   3.459   0.703  15.797 -0.2206  0.3293 -2.5384
  270TMC3    C1 4078   3.236   0.722  15.876  0.0385  0.3298  0.0504
  270TMC3    C2 4079   3.098   0.709  15.861  0.6161  0.0699 -0.5251
  270TMC3    C3 4080   3.043   0.587  15.895  0.2471 -0.3131  0.4397
  270TMC3    C4 4081   3.306   0.633  15.956  0.4620  0.2371 -0.4205
  270TMC3    C5 4082   3.243   0.518  16.001  0.7122 -0.2261 -0.1117
  270TMC3    C6 4083   3.118   0.487  15.952 -0.0600 -0.4766  0.2379
  270TMC3     C 4084   3.303   0.829  15.808 -0.1164  0.2018  0.2014
  270TMC3     O 4085   3.238   0.917  15.754  0.0930 -0.1027  0.2792
  270TMC3     H 4086   3.044   0.775  15.794  0.7630  0.3295 -0.3885
  270TMC3    H1 4087   3.402   0.660  15.999  0.4967 -0.8894  0.2146
  270TMC3    H2 4088   3.064   0.394  15.968  2.0053 -1.5195  1.1609
  270TMC3    C7 4089   3.338   0.411  16.000  0.1092  0.0181 -0.8309
  270TMC3    C8 4090   2.940   0.540  15.802 -0.2194 -0.6028 -0.2267
  270TMC3    O1 4091   3.453   0.448  16.007  0.2478  0.4139 -0.3477
  270TMC3    O2 4092   2.856   0.626  15.783  0.1817  0.1583 -0.5059
  271MPD2     C 4093   2.492   0.687  14.156  0.1674  0.7362  0.1294
  271MPD2    C1 4094   2.450   0.689  14.289 -0.5171  0.1747 -0.3113
  271MPD2    C2 4095   2.371   0.785  14.349  0.2702 -0.3288 -0.0267
  271MPD2    C3 4096   2.331   0.893  14.272 -0.3173  0.0058 -0.7190
  271MPD2    C4 4097   2.375   0.896  14.139  0.0935 -0.5448  0.1383
  271MPD2    C5 4098   2.451   0.796  14.084  0.3847  0.0359 -0.3883
  271MPD2     H 4099   2.352   0.778  14.455  1.9975  0.2833  0.3276
  271MPD2    H1 4100   2.353   0.982  14.077 -1.0764 -0.3120  0.8851
  271MPD2    H2 4101   2.542   0.602  14.112 -0.9174  0.7955 -1.2184
  271MPD2    H3 4102   2.483   0.809  13.981 -0.1861 -3.3952 -1.0083
  271MPD2     N 4103   2.226   0.979  14.315  0.2156 -0.2284 -0.0631
  271MPD2    H5 4104   2.198   1.055  14.255 -0.2272 -0.9723 -0.8046
  271MPD2    N1 4105   2.477   0.584  14.375  0.2913 -0.6931 -0.2102
  271MPD2    H7 4106   2.417   0.573  14.456  1.9225 -1.5214  0.8841
  272TMC3    C1 4107   2.590   0.385  14.453  0.3468 -0.9329  0.0347
  272TMC3    C2 4108   2.701   0.308  14.431 -0.3314 -0.0333  0.3568
  272TMC3    C3 4109   2.753   0.238  14.534 -0.2687 -0.5974 -0.4252
  272TMC3    C4 4110   2.530   0.398  14.577  0.4716 -0.1987 -0.7091
  272TMC3    C5 4111   2.583   0.323  14.678 -0.0474  0.0869 -0.0510
  272TMC3    C6 4112   2.697   0.245  14.661  0.1112 -0.2608  0.1201
  272TMC3     C 4113   2.569   0.491  14.352 -0.3672 -0.5311  1.0542
  272TMC3     O 4114   2.653   0.486  14.262  0.3515  0.6666  0.0404
  272TMC3     H 4115   2.735   0.288  14.330 -5.0675 -1.0018 -1.0162
  272TMC3    H1 4116   2.456   0.473  14.604  2.2896  0.8951  1.2479
  272TMC3    H2 4117   2.727   0.178  14.741  2.9516 -0.5901 -1.2025
  272TMC3    C7 4118   2.538   0.358  14.808  0.3546  0.4575 -0.0302
  272TMC3    C8 4119   2.895   0.201  14.523  0.0720 -0.4400  0.4190
  272TMC3    O1 4120   2.425   0.411  14.812 -0.3533  0.2061 -0.2224
  272TMC3    O2 4121   2.957   0.247  14.429 -0.4926  0.0716 -0.0272
  273MPD2     C 4122   3.991   3.272  12.251  0.2036 -0.7914  0.0481
  273MPD2    C1 4123   4.111   3.345  12.244  0.2555 -0.0291 -0.5963
  273MPD2    C2 4124   4.135   3.420  12.126  0.0186 -0.2568  0.4830
  273MPD2    C3 4125   4.040   3.428  12.029  0.3779 -0.6327 -0.4429
  273MPD2    C4 4126   3.921   3.353  12.040 -0.2360 -0.2658  0.1247
  273MPD2    C5 4127   3.898   3.281  12.150 -0.1694 -0.0987 -0.0196
  273MPD2     H 4128   4.228   3.469  12.104  0.9887 -1.6000  1.5970
  273MPD2    H1 4129   3.842   3.361  11.966 -0.8010  0.8215  0.8469
  273MPD2    H2 4130   3.964   3.206  12.332 -0.6316  0.5451  0.8521
  273MPD2    H3 4131   3.799   3.238  12.157  0.4046 -1.4405  0.0475
  273MPD2     N 4132   4.054   3.492  11.904 -0.5355  0.1541  0.3089
  273MPD2    H5 4133   3.978   3.479  11.838 -0.1280  1.3335 -0.3900
  273MPD2    N1 4134   4.199   3.349  12.356 -0.3564  0.3379 -0.2704
  273MPD2    H7 4135   4.171   3.308  12.444  0.0571  3.5843  1.3735
  274TMC3    C1 4136   4.140   3.656  11.754  0.7804 -0.3388  0.2357
  274TMC3    C2 4137   4.086   3.590  11.642 -0.1442 -0.0464  0.5752
  274TMC3    C3 4138   4.082   3.659  11.524  0.0776 -1.1972  0.2711
  274TMC3    C4 4139   4.183   3.785  11.747  0.4502  0.2772  0.1024
  274TMC3    C5 4140   4.159   3.859  11.633  0.9081  0.4007  0.4374
  274TMC3    C6 4141   4.113   3.794  11.519 -0.2664 -0.2440 -0.6455
  274TMC3     C 4142   4.146   3.592  11.882  0.2817 -0.3465 -0.1960
  274TMC3     O 4143   4.236   3.629  11.956  0.1303  0.0646 -0.0784
  274TMC3     H 4144   4.069   3.483  11.640  1.9772 -0.3262 -2.4006
  274TMC3    H1 4145   4.232   3.834  11.831  0.9984 -0.1857  0.0587
  274TMC3    H2 4146   4.085   3.841  11.425 -2.9734  1.5604  1.0688
  274TMC3    C7 4147   4.122   3.993  11.650 -0.0454  0.4266 -0.5546
  274TMC3    C8 4148   4.018   3.585  11.417 -0.2728 -0.2313 -0.1182
  274TMC3    O1 4149   4.011   4.017  11.601  0.0069  0.3226  0.0727
  274TMC3    O2 4150   3.950   3.488  11.457  0.3821  0.0627 -0.1703
  275MPD2     C 4151   4.127   1.408  14.775  0.3323  0.2399 -0.4456
  275MPD2    C1 4152   4.023   1.412  14.865  0.1552 -0.6614  0.7225
  275MPD2    C2 4153   3.917   1.329  14.853  0.0585 -0.6160  0.0004
  275MPD2    C3 4154   3.910   1.248  14.741  0.1815  0.5103 -0.0300
  275MPD2    C4 4155   4.017   1.228  14.657 -0.6105  0.1003 -0.1423
  275MPD2    C5 4156   4.130   1.308  14.683  0.4093 -0.6535  0.2596
  275MPD2     H 4157   3.834   1.349  14.920 -1.0103 -0.6595 -1.3012
  275MPD2    H1 4158   4.023   1.159  14.574  1.3793 -0.0787  0.1408
  275MPD2    H2 4159   4.205   1.483  14.775 -0.4221  1.0364  2.6415
  275MPD2    H3 4160   4.210   1.303  14.610  0.1155  1.9379 -0.2486
  275MPD2     N 4161   3.806   1.166  14.706 -0.3691 -1.0119 -0.1332
  275MPD2    H5 4162   3.823   1.113  14.621  0.4380 -0.0579 -0.5704
  275MPD2    N1 4163   4.040   1.492  14.979 -0.0557  0.4906  0.1089
  275MPD2    H7 4164   3.968   1.491  15.051  0.3341  0.4399  0.5037
  276TMC3    C1 4165   4.129   1.618  15.152 -0.0640  0.3196 -0.4095
  276TMC3    C2 4166   4.031   1.560  15.229 -0.0671 -0.1586 -1.1528
  276TMC3    C3 4167   4.032   1.593  15.363  0.1374 -0.0506  0.6327
  276TMC3    C4 4168   4.230   1.699  15.204 -0.1596  0.3052 -0.5992
  276TMC3    C5 4169   4.223   1.726  15.335  0.6915 -0.6422 -0.3284
  276TMC3    C6 4170   4.125   1.678  15.415  0.2503  0.1664 -0.9518
  276TMC3     C 4171   4.145   1.564  15.020  0.3871 -0.1922  0.2907
  276TMC3     O 4172   4.252   1.588  14.968  0.0088 -0.1718 -0.0920
  276TMC3     H 4173   3.966   1.481  15.195  0.6612 -1.0093 -0.5723
  276TMC3    H1 4174   4.324   1.723  15.156  0.2444  2.8630  1.4448
  276TMC3    H2 4175   4.140   1.675  15.522 -0.1773 -1.9452 -0.9486
  276TMC3    C7 4176   4.349   1.750  15.390 -0.1296 -0.4545 -0.2987
  276TMC3    C8 4177   3.970   1.496  15.453 -0.6660 -0.0914  0.0610
  276TMC3    O1 4178   4.378   1.671  15.477  0.6110 -0.0853  0.4451
  276TMC3    O2 4179   3.919   1.543  15.553 -0.9576  0.8252 -0.1849
  277MPD2     C 4180   1.368   1.025  13.859  0.0890 -0.0060  0.3157
  277MPD2    C1 4181   1.290   0.947  13.772  0.1004  0.1154  0.1429
  277MPD2    C2 4182   1.173   0.890  13.804 -0.1939  0.0509 -0.8574
  277MPD2    C3 4183   1.130   0.893  13.938  0.9805  0.2313 -0.2576
  277MPD2    C4 4184   1.203   0.966  14.029  0.1092  0.5599 -0.0869
  277MPD2    C5 4185   1.324   1.014  13.989 -0.1588  0.3282 -0.7325
  277MPD2     H 4186   1.113   0.842  13.728 -0.6992  0.0877 -0.4782
  277MPD2    H1 4187   1.163   0.981  14.128  1.6312 -0.9475  0.7601
  277MPD2    H2 4188   1.454   1.081  13.823 -0.5030 -0.6997 -2.1987
  277MPD2    H3 4189   1.379   1.060  14.071 -1.2576  1.1322 -0.4472
  277MPD2     N 4190   1.007   0.825  13.970  0.7970 -0.5178 -0.2619
  277MPD2    H5 4191   0.947   0.786  13.897  0.0522  2.3290 -1.1842
  277MPD2    N1 4192   1.329   0.942  13.634 -0.2271 -0.0847 -0.2281
  277MPD2    H7 4193   1.284   0.871  13.577  2.4290 -2.4710  0.6717
  278TMC3    C1 4194   0.877   0.681  14.102 -0.1821 -0.5764 -0.0080
  278TMC3    C2 4195   0.872   0.593  14.204  0.2924 -0.3379  0.6186
  278TMC3    C3 4196   0.779   0.492  14.208  0.0965  0.2330  0.4356
  278TMC3    C4 4197   0.764   0.693  14.025 -0.0424  0.0851 -0.1914
  278TMC3    C5 4198   0.657   0.613  14.049 -0.1061 -0.0880  0.7733
  278TMC3    C6 4199   0.664   0.503  14.134 -0.0905  0.3583  0.9023
  278TMC3     C 4200   0.977   0.783  14.100  0.5704  0.0943  0.3767
  278TMC3     O 4201   1.043   0.789  14.202  0.6018 -0.0310 -0.3562
  278TMC3     H 4202   0.949   0.589  14.280  0.7387 -0.3187  0.1627
  278TMC3    H1 4203   0.754   0.776  13.956  1.0898 -0.8009 -1.4278
  278TMC3    H2 4204   0.593   0.423  14.150 -0.6578  1.0463  1.8051
  278TMC3    C7 4205   0.541   0.611  13.957  0.2241  0.5453 -0.3378
  278TMC3    C8 4206   0.797   0.380  14.296 -0.4827 -0.5934 -0.1643
  278TMC3    O1 4207   0.569   0.649  13.843  0.0057 -0.4731  0.5563
  278TMC3    O2 4208   0.822   0.399  14.418 -0.1777  0.6393  0.5914
  279MPD2     C 4209   0.602   0.189   0.578  0.8055 -0.6103  0.1253
  279MPD2    C1 4210   0.575   0.327   0.589  0.1553 -0.1643 -0.3108
  279MPD2    C2 4211   0.610   0.412   0.486  0.1529  0.2900 -0.3725
  279MPD2    C3 4212   0.675   0.367   0.378 -0.9215  0.1458 -0.2477
  279MPD2    C4 4213   0.708   0.233   0.377  0.2810  0.0645 -0.0107
  279MPD2    C5 4214   0.680   0.139   0.478  0.1241  0.0954 -0.3660
  279MPD2     H 4215   0.578   0.516   0.489 -0.1638  0.1999 -0.6549
  279MPD2    H1 4216   0.770   0.200   0.294  0.1964 -3.0538  1.1454
  279MPD2    H2 4217   0.581   0.113   0.652  2.4379 -0.2298  0.9908
  279MPD2    H3 4218   0.698   0.033   0.468  0.6015 -0.0199  1.6067
  279MPD2     N 4219   0.709   0.444   0.261  0.3300  0.4101  0.4588
  279MPD2    H5 4220   0.749   0.392   0.184 -0.3299  0.2533  0.2196
  279MPD2    N1 4221   0.497   0.359   0.701  0.4721 -0.3487 -0.6792
  279MPD2    H7 4222   0.473   0.283   0.764 -3.0375  1.7858  0.5517
  280TMC3    C1 4223   0.319   0.476   0.805 -0.1461  0.0018 -0.0284
  280TMC3    C2 4224   0.246   0.361   0.796 -0.6459 -0.0949 -0.4376
  280TMC3    C3 4225   0.117   0.365   0.846  0.0573 -0.6627 -0.7296
  280TMC3    C4 4226   0.278   0.592   0.868 -0.0566 -0.5871  0.2276
  280TMC3    C5 4227   0.148   0.589   0.904 -0.2048  0.0471  0.5638
  280TMC3    C6 4228   0.056   0.485   0.886  0.6114  0.3782  0.3965
  280TMC3     C 4229   0.435   0.486   0.724  0.3194  0.0085  0.3530
  280TMC3     O 4230   0.459   0.595   0.674 -0.7928 -0.1689  0.1054
  280TMC3     H 4231   0.288   0.271   0.752 -1.2385 -0.1908 -0.8120
  280TMC3    H1 4232   0.348   0.674   0.870  2.3668 -2.5855 -1.5837
  280TMC3    H2 4233   4.673   0.489   0.913  0.1336 -1.4580 -1.2132
  280TMC3    C7 4234   0.107   0.718   0.953 -0.1442  1.0599  0.3195
  280TMC3    C8 4235   0.024   0.253   0.799 -0.7774  0.3682  0.2181
  280TMC3    O1 4236   0.191   0.771   1.024  0.5739 -0.3770 -0.4456
  280TMC3    O2 4237   4.630   0.288   0.790 -0.1298  0.2134 -0.2518
  281TMC3    C1 4238   3.482   1.119  13.824  0.1341 -0.3586  0.7700
  281TMC3    C2 4239   3.491   1.104  13.686  0.8628  0.1795  0.1987
  281TMC3    C3 4240   3.443   0.992  13.633  0.4724 -0.0791  0.8009
  281TMC3    C4 4241   3.441   1.016  13.902  0.8413  0.6191  0.0856
  281TMC3    C5 4242   3.407   0.902  13.839  0.0772  0.0018  0.8250
  281TMC3    C6 4243   3.410   0.876  13.707 -0.1090  0.7766  0.3327
  281TMC3     C 4244   3.457   1.248  13.872  0.0491 -0.3340  0.2360
  281TMC3     O 4245   3.503   1.271  13.987  0.0463 -0.3470  0.2395
  281TMC3     H 4246   3.504   1.192  13.624 -0.3249 -0.7748 -1.4132
  281TMC3    H1 4247   3.401   1.020  14.002 -1.0209 -0.2983 -0.6332
  281TMC3    H2 4248   3.372   0.783  13.666 -1.2333  0.6129  1.7398
  281TMC3    C7 4249   3.302   0.833  13.902 -0.3782 -0.0482 -0.0282
  281TMC3    C8 4250   3.400   1.003  13.502 -0.4785 -0.1663  0.0253
  281TMC3    O1 4251   3.201   0.899  13.910 -0.3112  0.5901  0.4797
  281TMC3    O2 4252   3.364   1.108  13.456 -0.1098  0.8421 -0.3580
  282MPD2     C 4253   0.657   2.078  15.334  0.7426  0.0857 -0.4427
  282MPD2    C1 4254   0.628   2.196  15.393 -0.2715 -0.3060 -0.2390
  282MPD2    C2 4255   0.555   2.292  15.325 -0.2039  0.2290  0.2949
  282MPD2    C3 4256   0.516   2.271  15.192  0.5547 -0.3250  0.1585
  282MPD2    C4 4257   0.546   2.147  15.132  0.0793 -0.5896 -0.2641
  282MPD2    C5 4258   0.610   2.053  15.209  0.0753 -0.6156 -0.1443
  282MPD2     H 4259   0.528   2.386  15.372 -0.3560 -0.0333  0.7293
  282MPD2    H1 4260   0.517   2.106  15.035  0.0784 -0.4351 -0.3281
  282MPD2    H2 4261   0.716   1.999  15.380  0.5250  0.2746  0.1624
  282MPD2    H3 4262   0.629   1.960  15.157 -0.4293  0.2375 -1.8583
  282MPD2     N 4263   0.435   2.369  15.124 -0.1836 -0.5001  0.9124
  282MPD2    H5 4264   0.449   2.462  15.161  2.8234 -0.7501  0.3827
  282MPD2    N1 4265   0.668   2.216  15.528 -0.7990 -0.1508 -0.2883
  282MPD2    H7 4266   0.650   2.306  15.571 -1.2386 -0.6222  0.5048
  283TMC3    C1 4267   0.721   2.167  15.751 -0.0774  0.5136  0.2933
  283TMC3    C2 4268   0.748   2.302  15.783 -0.0947 -0.2786 -0.0766
  283TMC3    C3 4269   0.754   2.342  15.915  0.3911 -0.0029 -0.5811
  283TMC3    C4 4270   0.702   2.077  15.854 -0.1538  0.1180  0.0503
  283TMC3    C5 4271   0.713   2.124  15.984  0.2375  0.2702 -0.7768
  283TMC3    C6 4272   0.730   2.255  16.020 -0.5094 -0.3543  0.2712
  283TMC3     C 4273   0.694   2.115  15.616 -0.0001 -0.3537 -0.1343
  283TMC3     O 4274   0.703   1.996  15.597 -0.2100 -0.1895  0.4593
  283TMC3     H 4275   0.750   2.378  15.706  0.0384  1.2163  1.4060
  283TMC3    H1 4276   0.677   1.974  15.831 -1.7615  0.1016  1.9468
  283TMC3    H2 4277   0.741   2.292  16.121 -0.7906  0.7177 -0.0890
  283TMC3    C7 4278   0.692   2.028  16.093 -0.1954 -0.5248  0.4694
  283TMC3    C8 4279   0.770   2.484  15.945 -0.5115  0.3723  0.9260
  283TMC3    O1 4280   0.657   2.076  16.197  0.0542 -0.1403  0.3852
  283TMC3    O2 4281   0.715   2.529  16.045 -0.5380  0.1920  0.0958
  284MPD2     C 4282   3.737   1.723  11.725 -0.2334  0.5171  0.2415
  284MPD2    C1 4283   3.798   1.828  11.798  0.0831 -0.3141  0.1818
  284MPD2    C2 4284   3.861   1.790  11.920  0.2515  0.3341 -0.6707
  284MPD2    C3 4285   3.859   1.663  11.969 -0.4203 -0.0124 -0.1311
  284MPD2    C4 4286   3.792   1.563  11.896  0.3921  0.1310 -0.3134
  284MPD2    C5 4287   3.727   1.599  11.777  0.2290  0.2399 -0.4382
  284MPD2     H 4288   3.898   1.875  11.976 -0.3166  2.1619 -3.0302
  284MPD2    H1 4289   3.781   1.460  11.929 -2.5170 -0.4748 -3.1625
  284MPD2    H2 4290   3.704   1.728  11.622  0.1305 -0.9412  0.0477
  284MPD2    H3 4291   3.678   1.521  11.720  0.0648  0.3947 -0.5088
  284MPD2     N 4292   3.905   1.634  12.096 -0.3485  0.4002  0.5587
  284MPD2    H5 4293   3.967   1.700  12.141  2.2988 -1.2914 -0.5586
  284MPD2    N1 4294   3.796   1.957  11.738 -0.0486  0.5972  0.4004
  284MPD2    H7 4295   3.728   1.957  11.663 -1.7332  1.0559  1.9430
  285TMC3    C1 4296   3.854   2.178  11.692  0.1209  0.5263  0.0754
  285TMC3    C2 4297   3.862   2.127  11.559  0.7799  0.5073  0.3477
  285TMC3    C3 4298   3.981   2.127  11.494  0.2745 -1.2023  0.5750
  285TMC3    C4 4299   3.948   2.272  11.723  0.0006 -0.0775  0.4294
  285TMC3    C5 4300   4.063   2.276  11.653  0.1553 -0.1249 -0.2778
  285TMC3    C6 4301   4.083   2.194  11.553  0.6752 -0.0859 -0.0225
  285TMC3     C 4302   3.859   2.071  11.783 -0.6795  0.4807  0.1844
  285TMC3     O 4303   3.923   2.091  11.883  0.1852  0.5636  0.1893
  285TMC3     H 4304   3.781   2.080  11.505  0.3148  0.1786  1.3197
  285TMC3    H1 4305   3.921   2.320  11.817 -0.8981 -0.7813  0.5259
  285TMC3    H2 4306   4.182   2.185  11.510 -0.1646 -0.2056 -1.9057
  285TMC3    C7 4307   4.158   2.375  11.684 -0.4741  0.3224 -0.3363
  285TMC3    C8 4308   4.007   2.001  11.427 -0.4152 -0.0753  0.5358
  285TMC3    O1 4309   4.255   2.384  11.613 -0.4145 -0.1272 -0.1692
  285TMC3    O2 4310   3.922   1.910  11.427  0.1202 -0.7679 -0.1212
  286MPD2     C 4311   3.268   0.175   1.771  0.6936  0.3768 -0.6819
  286MPD2    C1 4312   3.309   0.217   1.647  0.0055 -0.0305  0.2167
  286MPD2    C2 4313   3.421   0.160   1.599  0.0707  0.4133  0.2174
  286MPD2    C3 4314   3.497   0.060   1.663  0.1986  0.3488 -0.7711
  286MPD2    C4 4315   3.433   4.721   1.775 -0.7004  0.5811 -0.7282
  286MPD2    C5 4316   3.321   0.063   1.834  0.5325  0.1807 -0.0031
  286MPD2     H 4317   3.459   0.219   1.516  2.6298 -0.8612  0.4683
  286MPD2    H1 4318   3.474   4.632   1.822 -1.6707  1.5137  1.8499
  286MPD2    H2 4319   3.181   0.224   1.812 -0.7289 -0.8887 -2.1816
  286MPD2    H3 4320   3.270   0.017   1.917  1.1038  1.6517  1.1605
  286MPD2     N 4321   3.615   0.002   1.607  0.1769  0.5464 -0.9896
  286MPD2    H5 4322   3.673   4.659   1.659 -0.4567  0.1027 -0.8271
  286MPD2    N1 4323   3.252   0.324   1.574  0.5751 -0.0113 -0.7425
  286MPD2    H7 4324   3.313   0.360   1.502  2.5348 -0.5723  0.6507
  287TMC3    C1 4325   3.790   4.682   1.448  0.4726  0.2506 -0.4002
  287TMC3    C2 4326   3.817   4.640   1.325 -0.0220 -0.5710  0.3311
  287TMC3    C3 4327   3.943   4.584   1.297  0.1659  0.0783 -0.0815
  287TMC3    C4 4328   3.887   4.670   1.544  0.3187 -0.0920  0.4093
  287TMC3    C5 4329   4.015   4.627   1.511 -0.6150 -0.1748 -0.4165
  287TMC3    C6 4330   4.045   4.584   1.383 -0.3647  0.1963  0.0610
  287TMC3     C 4331   3.662   0.024   1.477 -0.6186 -0.0026  0.0004
  287TMC3     O 4332   3.598   0.064   1.382  0.1406 -0.1711  0.1331
  287TMC3     H 4333   3.736   4.629   1.254 -0.7616  4.4588  0.3640
  287TMC3    H1 4334   3.868   4.696   1.647 -1.9503 -0.8472  0.1689
  287TMC3    H2 4335   4.144   4.557   1.350 -0.0125  0.8682  0.5614
  287TMC3    C7 4336   4.119   4.653   1.605  0.2187 -0.6541  0.6970
  287TMC3    C8 4337   3.974   4.506   1.176  0.6063 -0.1688  0.0384
  287TMC3    O1 4338   4.095   0.013   1.693 -0.4078 -0.6269  0.0626
  287TMC3    O2 4339   4.068   4.424   1.188 -0.1915  0.1453 -0.2111
  288TMC3    C1 4340   0.907   4.580  15.426  0.5085  0.4551  0.4173
  288TMC3    C2 4341   0.912   4.460  15.491  0.0878 -0.5479  0.3691
  288TMC3    C3 4342   0.930   4.463  15.627 -0.3579  0.6391  0.4555
  288TMC3    C4 4343   0.888   4.702  15.495  0.0634 -0.1292 -0.7884
  288TMC3    C5 4344   0.903   4.695  15.633  0.1004 -0.1250  0.4129
  288TMC3    C6 4345   0.921   4.576  15.700 -0.0533 -0.0127  0.4811
  288TMC3     C 4346   0.883   4.582  15.285  0.1892 -0.1128  0.2916
  288TMC3     O 4347   0.843   4.476  15.239 -0.1486 -0.0373  0.2800
  288TMC3     H 4348   0.931   4.368  15.437  1.7651 -0.3611  0.6190
  288TMC3    H1 4349   0.882   0.076  15.446 -2.7152 -0.5655 -1.3528
  288TMC3    H2 4350   0.940   4.569  15.806 -0.1216 -1.0980  0.4177
  288TMC3    C7 4351   0.814   0.065  15.709 -0.1800 -0.3755  0.1042
  288TMC3    C8 4352   0.929   4.331  15.692 -0.1749 -0.0135 -0.2371
  288TMC3    O1 4353   0.725   0.121  15.648  0.4961 -0.5316  0.1185
  288TMC3    O2 4354   0.987   4.328  15.802 -0.5603  0.5989  0.4737
  289MPD2     C 4355   1.323   4.268  14.517  0.4447 -0.0494 -0.5911
  289MPD2    C1 4356   1.256   4.184  14.607  0.2390 -0.0708  0.9787
  289MPD2    C2 4357   1.120   4.160  14.579 -0.5692 -0.2132 -0.2375
  289MPD2    C3 4358   1.058   4.228  14.472  0.0416  0.4365  0.4320
  289MPD2    C4 4359   1.131   4.306  14.388  0.1057 -0.0925  0.7421
  289MPD2    C5 4360   1.263   4.327  14.412  0.7528 -0.6096  0.1189
  289MPD2     H 4361   1.063   4.094  14.642 -0.0984  0.6646  1.1024
  289MPD2    H1 4362   1.100   4.353  14.295  1.0667 -0.4103  0.2575
  289MPD2    H2 4363   1.425   4.303  14.533 -0.1849  1.7493 -0.5169
  289MPD2    H3 4364   1.324   4.396  14.354 -0.4448  0.4641  0.1510
  289MPD2     N 4365   0.921   4.219  14.444 -0.2376 -0.5334  0.0438
  289MPD2    H5 4366   0.877   4.278  14.374  1.4103  0.1737 -0.3943
  289MPD2    N1 4367   1.335   4.127  14.715  0.3115 -0.2392 -0.2948
  289MPD2    H7 4368   1.430   4.160  14.729  0.5312 -0.7054 -0.7151
  290TMC3    C1 4369   0.700   4.161  14.446 -0.1933  0.0003  0.4934
  290TMC3    C2 4370   0.659   4.287  14.425  0.6718  0.1652 -0.4871
  290TMC3    C3 4371   0.554   4.302  14.342 -0.9310  0.4711  0.0307
  290TMC3    C4 4372   0.652   4.054  14.382  0.5420  0.8387  0.3431
  290TMC3    C5 4373   0.545   4.075  14.302  0.0101 -0.6033 -0.4940
  290TMC3    C6 4374   0.492   4.204  14.278  0.0879  0.3329 -0.7397
  290TMC3     C 4375   0.827   4.146  14.513  0.5280 -0.0258  0.8489
  290TMC3     O 4376   0.848   4.073  14.611 -0.2725 -0.1296 -0.3366
  290TMC3     H 4377   0.719   4.372  14.454  0.9452 -0.4846  0.8255
  290TMC3    H1 4378   0.685   3.953  14.404  1.6800  1.1545  0.1253
  290TMC3    H2 4379   0.403   4.223  14.218 -0.8738 -0.4731  0.4346
  290TMC3    C7 4380   0.470   3.953  14.256  0.0900 -0.1538 -0.3983
  290TMC3    C8 4381   0.525   4.440  14.306 -0.3384 -0.5170  0.1494
  290TMC3    O1 4382   0.424   3.968  14.142 -0.2686  0.4624 -0.2054
  290TMC3    O2 4383   0.439   4.460  14.224  0.1157 -0.0761  0.0670
  291MPD2     C 4384   4.510   3.776   0.430 -0.0397 -0.2710  0.1692
  291MPD2    C1 4385   4.639   3.777   0.479 -0.2804  0.1645 -0.0318
  291MPD2    C2 4386   4.694   3.902   0.518  0.5528  0.0484 -0.0794
  291MPD2    C3 4387   4.622   4.018   0.496 -0.0442  0.5196 -0.3889
  291MPD2    C4 4388   4.496   4.016   0.440 -0.0213 -0.5150 -0.4274
  291MPD2    C5 4389   4.450   3.892   0.397  0.4159 -0.4733 -0.6139
  291MPD2     H 4390   0.079   3.900   0.537  0.5783  0.4245 -0.1908
  291MPD2    H1 4391   4.434   4.101   0.412  0.3678 -0.2486 -0.4799
  291MPD2    H2 4392   4.460   3.686   0.396 -0.8515 -0.2874  1.4025
  291MPD2    H3 4393   4.354   3.884   0.346 -0.1135 -0.3800  0.3711
  291MPD2     N 4394   4.678   4.146   0.495  0.7552  0.1646 -0.3175
  291MPD2    H5 4395   4.651   4.211   0.422 -2.8629 -0.3712  0.5461
  291MPD2    N1 4396   0.003   3.660   0.480  0.8487 -0.4445 -0.1780
  291MPD2    H7 4397   0.095   3.672   0.522  0.0007  0.9952  1.3073
  292TMC3    C1 4398   0.090   3.450   0.438 -0.3103  0.1217 -0.3039
  292TMC3    C2 4399   0.214   3.510   0.436  0.5705  0.9210 -0.1849
  292TMC3    C3 4400   0.324   3.421   0.432  0.1818 -0.1058  0.5129
  292TMC3    C4 4401   0.070   3.315   0.441 -0.4847  0.9885  0.4085
  292TMC3    C5 4402   0.179   3.229   0.436  0.4706  0.2369 -0.2992
  292TMC3    C6 4403   0.304   3.280   0.425 -0.7992 -1.0575  0.1624
  292TMC3     C 4404   4.694   3.535   0.433  0.3999  0.3637  0.0737
  292TMC3     O 4405   4.584   3.483   0.426 -0.0554  0.6474 -0.1541
  292TMC3     H 4406   0.231   3.617   0.436  2.8783  0.5547 -1.4955
  292TMC3    H1 4407   4.690   3.277   0.447 -0.6796  1.7509  1.8594
  292TMC3    H2 4408   0.388   3.216   0.403  0.5761  0.7685  0.1087
  292TMC3    C7 4409   0.167   3.081   0.417  0.0215 -0.5467 -0.2379
  292TMC3    C8 4410   0.435   3.465   0.509  0.1717 -0.1846 -0.5684
  292TMC3    O1 4411   0.265   3.023   0.361  0.2815 -0.4553  0.3064
  292TMC3    O2 4412   0.409   3.563   0.579  0.4768 -0.3244 -0.4678
  293MPD2     C 4413   2.056   0.889  12.893  0.4706 -0.0671  0.4073
  293MPD2    C1 4414   2.000   0.784  12.967 -0.8036  0.4925  0.3642
  293MPD2    C2 4415   2.034   0.779  13.102 -0.2516  0.2811 -0.6471
  293MPD2    C3 4416   2.096   0.884  13.164 -1.0464  0.0750 -0.5975
  293MPD2    C4 4417   2.148   0.982  13.088 -0.2760 -0.0719 -0.4447
  293MPD2    C5 4418   2.135   0.984  12.956  0.2569 -0.4841  0.5597
  293MPD2     H 4419   1.991   0.700  13.163 -0.4635  1.2114  0.4012
  293MPD2    H1 4420   2.193   1.071  13.130 -1.5860  0.6731 -0.5920
  293MPD2    H2 4421   2.037   0.906  12.788  1.8923  0.5964  0.2637
  293MPD2    H3 4422   2.180   1.065  12.901 -0.5506  0.3554  1.1342
  293MPD2     N 4423   2.109   0.872  13.301  0.4331  0.2098 -0.1016
  293MPD2    H5 4424   2.082   0.788  13.350  0.6421  0.8560  1.1244
  293MPD2    N1 4425   1.925   0.688  12.895  0.0975 -0.1437 -0.0502
  293MPD2    H7 4426   1.907   0.716  12.799 -3.5989 -0.3388  0.5745
  294TMC3    C1 4427   1.814   0.490  12.846  0.4187 -0.3152  0.6788
  294TMC3    C2 4428   1.820   0.352  12.863 -0.4451  0.7666 -0.3993
  294TMC3    C3 4429   1.765   0.280  12.759  0.1074  0.2035 -0.1464
  294TMC3    C4 4430   1.742   0.552  12.748 -0.0322  0.8721  0.3309
  294TMC3    C5 4431   1.687   0.473  12.645  0.3890 -0.0211  0.2464
  294TMC3    C6 4432   1.706   0.338  12.645 -0.3286  0.1737 -0.0407
  294TMC3     C 4433   1.884   0.567  12.944 -0.1546 -0.4126  0.6472
  294TMC3     O 4434   1.902   0.512  13.050 -0.0827  0.1323 -0.3852
  294TMC3     H 4435   1.853   0.313  12.959  1.6276  1.9964 -0.6024
  294TMC3    H1 4436   1.732   0.660  12.751  2.6404  1.1254  0.7805
  294TMC3    H2 4437   1.665   0.277  12.565 -1.4180 -1.4171  1.7339
  294TMC3    C7 4438   1.664   0.554  12.521  0.3678  0.1054  0.4486
  294TMC3    C8 4439   1.762   0.135  12.781 -0.6933  0.4952  0.6264
  294TMC3    O1 4440   1.692   0.672  12.537 -0.3332  0.4660 -0.8498
  294TMC3    O2 4441   1.828   0.095  12.875  0.0047 -0.2672  0.1422
  295MPD2     C 4442   3.190   3.614   1.469 -0.3995 -0.2254  0.0932
  295MPD2    C1 4443   3.057   3.565   1.455 -0.2746 -0.5720 -0.2826
  295MPD2    C2 4444   2.993   3.500   1.554  0.6470  0.1963  0.4626
  295MPD2    C3 4445   3.060   3.470   1.672  0.0658  0.0684 -0.1673
  295MPD2    C4 4446   3.190   3.507   1.686 -0.1406 -0.4146 -0.0026
  295MPD2    C5 4447   3.259   3.574   1.583 -0.1960  0.0742 -0.4218
  295MPD2     H 4448   2.886   3.492   1.543  0.3177  3.5362  1.1528
  295MPD2    H1 4449   3.237   3.484   1.781  1.4937 -0.9451 -0.9207
  295MPD2    H2 4450   3.231   3.684   1.397  1.3918 -1.2647  0.1111
  295MPD2    H3 4451   3.357   3.616   1.602  0.1657 -0.8810 -0.2112
  295MPD2     N 4452   2.992   3.412   1.781  0.3009  0.0301  0.4427
  295MPD2    H5 4453   3.047   3.399   1.865  0.5652 -0.7424  0.1535
  295MPD2    N1 4454   2.978   3.605   1.340  0.0562 -0.1991  0.6809
  295MPD2    H7 4455   2.882   3.572   1.335  0.5612 -1.6464  0.4249
  296TMC3    C1 4456   2.826   3.312   1.898 -0.2810 -0.0008  0.4466
  296TMC3    C2 4457   2.716   3.375   1.952  0.2101  0.4602 -0.3087
  296TMC3    C3 4458   2.680   3.353   2.078  0.0618  0.1718 -0.5978
  296TMC3    C4 4459   2.913   3.240   1.969  0.3732 -0.4565  0.3452
  296TMC3    C5 4460   2.858   3.200   2.095 -0.0715 -0.2438  0.6977
  296TMC3    C6 4461   2.745   3.257   2.145 -0.1402  0.3966  1.0298
  296TMC3     C 4462   2.865   3.360   1.771 -0.1588 -0.1286 -0.4793
  296TMC3     O 4463   2.784   3.367   1.679  0.1984  0.3524 -0.3929
  296TMC3     H 4464   2.665   3.445   1.887 -1.1314 -0.2348 -0.0178
  296TMC3    H1 4465   2.992   3.183   1.921 -0.8047  0.4551 -2.6790
  296TMC3    H2 4466   2.718   3.232   2.247 -2.3919 -0.7863  0.1295
  296TMC3    C7 4467   2.883   3.067   2.121  0.1236 -0.0586 -0.4678
  296TMC3    C8 4468   2.588   3.437   2.141 -0.0361 -0.9616  0.8845
  296TMC3    O1 4469   2.998   3.022   2.102  0.0932 -0.0815  0.1146
  296TMC3    O2 4470   2.538   3.396   2.246  0.1034 -0.3351  0.2590
  297MPD2     C 4471   0.418   0.639  16.958 -0.1655 -0.0313 -0.3010
  297MPD2    C1 4472   0.360   0.717  16.867  0.2061  0.0089  0.2864
  297MPD2    C2 4473   0.410   0.842  16.842  0.2358 -0.4514 -0.1942
  297MPD2    C3 4474   0.516   0.896  16.903 -0.2295 -0.1144 -0.5995
  297MPD2    C4 4475   0.579   0.818  17.003 -0.6034 -0.1310 -0.8729
  297MPD2    C5 4476   0.529   0.692  17.022 -0.3772 -0.3884 -0.2729
  297MPD2     H 4477   0.363   0.894  16.759 -1.7130  1.4192  2.0979
  297MPD2    H1 4478   0.673   0.849  17.047 -0.9646 -1.7002  1.0103
  297MPD2    H2 4479   0.382   0.538  16.969  0.3212 -0.3770 -1.8465
  297MPD2    H3 4480   0.589   0.624  17.081 -2.4059 -1.6138  0.3402
  297MPD2     N 4481   0.564   1.027  16.867 -0.2316 -0.0681 -0.5421
  297MPD2    H5 4482   0.529   1.075  16.784 -2.4588 -2.4672 -0.9908
  297MPD2    N1 4483   0.236   0.691  16.806 -0.0197 -0.6790 -0.5642
  297MPD2    H7 4484   0.189   0.768  16.760 -2.5463 -1.0531  1.4429
  298TMC3    C1 4485   0.033   0.581  16.762 -0.2265  1.2211  0.4574
  298TMC3    C2 4486   4.720   0.520  16.646 -0.2020  0.1142  0.0097
  298TMC3    C3 4487   4.616   0.568  16.578  0.7679  0.1069  0.2849
  298TMC3    C4 4488   4.697   0.698  16.812  0.7838 -1.0536  0.6680
  298TMC3    C5 4489   4.606   0.758  16.729 -1.2836  0.2763 -0.0997
  298TMC3    C6 4490   4.554   0.688  16.617 -0.5671 -0.1784 -0.4441
  298TMC3     C 4491   0.172   0.569  16.806  0.1551  0.3587 -0.1076
  298TMC3     O 4492   0.220   0.460  16.834  0.1711  0.1445  0.1147
  298TMC3     H 4493   0.071   0.446  16.617  0.4611 -1.1267  5.0021
  298TMC3    H1 4494   0.007   0.747  16.904 -3.9241 -1.5214  2.5396
  298TMC3    H2 4495   4.468   0.731  16.567  0.0983  1.2684 -0.3545
  298TMC3    C7 4496   4.546   0.882  16.770  0.0127 -0.5377 -0.8645
  298TMC3    C8 4497   4.609   0.543  16.434  0.0396 -0.6037  0.1250
  298TMC3    O1 4498   4.538   0.910  16.890  0.2917  0.1953  0.3032
  298TMC3    O2 4499   4.497   0.566  16.386 -0.1150 -0.2363 -0.5749
  299MPD2     C 4500   0.723   0.623  11.413 -0.1191  0.3226  0.0273
  299MPD2    C1 4501   0.766   0.628  11.284  0.3656  0.2280  0.4004
  299MPD2    C2 4502   0.673   0.629  11.186  0.8561 -0.0962  0.0479
  299MPD2    C3 4503   0.535   0.635  11.216 -0.4515  0.7554  0.1315
  299MPD2    C4 4504   0.492   0.624  11.345  0.5280  0.0431 -0.1812
  299MPD2    C5 4505   0.587   0.618  11.439  1.2920 -0.0613 -0.4000
  299MPD2     H 4506   0.697   0.593  11.086  1.0219 -0.5758  0.2607
  299MPD2    H1 4507   0.385   0.625  11.363  0.4195 -0.4944 -0.8198
  299MPD2    H2 4508   0.790   0.628  11.498 -0.3852  1.9110  0.1523
  299MPD2    H3 4509   0.552   0.625  11.541  1.2120 -0.8824 -0.3670
  299MPD2     N 4510   0.455   0.663  11.103 -0.9909 -0.2621 -0.2212
  299MPD2    H5 4511   0.507   0.676  11.017 -1.3040 -1.1711 -0.5522
  299MPD2    N1 4512   0.907   0.639  11.256 -0.0006 -0.0302 -0.1146
  299MPD2    H7 4513   0.972   0.633  11.334 -2.7093 -1.1281  2.0546
  300TMC3    C1 4514   0.258   0.675  10.974 -0.0458  0.2281  0.4127
  300TMC3    C2 4515   0.334   0.630  10.870 -0.8135 -0.8071 -0.2113
  300TMC3    C3 4516   0.274   0.571  10.765  0.4201 -0.9932 -0.3581
  300TMC3    C4 4517   0.125   0.647  10.979  0.5683  0.2607 -0.5052
  300TMC3    C5 4518   0.067   0.589  10.872 -0.6190 -0.1362 -1.1934
  300TMC3    C6 4519   0.135   0.535  10.765 -0.3768  0.4974  0.3197
  300TMC3     C 4520   0.319   0.665  11.105  0.5488  0.5328  0.4210
  300TMC3     O 4521   0.241   0.652  11.199 -0.1040  0.0247 -0.1569
  300TMC3     H 4522   0.440   0.648  10.853 -0.8702 -1.1828 -0.9874
  300TMC3    H1 4523   0.062   0.681  11.060  1.7480  0.6744  0.2339
  300TMC3    H2 4524   0.091   0.503  10.671  0.7139  0.3065 -0.1216
  300TMC3    C7 4525   4.653   0.632  10.843 -0.3302  0.2910  0.5747
  300TMC3    C8 4526   0.354   0.486  10.683  1.0432  0.3735  0.1180
  300TMC3    O1 4527   4.592   0.578  10.751 -0.7308  0.7912  0.0515
  300TMC3    O2 4528   0.420   0.408  10.743 -0.0563 -0.3983 -0.0131
  301MPD2     C 4529   2.157   2.375   1.610 -0.0353  0.5826  0.0071
  301MPD2    C1 4530   2.113   2.349   1.482  0.2667  0.5101  0.3302
  301MPD2    C2 4531   2.146   2.230   1.422  0.2698 -1.2274 -0.1902
  301MPD2    C3 4532   2.212   2.134   1.492  0.2770 -0.4591 -0.2177
  301MPD2    C4 4533   2.258   2.162   1.620 -0.3422  0.1070 -0.0021
  301MPD2    C5 4534   2.240   2.291   1.675  0.6696  0.3571  0.2784
  301MPD2     H 4535   2.114   2.216   1.319 -2.3154  1.0267  0.2903
  301MPD2    H1 4536   2.307   2.081   1.673 -3.2068 -0.5997  1.5799
  301MPD2    H2 4537   2.139   2.473   1.653  0.0222 -0.4313  2.3472
  301MPD2    H3 4538   2.269   2.322   1.775  1.3265 -1.9614  0.8021
  301MPD2     N 4539   2.239   2.007   1.436  0.5747  0.1954 -0.2469
  301MPD2    H5 4540   2.292   1.937   1.487  0.3301 -0.7618 -1.3028
  301MPD2    N1 4541   2.034   2.441   1.409  0.2131  0.5208  1.1591
  301MPD2    H7 4542   2.008   2.414   1.315 -1.2444 -0.5796  1.8794
  302TMC3    C1 4543   2.262   1.832   1.278 -0.1759  0.3026 -0.3762
  302TMC3    C2 4544   2.389   1.819   1.319  0.1839 -0.5502 -0.4693
  302TMC3    C3 4545   2.477   1.752   1.230 -0.4955 -0.2283  0.0170
  302TMC3    C4 4546   2.223   1.775   1.160  0.4200 -0.2054 -0.2885
  302TMC3    C5 4547   2.312   1.714   1.081 -0.0390 -0.1041  0.7926
  302TMC3    C6 4548   2.437   1.701   1.110 -0.0150  0.4638  0.7696
  302TMC3     C 4549   2.185   1.946   1.323  0.4418 -0.1465  0.8590
  302TMC3     O 4550   2.101   1.985   1.242  0.1217 -0.3631 -0.2193
  302TMC3     H 4551   2.436   1.885   1.391 -1.9890 -0.2611  0.6676
  302TMC3    H1 4552   2.117   1.771   1.139  0.4049 -0.6961 -0.1123
  302TMC3    H2 4553   2.493   1.637   1.044 -0.1225  0.4377  0.7042
  302TMC3    C7 4554   2.276   1.689   0.938 -0.2027  0.0103  0.0917
  302TMC3    C8 4555   2.604   1.699   1.289 -0.7239  0.0044  0.1592
  302TMC3    O1 4556   2.344   1.605   0.878  0.3130 -0.2246  0.2881
  302TMC3    O2 4557   2.694   1.673   1.208  0.2395 -0.7316  0.4169
  303MPD2     C 4558   2.616   0.398  10.770 -0.5074  0.6987  0.7566
  303MPD2    C1 4559   2.591   0.280  10.839  0.2077  0.3012 -0.4093
  303MPD2    C2 4560   2.610   0.158  10.769 -0.3947  0.2596 -0.2983
  303MPD2    C3 4561   2.653   0.153  10.643  0.3043  0.0485  0.5617
  303MPD2    C4 4562   2.674   0.268  10.573 -0.3235 -0.5085  0.1780
  303MPD2    C5 4563   2.657   0.391  10.634  0.0416  0.2154 -1.1338
  303MPD2     H 4564   2.576   0.064  10.812  2.1475 -0.5961 -0.1464
  303MPD2    H1 4565   2.703   0.263  10.469  0.1399  1.6687  0.2003
  303MPD2    H2 4566   2.613   0.493  10.822 -1.2868  0.0502  1.9014
  303MPD2    H3 4567   2.674   0.484  10.582 -1.7075  0.6847 -0.8810
  303MPD2     N 4568   2.642   0.033  10.567  0.2758 -0.2109  0.3299
  303MPD2    H5 4569   2.659   0.043  10.467  1.1022  1.6249  0.6436
  303MPD2    N1 4570   2.530   0.290  10.968  0.1730  0.2493 -0.2188
  303MPD2    H7 4571   2.475   0.368  11.001  1.2541  1.2132 -0.7178
  304TMC3    C1 4572   2.464   0.227  11.185 -0.3150  0.4406 -0.1768
  304TMC3    C2 4573   2.354   0.310  11.181 -0.0092  0.5883  0.6965
  304TMC3    C3 4574   2.274   0.330  11.293  0.9545 -0.0814 -0.1240
  304TMC3    C4 4575   2.509   0.184  11.308 -0.3716  0.3639  0.0257
  304TMC3    C5 4576   2.434   0.210  11.418 -0.0648 -0.7289 -0.1981
  304TMC3    C6 4577   2.325   0.294  11.414  0.3392 -0.3896 -0.4673
  304TMC3     C 4578   2.534   0.189  11.062 -0.5649 -0.2312 -0.2060
  304TMC3     O 4579   2.604   0.093  11.069 -0.6610 -0.1001 -0.5221
  304TMC3     H 4580   2.318   0.328  11.080  0.0134 -0.1487  0.5580
  304TMC3    H1 4581   2.584   0.107  11.315 -0.2793  0.7212  2.8344
  304TMC3    H2 4582   2.271   0.310  11.507  0.8976 -0.9122 -0.0459
  304TMC3    C7 4583   2.400   0.089  11.487  0.3510 -0.3880  0.2773
  304TMC3    C8 4584   2.143   0.273  11.272  0.4025 -0.2763  0.0531
  304TMC3    O1 4585   2.280   0.075  11.509 -0.4631  0.2133 -0.3206
  304TMC3    O2 4586   2.118   0.217  11.167 -0.6649  0.5946 -0.2958
  305MPD2     C 4587   1.327   3.246  14.086 -0.1690  0.3776 -0.1260
  305MPD2    C1 4588   1.300   3.117  14.129 -0.6096  0.1427 -0.6980
  305MPD2    C2 4589   1.271   3.032  14.021 -0.1234  0.1035 -0.5289
  305MPD2    C3 4590   1.297   3.068  13.887  0.2113  0.7788  0.1167
  305MPD2    C4 4591   1.332   3.201  13.855 -0.1631 -0.2057  0.4818
  305MPD2    C5 4592   1.350   3.286  13.960 -0.5276 -0.0519  0.0664
  305MPD2     H 4593   1.246   2.929  14.045  1.4269  0.1591  1.3531
  305MPD2    H1 4594   1.356   3.232  13.754 -0.8054  0.4463  0.5298
  305MPD2    H2 4595   1.345   3.317  14.166 -2.7702  0.9409 -0.0654
  305MPD2    H3 4596   1.387   3.385  13.940  0.7503 -0.1909  1.7098
  305MPD2     N 4597   1.288   2.974  13.775  0.4131  0.0013 -0.0240
  305MPD2    H5 4598   1.302   2.998  13.677  0.8719 -1.3529 -0.2959
  305MPD2    N1 4599   1.281   3.090  14.268  0.4297  0.0667  0.1151
  305MPD2    H7 4600   1.287   3.172  14.328 -1.8508 -0.0520  0.4791
  306TMC3    C1 4601   1.212   2.963  14.459 -0.0242 -0.0937 -0.2504
  306TMC3    C2 4602   1.139   2.861  14.523  0.1001  0.3203  0.2947
  306TMC3    C3 4603   1.143   2.852  14.664 -0.1347 -0.0575  0.0320
  306TMC3    C4 4604   1.287   3.052  14.535 -0.2126 -0.2020  0.2891
  306TMC3    C5 4605   1.287   3.027  14.672 -0.2666  0.1564 -0.0191
  306TMC3    C6 4606   1.199   2.946  14.739 -0.3983  0.3469  0.8870
  306TMC3     C 4607   1.234   2.967  14.313  0.2641 -0.6552 -0.1394
  306TMC3     O 4608   1.200   2.864  14.252  0.6207  0.3477 -0.0557
  306TMC3     H 4609   1.075   2.794  14.466 -0.4058  2.4129 -1.6084
  306TMC3    H1 4610   1.342   3.134  14.492  0.0364  0.0610  1.0960
  306TMC3    H2 4611   1.184   2.959  14.846  1.5579  0.8569  1.0880
  306TMC3    C7 4612   1.380   3.106  14.749 -0.5192 -0.2756 -0.4930
  306TMC3    C8 4613   1.054   2.765  14.739 -0.2673 -0.5926  0.1434
  306TMC3    O1 4614   1.434   3.199  14.686 -0.2642  0.5494 -0.1159
  306TMC3    O2 4615   0.949   2.731  14.681 -0.1183  0.5448 -0.5965
  307MPD2     C 4616   3.815   0.065   0.788  0.1695 -0.2826 -0.8929
  307MPD2    C1 4617   3.709   0.074   0.700  0.0647  0.3131  0.6901
  307MPD2    C2 4618   3.603   0.158   0.733 -0.2978  0.8188 -0.3504
  307MPD2    C3 4619   3.595   0.230   0.852  0.5337  0.0362  0.0370
  307MPD2    C4 4620   3.698   0.202   0.947  0.0005  0.2224 -0.2498
  307MPD2    C5 4621   3.800   0.119   0.910  0.1139 -0.3966  0.2273
  307MPD2     H 4622   3.528   0.173   0.657 -1.6117  0.4113  0.8731
  307MPD2    H1 4623   3.703   0.246   1.046  4.4049  1.0638 -0.8387
  307MPD2    H2 4624   3.908   0.014   0.764  0.3345 -0.7957  0.8484
  307MPD2    H3 4625   3.881   0.111   0.982  1.7328 -0.4753 -1.5854
  307MPD2     N 4626   3.485   0.313   0.882 -0.3101  0.3326 -0.0443
  307MPD2    H5 4627   3.406   0.315   0.818  0.2062 -0.7741 -0.7104
  307MPD2    N1 4628   3.706   0.017   0.575  0.2414  0.0798 -0.3871
  307MPD2    H7 4629   3.621   0.022   0.520 -0.2616  1.8745  0.5446
  308TMC3    C1 4630   3.106   0.413   1.021  0.1230  0.0950 -0.0546
  308TMC3    C2 4631   3.081   0.537   0.975  1.0066 -1.0118  0.8128
  308TMC3    C3 4632   3.188   0.614   0.942 -0.4900  0.3817  0.1809
  308TMC3    C4 4633   3.235   0.366   1.032  0.3395 -0.1431  0.0074
  308TMC3    C5 4634   3.331   0.452   0.994  0.4579 -0.0714  0.2362
  308TMC3    C6 4635   3.314   0.573   0.952  0.0725 -0.8991  0.0300
  308TMC3     C 4636   2.996   0.337   1.068 -0.6356  0.2960  0.4624
  308TMC3     O 4637   2.998   0.286   1.179  0.0114  0.1201  0.2918
  308TMC3     H 4638   2.986   0.588   0.983  1.0964 -1.3456  4.0832
  308TMC3    H1 4639   3.256   0.269   1.075  0.8520  0.0993  0.3146
  308TMC3    H2 4640   3.400   0.636   0.937 -2.0499  2.3832  1.7685
  308TMC3    C7 4641   3.464   0.390   0.990 -0.6428 -0.2210  0.5996
  308TMC3    C8 4642   3.153   0.742   0.903  0.7350 -0.4443  0.4713
  308TMC3    O1 4643   3.542   0.425   1.077 -0.2784 -0.2134  0.0455
  308TMC3    O2 4644   3.070   0.810   0.960 -0.2249  0.4861  0.0728
  309MPD2     C 4645   3.068   1.169  17.451  0.0119  0.2633 -0.7296
  309MPD2    C1 4646   3.000   1.139  17.337  0.2534 -0.8858  0.5746
  309MPD2    C2 4647   2.861   1.103  17.340 -0.3987 -0.6789 -0.7100
  309MPD2    C3 4648   2.802   1.095  17.463 -0.1256 -0.3523 -0.0867
  309MPD2    C4 4649   2.879   1.119  17.579 -0.2388  0.8189  0.0809
  309MPD2    C5 4650   3.012   1.149  17.576 -0.0837  0.3797  0.4584
  309MPD2     H 4651   2.816   1.074  17.246 -0.8100  3.3478 -1.7275
  309MPD2    H1 4652   2.834   1.110  17.678  0.0688 -1.3063  0.0183
  309MPD2    H2 4653   3.175   1.186  17.445  0.0494  0.0307 -0.7383
  309MPD2    H3 4654   3.076   1.165  17.662 -0.2480 -1.0793  0.8392
  309MPD2     N 4655   2.666   1.059  17.491  0.3271 -0.4103  0.3911
  309MPD2    H5 4656   2.644   1.063  17.589 -0.7639  0.1521  0.1235
  309MPD2    N1 4657   3.060   1.159  17.210  0.3623  0.1854 -0.6357
  309MPD2    H7 4658   3.002   1.133  17.131  0.1948 -0.1574 -0.3987
  310TMC3    C1 4659   3.202   1.200  17.035 -0.1480 -0.1349 -0.4227
  310TMC3    C2 4660   3.106   1.263  16.960 -0.1706  0.0840  0.2532
  310TMC3    C3 4661   3.132   1.261  16.832  0.7449 -0.6204  0.2483
  310TMC3    C4 4662   3.323   1.153  16.991 -0.9471 -0.4427 -0.2777
  310TMC3    C5 4663   3.347   1.154  16.858 -0.1197  0.3746  0.7042
  310TMC3    C6 4664   3.242   1.204  16.777  0.3683 -0.9299  0.2226
  310TMC3     C 4665   3.187   1.210  17.175  0.5549 -1.0162 -0.1182
  310TMC3     O 4666   3.289   1.244  17.242 -0.4900  0.5996  0.0298
  310TMC3     H 4667   3.014   1.303  17.003 -1.8289 -1.5624 -1.7594
  310TMC3    H1 4668   3.384   1.106  17.067  0.6527  0.0652 -1.2551
  310TMC3    H2 4669   3.253   1.207  16.670  0.2346  0.7822  0.2626
  310TMC3    C7 4670   3.442   1.060  16.809 -0.7061  0.3587  0.0217
  310TMC3    C8 4671   3.012   1.275  16.754  0.4397  0.3803 -0.2477
  310TMC3    O1 4672   3.488   0.994  16.899  0.1238 -0.6959 -0.6993
  310TMC3    O2 4673   3.009   1.201  16.660  0.2901  0.0466  0.3709
  311MPD2     C 4674   4.648   2.004  12.742 -0.8937 -0.5253  0.1205
  311MPD2    C1 4675   4.649   1.997  12.879  0.1261 -0.5498  0.5614
  311MPD2    C2 4676   4.541   1.986  12.956 -0.1301 -0.1157 -0.8296
  311MPD2    C3 4677   4.418   1.983  12.899  0.3088  0.5101 -0.2629
  311MPD2    C4 4678   4.414   1.979  12.765  0.5052 -0.8881  0.1544
  311MPD2    C5 4679   4.526   1.985  12.688 -0.1030  0.3521  0.5866
  311MPD2     H 4680   4.544   1.996  13.064  2.8492 -1.4312 -0.7898
  311MPD2    H1 4681   4.322   1.958  12.713  0.2453  0.7415 -0.0366
  311MPD2    H2 4682   0.016   2.031  12.687 -0.4371  1.4529  1.8283
  311MPD2    H3 4683   4.513   1.991  12.581 -0.7497  0.6140  0.6789
  311MPD2     N 4684   4.304   1.971  12.990 -0.3054  0.3330 -0.3995
  311MPD2    H5 4685   4.328   1.958  13.088  1.7222  0.6785 -0.8539
  311MPD2    N1 4686   0.045   2.024  12.953 -0.4816  0.0386 -0.5406
  311MPD2    H7 4687   0.045   2.042  13.053 -1.4445 -1.6855 -0.2223
  312TMC3    C1 4688   4.072   1.955  13.054  0.1792 -0.5436 -0.1588
  312TMC3    C2 4689   3.951   1.915  13.012  0.7708  0.4653 -0.1839
  312TMC3    C3 4690   3.860   1.874  13.105  0.4752 -0.8314  0.0748
  312TMC3    C4 4691   4.114   1.939  13.181 -0.6787  0.0840  0.1972
  312TMC3    C5 4692   4.019   1.893  13.273 -0.0459 -0.2389 -0.4035
  312TMC3    C6 4693   3.894   1.846  13.236 -0.0389  0.4039 -0.1254
  312TMC3     C 4694   4.171   1.964  12.948 -0.2379  0.4805 -0.0421
  312TMC3     O 4695   4.125   1.972  12.835 -0.2534  0.4318 -0.5028
  312TMC3     H 4696   3.931   1.920  12.905  0.7850 -1.4976 -0.2793
  312TMC3    H1 4697   4.208   1.983  13.213 -1.7604  1.2422  1.7999
  312TMC3    H2 4698   3.822   1.811  13.310  0.8815  0.3246  0.7245
  312TMC3    C7 4699   4.068   1.814  13.378  0.4091  0.1104  0.1263
  312TMC3    C8 4700   3.723   1.866  13.064  0.6878 -0.1061  0.7682
  312TMC3    O1 4701   4.022   1.701  13.389 -0.0230  0.1512  0.3516
  312TMC3    O2 4702   3.650   1.784  13.118  0.7940  0.0851 -0.3069
  313MPD2     C 4703   0.167   1.582  10.471  0.9744 -0.1288  0.2015
  313MPD2    C1 4704   0.078   1.567  10.578  0.1461 -0.7857 -0.4644
  313MPD2    C2 4705   4.699   1.475  10.568  0.1835 -0.2507 -0.1565
  313MPD2    C3 4706   4.673   1.410  10.445 -1.0115 -0.3221  0.4746
  313MPD2    C4 4707   0.047   1.420  10.349 -0.1964 -0.6082  0.0095
  313MPD2    C5 4708   0.154   1.500  10.362  0.3359  0.9466  0.0498
  313MPD2     H 4709   4.610   1.472  10.629  0.1172  0.5298 -0.2251
  313MPD2    H1 4710   0.038   1.369  10.253 -0.7093  0.4567 -0.5051
  313MPD2    H2 4711   0.251   1.650  10.469 -0.6465  1.9010  1.3531
  313MPD2    H3 4712   0.213   1.516  10.273  0.8786 -0.6184  0.1382
  313MPD2     N 4713   4.558   1.330  10.434 -0.6010 -0.2984 -0.3586
  313MPD2    H5 4714   4.492   1.328  10.510 -0.0418 -0.4309  0.1259
  313MPD2    N1 4715   0.092   1.645  10.696  0.4942  0.1139  0.2443
  313MPD2    H7 4716   0.007   1.625  10.747  0.4420  0.4957  0.3072
  314TMC3    C1 4717   0.082   1.846  10.781 -0.9473  0.4204  0.0145
  314TMC3    C2 4718   0.067   1.865  10.919  0.0454 -0.0338 -0.3144
  314TMC3    C3 4719   4.688   1.949  10.960 -0.5394 -0.0701  0.2188
  314TMC3    C4 4720   4.705   1.871  10.692  0.5107 -0.0839  0.0439
  314TMC3    C5 4721   4.597   1.937  10.750 -0.2152  0.1396  0.4646
  314TMC3    C6 4722   4.592   1.981  10.874 -0.4779 -0.0518  0.0748
  314TMC3     C 4723   0.170   1.751  10.718  0.6317  0.2965 -0.1743
  314TMC3     O 4724   0.279   1.787  10.666 -0.1016  0.1707  0.1101
  314TMC3     H 4725   0.144   1.831  10.988  1.6014  1.0431 -1.5295
  314TMC3    H1 4726   0.007   1.850  10.588  1.7857 -0.1260  0.3474
  314TMC3    H2 4727   4.501   2.034  10.901 -0.0727  1.0992 -0.7949
  314TMC3    C7 4728   4.468   1.908  10.685  0.4327  1.1364 -0.0088
  314TMC3    C8 4729   4.657   1.958  11.092 -0.0327  0.0140 -0.1132
  314TMC3    O1 4730   4.360   1.936  10.732  0.6255 -0.1122 -0.2595
  314TMC3    O2 4731   4.691   1.861  11.164  0.3496  0.2003  0.5625
  315MPD2     C 4732   3.821   0.693   0.397  0.5107 -0.8015 -0.1876
  315MPD2    C1 4733   3.909   0.710   0.502 -0.8591 -0.3211  0.1224
  315MPD2    C2 4734   3.987   0.829   0.515 -0.8246  0.1581 -0.1780
  315MPD2    C3 4735   3.987   0.925   0.418 -0.6225 -0.0387 -0.0156
  315MPD2    C4 4736   3.903   0.905   0.310  0.4057  0.5304 -0.5419
  315MPD2    C5 4737   3.820   0.793   0.303  0.1436 -0.0061 -0.0531
  315MPD2     H 4738   4.052   0.843   0.601 -1.3269  0.7934  0.0948
  315MPD2    H1 4739   3.918   0.973   0.227  2.6413 -0.9592 -1.3918
  315MPD2    H2 4740   3.754   0.610   0.378 -0.2785  0.0912 -1.2752
  315MPD2    H3 4741   3.762   0.774   0.213  0.7496  0.6336 -0.5811
  315MPD2     N 4742   4.088   1.022   0.423 -0.5646  0.9577  0.0813
  315MPD2    H5 4743   4.161   1.013   0.493 -0.8740 -1.7427  0.0555
  315MPD2    N1 4744   3.913   0.621   0.610  0.0450  0.1507  0.4516
  315MPD2    H7 4745   3.990   0.641   0.674 -0.5952  0.7852  1.0230
  316TMC3    C1 4746   4.225   1.198   0.358  0.2821  0.8494  0.5069
  316TMC3    C2 4747   4.303   1.187   0.471 -0.3775 -0.8776 -0.2077
  316TMC3    C3 4748   4.423   1.253   0.486 -0.5665  0.0185 -0.5896
  316TMC3    C4 4749   4.262   1.287   0.261  1.0535 -0.1810  0.0105
  316TMC3    C5 4750   4.375   1.356   0.285  0.3882  0.0794  0.7482
  316TMC3    C6 4751   4.455   1.348   0.397  0.3263  0.4086  0.3446
  316TMC3     C 4752   4.097   1.134   0.344  0.5216 -0.3743  0.1664
  316TMC3     O 4753   4.019   1.178   0.262  0.3083  0.0863 -0.5577
  316TMC3     H 4754   4.282   1.124   0.557  0.9114 -0.3071  0.5194
  316TMC3    H1 4755   4.196   1.302   0.177  0.4684  3.5390  1.1302
  316TMC3    H2 4756   4.537   1.416   0.422  0.3359 -0.3104  2.2779
  316TMC3    C7 4757   4.406   1.485   0.209  0.4128  0.3224 -0.0932
  316TMC3    C8 4758   4.500   1.249   0.610  0.0550  0.3930 -0.6576
  316TMC3    O1 4759   4.491   1.566   0.247  0.8117 -0.0009  0.3274
  316TMC3    O2 4760   4.572   1.344   0.645  1.0221 -0.3311  0.2581
  317MPD2     C 4761   0.588   3.990  12.094 -0.3361  0.2868  0.4191
  317MPD2    C1 4762   0.703   3.911  12.071  1.0171  0.3590  0.0606
  317MPD2    C2 4763   0.774   3.866  12.183 -0.1882 -0.6105 -0.5498
  317MPD2    C3 4764   0.730   3.878  12.308 -0.3966  0.8878  0.0346
  317MPD2    C4 4765   0.601   3.924  12.319  0.4880  0.6424 -0.1472
  317MPD2    C5 4766   0.547   4.002  12.218  0.3014 -0.3054 -0.0587
  317MPD2     H 4767   0.868   3.817  12.157 -0.1089 -0.9999  0.4988
  317MPD2    H1 4768   0.562   3.943  12.418 -0.1304 -0.4728 -0.1775
  317MPD2    H2 4769   0.521   4.018  12.014 -0.0662  0.3537  0.2180
  317MPD2    H3 4770   0.446   4.040  12.232 -0.4040 -1.5983 -1.5688
  317MPD2     N 4771   0.800   3.849  12.422  0.2296 -0.2710  0.8094
  317MPD2    H5 4772   0.897   3.821  12.417  0.7944  2.0214 -1.4812
  317MPD2    N1 4773   0.747   3.883  11.937 -0.9542  0.1982  0.0740
  317MPD2    H7 4774   0.825   3.818  11.939 -0.0770  1.2122 -1.8194
  318TMC3    C1 4775   0.871   3.836  12.639  0.0424 -0.2725  0.5226
  318TMC3    C2 4776   0.841   3.754  12.741  0.5059  0.3104 -0.0883
  318TMC3    C3 4777   0.953   3.698  12.808 -0.0081 -0.0185 -0.4443
  318TMC3    C4 4778   0.997   3.859  12.586  0.0369 -0.4807  0.1995
  318TMC3    C5 4779   1.102   3.798  12.652  0.0782  0.2481 -0.6407
  318TMC3    C6 4780   1.081   3.713  12.759 -0.1740  0.5099  0.0340
  318TMC3     C 4781   0.756   3.857  12.554 -0.4476  0.3085  0.3970
  318TMC3     O 4782   0.647   3.885  12.606  0.0174  0.5189 -0.2898
  318TMC3     H 4783   0.737   3.732  12.763  1.6502 -2.5585  2.5490
  318TMC3    H1 4784   1.007   3.927  12.502 -0.5638  0.1446  0.6239
  318TMC3    H2 4785   1.165   3.662  12.806 -1.0912  1.7745  3.0035
  318TMC3    C7 4786   1.237   3.814  12.598 -0.2527 -0.1774 -0.1120
  318TMC3    C8 4787   0.927   3.600  12.905 -0.2130 -0.3315 -0.0814
  318TMC3    O1 4788   1.246   3.906  12.518 -0.1781 -0.0789  0.1554
  318TMC3    O2 4789   0.824   3.618  12.969 -0.4612  0.4148 -0.5229
  319MPD2     C 4790   1.730   0.493  17.270  0.8136  0.2084 -0.3634
  319MPD2    C1 4791   1.788   0.375  17.230  0.3693 -0.4151  0.6592
  319MPD2    C2 4792   1.732   0.291  17.139  0.4358  0.6393 -0.2460
  319MPD2    C3 4793   1.603   0.317  17.102 -0.0777 -0.4280  0.0984
  319MPD2    C4 4794   1.554   0.438  17.139  0.1536 -0.1675 -0.1691
  319MPD2    C5 4795   1.612   0.531  17.222  0.0971  0.6246 -0.1934
  319MPD2     H 4796   1.778   0.195  17.120 -0.6228  0.2721 -0.9434
  319MPD2    H1 4797   1.463   0.466  17.086  0.3857  1.8305  0.5092
  319MPD2    H2 4798   1.772   0.558  17.346  2.8312  0.0573 -1.3587
  319MPD2    H3 4799   1.564   0.624  17.249  1.9714  2.0405 -1.7071
  319MPD2     N 4800   1.539   0.231  17.006 -0.0030  0.0670  0.4398
  319MPD2    H5 4801   1.459   0.266  16.955  2.2985  0.4130 -2.9211
  319MPD2    N1 4802   1.917   0.341  17.283 -0.0280  0.5442  0.8917
  319MPD2    H7 4803   1.969   0.262  17.244 -0.8753  0.4130  0.0079
  320TMC3    C1 4804   1.515   0.060  16.843  0.6281 -0.2597  0.1760
  320TMC3    C2 4805   1.473   0.153  16.749 -0.1489  0.5919 -0.4631
  320TMC3    C3 4806   1.456   0.103  16.624  0.4066 -0.2850 -0.7390
  320TMC3    C4 4807   1.528   4.651  16.819 -0.2574  0.0511 -0.0111
  320TMC3    C5 4808   1.522   4.611  16.691  0.8881 -0.2585 -0.3232
  320TMC3    C6 4809   1.481   4.694  16.589  0.1534  0.5273  0.0053
  320TMC3     C 4810   1.575   0.104  16.966 -0.0982 -0.2045 -0.4458
  320TMC3     O 4811   1.656   0.029  17.017 -0.2285  0.1223 -0.3128
  320TMC3     H 4812   1.461   0.259  16.767  1.3324  0.7622 -0.4885
  320TMC3    H1 4813   1.543   4.586  16.905  0.4713 -1.1208 -1.0291
  320TMC3    H2 4814   1.447   4.652  16.496 -0.5593  0.0549  0.4780
  320TMC3    C7 4815   1.575   4.483  16.654 -1.0770  0.7659  0.3800
  320TMC3    C8 4816   1.416   0.202  16.526 -0.3763  0.2360  0.1960
  320TMC3    O1 4817   1.632   4.489  16.543 -0.1256 -0.4665  0.0405
  320TMC3    O2 4818   1.355   0.297  16.571 -0.0911 -0.3543  0.2521
  321TMC3    C1 4819   2.104   0.343  17.409 -0.3982  0.3567  0.1639
  321TMC3    C2 4820   2.070   0.211  17.429  0.1767  0.8019 -0.0593
  321TMC3    C3 4821   2.156   0.110  17.376  0.1108  0.6121 -0.1732
  321TMC3    C4 4822   2.225   0.381  17.354 -0.2123  0.8963  1.2904
  321TMC3    C5 4823   2.307   0.279  17.309 -0.7668 -0.1003 -0.1445
  321TMC3    C6 4824   2.273   0.152  17.316  0.1001 -0.0112  0.3410
  321TMC3     C 4825   1.991   0.416  17.366 -0.2809 -0.0935 -0.2602
  321TMC3     O 4826   1.993   0.538  17.394 -0.4041 -0.0855 -0.6818
  321TMC3     H 4827   1.987   0.185  17.493  0.1279  0.5767 -0.2134
  321TMC3    H1 4828   2.257   0.485  17.350 -1.0641  1.0754 -1.1705
  321TMC3    H2 4829   2.338   0.091  17.254  1.2937  3.5892 -1.9750
  321TMC3    C7 4830   2.445   0.309  17.323  0.4334  0.0227 -0.2566
  321TMC3    C8 4831   2.200   0.013  17.477  0.3857 -0.1461 -0.9363
  321TMC3    O1 4832   2.475   0.429  17.314  0.0525  0.4869 -0.2533
  321TMC3    O2 4833   2.320   0.010  17.483  0.3797 -0.3295 -0.1923
  322MPD2     C 4834   0.815   2.237  14.403  0.1924  0.0220  0.1601
  322MPD2    C1 4835   0.819   2.130  14.492  0.4548 -0.4207 -0.3259
  322MPD2    C2 4836   0.799   2.002  14.447  0.1549  0.0841  0.2491
  322MPD2    C3 4837   0.794   1.978  14.315  0.0739 -0.1136  0.5554
  322MPD2    C4 4838   0.791   2.077  14.223  0.4631  0.8193 -0.9056
  322MPD2    C5 4839   0.802   2.209  14.271  0.8605 -0.3799 -0.3187
  322MPD2     H 4840   0.817   1.924  14.520  1.1302 -0.1944 -0.3047
  322MPD2    H1 4841   0.770   2.061  14.118 -2.2677  1.4942 -0.4518
  322MPD2    H2 4842   0.836   2.337  14.438  2.9585 -0.9338  1.1942
  322MPD2    H3 4843   0.800   2.288  14.198 -2.7493 -0.6996 -0.5709
  322MPD2     N 4844   0.796   1.839  14.284  0.0573  0.3526  0.0162
  322MPD2    H5 4845   0.811   1.770  14.357  0.9297 -1.6648 -2.0784
  322MPD2    N1 4846   0.847   2.161  14.624 -0.0808 -0.4128  0.6705
  322MPD2    H7 4847   0.880   2.256  14.642  0.8354 -0.4945 -0.5685
  323TMC3    C1 4848   0.917   2.136  14.846 -0.0982 -0.4899  0.2192
  323TMC3    C2 4849   1.040   2.201  14.831  0.2447 -0.2717  0.2886
  323TMC3    C3 4850   1.118   2.187  14.945 -0.7434 -0.7801  0.4206
  323TMC3    C4 4851   0.878   2.073  14.966  0.5570  0.3921 -0.1620
  323TMC3    C5 4852   0.962   2.073  15.075 -0.7084  0.0246 -0.2259
  323TMC3    C6 4853   1.079   2.139  15.064  0.1000 -0.1249  0.0203
  323TMC3     C 4854   0.853   2.072  14.730 -0.2455  0.2447  0.2302
  323TMC3     O 4855   0.816   1.954  14.739 -0.0200  0.3638  0.4114
  323TMC3     H 4856   1.078   2.241  14.738 -1.3576 -0.1999 -0.3410
  323TMC3    H1 4857   0.783   2.022  14.970  0.7084  0.0020 -1.3297
  323TMC3    H2 4858   1.151   2.137  15.145 -0.8123  0.8505  0.8557
  323TMC3    C7 4859   0.956   1.961  15.160 -0.3258 -0.3675  0.4336
  323TMC3    C8 4860   1.264   2.191  14.935  0.4903 -0.5464 -0.3389
  323TMC3    O1 4861   0.887   1.871  15.118  0.0138 -0.0079  0.1651
  323TMC3    O2 4862   1.327   2.148  15.031  0.1086  0.4361  0.2048
  324MPD2     C 4863   2.591   2.844  14.852  0.4198 -0.2743  0.9900
  324MPD2    C1 4864   2.568   2.966  14.790  1.0462 -0.7276  0.1845
  324MPD2    C2 4865   2.448   3.032  14.812  0.3026  1.0020 -0.4055
  324MPD2    C3 4866   2.345   2.976  14.887 -0.1394 -0.4151  1.0391
  324MPD2    C4 4867   2.365   2.850  14.925 -0.4446  0.1698 -0.5998
  324MPD2    C5 4868   2.482   2.783  14.917 -0.3818  0.5893 -0.6450
  324MPD2     H 4869   2.434   3.126  14.761  0.8835  2.8314  2.7857
  324MPD2    H1 4870   2.289   2.793  14.978 -0.5866 -0.3589 -1.3771
  324MPD2    H2 4871   2.683   2.793  14.825  0.4262  0.4187 -0.3285
  324MPD2    H3 4872   2.486   2.682  14.955  0.1817 -0.2373 -2.9289
  324MPD2     N 4873   2.229   3.048  14.922 -0.3217  0.2050  0.2314
  324MPD2    H5 4874   2.171   3.006  14.994  0.5838 -0.9796  0.2738
  324MPD2    N1 4875   2.659   3.033  14.709 -0.2701  0.4520  0.3667
  324MPD2    H7 4876   2.623   3.115  14.662 -1.7295 -0.3339  0.1194
  325TMC3    C1 4877   2.039   3.175  14.870  0.1504 -1.0761 -0.2709
  325TMC3    C2 4878   1.967   3.060  14.868 -0.6767  0.6962 -0.1906
  325TMC3    C3 4879   1.837   3.071  14.821 -0.3348 -0.1527  0.6258
  325TMC3    C4 4880   1.996   3.298  14.812 -0.5303 -0.3408 -0.2404
  325TMC3    C5 4881   1.870   3.303  14.762  0.2130 -0.2487 -0.1153
  325TMC3    C6 4882   1.794   3.183  14.757  0.1210 -0.5229 -0.7959
  325TMC3     C 4883   2.186   3.166  14.867  0.0809 -0.1917  0.9442
  325TMC3     O 4884   2.238   3.253  14.803  0.6512 -0.2769 -0.2519
  325TMC3     H 4885   2.009   2.969  14.909  0.2672  0.3452 -1.9629
  325TMC3    H1 4886   2.051   3.391  14.818  1.0233 -1.2628 -0.0465
  325TMC3    H2 4887   1.692   3.188  14.722  0.0015 -0.2989 -0.4226
  325TMC3    C7 4888   1.808   3.432  14.739 -0.0556 -0.3803 -0.2151
  325TMC3    C8 4889   1.768   2.950  14.776  0.3090 -0.0682  0.0810
  325TMC3    O1 4890   1.875   3.529  14.771 -0.1500 -0.0649  1.0603
  325TMC3    O2 4891   1.779   2.847  14.840  0.1947 -0.3457  0.1746
  326MPD2     C 4892   3.530   3.748  11.495  0.1523  0.6879 -0.1074
  326MPD2    C1 4893   3.547   3.763  11.364 -0.1687 -0.2892  0.0795
  326MPD2    C2 4894   3.648   3.844  11.310 -0.4929  0.5322  0.3765
  326MPD2    C3 4895   3.746   3.893  11.391  0.0049  0.3613  0.6351
  326MPD2    C4 4896   3.719   3.879  11.525 -0.1964 -0.2323  0.0991
  326MPD2    C5 4897   3.616   3.810  11.577  0.2601  0.3153  0.3624
  326MPD2     H 4898   3.655   3.855  11.203  1.9811 -1.8356  0.2955
  326MPD2    H1 4899   3.784   3.930  11.596  1.9180 -2.8734  0.0414
  326MPD2    H2 4900   3.455   3.691  11.548 -1.6226  2.0167 -1.1772
  326MPD2    H3 4901   3.601   3.803  11.684 -0.1984  0.1588  0.2880
  326MPD2     N 4902   3.854   3.973  11.345  0.1603  0.1177 -0.0744
  326MPD2    H5 4903   3.900   4.020  11.422 -0.3287 -2.5812  1.8815
  326MPD2    N1 4904   3.453   3.714  11.270 -0.2567 -0.0171 -0.0974
  326MPD2    H7 4905   3.472   3.730  11.172 -1.5779 -0.7252 -0.4576
  327TMC3    C1 4906   3.308   3.547  11.184 -0.3232 -0.3359 -0.2605
  327TMC3    C2 4907   3.220   3.599  11.096 -0.0282  0.3040 -0.5837
  327TMC3    C3 4908   3.239   3.580  10.957  0.0215 -0.1925 -0.7611
  327TMC3    C4 4909   3.419   3.482  11.139 -0.2451 -0.5813  0.1351
  327TMC3    C5 4910   3.435   3.468  11.004 -0.1436 -0.3501 -0.2987
  327TMC3    C6 4911   3.339   3.507  10.917  0.5908 -0.3329  0.3031
  327TMC3     C 4912   3.346   3.632  11.296  0.6439 -0.5060 -0.0704
  327TMC3     O 4913   3.284   3.630  11.400 -0.2125  0.5486  0.1978
  327TMC3     H 4914   3.137   3.658  11.132 -0.9651 -0.8770 -0.7778
  327TMC3    H1 4915   3.494   3.470  11.217  0.6152  1.7746 -0.3074
  327TMC3    H2 4916   3.350   3.489  10.811 -0.1843 -1.6085  0.4325
  327TMC3    C7 4917   3.569   3.460  10.950  0.6730  0.5954 -0.0010
  327TMC3    C8 4918   3.209   3.691  10.873 -0.1216  0.4525 -0.0904
  327TMC3    O1 4919   3.584   3.473  10.829  0.1974 -0.2791  0.1961
  327TMC3    O2 4920   3.298   3.717  10.798  0.1382 -0.1346  0.4875
  328MPD2     C 4921   1.553   3.753   0.255  0.6598  0.9697 -0.4138
  328MPD2    C1 4922   1.442   3.697   0.211 -0.2245  0.2462 -0.0070
  328MPD2    C2 4923   1.390   3.737   0.087  0.5196  0.1240  0.6655
  328MPD2    C3 4924   1.459   3.827   0.010 -0.1551  0.4747 -0.9590
  328MPD2    C4 4925   1.567   3.889   0.062  0.0555 -0.4978 -0.3755
  328MPD2    C5 4926   1.615   3.844   0.179  0.1188 -0.4258 -0.6647
  328MPD2     H 4927   1.287   3.720   0.056 -0.9560  1.0932  4.9996
  328MPD2    H1 4928   1.637   3.944  17.689 -0.3139 -2.1845 -2.2459
  328MPD2    H2 4929   1.584   3.721   0.354 -0.8439  0.5788 -0.0620
  328MPD2    H3 4930   1.710   3.885   0.212 -1.5310  3.3489 -0.6116
  328MPD2     N 4931   1.419   3.866  17.572  0.5979  0.2809  0.1390
  328MPD2    H5 4932   1.463   3.948  17.531  0.7782  0.3778  0.5257
  328MPD2    N1 4933   1.378   3.619   0.307  0.3635  0.3553 -0.0125
  328MPD2    H7 4934   1.424   3.614   0.398 -1.4294 -0.0384  0.8775
  329TMC3    C1 4935   1.187   3.555   0.425 -0.0710  0.5091  0.1549
  329TMC3    C2 4936   1.063   3.495   0.404  0.3139 -0.4870  0.2963
  329TMC3    C3 4937   0.962   3.529   0.492 -0.4973  0.0619  0.0745
  329TMC3    C4 4938   1.210   3.654   0.510 -0.6735  0.4053 -0.0816
  329TMC3    C5 4939   1.106   3.676   0.590 -0.3630  0.4458 -0.0930
  329TMC3    C6 4940   0.986   3.616   0.586  0.1926 -0.2427  0.5646
  329TMC3     C 4941   1.254   3.565   0.296  0.0155  0.1145 -1.0884
  329TMC3     O 4942   1.193   3.545   0.190 -0.3900 -0.1734 -0.4623
  329TMC3     H 4943   1.044   3.416   0.332  0.9788  0.3086 -0.7569
  329TMC3    H1 4944   1.307   3.700   0.518  0.6752 -2.9950  2.8559
  329TMC3    H2 4945   0.916   3.618   0.669  0.1619  0.3315  0.5246
  329TMC3    C7 4946   1.141   3.734   0.718 -0.3946  0.7726 -0.1079
  329TMC3    C8 4947   0.849   3.566   0.405 -0.1925 -0.3197  0.6371
  329TMC3    O1 4948   1.096   3.679   0.816 -0.4195 -0.6864 -0.4383
  329TMC3    O2 4949   0.825   3.484   0.315 -0.5260 -0.3069  0.0615
  330TMC3    C1 4950   3.412   2.621  10.166 -0.5110  0.2698  0.3641
  330TMC3    C2 4951   3.336   2.521  10.120 -0.3441 -0.3839  0.4817
  330TMC3    C3 4952   3.399   2.407  10.096 -0.7180 -0.0375 -0.1725
  330TMC3    C4 4953   3.550   2.610  10.183  0.1083  0.6552 -0.4982
  330TMC3    C5 4954   3.606   2.483  10.166  0.6008 -0.3743 -0.2514
  330TMC3    C6 4955   3.531   2.382  10.125 -0.8512  0.1299 -0.0091
  330TMC3     C 4956   3.373   2.757  10.117 -0.1982 -0.5987  0.0577
  330TMC3     O 4957   3.458   2.847  10.127  0.6992  0.2862  0.6409
  330TMC3     H 4958   3.227   2.525  10.117 -0.4669 -2.2158  3.4446
  330TMC3    H1 4959   3.608   2.685  10.236 -0.3734 -0.3634  1.4624
  330TMC3    H2 4960   3.565   2.280  10.134  2.3883  1.4840  3.1529
  330TMC3    C7 4961   3.749   2.486  10.151  0.1381  0.4945  0.8494
  330TMC3    C8 4962   3.313   2.291  10.061 -0.4269 -0.1612  0.1715
  330TMC3    O1 4963   3.813   2.577  10.198  0.4724  0.0117 -0.5442
  330TMC3    O2 4964   3.193   2.309  10.068 -0.6186 -0.5132 -0.3907
  331MPD2     C 4965   1.989   2.574  12.422  0.1516 -0.1909  0.6732
  331MPD2    C1 4966   2.077   2.496  12.501 -0.5105 -0.1497  0.0129
  331MPD2    C2 4967   2.065   2.354  12.500  0.3901 -0.0020  0.7479
  331MPD2    C3 4968   1.968   2.294  12.413  0.5969  0.1436 -0.0876
  331MPD2    C4 4969   1.880   2.375  12.347  0.1518 -0.4093 -0.5531
  331MPD2    C5 4970   1.890   2.509  12.356 -0.1067  0.3358  0.4133
  331MPD2     H 4971   2.145   2.302  12.552  0.2706 -0.5450  0.3883
  331MPD2    H1 4972   1.795   2.331  12.296  0.1347  1.2163 -1.8999
  331MPD2    H2 4973   2.001   2.681  12.423 -1.9070  0.0341  0.1460
  331MPD2    H3 4974   1.817   2.572  12.305 -0.3704  0.1428  0.5501
  331MPD2     N 4975   1.968   2.157  12.408  0.2719  0.2340 -0.5680
  331MPD2    H5 4976   2.030   2.103  12.468 -2.0589 -0.2532  1.3628
  331MPD2    N1 4977   2.160   2.564  12.588  0.0299  0.8228 -0.3101
  331MPD2    H7 4978   2.146   2.664  12.580 -1.0565  0.6962 -0.0803
  332TMC3    C1 4979   1.932   1.949  12.322  0.1311  0.1699 -0.1283
  332TMC3    C2 4980   2.033   1.916  12.237 -0.2843 -0.0661  0.5091
  332TMC3    C3 4981   2.145   1.846  12.284 -0.7845  0.1480  0.6825
  332TMC3    C4 4982   1.936   1.904  12.449 -0.3978  1.0683  0.4652
  332TMC3    C5 4983   2.039   1.818  12.487  0.6490  0.0112 -0.3855
  332TMC3    C6 4984   2.149   1.793  12.407  0.1896 -0.0181  0.0490
  332TMC3     C 4985   1.887   2.085  12.317  0.2231 -0.8463  0.3106
  332TMC3     O 4986   1.820   2.121  12.221  0.7469  0.1769  0.4786
  332TMC3     H 4987   2.049   1.989  12.159  1.2922 -0.9254  0.0099
  332TMC3    H1 4988   1.857   1.928  12.519 -0.9621  1.4551 -0.2933
  332TMC3    H2 4989   2.247   1.755  12.433  0.0095 -1.3708 -1.2824
  332TMC3    C7 4990   2.056   1.787  12.625 -0.3621 -0.3550  0.3213
  332TMC3    C8 4991   2.270   1.855  12.218  0.2137  0.0638  0.1421
  332TMC3    O1 4992   1.966   1.822  12.697 -0.6059 -0.2535 -0.0985
  332TMC3    O2 4993   2.368   1.884  12.285  0.0659 -0.2753  0.7096
  333MPD2     C 4994   2.426   1.791  10.988  0.1902  0.3508 -0.5356
  333MPD2    C1 4995   2.519   1.708  10.940  0.5826 -0.5321 -0.1754
  333MPD2    C2 4996   2.508   1.572  10.955 -0.0562 -0.4134 -0.2739
  333MPD2    C3 4997   2.403   1.516  11.023 -0.5763 -0.5667  0.2535
  333MPD2    C4 4998   2.318   1.602  11.084  0.5189 -0.1549 -0.1448
  333MPD2    C5 4999   2.333   1.738  11.067  0.3250  0.5356  0.5438
  333MPD2     H 5000   2.583   1.512  10.905 -0.8034 -1.2832 -0.3540
  333MPD2    H1 5001   2.236   1.571  11.147  1.0508 -2.4692 -0.5807
  333MPD2    H2 5002   2.440   1.899  10.992  1.3396  0.2907 -2.9194
  333MPD2    H3 5003   2.269   1.794  11.134  0.8379  0.2476  1.2777
  333MPD2     N 5004   2.393   1.374  11.035 -0.4703  0.1269  0.2475
  333MPD2    H5 5005   2.463   1.325  10.981  0.1421  0.2581  0.9212
  333MPD2    N1 5006   2.635   1.773  10.896  0.0918 -0.3001 -0.4220
  333MPD2    H7 5007   2.647   1.872  10.915 -1.8298 -0.4467  1.5881
  334TMC3    C1 5008   2.852   1.802  10.819  0.4002 -0.1230 -0.2095
  334TMC3    C2 5009   2.936   1.778  10.710  0.4295  0.1390  0.1673
  334TMC3    C3 5010   3.041   1.863  10.688  0.5129 -0.0981 -0.5093
  334TMC3    C4 5011   2.880   1.901  10.910  0.3516 -0.5485  0.3629
  334TMC3    C5 5012   2.977   1.988  10.876  0.0373  0.3666 -0.7673
  334TMC3    C6 5013   3.063   1.966  10.771 -0.2749 -0.4457  0.6326
  334TMC3     C 5014   2.743   1.707  10.836 -0.0029 -0.0584 -0.7132
  334TMC3     O 5015   2.753   1.601  10.773 -0.3328 -0.3350 -0.0615
  334TMC3     H 5016   2.931   1.688  10.651 -0.1752  0.6567 -0.5643
  334TMC3    H1 5017   2.820   1.917  10.999 -0.1601 -0.6969  0.0462
  334TMC3    H2 5018   3.129   2.046  10.738  0.6278 -0.8920  1.3684
  334TMC3    C7 5019   2.990   2.115  10.953 -0.0471 -0.4283  0.4549
  334TMC3    C8 5020   3.150   1.796  10.622 -0.3156 -0.4986  0.9535
  334TMC3    O1 5021   2.955   2.121  11.071  0.2647  1.0675  0.4783
  334TMC3    O2 5022   3.132   1.693  10.558  0.0168  0.5021 -0.2340
  335TMC3    C1 5023   2.225   3.571  17.672 -0.4136  0.0697 -0.8300
  335TMC3    C2 5024   2.213   3.547  17.538 -0.1793 -0.2709 -0.4638
  335TMC3    C3 5025   2.328   3.558  17.462  0.1288 -0.0720 -0.3044
  335TMC3    C4 5026   2.344   3.581   0.047 -0.0532 -0.0332 -0.4438
  335TMC3    C5 5027   2.450   3.601  17.653  0.4121  0.8378  0.0954
  335TMC3    C6 5028   2.445   3.599  17.516 -0.6508 -0.1737 -0.1322
  335TMC3     C 5029   2.102   3.565   0.061  0.5995 -0.7872 -0.6730
  335TMC3     O 5030   2.012   3.495   0.018 -0.6245  0.4498 -0.2370
  335TMC3     H 5031   2.116   3.523  17.496  0.2011 -0.8339 -1.0252
  335TMC3    H1 5032   2.364   3.564   0.152 -0.0489 -0.6581 -0.5501
  335TMC3    H2 5033   2.533   3.621  17.456 -1.4721  0.7761 -0.9855
  335TMC3    C7 5034   2.579   3.609   0.032 -0.8358 -0.0135  0.4924
  335TMC3    C8 5035   2.326   3.579  17.316 -0.2115 -0.0615 -0.1441
  335TMC3    O1 5036   2.671   3.552  17.661  0.3233 -0.0003 -0.2009
  335TMC3    O2 5037   2.422   3.631  17.260  0.7201 -0.1456 -0.8234
  336MPD2     C 5038   2.137   1.464  16.793 -1.0901 -0.8507  0.0103
  336MPD2    C1 5039   2.097   1.404  16.676 -0.6594 -0.1515 -0.4514
  336MPD2    C2 5040   2.132   1.270  16.652 -0.1658  0.5488 -0.3900
  336MPD2    C3 5041   2.206   1.194  16.741 -1.1931 -0.6643  0.1167
  336MPD2    C4 5042   2.246   1.261  16.857 -0.1199  1.2410  0.0677
  336MPD2    C5 5043   2.207   1.391  16.885  0.1626  0.2452  0.9629
  336MPD2     H 5044   2.102   1.227  16.557 -0.9460 -1.3713  0.7445
  336MPD2    H1 5045   2.305   1.213  16.935  1.3987  3.3142  0.2070
  336MPD2    H2 5046   2.121   1.567  16.823  1.0021  0.0897 -2.0932
  336MPD2    H3 5047   2.240   1.429  16.981  3.0504  0.8630 -0.2915
  336MPD2     N 5048   2.221   1.054  16.725 -0.1568  0.1238  0.2691
  336MPD2    H5 5049   2.169   1.009  16.651  1.8115 -2.2207  0.3137
  336MPD2    N1 5050   2.020   1.474  16.580 -0.0851 -0.2417  0.1135
  336MPD2    H7 5051   2.030   1.427  16.490 -0.5265  1.1228 -0.6488
  337TMC3    C1 5052   1.915   1.631  16.452  0.6970 -0.9514 -0.5396
  337TMC3    C2 5053   1.805   1.713  16.440 -0.0857 -0.0909  0.1612
  337TMC3    C3 5054   1.741   1.728  16.323 -0.5024  0.2177 -0.0230
  337TMC3    C4 5055   1.969   1.574  16.343  0.1748  0.4014 -0.3596
  337TMC3    C5 5056   1.922   1.614  16.219 -0.0275 -0.1200  0.2184
  337TMC3    C6 5057   1.808   1.692  16.213 -0.3171 -0.6546  0.2670
  337TMC3     C 5058   1.961   1.600  16.583 -0.3061  0.2090  0.4396
  337TMC3     O 5059   1.938   1.667  16.681  0.2796  0.0926 -0.2465
  337TMC3     H 5060   1.763   1.744  16.535 -1.5761  0.3265 -0.6243
  337TMC3    H1 5061   2.057   1.510  16.348 -0.1106  0.0519  0.1652
  337TMC3    H2 5062   1.781   1.751  16.126  1.5549 -2.7443 -1.7339
  337TMC3    C7 5063   2.014   1.611  16.106 -0.4957 -0.6356 -0.9288
  337TMC3    C8 5064   1.612   1.802  16.313 -0.5383 -0.1885 -0.5083
  337TMC3    O1 5065   1.973   1.661  16.003 -0.2123  0.2049 -0.4025
  337TMC3    O2 5066   1.577   1.868  16.412 -0.1624  0.0677  0.6480
  338MPD2     C 5067   1.786   4.660   0.407  0.7581 -0.4638  0.4627
  338MPD2    C1 5068   1.842   0.000   0.518 -0.3554 -0.0395 -0.8026
  338MPD2    C2 5069   1.777   0.000   0.636 -0.3022  0.1011  0.1703
  338MPD2    C3 5070   1.651   4.667   0.650 -0.4819  0.3161 -0.0462
  338MPD2    C4 5071   1.597   4.604   0.545  0.5263  0.2270 -0.5082
  338MPD2    C5 5072   1.669   4.598   0.428 -0.1827 -0.3378  0.4970
  338MPD2     H 5073   1.833   0.036   0.722  2.6467  1.3387 -2.2589
  338MPD2    H1 5074   1.500   4.556   0.539  1.8678 -2.2464 -2.0246
  338MPD2    H2 5075   1.828   4.647   0.308 -1.5356 -1.8269 -0.3256
  338MPD2    H3 5076   1.618   4.545   0.348  2.2744  2.0116 -2.6048
  338MPD2     N 5077   1.594   4.683   0.778 -0.7795  0.3281 -0.6598
  338MPD2    H5 5078   1.657   0.003   0.845 -2.0430 -0.4315  1.0060
  338MPD2    N1 5079   1.967   0.064   0.506  0.0799  0.7894 -0.2185
  338MPD2    H7 5080   2.008   0.109   0.587  0.3187  1.5762 -0.7772
  339TMC3    C1 5081   1.472   4.673   0.971 -0.2693 -0.1272  0.3417
  339TMC3    C2 5082   1.347   4.687   1.029  0.0075  0.2453  0.7074
  339TMC3    C3 5083   1.340   0.024   1.153  1.0741  0.0068 -0.2537
  339TMC3    C4 5084   1.584   4.693   1.045  0.3947 -0.8604  0.0068
  339TMC3    C5 5085   1.568   0.026   1.170  0.2662  1.2096 -0.3010
  339TMC3    C6 5086   1.448   0.073   1.216  0.0700  0.8029  0.4005
  339TMC3     C 5087   1.469   4.640   0.827  0.8180 -0.5252  0.4801
  339TMC3     O 5088   1.374   4.603   0.770  0.6566  0.0109 -0.6441
  339TMC3     H 5089   1.263   4.671   0.963  0.1779  2.8953 -0.1658
  339TMC3    H1 5090   1.686   4.664   1.021  1.0982  0.4527  1.4047
  339TMC3    H2 5091   1.446   0.143   1.299 -1.6430  1.6028 -0.3249
  339TMC3    C7 5092   1.694   0.042   1.250 -0.5324  0.0220 -0.7113
  339TMC3    C8 5093   1.204   0.069   1.187 -0.1875  0.8126 -0.0596
  339TMC3    O1 5094   1.795   0.018   1.188 -0.1843  0.2007 -0.1467
  339TMC3    O2 5095   1.124   0.084   1.097  0.1700 -0.3327 -0.1376
  340MPD2     C 5096   1.942   3.174  10.759 -0.0832  0.9521 -0.1462
  340MPD2    C1 5097   2.051   3.248  10.715  0.3704 -0.2924 -0.4850
  340MPD2    C2 5098   2.084   3.363  10.786  0.5708  0.2962  0.1264
  340MPD2    C3 5099   2.027   3.381  10.910  0.2967 -0.6793 -0.4404
  340MPD2    C4 5100   1.929   3.294  10.960  0.0437  0.6064 -0.1063
  340MPD2    C5 5101   1.882   3.201  10.879  0.2883  0.1653  0.9801
  340MPD2     H 5102   2.157   3.430  10.743  1.2598 -0.2450  0.4338
  340MPD2    H1 5103   1.882   3.309  11.057 -1.3692  2.0199 -1.0028
  340MPD2    H2 5104   1.914   3.082  10.709 -1.8963 -0.5566  3.6701
  340MPD2    H3 5105   1.814   3.126  10.916 -2.2270  2.5890  1.2240
  340MPD2     N 5106   2.072   3.481  11.009 -0.8027  0.1169 -0.3667
  340MPD2    H5 5107   2.042   3.474  11.106  3.1015  1.4639  0.9462
  340MPD2    N1 5108   2.123   3.218  10.595  0.0420  0.6223  0.0064
  340MPD2    H7 5109   2.085   3.138  10.545  1.9361 -0.4238  0.2154
  341TMC3    C1 5110   2.295   3.181  10.451 -0.1943  0.5789 -0.2720
  341TMC3    C2 5111   2.206   3.127  10.360  0.1163 -0.7825 -0.6443
  341TMC3    C3 5112   2.253   3.049  10.264 -0.4860 -0.3068  0.6891
  341TMC3    C4 5113   2.423   3.132  10.468 -0.2602  0.5980  0.2999
  341TMC3    C5 5114   2.468   3.048  10.369 -0.2707 -0.9029 -0.6594
  341TMC3    C6 5115   2.380   3.001  10.265  0.1283 -0.5554  1.2757
  341TMC3     C 5116   2.251   3.260  10.565  0.4935 -0.4189 -0.0693
  341TMC3     O 5117   2.334   3.319  10.635  0.2149 -0.4236 -0.4095
  341TMC3     H 5118   2.117   3.186  10.341  0.4394  0.3703  1.4262
  341TMC3    H1 5119   2.490   3.172  10.543  2.8323 -1.4242 -1.3263
  341TMC3    H2 5120   2.412   2.938  10.184 -0.7129 -1.2410  1.4743
  341TMC3    C7 5121   2.599   3.003  10.347 -0.2103  0.5470  0.7896
  341TMC3    C8 5122   2.177   3.039  10.140 -0.3738 -0.2480  0.2307
  341TMC3    O1 5123   2.618   2.886  10.324  0.6203  0.1246  0.1226
  341TMC3    O2 5124   2.197   2.943  10.067  0.7627  0.4448 -0.3840
  342MPD2     C 5125   0.444   1.602   0.492 -0.4365  0.2892 -0.1723
  342MPD2    C1 5126   0.452   1.629   0.356  0.4104 -0.1619  0.3413
  342MPD2    C2 5127   0.407   1.754   0.312  0.0434 -0.0025  0.7637
  342MPD2    C3 5128   0.364   1.848   0.409 -1.1389  0.0925  0.3530
  342MPD2    C4 5129   0.346   1.811   0.541 -0.0956 -0.2085 -0.6582
  342MPD2    C5 5130   0.389   1.689   0.580 -0.1824  0.0324 -0.2158
  342MPD2     H 5131   0.419   1.784   0.209 -1.6017 -2.3554 -0.1239
  342MPD2    H1 5132   0.314   1.890   0.607  1.0223 -1.3396  1.2473
  342MPD2    H2 5133   0.494   1.514   0.530 -1.2459  1.2477  3.1603
  342MPD2    H3 5134   0.402   1.670   0.686 -0.8142 -2.4363 -0.5860
  342MPD2     N 5135   0.331   1.981   0.378  0.9335 -0.9503 -0.5197
  342MPD2    H5 5136   0.262   2.023   0.439  0.8062 -1.1042 -0.5603
  342MPD2    N1 5137   0.497   1.541   0.263  0.3930  0.1891  0.0163
  342MPD2    H7 5138   0.495   1.572   0.166 -0.6124  0.8759  0.2679
  343TMC3    C1 5139   0.565   1.330   0.171  0.3195  0.2887 -0.1795
  343TMC3    C2 5140   0.607   1.403   0.064 -0.0872  0.0423 -0.2047
  343TMC3    C3 5141   0.587   1.340  17.634  0.4721  0.3864  0.4367
  343TMC3    C4 5142   0.516   1.201   0.165  0.3393 -1.3209 -0.0621
  343TMC3    C5 5143   0.504   1.147   0.048 -0.0755 -0.2702  0.6275
  343TMC3    C6 5144   0.536   1.218  17.622 -0.1039  0.2811 -0.1139
  343TMC3     C 5145   0.533   1.404   0.288 -0.3098 -0.2391  0.2846
  343TMC3     O 5146   0.519   1.344   0.396  0.3029 -0.7965  0.5391
  343TMC3     H 5147   0.671   1.488   0.082 -0.9593  0.5866  0.3249
  343TMC3    H1 5148   0.474   1.162   0.257  1.3613 -0.3909  0.7984
  343TMC3    H2 5149   0.513   1.171  17.528  1.8557 -0.3325 -0.2747
  343TMC3    C7 5150   0.423   1.027   0.023  0.1267  0.1895 -0.9135
  343TMC3    C8 5151   0.654   1.402  17.522 -0.4019  0.0003 -0.3972
  343TMC3    O1 5152   0.386   1.011  17.599  0.1720  0.0902 -0.3998
  343TMC3    O2 5153   0.653   1.523  17.529 -0.1320 -0.2797  0.2783
  344MPD2     C 5154   1.115   1.144  10.682 -0.7720 -0.0168 -0.3922
  344MPD2    C1 5155   1.235   1.145  10.743 -0.8706  0.5268 -0.8463
  344MPD2    C2 5156   1.341   1.222  10.699 -0.3467 -0.3317  0.5885
  344MPD2    C3 5157   1.323   1.288  10.574  0.1210  0.3265  0.1473
  344MPD2    C4 5158   1.197   1.293  10.516  0.0646 -0.2708 -0.2633
  344MPD2    C5 5159   1.092   1.226  10.573  0.5781 -0.1120 -0.0300
  344MPD2     H 5160   1.434   1.231  10.753 -0.4104  0.4951  0.5754
  344MPD2    H1 5161   1.181   1.360  10.432  0.6503  0.4092  0.1662
  344MPD2    H2 5162   1.031   1.096  10.732 -0.7133 -1.2696 -1.4982
  344MPD2    H3 5163   0.995   1.242  10.527  0.4609  0.1304  0.3066
  344MPD2     N 5164   1.427   1.348  10.496 -0.2716 -0.2628 -0.3599
  344MPD2    H5 5165   1.409   1.401  10.411  2.0909  1.4463  0.2147
  344MPD2    N1 5166   1.250   1.072  10.863 -0.3969 -0.1476  0.1880
  344MPD2    H7 5167   1.328   1.093  10.925 -1.1631 -0.7613  1.3814
  345TMC3    C1 5168   1.632   1.417  10.432  0.4795 -0.4157 -0.6649
  345TMC3    C2 5169   1.757   1.449  10.484 -0.3597  0.6197 -0.4551
  345TMC3    C3 5170   1.839   1.523  10.401  0.0000 -0.4829  0.4897
  345TMC3    C4 5171   1.581   1.458  10.308  0.1225  0.2064 -0.4806
  345TMC3    C5 5172   1.677   1.534  10.237 -0.0020  0.0122 -0.1094
  345TMC3    C6 5173   1.797   1.579  10.286 -0.3779 -0.4223  0.3533
  345TMC3     C 5174   1.560   1.328  10.520 -0.2466  0.0369 -0.6132
  345TMC3     O 5175   1.616   1.260  10.602  0.2447 -0.5952 -0.0650
  345TMC3     H 5176   1.780   1.421  10.586 -0.4454  2.3178  0.0265
  345TMC3    H1 5177   1.496   1.413  10.258 -1.5164  2.5060  0.2232
  345TMC3    H2 5178   1.860   1.650  10.235 -0.7494 -0.7337 -0.5396
  345TMC3    C7 5179   1.636   1.620  10.124 -0.8978  0.9848  0.3174
  345TMC3    C8 5180   1.913   1.622  10.479  0.5530  1.4956  0.4371
  345TMC3    O1 5181   1.712   1.700  10.078  0.4131 -0.9484 -0.1117
  345TMC3    O2 5182   1.861   1.661  10.583 -0.4817  0.0544 -0.3304
  346MPD2     C 5183   0.944   3.066  13.715 -0.1908  0.3606  0.4051
  346MPD2    C1 5184   0.980   3.202  13.711  0.1698  0.0527  0.2080
  346MPD2    C2 5185   0.963   3.276  13.823 -0.3202 -0.6662  0.0952
  346MPD2    C3 5186   0.904   3.220  13.937 -0.1387  0.0928 -0.4016
  346MPD2    C4 5187   0.861   3.091  13.945  0.1604 -0.3809  0.2743
  346MPD2    C5 5188   0.892   3.013  13.832  0.3148 -0.9673 -0.1437
  346MPD2     H 5189   1.008   3.375  13.830  2.2641 -1.8200 -0.1714
  346MPD2    H1 5190   0.828   3.035  14.032 -1.9963 -1.5180 -1.2838
  346MPD2    H2 5191   0.960   3.008  13.625  0.4133  0.7383  0.2748
  346MPD2    H3 5192   0.868   2.908  13.830 -0.5523 -0.7733  0.0988
  346MPD2     N 5193   0.914   3.310  14.048 -0.1502 -0.2246  0.6401
  346MPD2    H5 5194   0.953   3.402  14.034 -1.3548 -0.0728 -1.6004
  346MPD2    N1 5195   1.042   3.259  13.603  0.2979  0.1727  0.4942
  346MPD2    H7 5196   1.059   3.358  13.614  1.5000 -0.1304  1.3232
  347TMC3    C1 5197   0.902   3.399  14.266 -0.6863  0.0581 -0.2822
  347TMC3    C2 5198   1.042   3.405  14.274  0.3029 -0.1389 -0.0169
  347TMC3    C3 5199   1.089   3.478  14.372 -0.2007  0.2125 -0.5766
  347TMC3    C4 5200   0.822   3.447  14.357  0.1714  0.7557 -0.2591
  347TMC3    C5 5201   0.870   3.534  14.448 -0.5548 -0.6948 -0.1280
  347TMC3    C6 5202   1.004   3.549  14.459  0.7276  0.7017 -0.3887
  347TMC3     C 5203   0.865   3.289  14.176  0.3640 -0.2202  0.3622
  347TMC3     O 5204   0.773   3.214  14.209 -0.4708  0.7013 -0.1061
  347TMC3     H 5205   1.107   3.346  14.211 -1.0073  1.3049 -2.7313
  347TMC3    H1 5206   0.718   3.422  14.335 -0.3458  0.9367  2.0006
  347TMC3    H2 5207   1.040   3.592  14.552  2.4949 -1.8427  0.0812
  347TMC3    C7 5208   0.779   3.565  14.554  0.3558 -0.1874 -0.1552
  347TMC3    C8 5209   1.223   3.463  14.424 -0.2289  0.1554 -0.5202
  347TMC3    O1 5210   0.666   3.524  14.556 -0.2010 -0.1392  0.2067
  347TMC3    O2 5211   1.288   3.360  14.402 -0.0684 -0.2484 -0.6037
  348MPD2     C 5212   4.441   2.917  12.478 -0.5002  0.5355  0.2420
  348MPD2    C1 5213   4.547   2.938  12.391 -0.2997 -0.0590  0.3804
  348MPD2    C2 5214   4.529   2.999  12.270  0.1856 -0.8862 -0.1768
  348MPD2    C3 5215   4.397   3.036  12.233 -0.5523  1.1989 -0.1547
  348MPD2    C4 5216   4.292   3.023  12.325  0.4188  0.0162  1.1179
  348MPD2    C5 5217   4.316   2.962  12.443 -0.5265 -0.2726  0.4459
  348MPD2     H 5218   4.608   3.024  12.199  0.9528  0.1284  1.0259
  348MPD2    H1 5219   4.193   3.063  12.311  1.1318  0.8484 -1.6091
  348MPD2    H2 5220   4.454   2.883  12.580 -0.5049  1.3011  0.4979
  348MPD2    H3 5221   4.245   2.977  12.522  1.0625  0.2265  1.7835
  348MPD2     N 5222   4.379   3.098  12.107  0.0718  0.6322 -0.1198
  348MPD2    H5 5223   4.460   3.113  12.047  0.5626 -1.3046  0.0369
  348MPD2    N1 5224   4.674   2.896  12.419  0.0765  0.4273 -0.8753
  348MPD2    H7 5225   0.021   2.924  12.350  0.4509 -0.3186 -0.8005
  349TMC3    C1 5226   0.143   2.822  12.516  0.4675 -0.6205 -0.0486
  349TMC3    C2 5227   0.203   2.707  12.569  0.1196 -0.4664  0.4150
  349TMC3    C3 5228   0.307   2.649  12.499 -0.2987 -0.1170 -0.0806
  349TMC3    C4 5229   0.191   2.898  12.415 -0.4742  0.1381 -0.5637
  349TMC3    C5 5230   0.291   2.829  12.345  0.0388 -0.1430 -0.4455
  349TMC3    C6 5231   0.344   2.705  12.379 -0.6307 -0.0010  0.7031
  349TMC3     C 5232   4.720   2.836  12.534 -0.1337  0.2912 -0.7723
  349TMC3     O 5233   4.669   2.784  12.630  0.0098 -0.5974 -0.7409
  349TMC3     H 5234   0.169   2.659  12.660  1.6064 -0.8858  0.7489
  349TMC3    H1 5235   0.156   2.999  12.395 -1.5635 -0.3864 -1.3249
  349TMC3    H2 5236   0.422   2.657  12.321 -0.3121  1.5671 -0.1725
  349TMC3    C7 5237   0.281   2.867  12.204  0.0515 -0.6875  0.3600
  349TMC3    C8 5238   0.398   2.564  12.573 -0.0681 -0.4340  0.2747
  349TMC3    O1 5239   0.189   2.943  12.172  0.2300 -0.6177 -0.5618
  349TMC3    O2 5240   0.351   2.501  12.667  0.3437 -0.2865 -0.2757
  350MPD2     C 5241   3.889   0.644   9.940  0.2040 -0.4458  0.0070
  350MPD2    C1 5242   3.933   0.588  10.060 -0.2258 -0.0446 -0.0486
  350MPD2    C2 5243   4.035   0.646  10.130 -0.3861 -0.0164  0.0520
  350MPD2    C3 5244   4.089   0.758  10.084  0.1865  0.9160  0.9927
  350MPD2    C4 5245   4.043   0.813   9.965  0.3030  0.2531 -0.1837
  350MPD2    C5 5246   3.953   0.751   9.887  0.2556 -0.0754  0.2519
  350MPD2     H 5247   4.059   0.609  10.229  0.9234 -2.2158 -1.0934
  350MPD2    H1 5248   4.087   0.900   9.918  1.2447  0.2778  0.7297
  350MPD2    H2 5249   3.824   0.588   9.873  1.6780  1.1632 -2.7988
  350MPD2    H3 5250   3.931   0.794   9.790 -0.4802 -0.7193  0.1312
  350MPD2     N 5251   4.174   0.818  10.172 -0.7667 -0.3368 -0.1483
  350MPD2    H5 5252   4.178   0.782  10.267 -1.1433  0.3938  0.1465
  350MPD2    N1 5253   3.877   0.471  10.117  0.0283 -0.4374 -0.3318
  350MPD2    H7 5254   3.913   0.430  10.202 -0.1940 -0.4600 -0.2485
  351TMC3    C1 5255   3.728   0.310  10.162 -0.1484  0.5042  0.7914
  351TMC3    C2 5256   3.829   0.223  10.200  0.6731 -0.2259 -0.6408
  351TMC3    C3 5257   3.788   0.117  10.278  1.1333  0.7114 -0.5844
  351TMC3    C4 5258   3.592   0.285  10.194  0.1102  0.3240  0.5331
  351TMC3    C5 5259   3.562   0.174  10.269 -0.5520 -0.1197  0.1356
  351TMC3    C6 5260   3.661   0.093  10.313  0.2705 -0.3329 -0.2976
  351TMC3     C 5261   3.757   0.428  10.082  0.1000 -0.1496  0.4283
  351TMC3     O 5262   3.674   0.482  10.014 -0.3640  0.2449  0.2435
  351TMC3     H 5263   3.927   0.229  10.156  0.3611 -2.5307 -1.6389
  351TMC3    H1 5264   3.517   0.337  10.136  1.1002  3.2586  1.8868
  351TMC3    H2 5265   3.652   0.012  10.384 -0.6887  1.1488  1.2674
  351TMC3    C7 5266   3.424   0.129  10.287 -0.6708  0.0146  0.1587
  351TMC3    C8 5267   3.883   0.003  10.304 -0.1144 -0.3036  0.7385
  351TMC3    O1 5268   3.345   0.216  10.266  0.8145  0.3069 -0.2963
  351TMC3    O2 5269   3.821   4.618  10.313  0.1829  0.0586  0.3386
  352MPD2     C 5270   1.772   3.180   0.728 -0.2197  0.5647 -0.5691
  352MPD2    C1 5271   1.874   3.176   0.831  0.2129 -0.4588  0.1463
  352MPD2    C2 5272   1.854   3.099   0.944  0.0763  0.1004  0.8463
  352MPD2    C3 5273   1.738   3.023   0.962 -0.1037 -0.2637 -0.0845
  352MPD2    C4 5274   1.638   3.031   0.868  0.2949 -0.2656 -0.1612
  352MPD2    C5 5275   1.657   3.110   0.753  0.0350 -0.0971 -0.1076
  352MPD2     H 5276   1.937   3.093   1.014 -0.4251 -0.4538  1.3977
  352MPD2    H1 5277   1.544   2.977   0.879 -0.6730  1.3836 -0.3384
  352MPD2    H2 5278   1.791   3.240   0.640 -2.4430  1.6827 -0.2832
  352MPD2    H3 5279   1.573   3.111   0.685 -0.4160 -1.5389  0.4221
  352MPD2     N 5280   1.721   2.919   1.057 -0.4145  0.0142 -0.1064
  352MPD2    H5 5281   1.638   2.862   1.048 -0.3100 -0.4881  2.1733
  352MPD2    N1 5282   1.995   3.233   0.800  0.3136  0.5725 -0.5852
  352MPD2    H7 5283   2.005   3.267   0.705  2.1759 -1.0674 -0.9774
  353TMC3    C1 5284   1.782   2.774   1.226  0.2998 -0.0944 -0.0746
  353TMC3    C2 5285   1.879   2.736   1.322 -0.2976 -0.2965  0.4412
  353TMC3    C3 5286   1.883   2.606   1.357  0.5859  0.2916 -0.0736
  353TMC3    C4 5287   1.706   2.682   1.166  0.4961 -0.3319 -0.0209
  353TMC3    C5 5288   1.720   2.551   1.205 -0.0520  0.6165 -0.6367
  353TMC3    C6 5289   1.817   2.505   1.295  0.9645 -0.1810 -0.0972
  353TMC3     C 5290   1.805   2.906   1.160 -0.1536  0.8936 -0.0996
  353TMC3     O 5291   1.898   2.968   1.201  0.3347 -0.6470 -0.6550
  353TMC3     H 5292   1.953   2.801   1.369 -2.7172  0.3816  3.3109
  353TMC3    H1 5293   1.633   2.703   1.089  0.1963 -0.7878  0.1359
  353TMC3    H2 5294   1.815   2.402   1.329 -2.6581  0.1291  0.6604
  353TMC3    C7 5295   1.654   2.449   1.122  0.1132  0.1554 -0.8913
  353TMC3    C8 5296   1.987   2.567   1.446  0.2138 -0.4686  0.6481
  353TMC3    O1 5297   1.709   2.343   1.101  0.5478  0.6250 -0.4328
  353TMC3    O2 5298   2.021   2.635   1.544 -0.7391  0.4667 -0.4861
  354TMC3    C1 5299   3.766   4.213  13.697 -0.0176 -0.0079 -0.0637
  354TMC3    C2 5300   3.669   4.310  13.668  0.3950 -0.0767  0.6287
  354TMC3    C3 5301   3.665   4.356  13.541 -0.3530 -0.1564 -0.4021
  354TMC3    C4 5302   3.859   4.178  13.597 -0.2448 -0.2508  0.3126
  354TMC3    C5 5303   3.847   4.232  13.472  0.7779 -0.3405  0.3542
  354TMC3    C6 5304   3.757   4.336  13.446 -0.0949  0.4522  0.0263
  354TMC3     C 5305   3.733   4.122  13.809  0.1518 -0.3529 -0.1532
  354TMC3     O 5306   3.622   4.127  13.857 -0.4246  0.1660 -0.5044
  354TMC3     H 5307   3.579   4.328  13.726 -1.0302 -0.2617 -1.4911
  354TMC3    H1 5308   3.910   4.082  13.603  0.1991 -0.0282  0.1058
  354TMC3    H2 5309   3.748   4.390  13.352  4.5416  1.8673  0.3970
  354TMC3    C7 5310   3.865   4.129  13.368  0.1965  0.2083  0.1120
  354TMC3    C8 5311   3.555   4.438  13.500 -0.7231  0.3119 -0.0032
  354TMC3    O1 5312   3.951   4.043  13.387  0.0243  0.0016 -0.3349
  354TMC3    O2 5313   3.519   4.419  13.383 -0.6827  0.3398 -0.3280
  355MPD2     C 5314   3.687   0.458  11.833  0.0341 -0.7975  0.3485
  355MPD2    C1 5315   3.792   0.400  11.763  0.0846 -0.2531 -0.6268
  355MPD2    C2 5316   3.903   0.382  11.835 -0.6831 -0.1373  0.5088
  355MPD2    C3 5317   3.930   0.438  11.965 -0.8787  0.0104 -0.4392
  355MPD2    C4 5318   3.829   0.510  12.020  0.1583  0.1469  0.2661
  355MPD2    C5 5319   3.706   0.514  11.955 -0.5686 -0.2802  0.4413
  355MPD2     H 5320   3.984   0.336  11.779 -1.6919  0.6017 -1.5340
  355MPD2    H1 5321   3.841   0.566  12.111 -1.2428 -0.7932  1.0197
  355MPD2    H2 5322   3.593   0.471  11.780  0.2541  0.3099  0.2127
  355MPD2    H3 5323   3.620   0.559  12.001 -1.1076 -0.3757 -0.4668
  355MPD2     N 5324   4.050   0.444  12.032 -0.3304  0.5092  0.1047
  355MPD2    H5 5325   4.061   0.504  12.113  1.0924 -3.7607  3.0481
  355MPD2    N1 5326   3.771   0.350  11.631  0.0885 -0.2221 -0.0780
  355MPD2    H7 5327   3.673   0.355  11.605 -0.6225 -2.8015  1.9558
  356TMC3    C1 5328   4.293   0.461  12.033  0.8062  0.4930  0.7303
  356TMC3    C2 5329   4.404   0.456  11.955 -0.6168  0.1381  0.1568
  356TMC3    C3 5330   4.503   0.548  11.977  0.0030 -0.8811 -0.4191
  356TMC3    C4 5331   4.284   0.558  12.133 -0.1938 -0.1328  0.5426
  356TMC3    C5 5332   4.398   0.636  12.160 -0.0651  0.5599 -0.4506
  356TMC3    C6 5333   4.508   0.631  12.081 -0.0006 -0.1216  0.5029
  356TMC3     C 5334   4.171   0.402  11.976 -1.1130 -0.1493 -0.7238
  356TMC3     O 5335   4.189   0.336  11.874 -0.3578 -0.0086 -0.3274
  356TMC3     H 5336   4.418   0.391  11.869 -1.9700 -0.4443  0.3836
  356TMC3    H1 5337   4.196   0.560  12.196 -1.0639  0.1900 -0.6923
  356TMC3    H2 5338   4.600   0.682  12.111  0.4200 -0.0028 -1.0089
  356TMC3    C7 5339   4.379   0.744  12.257 -0.6130  0.3441 -0.4159
  356TMC3    C8 5340   4.589   0.568  11.870  0.1050 -0.1251 -0.6097
  356TMC3    O1 5341   4.263   0.758  12.295 -0.3006  0.1073  0.8194
  356TMC3    O2 5342   4.590   0.478  11.783  0.6683 -0.2689 -0.1743
  357MPD2     C 5343   3.358   4.335   1.546  0.1099  0.1077  0.4456
  357MPD2    C1 5344   3.481   4.302   1.592 -0.1440  0.3041  1.0674
  357MPD2    C2 5345   3.502   4.235   1.711  0.1268 -0.1269  0.3353
  357MPD2    C3 5346   3.392   4.209   1.792 -0.1521 -0.6637  0.3285
  357MPD2    C4 5347   3.274   4.279   1.761 -0.0519 -0.3511  0.0613
  357MPD2    C5 5348   3.258   4.342   1.636 -0.4407 -0.3654  0.1043
  357MPD2     H 5349   3.598   4.189   1.732  0.5725  1.1168  1.0089
  357MPD2    H1 5350   3.183   4.260   1.816 -0.4563  0.9612 -0.1518
  357MPD2    H2 5351   3.331   4.387   1.455  1.1952  0.1193  0.1255
  357MPD2    H3 5352   3.159   4.379   1.613  0.1156  0.0675 -1.5933
  357MPD2     N 5353   3.396   4.132   1.906 -0.3999 -0.1423  0.0641
  357MPD2    H5 5354   3.312   4.127   1.963 -1.4196  1.5924 -1.2933
  357MPD2    N1 5355   3.588   4.315   1.506 -0.1724  0.1910 -0.5904
  357MPD2    H7 5356   3.551   4.340   1.414 -2.7134 -0.2413  0.3001
  358TMC3    C1 5357   3.816   4.298   1.437 -0.1006 -0.1297  0.2473
  358TMC3    C2 5358   3.768   4.239   1.326 -0.2290  0.3305 -0.5786
  358TMC3    C3 5359   3.847   4.144   1.259  0.5899 -0.2223 -0.6848
  358TMC3    C4 5360   3.946   4.275   1.472  0.0010 -0.2385  0.2254
  358TMC3    C5 5361   4.030   4.208   1.391  0.0955 -0.2448  0.8242
  358TMC3    C6 5362   3.977   4.127   1.288  0.3682 -0.0977 -0.5999
  358TMC3     C 5363   3.719   4.307   1.543  0.2301 -0.1442 -0.4224
  358TMC3     O 5364   3.767   4.302   1.650 -0.2243 -0.8927  0.1783
  358TMC3     H 5365   3.663   4.235   1.300 -0.6919  3.4156  0.8998
  358TMC3    H1 5366   3.974   4.333   1.558 -1.2269  1.8883 -0.8191
  358TMC3    H2 5367   4.045   4.083   1.215  1.6036  1.0329 -0.1211
  358TMC3    C7 5368   4.166   4.205   1.446 -0.2557 -1.3430 -0.0680
  358TMC3    C8 5369   3.793   4.074   1.147 -0.1221 -0.4725  0.5371
  358TMC3    O1 5370   4.204   4.296   1.522  0.4207  0.2717  0.2245
  358TMC3    O2 5371   3.688   4.112   1.095 -0.1357  0.3508  0.3966
  359MPD2     C 5372   4.071   3.181  13.008  0.2003 -0.6525  0.7338
  359MPD2    C1 5373   4.163   3.097  12.962  0.2355  0.1593  0.5544
  359MPD2    C2 5374   4.164   2.964  12.996 -0.2135  0.9794  0.6932
  359MPD2    C3 5375   4.066   2.910  13.076 -0.1938 -0.1357  0.6367
  359MPD2    C4 5376   3.973   2.991  13.116 -0.2826 -0.0526 -0.0195
  359MPD2    C5 5377   3.974   3.125  13.082 -0.8374 -0.0084  0.3993
  359MPD2     H 5378   4.252   2.906  12.970  0.0744  1.1708  1.2387
  359MPD2    H1 5379   3.906   2.946  13.189 -1.8848  1.6199 -0.4423
  359MPD2    H2 5380   4.073   3.288  12.993  0.7730 -0.3699  2.8506
  359MPD2    H3 5381   3.897   3.188  13.125 -1.3004 -1.3344  1.5198
  359MPD2     N 5382   4.059   2.775  13.119 -0.0492  0.2606  0.1920
  359MPD2    H5 5383   3.982   2.741  13.176 -1.2637  1.3419 -0.8041
  359MPD2    N1 5384   4.264   3.138  12.867 -0.2096 -0.0863 -0.0845
  359MPD2    H7 5385   4.323   3.059  12.843  0.4660  1.0701 -2.2730
  360TMC3    C1 5386   4.365   3.257  12.693 -0.5029  0.1689 -0.4214
  360TMC3    C2 5387   4.491   3.207  12.684 -0.0016 -0.2502  1.0128
  360TMC3    C3 5388   4.569   3.252  12.581  0.0286  0.0347 -0.2773
  360TMC3    C4 5389   4.315   3.337  12.594  0.2859 -0.8118  0.4703
  360TMC3    C5 5390   4.393   3.371  12.486 -0.1691 -0.3472  0.0800
  360TMC3    C6 5391   4.522   3.333  12.478 -0.2885 -0.5984 -0.0620
  360TMC3     C 5392   4.274   3.259  12.809  0.4889  0.2630 -0.1645
  360TMC3     O 5393   4.200   3.355  12.819 -0.2972  0.2960 -0.3049
  360TMC3     H 5394   4.533   3.147  12.764 -1.6034  1.6173  3.2684
  360TMC3    H1 5395   4.216   3.380  12.603 -0.2043 -2.0808  1.2125
  360TMC3    H2 5396   4.583   3.389  12.408 -1.5004 -0.4065 -0.9699
  360TMC3    C7 5397   4.326   3.409  12.362 -0.5670 -0.9089  0.1835
  360TMC3    C8 5398   4.716   3.234  12.593  0.2695  0.5083 -0.0459
  360TMC3    O1 5399   4.381   3.469  12.275 -0.3916  0.8405  0.9636
  360TMC3    O2 5400   0.038   3.199  12.705 -0.4974 -0.0958 -0.5852
  361MPD2     C 5401   1.271   2.176  16.634 -0.3354 -0.7287  0.2583
  361MPD2    C1 5402   1.219   2.219  16.757  0.4983 -0.2118 -0.0309
  361MPD2    C2 5403   1.280   2.176  16.879 -0.5529 -0.6886  0.3652
  361MPD2    C3 5404   1.390   2.092  16.868  0.0645  0.4287 -0.5127
  361MPD2    C4 5405   1.436   2.044  16.751  0.4202  0.5537  0.0661
  361MPD2    C5 5406   1.380   2.087  16.632 -0.7386  0.2802  0.0301
  361MPD2     H 5407   1.248   2.214  16.975  2.6785  2.0979  0.3592
  361MPD2    H1 5408   1.511   1.967  16.753  0.0242  0.1407 -0.8255
  361MPD2    H2 5409   1.232   2.206  16.538 -3.6290 -0.5538  1.6770
  361MPD2    H3 5410   1.415   2.036  16.543  1.2572 -0.1730  1.0530
  361MPD2     N 5411   1.444   2.034  16.978  0.4905  0.0454  0.0462
  361MPD2    H5 5412   1.519   1.967  16.964  1.9977  1.8033 -0.3318
  361MPD2    N1 5413   1.111   2.301  16.775  0.7349 -0.3244  0.7145
  361MPD2    H7 5414   1.088   2.328  16.870  0.8662 -0.9502  0.9252
  362TMC3    C1 5415   0.918   2.424  16.713  0.0833  0.1323 -0.2865
  362TMC3    C2 5416   0.871   2.396  16.841  0.1874  0.1829 -0.5897
  362TMC3    C3 5417   0.759   2.467  16.883  0.1029 -0.5410  0.1347
  362TMC3    C4 5418   0.875   2.527  16.640 -0.4935 -0.3557  0.1580
  362TMC3    C5 5419   0.764   2.595  16.687 -0.5656 -0.7111 -0.5689
  362TMC3    C6 5420   0.704   2.570  16.809  0.0948 -0.3214 -0.2644
  362TMC3     C 5421   1.041   2.359  16.673 -0.5629  0.1789 -0.7864
  362TMC3     O 5422   1.056   2.365  16.548  0.6097 -0.1444  0.3209
  362TMC3     H 5423   0.921   2.332  16.912  0.5509 -1.7128 -2.5401
  362TMC3    H1 5424   0.897   2.530  16.534  1.0453 -3.9434  0.3905
  362TMC3    H2 5425   0.616   2.623  16.845  1.4183  1.3861  0.4183
  362TMC3    C7 5426   0.712   2.702  16.609  0.2371 -0.3782  0.4788
  362TMC3    C8 5427   0.708   2.419  17.011 -0.7186 -0.4921 -0.7849
  362TMC3    O1 5428   0.616   2.760  16.659  0.0521 -0.5850  0.1030
  362TMC3    O2 5429   0.779   2.349  17.079  0.3270  0.0175  0.4473
  363TMC3    C1 5430   3.987   4.011   9.515 -0.1318 -0.2250  0.4708
  363TMC3    C2 5431   4.104   4.020   9.587  0.1107 -0.1059 -0.0029
  363TMC3    C3 5432   4.122   4.133   9.659  0.2827 -0.2365 -0.1692
  363TMC3    C4 5433   3.885   4.093   9.525  0.2250 -0.2491 -0.1533
  363TMC3    C5 5434   3.901   4.202   9.601  0.2057 -0.2417  0.3167
  363TMC3    C6 5435   4.018   4.228   9.659 -0.3762 -0.1099  0.2791
  363TMC3     C 5436   3.952   3.894   9.437  0.2850  0.8126  0.1514
  363TMC3     O 5437   3.834   3.865   9.407  0.1043  0.6891  0.5472
  363TMC3     H 5438   4.181   3.945   9.592  0.3476  0.1329 -0.0710
  363TMC3    H1 5439   3.791   4.079   9.472  1.1123 -0.0604 -1.7610
  363TMC3    H2 5440   4.028   4.310   9.729  0.1715 -1.0646  1.3249
  363TMC3    C7 5441   3.788   4.281   9.622 -0.2757  0.4223  0.0655
  363TMC3    C8 5442   4.234   4.161   9.747  0.3165  0.2866  0.3809
  363TMC3    O1 5443   3.682   4.226   9.655 -0.2764  0.0175 -0.1812
  363TMC3    O2 5444   4.258   4.283   9.770  0.1143  0.4500  0.0595
  364MPD2     C 5445   2.999   4.165  10.853 -0.5662  0.2585 -0.5586
  364MPD2    C1 5446   3.115   4.120  10.796 -1.1544 -0.5577  0.0483
  364MPD2    C2 5447   3.140   3.983  10.800 -0.0767 -0.1245 -0.3676
  364MPD2    C3 5448   3.057   3.891  10.863  0.3431  0.3141 -0.2819
  364MPD2    C4 5449   2.942   3.939  10.920  0.2366  0.1420  0.3669
  364MPD2    C5 5450   2.920   4.076  10.917 -0.2315  0.0775 -0.1379
  364MPD2     H 5451   3.233   3.951  10.753  0.9164 -1.1171  2.2856
  364MPD2    H1 5452   2.871   3.881  10.978 -0.4485  0.4188 -0.2052
  364MPD2    H2 5453   2.965   4.268  10.851  3.2059  1.5133  0.2357
  364MPD2    H3 5454   2.822   4.103  10.956 -0.2263  0.3597 -0.3173
  364MPD2     N 5455   3.089   3.758  10.902  0.1881  0.1658 -0.4125
  364MPD2    H5 5456   3.023   3.702  10.955 -0.9997  0.4891 -1.5574
  364MPD2    N1 5457   3.212   4.201  10.733  0.3045  0.2274  0.4027
  364MPD2    H7 5458   3.295   4.152  10.701  0.4883 -0.3512  1.7543
  365TMC3    C1 5459   3.337   4.399  10.675  0.0087 -0.0335 -0.5975
  365TMC3    C2 5460   3.444   4.319  10.650  0.0080 -0.3919 -0.2548
  365TMC3    C3 5461   3.560   4.378  10.619  0.0631  0.1072 -0.0187
  365TMC3    C4 5462   3.344   4.534  10.683 -0.0774 -0.0505 -0.2101
  365TMC3    C5 5463   3.462   4.584  10.650  0.0083  0.4545  0.3260
  365TMC3    C6 5464   3.569   4.514  10.613 -0.3938  0.1885  0.6944
  365TMC3     C 5465   3.220   4.339  10.741  0.2857 -0.0512 -0.2990
  365TMC3     O 5466   3.144   4.417  10.801 -0.0179  0.2126  0.1210
  365TMC3     H 5467   3.432   4.212  10.640 -2.4235 -0.3971  2.8171
  365TMC3    H1 5468   3.262   4.598  10.712 -0.5254  0.3381 -2.3700
  365TMC3    H2 5469   3.667   4.557  10.593  0.2691 -1.5273  0.2295
  365TMC3    C7 5470   3.476   0.005  10.672 -0.2638 -0.6590  0.4327
  365TMC3    C8 5471   3.682   4.305  10.584 -0.9382 -0.0552  0.0489
  365TMC3    O1 5472   3.555   0.071  10.608  0.1396  0.4708  0.5288
  365TMC3    O2 5473   3.771   4.370  10.533 -0.0164  0.5286 -0.2590
  366MPD2     C 5474   1.707   0.548  15.358  1.0447  0.4737 -0.2839
  366MPD2    C1 5475   1.751   0.521  15.489 -0.4233  0.4898 -0.1140
  366MPD2    C2 5476   1.885   0.524  15.514  0.5738  0.9166 -0.4409
  366MPD2    C3 5477   1.981   0.557  15.414  0.4879  0.2527  0.1112
  366MPD2    C4 5478   1.935   0.563  15.278 -0.4039  0.2636  0.1057
  366MPD2    C5 5479   1.796   0.559  15.256  0.0004 -0.5012  0.3540
  366MPD2     H 5480   1.916   0.519  15.618 -1.6093 -0.1695  0.1703
  366MPD2    H1 5481   2.001   0.592  15.198  1.7790  0.5540  2.0314
  366MPD2    H2 5482   1.606   0.536  15.323 -0.4213  1.6219  3.4871
  366MPD2    H3 5483   1.756   0.547  15.156  0.9469  1.3034 -0.2263
  366MPD2     N 5484   2.109   0.597  15.458  0.2578 -0.3782  0.2231
  366MPD2    H5 5485   2.139   0.591  15.555  0.4396 -0.6282  0.1533
  366MPD2    N1 5486   1.666   0.510  15.608  0.0960 -0.0673 -0.5333
  366MPD2    H7 5487   1.714   0.489  15.695 -0.7089  1.5005  0.2860
  367TMC3    C1 5488   1.509   0.615  15.735 -0.0124  0.9980  0.1136
  367TMC3    C2 5489   1.620   0.678  15.791  0.0392 -0.0667 -0.3020
  367TMC3    C3 5490   1.631   0.814  15.765  0.0096  0.9520 -0.4725
  367TMC3    C4 5491   1.394   0.692  15.727  0.3708 -0.2213 -0.4017
  367TMC3    C5 5492   1.401   0.829  15.717 -0.4088  0.3069 -0.5536
  367TMC3    C6 5493   1.525   0.889  15.724 -0.8872 -0.4697  0.5963
  367TMC3     C 5494   1.532   0.542  15.610 -1.4140 -0.1730  0.1519
  367TMC3     O 5495   1.457   0.580  15.517 -0.0583  0.2110 -0.3913
  367TMC3     H 5496   1.709   0.619  15.809  0.2093  0.1655 -0.3852
  367TMC3    H1 5497   1.309   0.630  15.702  1.2328 -0.7248 -2.1310
  367TMC3    H2 5498   1.535   0.996  15.714  1.1510 -0.6133  1.0546
  367TMC3    C7 5499   1.279   0.908  15.711  0.4151  0.6628 -0.4365
  367TMC3    C8 5500   1.734   0.881  15.846 -0.6612 -0.0238 -0.5764
  367TMC3    O1 5501   1.296   1.030  15.729 -0.4599 -0.1953 -0.3623
  367TMC3    O2 5502   1.815   0.803  15.897  0.5686  0.1632 -0.1579
  368MPD2     C 5503   2.549   2.429  13.447 -0.4696  0.1863  0.4170
  368MPD2    C1 5504   2.558   2.454  13.313  0.3820 -0.5181 -0.1646
  368MPD2    C2 5505   2.665   2.408  13.243 -0.3802 -0.4633 -0.3243
  368MPD2    C3 5506   2.767   2.335  13.305  0.3195 -0.8314  0.3878
  368MPD2    C4 5507   2.759   2.309  13.443 -0.0577  0.0241  0.2754
  368MPD2    C5 5508   2.650   2.359  13.507 -0.1081  0.0752  0.0804
  368MPD2     H 5509   2.673   2.427  13.136  1.0772  0.4622 -0.0537
  368MPD2    H1 5510   2.824   2.242  13.498 -0.3028 -1.0754 -0.7911
  368MPD2    H2 5511   2.452   2.441  13.493 -0.4149 -0.0290  0.5937
  368MPD2    H3 5512   2.633   2.335  13.611  0.4336  1.5482  0.5047
  368MPD2     N 5513   2.884   2.285  13.244  0.6150  0.2927 -0.0298
  368MPD2    H5 5514   2.955   2.253  13.309  0.5914  2.6882  1.1857
  368MPD2    N1 5515   2.454   2.529  13.250 -0.6480 -0.2533  0.1606
  368MPD2    H7 5516   2.362   2.530  13.293 -2.5232 -0.5944 -3.8890
  369TMC3    C1 5517   2.380   2.686  13.090 -0.0254  0.5957  0.5221
  369TMC3    C2 5518   2.425   2.802  13.033 -0.4787  0.5606 -0.6165
  369TMC3    C3 5519   2.341   2.907  13.031  0.6215 -0.0844  0.4577
  369TMC3    C4 5520   2.259   2.669  13.134  0.2933 -0.2981  0.1027
  369TMC3    C5 5521   2.170   2.771  13.117 -0.1654 -0.6773  0.0940
  369TMC3    C6 5522   2.212   2.896  13.073  0.0582 -0.7337 -0.3666
  369TMC3     C 5523   2.479   2.595  13.134 -0.0001  0.6996  0.4994
  369TMC3     O 5524   2.579   2.601  13.063  0.1234 -0.0744  0.8134
  369TMC3     H 5525   2.531   2.808  13.009 -0.4373 -1.2333 -0.9226
  369TMC3    H1 5526   2.221   2.576  13.176 -0.8754 -0.8832 -2.2271
  369TMC3    H2 5527   2.137   2.974  13.068  1.3270  0.4416 -1.2149
  369TMC3    C7 5528   2.041   2.764  13.177  0.0904 -0.3805  0.5942
  369TMC3    C8 5529   2.398   3.035  12.993  0.3503 -0.0288 -0.0414
  369TMC3    O1 5530   1.981   2.863  13.208 -0.5992  0.0589  0.1200
  369TMC3    O2 5531   2.518   3.043  13.012 -0.2734 -0.4749 -0.5418
  370TMC3    C1 5532   2.444   3.246  16.543  0.4551  0.0038 -0.1339
  370TMC3    C2 5533   2.396   3.158  16.638  0.5904  0.0265  0.2888
  370TMC3    C3 5534   2.396   3.024  16.597  0.4916 -0.1554 -0.7148
  370TMC3    C4 5535   2.489   3.204  16.423 -0.5967  0.5732  0.0239
  370TMC3    C5 5536   2.482   3.071  16.392  0.7173 -0.0588  0.2333
  370TMC3    C6 5537   2.433   2.978  16.476 -0.2279  0.0311  0.1550
  370TMC3     C 5538   2.488   3.372  16.600  0.5704  0.6814  0.2102
  370TMC3     O 5539   2.512   3.368  16.720  0.5227 -0.6184  0.5119
  370TMC3     H 5540   2.366   3.189  16.738  1.8456  2.7610 -0.1865
  370TMC3    H1 5541   2.541   3.270  16.355 -0.2016  1.1477  0.8927
  370TMC3    H2 5542   2.389   2.883  16.446 -0.5653  0.1983  0.1341
  370TMC3    C7 5543   2.547   3.029  16.267 -0.0120  0.2017 -0.1523
  370TMC3    C8 5544   2.364   2.920  16.687  0.4980  0.2574 -0.0120
  370TMC3    O1 5545   2.547   3.113  16.176 -0.0780 -0.4633 -0.0292
  370TMC3    O2 5546   2.423   2.814  16.668 -0.3066  0.5995  0.0367
  371TMC3    C1 5547   3.569   1.467  15.524 -0.0590 -0.3344 -0.0753
  371TMC3    C2 5548   3.584   1.516  15.653 -0.4873  0.0444 -0.1681
  371TMC3    C3 5549   3.616   1.649  15.660 -0.6146 -0.1118 -0.2530
  371TMC3    C4 5550   3.596   1.543  15.408 -0.7349  0.1211  0.0381
  371TMC3    C5 5551   3.628   1.676  15.426 -0.2550  0.0529 -0.7509
  371TMC3    C6 5552   3.631   1.730  15.553 -0.1318 -0.1875  0.1040
  371TMC3     C 5553   3.590   1.323  15.501 -0.5135  0.5317 -0.5245
  371TMC3     O 5554   3.647   1.296  15.396 -0.3771 -0.6557  0.0359
  371TMC3     H 5555   3.570   1.459  15.744  2.0574 -0.1162  0.1139
  371TMC3    H1 5556   3.572   1.497  15.312  1.5754  2.1637 -1.5247
  371TMC3    H2 5557   3.666   1.833  15.562 -0.7398 -0.0833  1.2289
  371TMC3    C7 5558   3.664   1.753  15.311  0.2560 -0.2618  0.2529
  371TMC3    C8 5559   3.640   1.709  15.791  0.0523 -1.0037  0.1133
  371TMC3    O1 5560   3.658   1.877  15.327 -0.2379  0.4130  0.6087
  371TMC3    O2 5561   3.678   1.632  15.881  0.2407 -0.2844  0.2234
  372MPD2     C 5562   2.387   2.807  13.439 -0.0852  0.7500 -0.5830
  372MPD2    C1 5563   2.489   2.748  13.513 -0.1061  1.0197  0.0460
  372MPD2    C2 5564   2.455   2.688  13.635 -0.2231  0.8067  0.1659
  372MPD2    C3 5565   2.328   2.703  13.683 -0.3385 -0.3536 -0.7939
  372MPD2    C4 5566   2.231   2.767  13.609 -0.1941  0.3851  0.7599
  372MPD2    C5 5567   2.261   2.809  13.478  0.4623 -0.5298  0.2530
  372MPD2     H 5568   2.534   2.635  13.688  0.1307 -1.0120 -2.2060
  372MPD2    H1 5569   2.128   2.777  13.641 -0.6962 -0.7984 -0.4553
  372MPD2    H2 5570   2.409   2.843  13.339  1.6601  3.5827  0.8212
  372MPD2    H3 5571   2.183   2.851  13.416 -0.0398 -1.9723 -0.0741
  372MPD2     N 5572   2.300   2.627  13.796  0.5294 -0.2063 -0.1753
  372MPD2    H5 5573   2.367   2.559  13.829  0.3735 -0.8414 -1.1768
  372MPD2    N1 5574   2.621   2.739  13.468 -0.0166  0.1955  0.4248
  372MPD2    H7 5575   2.683   2.682  13.524 -0.8901 -1.9674 -0.8309
  373TMC3    C1 5576   2.214   2.544  13.992  0.3626 -0.3507 -0.0829
  373TMC3    C2 5577   2.184   2.583  14.121 -0.1511 -0.2578  0.0430
  373TMC3    C3 5578   2.207   2.498  14.229 -0.2685 -0.2243  0.0511
  373TMC3    C4 5579   2.251   2.414  13.968 -0.4636 -0.4244 -0.2598
  373TMC3    C5 5580   2.283   2.338  14.072  0.0023  0.5663 -0.5510
  373TMC3    C6 5581   2.260   2.375  14.205 -0.3558  0.4100 -0.2723
  373TMC3     C 5582   2.196   2.639  13.884 -0.0428 -0.3873 -0.0615
  373TMC3     O 5583   2.109   2.721  13.886 -0.3390 -0.2213 -0.3184
  373TMC3     H 5584   2.183   2.690  14.139 -0.0408  0.1583 -2.3511
  373TMC3    H1 5585   2.270   2.389  13.865 -0.8187  0.7715 -0.6177
  373TMC3    H2 5586   2.281   2.312  14.292  0.4101  0.5172 -0.3802
  373TMC3    C7 5587   2.350   2.217  14.038 -0.2941  0.2145  0.2042
  373TMC3    C8 5588   2.306   2.561  14.313 -0.7520  0.6139 -0.9372
  373TMC3    O1 5589   2.396   2.206  13.928 -0.3253  0.0420 -0.3225
  373TMC3    O2 5590   2.394   2.618  14.248  0.6125 -0.0091  0.4321
  374TMC3    C1 5591   4.036   1.891  10.110 -0.1022  0.1829  0.8988
  374TMC3    C2 5592   3.954   1.997  10.139  0.5975  0.5410 -0.0044
  374TMC3    C3 5593   3.828   1.966  10.183  0.0912  0.3795 -0.8651
  374TMC3    C4 5594   3.990   1.758  10.117 -0.3854  0.1360  0.0328
  374TMC3    C5 5595   3.854   1.738  10.142 -0.1640 -0.6817 -0.3573
  374TMC3    C6 5596   3.777   1.842  10.190  1.1220 -0.1435 -0.7362
  374TMC3     C 5597   4.175   1.911  10.093  0.1323 -0.5128 -0.3391
  374TMC3     O 5598   4.215   2.011  10.153  0.3136  0.3637  0.8992
  374TMC3     H 5599   3.989   2.099  10.136  3.2114 -0.3264  0.8496
  374TMC3    H1 5600   4.059   1.678  10.097  0.0031  1.2855 -3.1336
  374TMC3    H2 5601   3.674   1.824  10.222  1.4074 -2.5483 -1.1769
  374TMC3    C7 5602   3.797   1.605  10.138 -0.0402 -0.0007  0.2406
  374TMC3    C8 5603   3.748   2.072  10.246  0.3328  0.2508 -1.1135
  374TMC3    O1 5604   3.707   1.578  10.219  0.6020 -0.4445 -0.1712
  374TMC3    O2 5605   3.628   2.066  10.228 -0.7998 -0.2816 -0.0933
  375MPD2     C 5606   3.827   3.430  17.682 -0.1545  0.2425  0.2295
  375MPD2    C1 5607   3.742   3.518  17.616  0.4398 -1.2244  0.1988
  375MPD2    C2 5608   3.731   3.503  17.477  0.2480  0.2326  0.5187
  375MPD2    C3 5609   3.812   3.414  17.409  0.3350  0.8021  0.6880
  375MPD2    C4 5610   3.892   3.332  17.479  0.2322  0.2786 -0.7627
  375MPD2    C5 5611   3.902   3.340  17.616  0.1877  0.3608 -0.9315
  375MPD2     H 5612   3.676   3.583  17.429  1.7499  1.3309  0.6205
  375MPD2    H1 5613   3.961   3.264  17.431 -0.3303  0.7232 -2.2166
  375MPD2    H2 5614   3.842   3.441   0.099 -1.6512 -0.0755  0.4665
  375MPD2    H3 5615   3.971   3.276  17.671 -0.1320 -0.6209 -1.6781
  375MPD2     N 5616   3.833   3.434  17.266 -0.5816 -0.2794  0.6846
  375MPD2    H5 5617   3.904   3.376  17.221  0.4077  1.4859 -0.0375
  375MPD2    N1 5618   3.659   3.616  17.676 -0.6335  0.3119 -0.6964
  375MPD2    H7 5619   3.600   3.681  17.625  1.1162  1.4438 -1.2780
  376TMC3    C1 5620   3.777   3.473  17.044 -0.4479  0.0051  0.4617
  376TMC3    C2 5621   3.912   3.487  17.013 -0.5734 -0.2516 -0.6235
  376TMC3    C3 5622   3.947   3.454  16.886  0.6469 -0.2047  0.5199
  376TMC3    C4 5623   3.675   3.435  16.960 -0.8615 -0.0301 -0.2374
  376TMC3    C5 5624   3.720   3.415  16.832  0.5577 -0.6325 -0.2534
  376TMC3    C6 5625   3.849   3.444  16.790  0.3734 -0.2094 -0.2741
  376TMC3     C 5626   3.739   3.490  17.187  0.0674  1.1355  0.0791
  376TMC3     O 5627   3.629   3.535  17.217 -0.0515  0.3329 -0.0826
  376TMC3     H 5628   3.983   3.515  17.089 -0.1397 -0.4853 -0.9440
  376TMC3    H1 5629   3.576   3.412  16.998 -0.4119 -2.6681 -0.6988
  376TMC3    H2 5630   3.878   3.439  16.685  4.0062  0.1994  0.7044
  376TMC3    C7 5631   3.621   3.401  16.726 -0.3373 -0.0469  0.4451
  376TMC3    C8 5632   4.086   3.476  16.848  0.3453 -0.0231 -0.2638
  376TMC3    O1 5633   3.507   3.450  16.750 -0.6825  0.4235  0.3575
  376TMC3    O2 5634   4.102   3.529  16.743 -0.0602 -0.0646  0.6938
  377MPD2     C 5635   1.714   3.154  11.829 -0.4441  0.4428 -0.1348
  377MPD2    C1 5636   1.762   3.150  11.962  0.5720  0.3532  0.4376
  377MPD2    C2 5637   1.671   3.125  12.063 -0.6091  0.2360  0.4270
  377MPD2    C3 5638   1.543   3.093  12.030 -0.3086 -0.4002 -0.1457
  377MPD2    C4 5639   1.497   3.105  11.900 -0.1786 -0.2471  0.1851
  377MPD2    C5 5640   1.582   3.131  11.796 -0.2650 -0.7093  0.0466
  377MPD2     H 5641   1.705   3.130  12.165 -0.9409  0.2702  0.5349
  377MPD2    H1 5642   1.394   3.075  11.880 -0.6266  0.4746  1.4088
  377MPD2    H2 5643   1.780   3.183  11.748  1.3241 -3.2267 -0.0265
  377MPD2    H3 5644   1.536   3.131  11.698  2.3162  0.5042 -1.1694
  377MPD2     N 5645   1.447   3.056  12.131 -0.0363  0.1898 -0.3133
  377MPD2    H5 5646   1.350   3.052  12.102  0.5753  0.3182 -2.4020
  377MPD2    N1 5647   1.899   3.171  11.976 -0.3832  0.1939  0.1289
  377MPD2    H7 5648   1.958   3.186  11.895 -2.2773  2.0336 -0.8826
  378TMC3    C1 5649   2.285   3.051  11.976  0.3013 -0.4098 -0.0363
  378TMC3    C2 5650   2.159   3.102  11.971  0.1229  0.4059  0.1494
  378TMC3    C3 5651   2.105   3.167  12.078  0.1200 -0.6078 -0.6060
  378TMC3    C4 5652   2.353   3.064  12.092 -0.7954  0.1348 -0.4720
  378TMC3    C5 5653   2.306   3.142  12.193  0.4808  0.5494  0.7915
  378TMC3    C6 5654   2.178   3.191  12.195 -0.5014  0.1007  0.1806
  378TMC3     C 5655   2.313   2.956  11.868 -0.1512 -0.0023  0.4566
  378TMC3     O 5656   2.251   2.976  11.764  0.2166  0.0180 -0.2435
  378TMC3     H 5657   2.090   3.082  11.890  0.8294 -1.6473  0.0613
  378TMC3    H1 5658   2.459   3.043  12.081 -0.7930 -0.5160  0.7770
  378TMC3    H2 5659   2.144   3.250  12.279 -0.7941  0.7452 -0.3934
  378TMC3    C7 5660   2.389   3.158  12.314 -0.0257 -0.8759  0.9759
  378TMC3    C8 5661   1.963   3.175  12.098  0.0009  0.1015  0.2148
  378TMC3    O1 5662   2.341   3.230  12.403 -0.7583 -0.5665  0.3917
  378TMC3    O2 5663   1.918   3.191  12.208  0.5268 -0.4396  0.4978
  379MPD2     C 5664   2.556   1.482  16.681  0.4578  0.2740 -0.0843
  379MPD2    C1 5665   2.610   1.367  16.630 -0.1032  0.2327  0.3134
  379MPD2    C2 5666   2.739   1.336  16.662 -0.0241 -0.2212  0.0172
  379MPD2    C3 5667   2.802   1.413  16.750  0.0691  0.5188 -0.0118
  379MPD2    C4 5668   2.748   1.526  16.799 -0.6959  0.4765 -0.1648
  379MPD2    C5 5669   2.627   1.566  16.763 -0.5936  0.3566  0.1247
  379MPD2     H 5670   2.788   1.245  16.627  0.8967  0.6501 -0.9697
  379MPD2    H1 5671   2.793   1.585  16.877 -0.1717 -1.4880  1.0143
  379MPD2    H2 5672   2.458   1.523  16.659 -1.0213 -2.0942  2.1423
  379MPD2    H3 5673   2.595   1.665  16.794  2.5080  1.0385  1.1504
  379MPD2     N 5674   2.932   1.378  16.801 -0.4493  0.1035  0.0822
  379MPD2    H5 5675   2.970   1.441  16.870 -0.0904  0.0368 -0.0591
  379MPD2    N1 5676   2.526   1.281  16.549  0.0348  0.4119  0.2077
  379MPD2    H7 5677   2.446   1.333  16.516 -0.0894  0.1716  0.1327
  380TMC3    C1 5678   2.483   1.110  16.404  1.3553 -0.0770 -0.3261
  380TMC3    C2 5679   2.532   1.004  16.334  0.0213  0.4223 -0.3769
  380TMC3    C3 5680   2.469   0.962  16.224 -0.0741  0.1573  0.7404
  380TMC3    C4 5681   2.358   1.163  16.374  0.1744 -0.4091 -0.0713
  380TMC3    C5 5682   2.293   1.108  16.272  0.6624 -0.9175 -0.1532
  380TMC3    C6 5683   2.345   1.010  16.191 -0.3099  0.8156 -0.0010
  380TMC3     C 5684   2.561   1.155  16.509  0.4751 -0.1560  0.7573
  380TMC3     O 5685   2.638   1.081  16.564  0.7023  0.3742  0.3416
  380TMC3     H 5686   2.626   0.963  16.368  0.3644 -0.1084 -1.9376
  380TMC3    H1 5687   2.318   1.241  16.437  1.9758 -0.1147  0.7256
  380TMC3    H2 5688   2.294   0.960  16.110 -0.6247 -0.5447  1.0353
  380TMC3    C7 5689   2.157   1.161  16.253  0.2466 -0.3332 -0.3983
  380TMC3    C8 5690   2.562   0.961  16.108  0.4976  0.1760  0.2045
  380TMC3    O1 5691   2.134   1.266  16.311  0.2493  0.5352  0.5199
  380TMC3    O2 5692   2.521   0.979  15.997 -0.2579 -0.6870 -0.0783
  381TMC3    C1 5693   2.750   2.298  16.650 -0.4892  0.3782 -0.0362
  381TMC3    C2 5694   2.821   2.415  16.658 -0.0448 -0.1520 -0.2231
  381TMC3    C3 5695   2.749   2.534  16.671  0.3638 -0.0780 -0.2554
  381TMC3    C4 5696   2.618   2.293  16.641 -0.3880 -0.2617  0.2481
  381TMC3    C5 5697   2.547   2.412  16.642  0.5636 -0.2700 -0.4169
  381TMC3    C6 5698   2.608   2.533  16.645  0.7253  0.2978 -0.4903
  381TMC3     C 5699   2.816   2.187  16.577 -0.0597  0.1266  0.1813
  381TMC3     O 5700   2.754   2.132  16.482 -0.5180  0.4428 -0.5743
  381TMC3     H 5701   2.928   2.416  16.643  0.1183 -2.0558  0.6909
  381TMC3    H1 5702   2.568   2.202  16.609  0.2878 -0.9737  1.2638
  381TMC3    H2 5703   2.556   2.628  16.642  1.2003  0.6667  2.3181
  381TMC3    C7 5704   2.403   2.397  16.605  0.1331  0.6316 -0.4711
  381TMC3    C8 5705   2.822   2.648  16.622 -0.3418  0.2789 -0.9029
  381TMC3    O1 5706   2.357   2.284  16.614  0.6847 -0.2530 -0.1585
  381TMC3    O2 5707   2.889   2.633  16.520 -0.0863 -0.3240  0.1947
  382MPD2     C 5708   1.578   4.563   0.018 -0.1374  0.4533 -0.1855
  382MPD2    C1 5709   1.499   4.641   0.094  0.0567  0.2339  0.2018
  382MPD2    C2 5710   1.372   4.599   0.132  0.1618 -0.3652  1.1085
  382MPD2    C3 5711   1.322   4.481   0.085 -1.1231 -0.1504 -0.2789
  382MPD2    C4 5712   1.402   4.399   0.012 -0.3936  0.6109 -0.4698
  382MPD2    C5 5713   1.531   4.439  17.669  0.1912  0.1267  0.0124
  382MPD2     H 5714   1.325   4.658   0.210  0.0904  0.4690  0.4354
  382MPD2    H1 5715   1.363   4.304  17.669 -0.2531  0.6964 -0.8885
  382MPD2    H2 5716   1.677   4.589  17.673  0.8113 -0.8272  1.5662
  382MPD2    H3 5717   1.589   4.371  17.607 -1.1674 -1.3293  0.3297
  382MPD2     N 5718   1.197   4.428   0.122  0.1042 -0.1740  0.2210
  382MPD2    H5 5719   1.175   4.335   0.087 -1.7665  1.2950 -2.4919
  382MPD2    N1 5720   1.552   0.042   0.150 -0.2354  0.8656 -0.3197
  382MPD2    H7 5721   1.502   0.087   0.226 -0.0053 -0.0197  0.3542
  383TMC3    C1 5722   0.976   4.415   0.182  0.3727 -0.0433 -0.1896
  383TMC3    C2 5723   0.956   4.314   0.089  0.2560 -0.2187 -0.3329
  383TMC3    C3 5724   0.832   4.268   0.066 -0.0088 -0.3731 -0.0914
  383TMC3    C4 5725   0.867   4.473   0.246  0.1926 -0.3869  0.1428
  383TMC3    C5 5726   0.743   4.433   0.215  0.0161  1.0118 -0.5467
  383TMC3    C6 5727   0.724   4.328   0.125 -0.0931 -0.0679 -0.3532
  383TMC3     C 5728   1.099   4.489   0.194 -0.1421 -0.0166  1.1296
  383TMC3     O 5729   1.087   4.598   0.245 -0.2738 -0.3793  0.3879
  383TMC3     H 5730   1.042   4.274   0.037  0.1099  0.3863 -1.0384
  383TMC3    H1 5731   0.875   4.561   0.309 -1.0879  0.0048 -0.2462
  383TMC3    H2 5732   0.626   4.286   0.109  0.1089 -1.0461  1.0156
  383TMC3    C7 5733   0.630   4.506   0.261 -0.0798  0.7319  0.0643
  383TMC3    C8 5734   0.811   4.163  17.665  0.0232 -0.8012  0.2154
  383TMC3    O1 5735   0.527   4.520   0.196 -0.0382 -0.2365  0.3751
  383TMC3    O2 5736   0.709   4.160  17.598  0.4254  0.1108 -0.8048
  384MPD2     C 5737   3.029   1.403  12.355 -0.5566  0.1090  0.2501
  384MPD2    C1 5738   3.046   1.321  12.466 -0.0010 -0.0727  0.5737
  384MPD2    C2 5739   3.148   1.226  12.457  1.0573  0.1153 -0.1651
  384MPD2    C3 5740   3.211   1.190  12.343  0.4580 -0.3310 -0.0517
  384MPD2    C4 5741   3.189   1.274  12.232 -0.0756 -0.3621 -0.0712
  384MPD2    C5 5742   3.100   1.379  12.242  0.6239  0.0877 -0.0073
  384MPD2     H 5743   3.167   1.175  12.550 -1.2830  0.6399  0.6043
  384MPD2    H1 5744   3.231   1.259  12.133 -2.3178 -0.0347 -1.0610
  384MPD2    H2 5745   2.957   1.484  12.358 -1.4055 -0.5882 -0.9555
  384MPD2    H3 5746   3.086   1.447  12.159  1.7019 -0.4598 -0.6411
  384MPD2     N 5747   3.297   1.079  12.335  0.6804  0.4007 -0.7409
  384MPD2    H5 5748   3.320   1.035  12.247  2.0741 -2.0638  0.8536
  384MPD2    N1 5749   2.965   1.337  12.586  0.3643 -0.1206  0.4306
  384MPD2    H7 5750   2.985   1.279  12.667 -0.6685  1.3639  1.7449
  385TMC3    C1 5751   3.348   0.871  12.430  0.0962  0.3848 -0.0163
  385TMC3    C2 5752   3.267   0.804  12.343  0.1165  1.1787  0.2594
  385TMC3    C3 5753   3.208   0.684  12.378  0.5486 -0.3538 -0.2481
  385TMC3    C4 5754   3.395   0.804  12.539  0.1320  0.6680 -0.3117
  385TMC3    C5 5755   3.322   0.693  12.578 -0.1444 -0.0487  0.5599
  385TMC3    C6 5756   3.227   0.636  12.502 -0.1913 -0.5222 -0.1414
  385TMC3     C 5757   3.342   1.016  12.447  0.2504 -0.5869  0.6238
  385TMC3     O 5758   3.373   1.069  12.556  0.0806  0.1174  0.1050
  385TMC3     H 5759   3.239   0.838  12.244 -0.1020  0.9673  0.2480
  385TMC3    H1 5760   3.464   0.851  12.608  0.1570 -0.3276  0.3297
  385TMC3    H2 5761   3.175   0.547  12.537 -0.1698 -0.0611  1.0591
  385TMC3    C7 5762   3.267   0.737  12.710 -0.2762  0.1703 -0.5213
  385TMC3    C8 5763   3.087   0.635  12.316  0.1176 -0.0651  0.3396
  385TMC3    O1 5764   3.284   0.853  12.744 -0.1917 -0.1225  0.0096
  385TMC3    O2 5765   2.993   0.603  12.388 -0.6132 -0.4193  0.0632
  386TMC3    C1 5766   3.677   3.044  12.385 -0.0042  0.3746 -0.0567
  386TMC3    C2 5767   3.618   2.965  12.286  0.0276  0.2476 -0.3397
  386TMC3    C3 5768   3.503   3.011  12.225 -0.1070 -0.1708 -0.1470
  386TMC3    C4 5769   3.623   3.175  12.412  0.5117  0.2916  0.2050
  386TMC3    C5 5770   3.513   3.217  12.346 -0.3680 -0.0529  0.2480
  386TMC3    C6 5771   3.447   3.134  12.258 -0.1320 -0.7430 -0.3286
  386TMC3     C 5772   3.781   2.995  12.477  0.2738 -0.2041  0.3721
  386TMC3     O 5773   3.825   3.079  12.556  0.1102  0.2291 -0.3770
  386TMC3     H 5774   3.663   2.872  12.251 -0.3315 -0.5834  1.4262
  386TMC3    H1 5775   3.657   3.240  12.492 -1.4758 -0.6845  1.8534
  386TMC3    H2 5776   3.346   3.149  12.222 -0.6489 -3.0687  0.1137
  386TMC3    C7 5777   3.432   3.320  12.411  0.7050  0.0315  0.7250
  386TMC3    C8 5778   3.421   2.941  12.125  0.0884  0.4257 -0.5203
  386TMC3    O1 5779   3.468   3.354  12.525 -0.3455  0.5274 -0.2553
  386TMC3    O2 5780   3.331   2.995  12.060 -0.2070 -0.1172 -0.4078
  387MPD2     C 5781   1.085   3.030   9.539 -0.7929  0.1229  0.7205
  387MPD2    C1 5782   1.117   2.995   9.668  0.0093  0.0135 -0.3046
  387MPD2    C2 5783   1.197   2.891   9.693 -0.0645 -0.5289 -0.8757
  387MPD2    C3 5784   1.219   2.785   9.601 -1.0591  0.2733 -0.0978
  387MPD2    C4 5785   1.168   2.809   9.470  0.0424  0.0813 -0.2113
  387MPD2    C5 5786   1.102   2.935   9.445 -0.1878 -0.3635 -0.2932
  387MPD2     H 5787   1.220   2.880   9.799  2.0555 -0.8035 -1.3548
  387MPD2    H1 5788   1.174   2.726   9.401 -2.2497  0.8910 -1.4034
  387MPD2    H2 5789   1.020   3.115   9.522  0.8238  1.1796 -0.2575
  387MPD2    H3 5790   1.057   2.946   9.347 -2.4022  1.9824  0.9778
  387MPD2     N 5791   1.276   2.663   9.654 -0.2817  0.2076  0.3288
  387MPD2    H5 5792   1.325   2.679   9.742  0.0139  0.6469  0.0869
  387MPD2    N1 5793   1.079   3.072   9.783  0.1160 -0.1420 -0.0616
  387MPD2    H7 5794   1.118   3.038   9.870 -1.7356 -0.1494  0.7564
  388TMC3    C1 5795   0.998   3.228   9.937  0.5088  0.5838 -0.0159
  388TMC3    C2 5796   0.958   3.358   9.965 -0.4955 -0.2648 -0.0274
  388TMC3    C3 5797   0.952   3.389  10.097  0.2313 -0.6527  0.2989
  388TMC3    C4 5798   1.025   3.140  10.040 -0.0896  0.1763 -0.1199
  388TMC3    C5 5799   1.017   3.180  10.171 -0.3751 -0.7994 -0.4058
  388TMC3    C6 5800   0.984   3.302  10.200 -0.1334 -0.0586 -0.4320
  388TMC3     C 5801   1.030   3.196   9.794  0.0843 -0.7141  0.8474
  388TMC3     O 5802   0.993   3.281   9.715  0.5351  0.0827  0.1248
  388TMC3     H 5803   0.937   3.428   9.885  0.2932 -0.2050 -0.1910
  388TMC3    H1 5804   1.034   3.036  10.009 -0.7925  0.4147 -1.1171
  388TMC3    H2 5805   1.002   3.332  10.303 -1.7631 -0.6458  0.0260
  388TMC3    C7 5806   1.073   3.094  10.276  0.3469 -0.2275  0.3857
  388TMC3    C8 5807   0.881   3.513  10.133 -0.1675  0.0099  0.3346
  388TMC3    O1 5808   1.037   3.109  10.390 -0.3024  0.6448  0.8046
  388TMC3    O2 5809   0.809   3.555  10.046 -0.2570  0.2616  0.4369
  389MPD2     C 5810   0.421   1.616  10.946  0.2906  0.2310 -0.2981
  389MPD2    C1 5811   0.336   1.505  10.930  0.7091 -0.2108 -0.1139
  389MPD2    C2 5812   0.260   1.451  11.035 -1.0040 -0.0128  0.2765
  389MPD2    C3 5813   0.283   1.503  11.162  0.1662  0.6552  0.2323
  389MPD2    C4 5814   0.365   1.612  11.177  0.3240  0.5643 -0.0676
  389MPD2    C5 5815   0.440   1.659  11.074 -0.7032  0.4570  0.0151
  389MPD2     H 5816   0.204   1.358  11.034  2.6641 -2.2192  0.3325
  389MPD2    H1 5817   0.376   1.656  11.276  1.0689 -0.8709  0.4889
  389MPD2    H2 5818   0.484   1.657  10.868  2.5858 -1.9004  0.4233
  389MPD2    H3 5819   0.510   1.740  11.089 -0.2384 -0.0165  0.3831
  389MPD2     N 5820   0.203   1.476  11.275  0.1146 -0.4459 -0.1744
  389MPD2    H5 5821   0.232   1.516  11.364 -2.0924 -0.2476  0.4544
  389MPD2    N1 5822   0.343   1.449  10.800  0.7249  0.3459 -0.6771
  389MPD2    H7 5823   0.397   1.509  10.738 -0.7515 -0.8830 -3.1465
  390TMC3    C1 5824   0.058   1.367  11.415  0.0546 -0.3653 -0.2195
  390TMC3    C2 5825   4.717   1.254  11.452  0.8741 -0.2350 -0.3558
  390TMC3    C3 5826   4.707   1.219  11.585  0.2429  0.8461  0.1212
  390TMC3    C4 5827   0.076   1.471  11.501  0.7667  0.4100  0.2252
  390TMC3    C5 5828   0.068   1.440  11.634  0.1825  0.1901  0.7798
  390TMC3    C6 5829   0.016   1.317  11.676  0.4716  0.0132 -0.0545
  390TMC3     C 5830   0.098   1.383  11.276 -0.6219 -0.1154 -0.5511
  390TMC3     O 5831   0.046   1.331  11.182 -0.0124 -0.0323  0.1676
  390TMC3     H 5832   4.688   1.186  11.372 -0.8153 -2.3193  2.0272
  390TMC3    H1 5833   0.116   1.568  11.476  2.7903 -0.7737 -1.0995
  390TMC3    H2 5834   4.716   1.290  11.779  0.8208 -1.3226 -0.3439
  390TMC3    C7 5835   0.043   1.555  11.721  0.1109 -0.1560  0.2942
  390TMC3    C8 5836   4.664   1.089  11.616 -0.5843  0.2499  0.1210
  390TMC3    O1 5837   0.127   1.647  11.723  0.5774  0.1910  0.4894
  390TMC3    O2 5838   4.640   1.027  11.515 -0.2894 -0.1248  0.8436
  391MPD2     C 5839   3.991   2.713  11.596  0.6971 -0.5451 -0.0856
  391MPD2    C1 5840   4.051   2.823  11.543 -0.4001 -0.3431 -0.4443
  391MPD2    C2 5841   4.091   2.812  11.405 -0.2874 -0.2625 -0.6348
  391MPD2    C3 5842   4.059   2.703  11.326 -0.6802 -0.0325 -0.3159
  391MPD2    C4 5843   4.000   2.593  11.385 -0.0358 -0.5977  0.6074
  391MPD2    C5 5844   3.958   2.607  11.516  0.2749 -0.3557  0.3227
  391MPD2     H 5845   4.147   2.895  11.362 -0.8040 -0.4285 -1.6391
  391MPD2    H1 5846   3.985   2.496  11.338 -1.8378  0.1672 -0.3912
  391MPD2    H2 5847   3.969   2.714  11.702  1.2721  3.2428  0.0225
  391MPD2    H3 5848   3.914   2.518  11.560 -0.4644  0.0646  0.4422
  391MPD2     N 5849   4.095   2.703  11.187  0.5212 -0.5577  0.2586
  391MPD2    H5 5850   4.141   2.783  11.145 -0.0550 -1.5342 -2.2523
  391MPD2    N1 5851   4.067   2.936  11.632  0.2878 -0.4840  0.1597
  391MPD2    H7 5852   4.037   2.918  11.727  0.7686  2.2055  0.8011
  392TMC3    C1 5853   4.114   2.629  10.980 -0.1402  0.4731  0.3904
  392TMC3    C2 5854   4.067   2.561  10.874  0.8518 -0.1347 -0.5603
  392TMC3    C3 5855   4.137   2.577  10.749  0.0786  0.2251 -0.3203
  392TMC3    C4 5856   4.239   2.691  10.972  0.5307 -0.7510  0.0291
  392TMC3    C5 5857   4.304   2.702  10.850 -0.9023  0.7265  0.6647
  392TMC3    C6 5858   4.255   2.642  10.732  0.4086 -0.2369 -0.1616
  392TMC3     C 5859   4.063   2.602  11.106 -0.6382 -0.8572 -0.2389
  392TMC3     O 5860   3.964   2.528  11.113 -0.3083  0.4631  0.1596
  392TMC3     H 5861   3.985   2.492  10.886 -1.1843  2.0226 -1.9741
  392TMC3    H1 5862   4.289   2.724  11.063  1.4685  3.4278 -2.0001
  392TMC3    H2 5863   4.305   2.649  10.636 -0.7602 -0.8908 -0.8166
  392TMC3    C7 5864   4.414   2.795  10.840 -0.3376 -0.6346  0.2507
  392TMC3    C8 5865   4.087   2.502  10.637 -0.1720  0.0053 -0.1723
  392TMC3    O1 5866   4.428   2.877  10.930  0.6328 -0.3770  0.0075
  392TMC3    O2 5867   4.161   2.448  10.553  0.2214  0.1880 -0.6033
  393TMC3    C1 5868   3.518   0.805  11.081 -0.1251  0.1912 -0.1915
  393TMC3    C2 5869   3.456   0.805  11.206  0.5499  0.0902  0.3331
  393TMC3    C3 5870   3.501   0.878  11.312 -0.0483  0.5762  0.3240
  393TMC3    C4 5871   3.632   0.883  11.069  0.9943 -0.1443  0.2794
  393TMC3    C5 5872   3.675   0.955  11.177  0.5833  0.3401 -0.4729
  393TMC3    C6 5873   3.606   0.964  11.294  0.2000 -0.4392 -0.2527
  393TMC3     C 5874   3.454   0.751  10.958 -0.1006  0.0163 -0.3719
  393TMC3     O 5875   3.512   0.746  10.845  0.2274 -0.1374 -0.2784
  393TMC3     H 5876   3.382   0.728  11.222  0.3416  0.4633  1.1783
  393TMC3    H1 5877   3.679   0.893  10.971  1.1134 -0.1900  0.3325
  393TMC3    H2 5878   3.655   1.022  11.372 -2.5828  1.2375  0.2267
  393TMC3    C7 5879   3.777   1.051  11.154 -0.3942 -0.5209  0.0459
  393TMC3    C8 5880   3.417   0.889  11.423  0.5238 -1.3156  0.0324
  393TMC3    O1 5881   3.782   1.148  11.231  0.2390  0.7437 -0.0141
  393TMC3    O2 5882   3.317   0.823  11.414  0.3316  0.1393  0.0878
  394TMC3    C1 5883   0.335   1.293  10.618  0.0816  0.9587 -0.2838
  394TMC3    C2 5884   0.263   1.190  10.566 -0.7667  0.7538 -0.3285
  394TMC3    C3 5885   0.299   1.163  10.435 -0.2185  0.0597 -0.3380
  394TMC3    C4 5886   0.430   1.367  10.558 -0.5641  0.3100  0.4590
  394TMC3    C5 5887   0.457   1.331  10.432 -0.1183 -0.0919 -0.1601
  394TMC3    C6 5888   0.399   1.230  10.365  0.1337 -0.2914 -0.0674
  394TMC3     C 5889   0.296   1.328  10.757  0.5408  0.0569 -0.8206
  394TMC3     O 5890   0.232   1.250  10.827  0.3154 -0.9936 -0.3516
  394TMC3     H 5891   0.184   1.143  10.623 -0.4296 -0.5685 -0.9516
  394TMC3    H1 5892   0.488   1.443  10.609  1.5382 -2.1070  1.6750
  394TMC3    H2 5893   0.416   1.209  10.260 -1.8585 -1.8864 -0.0734
  394TMC3    C7 5894   0.586   1.375  10.376  0.2270  0.2863  0.0450
  394TMC3    C8 5895   0.278   1.035  10.370  0.3681 -0.0244  0.0549
  394TMC3    O1 5896   0.623   1.484  10.420 -0.1037  0.4558  0.1197
  394TMC3    O2 5897   0.266   1.036  10.249 -0.5119 -0.6802 -0.2746
  395TMC3    C1 5898   4.328   3.573  14.527 -0.1498  0.3919 -0.0137
  395TMC3    C2 5899   4.206   3.533  14.564  0.3149 -0.3790  0.6164
  395TMC3    C3 5900   4.181   3.550  14.703  0.2422 -0.6516 -0.5349
  395TMC3    C4 5901   4.426   3.624  14.608 -0.5130 -0.0908 -0.3837
  395TMC3    C5 5902   4.394   3.645  14.741 -0.4915  0.5942 -0.1701
  395TMC3    C6 5903   4.270   3.611  14.792  0.2677 -0.2460  0.1730
  395TMC3     C 5904   4.356   3.597  14.384  0.2108 -1.2577  0.2034
  395TMC3     O 5905   4.362   3.716  14.363 -0.8425  0.3475 -0.4662
  395TMC3     H 5906   4.132   3.503  14.490 -0.7100 -0.6749  1.7656
  395TMC3    H1 5907   4.523   3.645  14.564 -0.0145 -1.6841 -0.0281
  395TMC3    H2 5908   4.242   3.628  14.895 -0.3922 -0.7791  0.0788
  395TMC3    C7 5909   4.506   3.668  14.826 -0.4750 -0.7386 -0.0450
  395TMC3    C8 5910   4.087   3.459  14.772  0.1539  0.4872 -0.5091
  395TMC3    O1 5911   4.478   3.709  14.939  0.0432  0.3333 -0.1161
  395TMC3    O2 5912   4.049   3.484  14.883 -0.1911 -0.6657 -0.0508
  396MPD2     C 5913   4.329   4.277  17.452 -0.1608  0.1064 -0.6078
  396MPD2    C1 5914   4.440   4.224  17.390 -0.5071 -0.2296  0.1528
  396MPD2    C2 5915   4.525   4.307  17.320 -0.5344  0.4782  0.1143
  396MPD2    C3 5916   4.501   4.449  17.318 -0.6519 -0.2848  0.4274
  396MPD2    C4 5917   4.398   4.498  17.384 -0.2866 -0.0472  0.6081
  396MPD2    C5 5918   4.317   4.415  17.454  0.4389 -0.2061  0.4370
  396MPD2     H 5919   4.613   4.276  17.265 -0.3087  0.6490  0.3751
  396MPD2    H1 5920   4.383   4.605  17.398  0.1867  0.1448 -0.2976
  396MPD2    H2 5921   4.250   4.216  17.495 -0.0183 -0.1720 -0.7350
  396MPD2    H3 5922   4.233   4.464  17.501  1.3327  0.9540  0.8478
  396MPD2     N 5923   4.602   4.538  17.261 -0.8072 -0.1816 -0.0901
  396MPD2    H5 5924   4.685   4.497  17.219 -1.1606 -1.6530  0.6614
  396MPD2    N1 5925   4.449   4.086  17.395 -0.2614  0.0404  0.0273
  396MPD2    H7 5926   4.371   4.034  17.433  1.5941 -2.2052  0.7278
  397TMC3    C1 5927   4.526   3.868  17.354  0.2899  0.3898  0.0003
  397TMC3    C2 5928   4.525   3.823  17.224 -0.6077 -0.0286  0.1678
  397TMC3    C3 5929   4.405   3.763  17.178 -0.9551 -0.7269 -0.2861
  397TMC3    C4 5930   4.421   3.847  17.438 -0.0009  0.2774 -0.0848
  397TMC3    C5 5931   4.305   3.778  17.387 -0.0687 -0.3533  0.3343
  397TMC3    C6 5932   4.297   3.734  17.256  0.8728 -0.5896  0.0933
  397TMC3     C 5933   4.549   4.012  17.349 -0.4694  0.2186 -0.0174
  397TMC3     O 5934   4.647   4.047  17.286  0.1051 -0.6985 -0.2713
  397TMC3     H 5935   4.611   3.847  17.162 -0.1507 -1.3087  0.2985
  397TMC3    H1 5936   4.440   3.877  17.540  0.1686  0.8789 -0.2922
  397TMC3    H2 5937   4.213   3.679  17.213  0.2524  0.5012 -0.0977
  397TMC3    C7 5938   4.260   3.680  17.478 -0.7450  0.1076  0.2035
  397TMC3    C8 5939   4.385   3.767  17.032 -0.8847 -0.1123 -0.1304
  397TMC3    O1 5940   4.218   3.574  17.429  0.5412  0.7276  0.4584
  397TMC3    O2 5941   4.272   3.757  16.996  0.1773 -0.5432  0.0856
  398MPD2     C 5942   2.547   0.254   0.270  0.3626  0.5840  0.2093
  398MPD2    C1 5943   2.677   0.242   0.317 -0.2780  0.2168  0.6785
  398MPD2    C2 5944   2.771   0.326   0.252  0.1266 -0.4236 -0.3121
  398MPD2    C3 5945   2.734   0.399   0.147  0.0610 -0.6054 -0.1317
  398MPD2    C4 5946   2.604   0.398   0.089 -0.2067  0.4235 -0.0089
  398MPD2    C5 5947   2.511   0.320   0.155 -0.6410  0.0083 -0.1638
  398MPD2     H 5948   2.875   0.327   0.284 -0.1994 -0.1758  0.7325
  398MPD2    H1 5949   2.572   0.454   0.003  2.0698 -0.1442 -1.2349
  398MPD2    H2 5950   2.469   0.189   0.307  0.2761 -0.7164 -2.2644
  398MPD2    H3 5951   2.412   0.317   0.110  0.4704 -1.5186 -2.5233
  398MPD2     N 5952   2.847   0.468   0.098  0.3702 -0.2522 -0.3347
  398MPD2    H5 5953   2.939   0.438   0.129 -0.7903 -4.9271 -1.4673
  398MPD2    N1 5954   2.707   0.163   0.430 -0.2560 -0.4159  0.2042
  398MPD2    H7 5955   2.800   0.152   0.469 -0.1731  0.6607  0.3345
  399TMC3    C1 5956   2.675   0.033   0.621  0.6207  0.2273  0.1867
  399TMC3    C2 5957   2.794   0.069   0.670  0.6000 -0.1519  0.0802
  399TMC3    C3 5958   2.832   0.015   0.788 -0.1847  0.2124  0.0608
  399TMC3    C4 5959   2.588   4.675   0.694 -0.3706  0.0863  0.3021
  399TMC3    C5 5960   2.624   4.625   0.814 -0.0064  0.5868 -0.3757
  399TMC3    C6 5961   2.750   4.653   0.861  0.1090  0.7517 -1.0839
  399TMC3     C 5962   2.615   0.094   0.506 -0.6334  0.5971  0.3835
  399TMC3     O 5963   2.497   0.072   0.501  0.9659  0.0903 -1.0666
  399TMC3     H 5964   2.862   0.128   0.609  1.5249 -0.2907  0.9899
  399TMC3    H1 5965   2.493   4.637   0.656  0.2019  0.8062 -1.8311
  399TMC3    H2 5966   2.782   4.618   0.959 -0.8346 -1.1909 -1.4784
  399TMC3    C7 5967   2.539   4.556   0.907 -0.6505 -0.0253  0.2987
  399TMC3    C8 5968   2.972   0.013   0.809 -0.4438 -0.0283 -0.1813
  399TMC3    O1 5969   2.581   4.499   1.005  0.4118 -0.1753 -0.2435
  399TMC3    O2 5970   3.040   0.037   0.711 -0.1142 -0.1865  0.2214
  400TMC3    C1 5971   1.248   3.895  17.403 -0.0944 -1.0545 -0.4010
  400TMC3    C2 5972   1.149   3.840  17.325 -0.4438 -0.2221 -0.4107
  400TMC3    C3 5973   1.068   3.925  17.249  0.0533  0.5942 -0.0835
  400TMC3    C4 5974   1.271   4.029  17.409  0.3572 -0.1899 -0.4561
  400TMC3    C5 5975   1.194   4.110  17.333  0.8833 -0.2908  0.1437
  400TMC3    C6 5976   1.092   4.061  17.258  0.1602  0.2577  0.5565
  400TMC3     C 5977   1.310   3.803  17.506  0.1427  0.6405  0.1725
  400TMC3     O 5978   1.275   3.686  17.509 -0.4030 -0.3633 -0.3666
  400TMC3     H 5979   1.146   3.732  17.331  0.6358 -0.2448 -0.3096
  400TMC3    H1 5980   1.331   4.065  17.492 -0.0496  0.4060 -0.4210
  400TMC3    H2 5981   1.036   4.129  17.194  0.0391 -0.3293  0.0399
  400TMC3    C7 5982   1.194   4.243  17.383  0.5404  0.4786 -0.0108
  400TMC3    C8 5983   0.962   3.881  17.160 -0.4076 -0.4582 -0.2848
  400TMC3    O1 5984   1.301   4.296  17.418  0.0383  0.5156 -0.1671
  400TMC3    O2 5985   0.893   3.955  17.089 -0.3789  0.2169  0.3815
  401MPD2     C 5986   0.013   3.279   1.329 -0.0541  0.6130 -0.4528
  401MPD2    C1 5987   0.119   3.253   1.251 -0.0702  0.4546  0.0403
  401MPD2    C2 5988   0.117   3.130   1.177  0.2673  0.0663 -0.3136
  401MPD2    C3 5989   0.007   3.043   1.188  0.1233 -0.1961 -0.3198
  401MPD2    C4 5990   4.619   3.078   1.261 -0.9906  0.1056 -0.0194
  401MPD2    C5 5991   4.626   3.190   1.340  0.6542 -0.4640  0.5960
  401MPD2     H 5992   0.196   3.109   1.107 -0.1049 -0.9980 -0.4148
  401MPD2    H1 5993   4.526   3.024   1.245  0.3458 -1.7153 -1.6688
  401MPD2    H2 5994   0.005   3.371   1.387 -0.9835  0.4837 -0.3769
  401MPD2    H3 5995   4.544   3.219   1.404 -0.5861 -0.0072 -1.1884
  401MPD2     N 5996   0.016   2.920   1.118  0.0953  0.2844  0.0801
  401MPD2    H5 5997   0.099   2.910   1.061  1.2379  0.3367  1.7237
  401MPD2    N1 5998   0.232   3.335   1.242  0.3446 -0.0486  0.3898
  401MPD2    H7 5999   0.304   3.321   1.172 -0.1027  0.8427 -0.2474
  402TMC3    C1 6000   4.688   2.711   1.026  0.2360  0.3713 -0.5287
  402TMC3    C2 6001   4.655   2.584   1.079  0.6686 -0.4935  0.4733
  402TMC3    C3 6002   4.690   2.478   1.000  0.2994  0.5990  0.6004
  402TMC3    C4 6003   0.051   2.734   0.922  0.1729  0.2727  0.3251
  402TMC3    C5 6004   0.098   2.623   0.853  0.2736  0.5414 -0.5821
  402TMC3    C6 6005   0.052   2.499   0.892 -0.1760 -0.4658 -0.4288
  402TMC3     C 6006   4.643   2.821   1.108 -0.7128  0.1835  0.3624
  402TMC3     O 6007   4.545   2.810   1.182  0.5615  0.0315 -0.1304
  402TMC3     H 6008   4.615   2.574   1.179  0.5953 -0.1183  0.4798
  402TMC3    H1 6009   0.073   2.835   0.891  0.9446 -0.1952 -0.6655
  402TMC3    H2 6010   0.074   2.404   0.845  0.1583  0.7894 -2.8160
  402TMC3    C7 6011   0.206   2.628   0.754  0.8207  0.3262  0.8258
  402TMC3    C8 6012   0.011   2.355   1.069  0.5500 -0.7266 -0.2859
  402TMC3    O1 6013   0.258   2.738   0.736  0.0639 -0.2081 -0.4734
  402TMC3    O2 6014   0.114   2.293   1.038  0.1447 -0.2348 -0.7259
  403MPD2     C 6015   2.731   0.895  13.565  0.8107 -1.2246  0.0672
  403MPD2    C1 6016   2.682   0.979  13.665 -0.2647  0.1823 -0.3337
  403MPD2    C2 6017   2.761   1.047  13.757  0.0240 -0.9057  0.1842
  403MPD2    C3 6018   2.894   1.013  13.755  0.1657 -0.3092 -0.0303
  403MPD2    C4 6019   2.947   0.927  13.663 -0.0292 -0.1703 -0.1960
  403MPD2    C5 6020   2.868   0.871  13.562 -0.9116 -0.4368 -0.0983
  403MPD2     H 6021   2.725   1.106  13.841  0.9190  1.8424 -1.3378
  403MPD2    H1 6022   3.049   0.902  13.690 -0.0914  0.0338  0.2325
  403MPD2    H2 6023   2.679   0.838  13.489  1.1733 -0.8768 -0.4456
  403MPD2    H3 6024   2.908   0.801  13.489 -0.2279 -0.6638  0.4899
  403MPD2     N 6025   2.977   1.065  13.857 -0.2172  0.4415  0.3314
  403MPD2    H5 6026   3.058   1.008  13.877  0.7965  1.4361 -0.9402
  403MPD2    N1 6027   2.540   0.988  13.650  0.0704  0.1335 -0.1064
  403MPD2    H7 6028   2.490   0.935  13.579  0.1289  0.2093 -0.2049
  404TMC3    C1 6029   2.324   1.015  13.705  0.7691  0.1490  0.0578
  404TMC3    C2 6030   2.260   0.916  13.774 -0.6912  0.1380  0.5278
  404TMC3    C3 6031   2.174   0.827  13.706 -0.2313  0.3896 -0.0939
  404TMC3    C4 6032   2.280   1.034  13.579  0.4581 -0.0092 -0.2123
  404TMC3    C5 6033   2.188   0.945  13.516 -0.4980 -0.5330  0.3511
  404TMC3    C6 6034   2.140   0.831  13.575  0.6285 -0.7574  0.6633
  404TMC3     C 6035   2.460   1.045  13.745 -0.2922  0.4573  0.1958
  404TMC3     O 6036   2.497   1.081  13.856  0.0494  0.2754  0.9709
  404TMC3     H 6037   2.296   0.889  13.873 -1.2233  1.1763  1.0041
  404TMC3    H1 6038   2.335   1.101  13.513  2.2839 -0.1475  1.1694
  404TMC3    H2 6039   2.078   0.758  13.524  0.7936 -0.8198  0.5539
  404TMC3    C7 6040   2.142   0.982  13.385 -0.1367  0.0236  0.3311
  404TMC3    C8 6041   2.158   0.703  13.780 -0.1296 -0.3937 -0.5900
  404TMC3    O1 6042   2.164   1.100  13.351 -0.2077  0.5789 -0.0305
  404TMC3    O2 6043   2.168   0.591  13.730  0.3165 -0.0541  0.0269
  405MPD2     C 6044   2.969   1.996  15.436  0.2966  0.3314  0.7853
  405MPD2    C1 6045   2.950   1.920  15.317 -0.0239  0.2621 -0.1799
  405MPD2    C2 6046   2.844   1.960  15.241  0.0736  0.4344 -0.3864
  405MPD2    C3 6047   2.759   2.058  15.280 -0.1615  0.8528 -0.2193
  405MPD2    C4 6048   2.794   2.143  15.380  0.0853  0.2936 -0.0018
  405MPD2    C5 6049   2.891   2.109  15.468  0.1819 -0.1907  0.1557
  405MPD2     H 6050   2.824   1.915  15.144 -2.0726  0.9079 -0.1652
  405MPD2    H1 6051   2.732   2.227  15.409 -0.8859  0.4648 -2.5739
  405MPD2    H2 6052   3.052   1.964  15.498  0.1958  0.3049  0.9066
  405MPD2    H3 6053   2.895   2.153  15.567 -1.3354 -1.3780  0.7538
  405MPD2     N 6054   2.654   2.084  15.191  0.3615  0.3222 -0.7711
  405MPD2    H5 6055   2.655   2.031  15.104  2.5909  0.1593 -0.6324
  405MPD2    N1 6056   3.037   1.814  15.295  0.3311 -0.3644  0.3091
  405MPD2    H7 6057   3.085   1.765  15.370 -3.1439 -0.6804  2.3224
  406TMC3    C1 6058   2.288   2.191  14.951  0.9715  0.7992 -0.1813
  406TMC3    C2 6059   2.357   2.143  14.844 -0.2635  0.0537 -0.1568
  406TMC3    C3 6060   2.494   2.142  14.847  0.1505  0.4291 -0.4585
  406TMC3    C4 6061   2.350   2.208  15.070  0.4866 -0.1287  0.4835
  406TMC3    C5 6062   2.487   2.190  15.075 -0.2128  0.1181 -0.4513
  406TMC3    C6 6063   2.562   2.169  14.963  0.0703  0.3755  0.2509
  406TMC3     C 6064   2.167   2.262  14.923 -0.0923 -0.1486 -0.8957
  406TMC3     O 6065   2.138   2.276  14.807 -0.0451  0.2650  0.6180
  406TMC3     H 6066   2.307   2.123  14.750 -1.0034 -1.0769  0.4833
  406TMC3    H1 6067   2.295   2.239  15.159 -0.5452 -0.0949 -0.1676
  406TMC3    H2 6068   2.668   2.150  14.975 -0.3756 -0.4541  2.9664
  406TMC3    C7 6069   2.552   2.178  15.203 -0.1553  0.8459 -0.5607
  406TMC3    C8 6070   2.554   2.066  14.740 -0.1692 -0.2520  0.1250
  406TMC3    O1 6071   2.511   2.224  15.310  0.1557  0.3669  0.2301
  406TMC3    O2 6072   2.495   2.048  14.637 -0.0678  0.0182 -0.5188
  407MPD2     C 6073   0.736   2.594   9.381  0.0482 -0.2512 -0.6722
  407MPD2    C1 6074   0.863   2.581   9.437  0.1405  0.4841  0.3014
  407MPD2    C2 6075   0.895   2.603   9.566 -0.0425  0.5511 -0.1098
  407MPD2    C3 6076   0.795   2.653   9.648  0.6411 -0.7396  0.1350
  407MPD2    C4 6077   0.666   2.659   9.592  0.0626  0.5271 -0.0249
  407MPD2    C5 6078   0.642   2.629   9.464  0.1684  0.4908 -0.0846
  407MPD2     H 6079   0.999   2.602   9.597 -1.2612  1.5437  3.9777
  407MPD2    H1 6080   0.578   2.692   9.646 -0.8799 -0.2294 -1.0982
  407MPD2    H2 6081   0.719   2.571   9.276  0.6079 -0.1770 -0.7761
  407MPD2    H3 6082   0.545   2.647   9.421  0.6027 -0.9131 -1.6353
  407MPD2     N 6083   0.802   2.712   9.775  0.0877 -0.1257 -0.1429
  407MPD2    H5 6084   0.713   2.749   9.808  0.6703  0.5098  0.7025
  407MPD2    N1 6085   0.973   2.536   9.356  0.2412 -0.3492  0.5941
  407MPD2    H7 6086   1.062   2.532   9.405 -0.9803 -1.2984  2.6793
  408TMC3    C1 6087   1.118   2.508   9.173  0.1484 -0.0360  0.4376
  408TMC3    C2 6088   1.218   2.438   9.219 -0.4445 -0.5398 -0.2748
  408TMC3    C3 6089   1.350   2.478   9.191 -0.5609 -0.1063  0.7118
  408TMC3    C4 6090   1.142   2.630   9.110 -0.0435  0.2693  0.0735
  408TMC3    C5 6091   1.272   2.674   9.096 -0.3304  0.0016  0.2842
  408TMC3    C6 6092   1.383   2.592   9.122 -0.2371  1.0503  0.2991
  408TMC3     C 6093   0.978   2.504   9.222  0.3347 -0.4245 -0.3855
  408TMC3     O 6094   0.893   2.524   9.135  0.0634 -0.4617 -0.1616
  408TMC3     H 6095   1.206   2.348   9.278  0.7596 -1.8575 -2.0507
  408TMC3    H1 6096   1.064   2.703   9.092 -0.2326  0.0024 -0.1830
  408TMC3    H2 6097   1.486   2.625   9.111 -0.1965  0.7231 -0.2880
  408TMC3    C7 6098   1.284   2.818   9.121  0.8461  0.1182 -0.3679
  408TMC3    C8 6099   1.438   2.455   9.302 -0.7240 -0.0255 -0.2622
  408TMC3    O1 6100   1.380   2.846   9.194 -0.4430 -0.0527  0.4718
  408TMC3    O2 6101   1.464   2.339   9.331 -0.7927  0.0824  0.5684
  409MPD2     C 6102   4.532   3.257  17.381 -0.2446 -0.7488  0.9997
  409MPD2    C1 6103   4.638   3.179  17.361 -0.1244 -0.2781  0.2955
  409MPD2    C2 6104   0.046   3.232  17.344  0.4579  0.8290 -0.6318
  409MPD2    C3 6105   0.060   3.372  17.329 -0.3135 -0.0645  0.4837
  409MPD2    C4 6106   4.671   3.456  17.346 -0.4785 -0.2530  0.0473
  409MPD2    C5 6107   4.551   3.402  17.384 -0.1347 -0.2179 -0.2304
  409MPD2     H 6108   0.131   3.165  17.331 -0.6944 -0.7607 -0.0128
  409MPD2    H1 6109   4.674   3.564  17.333 -0.2700 -0.3040 -0.3377
  409MPD2    H2 6110   4.434   3.217  17.406 -0.9870  0.3698 -0.1169
  409MPD2    H3 6111   4.461   3.462  17.386 -1.4378 -2.1911  0.3104
  409MPD2     N 6112   0.174   3.442  17.285 -0.4041  0.0663 -0.0886
  409MPD2    H5 6113   0.152   3.539  17.265  0.7986  0.4314  0.3446
  409MPD2    N1 6114   4.638   3.037  17.376  0.0881 -1.1122 -0.4093
  409MPD2    H7 6115   0.008   2.992  17.373  0.5629 -0.0539 -1.4573
  410TMC3    C1 6116   0.386   3.505  17.234  1.0330 -0.4825  0.4645
  410TMC3    C2 6117   0.477   3.582  17.307  0.6704 -1.0948  0.9498
  410TMC3    C3 6118   0.527   3.692  17.238  0.7699 -0.5760 -0.3031
  410TMC3    C4 6119   0.324   3.556  17.124  0.0878  0.0319 -0.0854
  410TMC3    C5 6120   0.372   3.668  17.069 -0.1164  0.7836  0.4314
  410TMC3    C6 6121   0.471   3.745  17.126  0.4787 -0.2081 -0.0839
  410TMC3     C 6122   0.304   3.412  17.306  0.1895 -0.1384 -0.6999
  410TMC3     O 6123   0.360   3.333  17.384 -0.3592  0.2803 -0.5506
  410TMC3     H 6124   0.519   3.547  17.401  1.4108 -1.9844  0.2842
  410TMC3    H1 6125   0.278   3.476  17.068  0.6656 -0.4492  0.1265
  410TMC3    H2 6126   0.525   3.824  17.075  0.8564  0.3406  1.1414
  410TMC3    C7 6127   0.319   3.705  16.937  0.8847  0.3264  0.0934
  410TMC3    C8 6128   0.621   3.777  17.304  0.0659 -0.5564 -0.2290
  410TMC3    O1 6129   0.225   3.633  16.895  0.6157  0.9206 -0.3446
  410TMC3    O2 6130   0.605   3.895  17.273  0.8754  0.6042 -0.2135
  411MPD2     C 6131   0.223   4.141  14.533  0.5918  0.2059  0.2835
  411MPD2    C1 6132   0.191   4.205  14.416 -0.4023  0.1469 -0.1534
  411MPD2    C2 6133   0.151   4.127  14.308 -0.4999 -0.3066  0.4512
  411MPD2    C3 6134   0.129   3.993  14.323 -0.7789  0.4076  0.4678
  411MPD2    C4 6135   0.158   3.929  14.448 -0.2134 -0.6580  0.1939
  411MPD2    C5 6136   0.217   4.007  14.546 -0.4511  0.1428  0.7801
  411MPD2     H 6137   0.134   4.165  14.208 -0.1195  0.2583  0.6059
  411MPD2    H1 6138   0.153   3.823  14.468 -1.4200 -0.3857  1.3613
  411MPD2    H2 6139   0.257   4.197  14.619  0.2928 -0.8547  1.0931
  411MPD2    H3 6140   0.251   3.958  14.637 -3.3866  1.5637  2.6264
  411MPD2     N 6141   0.067   3.925  14.220 -0.6047 -0.2318  0.1073
  411MPD2    H5 6142   0.057   3.969  14.129 -0.4946 -4.4704 -1.9617
  411MPD2    N1 6143   0.181   4.348  14.422 -0.5002  0.2144 -0.6597
  411MPD2    H7 6144   0.205   4.391  14.510  1.3412  0.9499 -1.5202
  412TMC3    C1 6145   4.692   3.766  14.094  0.1192 -0.0110 -0.2007
  412TMC3    C2 6146   4.581   3.683  14.100 -0.3839 -0.0186 -0.8201
  412TMC3    C3 6147   4.546   3.610  13.986 -0.5810  0.0904 -0.0550
  412TMC3    C4 6148   0.054   3.761  13.988 -0.2679  0.0967  0.3925
  412TMC3    C5 6149   0.015   3.685  13.878  0.2840 -0.3103 -0.0342
  412TMC3    C6 6150   4.622   3.611  13.874 -0.2389 -0.8656 -0.3100
  412TMC3     C 6151   0.016   3.797  14.223 -0.4099 -0.0859 -0.6031
  412TMC3     O 6152   4.711   3.728  14.320 -0.0916  0.2208  0.0991
  412TMC3     H 6153   4.496   3.707  14.163 -0.9226  0.0081 -1.5514
  412TMC3    H1 6154   0.147   3.817  13.987  0.4646 -1.1138  0.7910
  412TMC3    H2 6155   4.613   3.539  13.793  1.0945 -2.2818  0.8156
  412TMC3    C7 6156   0.006   3.757  13.752  0.5572  0.0230  0.3548
  412TMC3    C8 6157   4.406   3.625  13.952 -0.1824 -0.6464 -0.2215
  412TMC3    O1 6158   4.625   3.738  13.687 -0.0773 -0.2616  0.0235
  412TMC3    O2 6159   4.328   3.627  14.044  0.3243 -0.3924  0.5178
  413MPD2     C 6160   2.210   2.605  15.159 -0.1281 -0.5348 -0.7712
  413MPD2    C1 6161   2.220   2.667  15.280  0.2912 -0.4816 -0.3333
  413MPD2    C2 6162   2.339   2.660  15.344  0.1113  0.1060 -0.4931
  413MPD2    C3 6163   2.455   2.599  15.293 -0.3605 -0.4886 -0.4184
  413MPD2    C4 6164   2.437   2.535  15.171 -1.1328 -0.1401  0.2783
  413MPD2    C5 6165   2.320   2.537  15.108 -0.0636 -0.2542  0.5650
  413MPD2     H 6166   2.346   2.691  15.448 -1.0159 -2.7114  0.4379
  413MPD2    H1 6167   2.527   2.482  15.141  0.3670  1.7729  1.3658
  413MPD2    H2 6168   2.123   2.614  15.094 -0.4658 -0.0655 -0.2502
  413MPD2    H3 6169   2.315   2.499  15.006 -1.3518 -1.1852  0.9746
  413MPD2     N 6170   2.579   2.597  15.367  0.0170 -0.3221 -0.0445
  413MPD2    H5 6171   2.571   2.630  15.463 -0.2537  1.8965 -0.8237
  413MPD2    N1 6172   2.103   2.723  15.337  0.6260  0.1106 -0.0834
  413MPD2    H7 6173   2.016   2.716  15.286 -0.2396  1.6239  1.2005
  414TMC3    C1 6174   2.784   2.530  15.453 -0.9076  0.3032 -0.3922
  414TMC3    C2 6175   2.739   2.494  15.578 -0.1758  0.5281 -0.3401
  414TMC3    C3 6176   2.830   2.466  15.680  0.2727 -0.2095  0.1761
  414TMC3    C4 6177   2.917   2.526  15.423  0.1974  0.3927 -0.1859
  414TMC3    C5 6178   2.998   2.509  15.532 -0.5061  0.3534 -0.0065
  414TMC3    C6 6179   2.959   2.489  15.658 -0.4631 -0.5513  0.7144
  414TMC3     C 6180   2.694   2.524  15.342  0.4225  0.0028  0.0839
  414TMC3     O 6181   2.742   2.487  15.238  1.0273 -0.1868  0.5114
  414TMC3     H 6182   2.634   2.468  15.579 -0.4555  1.6626 -0.2835
  414TMC3    H1 6183   2.948   2.541  15.320  0.5592  1.1028  0.0286
  414TMC3    H2 6184   3.035   2.479  15.735  0.5622  3.8786  0.2710
  414TMC3    C7 6185   3.126   2.443  15.500 -0.1021  0.8901 -0.3228
  414TMC3    C8 6186   2.807   2.340  15.746  0.4529 -0.0128 -0.2692
  414TMC3    O1 6187   3.212   2.453  15.587 -0.6330  0.1449 -0.2898
  414TMC3    O2 6188   2.718   2.273  15.695  0.3197  0.0457  0.4336
  415TMC3    C1 6189   2.623   4.522  10.515 -0.1971  0.5731 -0.1283
  415TMC3    C2 6190   2.674   4.532  10.389 -0.6959 -0.5881 -0.4111
  415TMC3    C3 6191   2.626   4.437  10.297  0.4849  0.1365  0.2835
  415TMC3    C4 6192   2.538   4.421  10.557  0.0371  0.2778  0.2122
  415TMC3    C5 6193   2.509   4.324  10.467  0.5676  0.2963 -0.5192
  415TMC3    C6 6194   2.548   4.338  10.337 -0.0251  0.1757  0.0278
  415TMC3     C 6195   2.629   4.628  10.611 -0.3752  0.2692  0.2534
  415TMC3     O 6196   2.614   4.596  10.729 -0.7918 -0.1573 -0.4661
  415TMC3     H 6197   2.750   4.606  10.370  0.1779 -1.2376  0.5713
  415TMC3    H1 6198   2.494   4.413  10.655  2.4551  0.7395  1.3254
  415TMC3    H2 6199   2.489   4.289  10.261 -0.0964  0.3287 -0.0130
  415TMC3    C7 6200   2.409   4.219  10.484 -0.0056  0.7427 -0.1322
  415TMC3    C8 6201   2.709   4.400  10.180 -0.1890 -0.6645 -0.5559
  415TMC3    O1 6202   2.396   4.133  10.399  0.0857 -0.0778  0.6365
  415TMC3    O2 6203   2.694   4.288  10.131  0.0304 -0.3197 -0.1818
  416MPD2     C 6204   4.158   4.431  11.909  0.1311  0.3259  0.2202
  416MPD2    C1 6205   4.050   4.359  11.867 -0.4367 -0.2765  0.0713
  416MPD2    C2 6206   4.067   4.243  11.790  0.5404 -0.4419  0.6049
  416MPD2    C3 6207   4.197   4.198  11.763  0.1502  0.1048  1.0507
  416MPD2    C4 6208   4.304   4.270  11.818 -0.7955  0.1666  0.1266
  416MPD2    C5 6209   4.283   4.389  11.885 -0.2904  0.2097  0.1993
  416MPD2     H 6210   3.982   4.189  11.750  1.4879 -1.9288  0.6158
  416MPD2    H1 6211   4.404   4.233  11.796 -1.2693 -1.2789  0.3938
  416MPD2    H2 6212   4.150   4.522  11.967  0.8124  0.3502  0.2738
  416MPD2    H3 6213   4.365   4.441  11.932 -1.2585  2.0053 -0.1240
  416MPD2     N 6214   4.222   4.074  11.705 -0.1290 -0.7222 -0.0907
  416MPD2    H5 6215   4.312   4.030  11.723 -0.4084 -0.2884  2.3727
  416MPD2    N1 6216   3.919   4.406  11.909 -0.0592 -0.2720 -0.0961
  416MPD2    H7 6217   3.918   4.498  11.953 -1.3124 -0.7988  0.9878
  417TMC3    C1 6218   3.689   4.438  11.912  0.4163 -0.2948 -1.0654
  417TMC3    C2 6219   3.691   4.505  12.033 -0.3194 -0.2713 -0.1478
  417TMC3    C3 6220   3.626   4.624  12.048  0.4824  0.9760 -0.1293
  417TMC3    C4 6221   3.607   4.478  11.813  0.0741  0.2524 -0.4111
  417TMC3    C5 6222   3.542   4.600  11.830 -0.6450  0.0351  0.7971
  417TMC3    C6 6223   3.554   4.671  11.942  0.2329  0.2881 -0.4095
  417TMC3     C 6224   3.795   4.353  11.876  0.4780 -0.8206  0.6392
  417TMC3     O 6225   3.777   4.281  11.775 -0.3321 -0.3273  0.6153
  417TMC3     H 6226   3.753   4.469  12.114 -0.2267  1.8110  0.6944
  417TMC3    H1 6227   3.601   4.416  11.724 -0.7660  0.8369 -0.7729
  417TMC3    H2 6228   3.499   0.043  11.951 -2.4045 -1.1511 -1.5777
  417TMC3    C7 6229   3.523   4.681  11.715  0.3705 -0.2294 -0.2169
  417TMC3    C8 6230   3.568   4.674  12.170  0.6084 -0.1546  0.6965
  417TMC3    O1 6231   3.572   0.074  11.718 -0.2504 -0.5293 -0.5727
  417TMC3    O2 6232   3.582   0.076  12.184  0.2936 -0.1738  0.2608
  418TMC3    C1 6233   3.189   0.636   0.004  0.0477 -0.4836  0.0316
  418TMC3    C2 6234   3.066   0.576  17.683 -0.8728 -0.5798  0.0529
  418TMC3    C3 6235   2.956   0.657   0.016  0.0877 -0.6797 -0.0919
  418TMC3    C4 6236   3.203   0.756   0.060  0.3963  0.4295 -0.0121
  418TMC3    C5 6237   3.090   0.820   0.107 -0.9126 -0.6172 -0.4754
  418TMC3    C6 6238   2.964   0.777   0.079 -0.0749  0.0172  1.0285
  418TMC3     C 6239   3.302   0.600  17.616 -0.0157 -0.5831 -0.1468
  418TMC3     O 6240   3.381   0.685  17.581  0.1712 -0.2986  0.0243
  418TMC3     H 6241   3.050   0.483  17.631  1.0174 -0.1798 -1.2402
  418TMC3    H1 6242   3.301   0.796   0.083 -0.0077  1.9102 -0.9003
  418TMC3    H2 6243   2.882   0.841   0.108 -0.1428 -0.2565  1.4358
  418TMC3    C7 6244   3.106   0.915   0.205  0.0969 -0.1500  0.0073
  418TMC3    C8 6245   2.832   0.582   0.028 -0.1818 -0.5346 -0.6167
  418TMC3    O1 6246   3.046   1.022   0.186  0.3260  0.2855 -0.6161
  418TMC3    O2 6247   2.731   0.638  17.673 -0.4825  0.2918  0.5310
  419MPD2     C 6248   0.546   4.298  12.793 -0.2738 -0.2132  0.0757
  419MPD2    C1 6249   0.666   4.336  12.855 -0.0095  0.0679  0.4433
  419MPD2    C2 6250   0.667   4.374  12.985  0.5043 -0.3194  0.5377
  419MPD2    C3 6251   0.538   4.400  13.046  0.4843 -0.2303  0.5274
  419MPD2    C4 6252   0.420   4.372  12.983  0.2019  0.0914 -0.1349
  419MPD2    C5 6253   0.425   4.321  12.851 -0.7849 -0.0899  0.0292
  419MPD2     H 6254   0.758   4.406  13.034 -0.0554  0.5752  1.0116
  419MPD2    H1 6255   0.322   4.384  13.026 -1.0772  1.1557 -3.3304
  419MPD2    H2 6256   0.541   4.258  12.692 -0.2939 -0.9221  0.3603
  419MPD2    H3 6257   0.333   4.298  12.798 -0.6756  0.1703 -0.2770
  419MPD2     N 6258   0.546   4.436  13.178  0.2563  0.5243  0.0036
  419MPD2    H5 6259   0.641   4.462  13.204 -0.1929  1.4237  0.7364
  419MPD2    N1 6260   0.788   4.330  12.782 -0.0236  0.4505 -0.1830
  419MPD2    H7 6261   0.869   4.369  12.829  0.3770  1.4762 -1.7550
  420TMC3    C1 6262   0.481   4.555  13.366 -0.2918  0.0910  0.3202
  420TMC3    C2 6263   0.403   4.664  13.398  1.1236 -0.8500 -0.6663
  420TMC3    C3 6264   0.447   0.026  13.490 -0.3628 -0.2758  0.4862
  420TMC3    C4 6265   0.595   4.528  13.428 -0.4141  0.2196 -0.0779
  420TMC3    C5 6266   0.647   4.626  13.508  0.4229  0.1109  0.3003
  420TMC3    C6 6267   0.572   0.019  13.550 -0.0860 -0.2621 -0.5162
  420TMC3     C 6268   0.443   4.487  13.244 -0.6331 -0.3303 -0.1759
  420TMC3     O 6269   0.328   4.503  13.214  0.0691  0.9028  0.2893
  420TMC3     H 6270   0.307   4.681  13.351 -0.0416 -1.3859  1.5109
  420TMC3    H1 6271   0.671   4.455  13.399 -0.9022  0.3067 -1.5662
  420TMC3    H2 6272   0.604   0.088  13.627  0.6691 -0.6949 -0.4415
  420TMC3    C7 6273   0.775   4.594  13.578  0.0681  0.0101  0.4916
  420TMC3    C8 6274   0.381   0.158  13.506 -0.7944  0.8006  0.7405
  420TMC3    O1 6275   0.807   4.476  13.590  0.5775  0.4031 -0.1778
  420TMC3    O2 6276   0.463   0.247  13.521  0.0187  0.1784 -0.0524
  421TMC3    C1 6277   3.024   1.189  14.053  0.9836  0.4258 -0.2010
  421TMC3    C2 6278   3.071   1.312  14.084 -0.3650 -0.1641 -0.2548
  421TMC3    C3 6279   3.168   1.318  14.167  0.2020 -0.4033 -0.1172
  421TMC3    C4 6280   3.085   1.078  14.113 -0.5567  0.3900  0.0272
  421TMC3    C5 6281   3.188   1.092  14.193  0.9455 -0.2939 -0.2721
  421TMC3    C6 6282   3.233   1.213  14.226 -0.0526 -0.0195 -0.0884
  421TMC3     C 6283   2.941   1.178  13.936 -1.0768 -0.3200  0.3084
  421TMC3     O 6284   2.858   1.265  13.918  0.0044 -0.3472  0.3516
  421TMC3     H 6285   3.022   1.401  14.044 -1.8079 -0.4620  0.8453
  421TMC3    H1 6286   3.053   0.977  14.089 -0.5090  0.3145  0.2873
  421TMC3    H2 6287   3.320   1.228  14.288 -0.9630  1.4699  0.8472
  421TMC3    C7 6288   3.266   0.982  14.247  0.0924 -0.0886 -0.4239
  421TMC3    C8 6289   3.212   1.452  14.195 -0.3890  0.4921  0.0347
  421TMC3    O1 6290   3.386   1.004  14.276 -0.1970 -0.2683  0.4991
  421TMC3    O2 6291   3.134   1.549  14.189 -0.0733 -0.0904  0.0922
  422TMC3    C1 6292   0.472   2.115  13.111  0.0145  0.2797  0.4921
  422TMC3    C2 6293   0.421   2.174  13.224 -0.5921  0.9802 -0.2915
  422TMC3    C3 6294   0.286   2.204  13.231  0.7792 -0.3034  0.2467
  422TMC3    C4 6295   0.395   2.074  13.008 -0.3376 -0.3490 -0.3577
  422TMC3    C5 6296   0.260   2.100  13.014  0.5721 -0.8308 -0.2608
  422TMC3    C6 6297   0.206   2.174  13.116 -0.0944 -0.5975 -0.5157
  422TMC3     C 6298   0.573   2.195  13.056 -0.1271  0.4396 -0.3713
  422TMC3     O 6299   0.559   2.234  12.940  0.0389 -0.3842 -0.3432
  422TMC3     H 6300   0.478   2.201  13.313  0.9461 -2.6614 -0.1921
  422TMC3    H1 6301   0.438   2.020  12.925  0.9310 -2.6076  1.7994
  422TMC3    H2 6302   0.111   2.224  13.100 -0.5907 -1.1644  0.6192
  422TMC3    C7 6303   0.174   2.047  12.909  0.0260  0.2207  0.5179
  422TMC3    C8 6304   0.275   2.345  13.263  0.5799  0.2960 -0.2408
  422TMC3    O1 6305   0.223   2.044  12.796 -0.3133 -0.2082 -0.4152
  422TMC3    O2 6306   0.387   2.400  13.267 -0.4100  0.5959 -0.1561
  423MPD2     C 6307   2.434   3.344   0.288  0.4860 -0.0604 -0.2896
  423MPD2    C1 6308   2.298   3.347   0.314  0.6871  0.2262  0.2386
  423MPD2    C2 6309   2.214   3.279   0.228 -0.2040 -1.0201  0.9485
  423MPD2    C3 6310   2.255   3.225   0.111  0.2175  0.8057 -0.5074
  423MPD2    C4 6311   2.388   3.237   0.078  0.1620  0.1349  0.0707
  423MPD2    C5 6312   2.469   3.292   0.166  0.1756 -0.9908 -0.0392
  423MPD2     H 6313   2.107   3.293   0.235 -0.1046  0.0288  0.4404
  423MPD2    H1 6314   2.425   3.200  17.673 -0.5379  0.1510 -0.2147
  423MPD2    H2 6315   2.513   3.394   0.343  1.6371 -4.3610  1.9746
  423MPD2    H3 6316   2.573   3.296   0.137  0.6015  1.3394  1.8161
  423MPD2     N 6317   2.160   3.178   0.012 -0.5509 -0.4193 -0.2411
  423MPD2    H5 6318   2.193   3.164  17.607  0.7107 -0.1098  0.1497
  423MPD2    N1 6319   2.242   3.396   0.433 -0.6874 -0.2698 -0.2960
  423MPD2    H7 6320   2.152   3.364   0.468 -1.0983 -0.5785 -1.6697
  424TMC3    C1 6321   2.267   3.482   0.652 -0.2815  0.4147 -0.6156
  424TMC3    C2 6322   2.202   3.374   0.702  0.2638  0.1194  0.3456
  424TMC3    C3 6323   2.183   3.365   0.843 -0.0827  0.6512 -0.7504
  424TMC3    C4 6324   2.323   3.582   0.729  0.0264  0.2265  0.2557
  424TMC3    C5 6325   2.296   3.572   0.865 -0.6187  0.3133  0.5453
  424TMC3    C6 6326   2.225   3.465   0.927 -0.8174  0.1635 -0.5113
  424TMC3     C 6327   2.323   3.464   0.521  0.5872  0.2160 -0.1115
  424TMC3     O 6328   2.418   3.532   0.492 -0.3799 -0.3322  0.7318
  424TMC3     H 6329   2.165   3.294   0.639 -0.9163 -2.2399  4.0378
  424TMC3    H1 6330   2.397   3.648   0.684 -0.1016  1.0598  1.2829
  424TMC3    H2 6331   2.212   3.462   1.035  1.0020 -0.8040 -0.3083
  424TMC3    C7 6332   2.280   3.704   0.913 -0.9585 -0.8008 -0.4531
  424TMC3    C8 6333   2.090   3.276   0.897  0.4096 -0.4695 -0.7515
  424TMC3    O1 6334   2.303   3.787   0.825 -0.2023  0.2342 -0.1209
  424TMC3    O2 6335   2.078   3.279   1.019 -0.0685 -0.1928  0.1500
  425MPD2     C 6336   0.838   2.527  17.434 -0.4497 -0.2423  0.2950
  425MPD2    C1 6337   0.868   2.439  17.541 -0.6038 -0.2094  0.6002
  425MPD2    C2 6338   0.775   2.421  17.646  0.3604  0.4500 -0.4418
  425MPD2    C3 6339   0.655   2.487  17.644 -0.1617  0.8743 -0.0685
  425MPD2    C4 6340   0.630   2.576  17.541 -0.2651  0.7822  0.5604
  425MPD2    C5 6341   0.719   2.599  17.438  0.2388  0.5032 -0.1183
  425MPD2     H 6342   0.789   2.347   0.033 -1.2972  0.0315 -0.5272
  425MPD2    H1 6343   0.533   2.623  17.531 -1.1065 -1.1337 -0.2823
  425MPD2    H2 6344   0.914   2.550  17.361 -2.1749 -1.2044 -1.7936
  425MPD2    H3 6345   0.686   2.667  17.360  1.3325 -0.8070 -1.7108
  425MPD2     N 6346   0.563   2.446   0.055  0.5466 -0.4496  0.7166
  425MPD2    H5 6347   0.588   2.373   0.121 -0.2610 -2.5025 -1.2363
  425MPD2    N1 6348   0.998   2.373  17.539 -0.2938 -0.2078  0.0785
  425MPD2    H7 6349   1.057   2.405  17.463  0.3400 -0.2690  0.5470
  426TMC3    C1 6350   1.156   2.198  17.582  0.2140  0.0124  0.7000
  426TMC3    C2 6351   1.118   2.123  17.475  0.0303 -0.8002  0.6308
  426TMC3    C3 6352   1.146   1.984  17.463  0.0054 -0.8278  0.7064
  426TMC3    C4 6353   1.221   2.128  17.683 -0.9810  0.2924  0.3944
  426TMC3    C5 6354   1.239   1.994  17.679 -0.5652 -0.9105 -0.7884
  426TMC3    C6 6355   1.212   1.920  17.567  0.3587 -0.3908  0.1095
  426TMC3     C 6356   1.049   2.285  17.632 -0.0132 -0.3760 -0.2927
  426TMC3     O 6357   0.993   2.241   0.041 -0.3107  0.0133 -0.4438
  426TMC3     H 6358   1.052   2.167  17.401  1.8144 -0.0878 -0.5153
  426TMC3    H1 6359   1.217   2.181   0.088  1.8245  0.7072  0.2802
  426TMC3    H2 6360   1.233   1.814  17.570 -0.2950 -0.5573 -1.1416
  426TMC3    C7 6361   1.230   1.916   0.118  0.9401 -0.5391 -0.3471
  426TMC3    C8 6362   1.144   1.925  17.345 -0.1424 -0.2451  0.1870
  426TMC3    O1 6363   1.296   1.816   0.130  0.7818  0.1267 -0.2459
  426TMC3    O2 6364   1.229   1.837  17.332  1.1750 -0.0819  0.5501
  427MPD2     C 6365   3.938   3.893  14.804 -0.4982 -0.1927 -0.5923
  427MPD2    C1 6366   3.940   3.940  14.931  0.3295  0.0384 -0.4829
  427MPD2    C2 6367   3.826   3.994  14.992  0.2343 -0.3877 -0.1533
  427MPD2    C3 6368   3.708   4.008  14.918 -0.1387  0.3828 -0.3164
  427MPD2    C4 6369   3.707   3.950  14.791  0.1265 -0.6766 -1.2817
  427MPD2    C5 6370   3.821   3.899  14.740  0.1498 -1.0630 -0.0424
  427MPD2     H 6371   3.835   4.038  15.091  2.5556  0.5411 -0.7796
  427MPD2    H1 6372   3.626   3.971  14.723 -0.3545 -1.7230 -1.0295
  427MPD2    H2 6373   4.027   3.847  14.764 -0.3006 -1.3263  1.1203
  427MPD2    H3 6374   3.812   3.864  14.638 -0.1353  0.3867 -0.5175
  427MPD2     N 6375   3.589   4.065  14.970  0.3555  0.4059 -0.1167
  427MPD2    H5 6376   3.583   4.092  15.068 -2.6801 -2.9974  0.6237
  427MPD2    N1 6377   4.046   3.933  15.020 -0.2129  0.6130  0.3208
  427MPD2    H7 6378   4.019   3.946  15.117 -3.2561  1.0249 -0.5889
  428TMC3    C1 6379   4.255   3.902  15.100 -0.7136  0.2199 -0.1113
  428TMC3    C2 6380   4.222   3.794  15.172 -0.4838 -0.9010 -0.5017
  428TMC3    C3 6381   4.323   3.747  15.252 -0.1737  0.9291 -0.3153
  428TMC3    C4 6382   4.375   3.960  15.097  0.5624 -0.0071 -0.0559
  428TMC3    C5 6383   4.471   3.913  15.183 -0.4295  0.6021  0.4784
  428TMC3    C6 6384   4.447   3.803  15.259  0.8136  0.4030  0.1906
  428TMC3     C 6385   4.176   3.937  14.985 -0.1729 -0.3609 -0.3328
  428TMC3     O 6386   4.226   3.961  14.878  0.2251  0.0574  0.1700
  428TMC3     H 6387   4.128   3.745  15.151 -1.2882  1.0383 -1.3959
  428TMC3    H1 6388   4.385   4.053  15.042  0.2685 -0.2865 -0.5826
  428TMC3    H2 6389   4.520   3.751  15.319  0.3112  0.2428  0.6606
  428TMC3    C7 6390   4.601   3.980  15.186 -0.5857 -0.0673 -0.2783
  428TMC3    C8 6391   4.322   3.602  15.261  0.3890 -0.7921 -0.4579
  428TMC3    O1 6392   4.664   3.959  15.287 -0.4870  0.2362 -0.0895
  428TMC3    O2 6393   4.414   3.534  15.225 -0.8102 -0.3158 -0.1364
  429MPD2     C 6394   4.641   3.956   0.020  0.6230  0.1373 -0.0900
  429MPD2    C1 6395   0.049   3.926  17.687  0.1230 -0.0664 -0.3017
  429MPD2    C2 6396   0.132   4.034  17.647 -0.5540  0.1996  0.3227
  429MPD2    C3 6397   0.087   4.166  17.640 -1.1297 -0.2865  0.8360
  429MPD2    C4 6398   4.676   4.187  17.668 -0.6111  0.2188 -0.0341
  429MPD2    C5 6399   4.589   4.084   0.008  0.7216 -0.3097  0.0903
  429MPD2     H 6400   0.236   4.006  17.633 -0.6953 -0.1775  0.0317
  429MPD2    H1 6401   4.637   4.288  17.657  1.4846  1.0925  0.4889
  429MPD2    H2 6402   4.562   3.887   0.048 -1.5214  2.0463 -1.4468
  429MPD2    H3 6403   4.483   4.101   0.022  0.9334  1.5771 -0.6013
  429MPD2     N 6404   0.179   4.264  17.596 -0.5425  0.8915  0.2503
  429MPD2    H5 6405   0.272   4.230  17.574 -0.3611  2.1574 -0.8776
  429MPD2    N1 6406   0.101   3.792  17.679 -0.0840  0.1729 -0.0174
  429MPD2    H7 6407   0.201   3.796  17.661  0.0387 -0.9165  0.4595
  430TMC3    C1 6408   0.262   4.472  17.524 -0.4127 -1.5716  0.6740
  430TMC3    C2 6409   0.235   4.585  17.443  0.3449  0.1582 -0.2820
  430TMC3    C3 6410   0.338   4.658  17.404 -0.0858 -0.2621 -0.3038
  430TMC3    C4 6411   0.382   4.450  17.584 -0.2806 -0.1503 -0.3514
  430TMC3    C5 6412   0.481   4.546  17.554 -0.0004  0.2982 -1.0711
  430TMC3    C6 6413   0.458   4.645  17.461 -0.9261 -0.6737  0.1672
  430TMC3     C 6414   0.150   4.397  17.574 -0.1359  0.0840 -0.6140
  430TMC3     O 6415   0.050   4.459  17.580  0.0720 -0.3959  0.0548
  430TMC3     H 6416   0.137   4.598  17.398 -0.1391 -0.2406  0.6560
  430TMC3    H1 6417   0.407   4.366  17.648 -0.3801  0.4136  0.4357
  430TMC3    H2 6418   0.543   4.698  17.419 -1.3259 -0.2010 -0.0389
  430TMC3    C7 6419   0.605   4.483  17.523 -0.4356  0.3308 -0.4637
  430TMC3    C8 6420   0.340   4.684  17.261 -0.3420  0.2710  0.3786
  430TMC3    O1 6421   0.608   4.383  17.449 -0.3877 -0.2446  0.7463
  430TMC3    O2 6422   0.283   4.599  17.199  0.0778 -0.0673 -0.8430
  431MPD2     C 6423   1.766   4.577  12.705  0.6465 -0.2215 -0.2717
  431MPD2    C1 6424   1.655   4.652  12.697  0.0342 -1.0843  0.6082
  431MPD2    C2 6425   1.532   4.594  12.680  0.2658 -0.9846 -0.4146
  431MPD2    C3 6426   1.515   4.460  12.670 -0.7032  0.2177  0.2251
  431MPD2    C4 6427   1.630   4.382  12.674 -0.2044 -0.0023  0.6613
  431MPD2    C5 6428   1.752   4.438  12.699 -0.4810  0.2952 -0.4941
  431MPD2     H 6429   1.448   4.663  12.681  0.5884 -0.5582 -1.5956
  431MPD2    H1 6430   1.620   4.275  12.662 -1.6494  0.1379  0.5711
  431MPD2    H2 6431   1.862   4.625  12.717  0.8350 -0.9592  1.1203
  431MPD2    H3 6432   1.837   4.373  12.710 -0.6528  0.3320  1.0760
  431MPD2     N 6433   1.388   4.399  12.643 -0.6615 -0.2297 -0.1523
  431MPD2    H5 6434   1.398   4.302  12.612  0.0118  0.6394 -2.6121
  431MPD2    N1 6435   1.665   0.072  12.703 -0.1537  0.1880 -0.1512
  431MPD2    H7 6436   1.592   0.128  12.659 -1.2231 -1.0762 -0.0104
  432TMC3    C1 6437   1.153   4.373  12.603  0.1530 -0.9911 -0.9104
  432TMC3    C2 6438   1.185   4.300  12.486  0.3033 -0.2981 -0.5606
  432TMC3    C3 6439   1.082   4.225  12.428 -0.4246  0.1498 -1.1855
  432TMC3    C4 6440   1.023   4.386  12.645 -0.3314 -0.0535  0.2335
  432TMC3    C5 6441   0.931   4.297  12.590 -0.2845 -0.1667  0.2618
  432TMC3    C6 6442   0.961   4.214  12.491 -0.1208 -0.2152 -0.4638
  432TMC3     C 6443   1.264   4.454  12.661 -0.1963  0.3855  0.0139
  432TMC3     O 6444   1.229   4.568  12.701  0.1452 -0.4477  0.1134
  432TMC3     H 6445   1.285   4.304  12.444  0.1586  0.2045 -0.8609
  432TMC3    H1 6446   0.999   4.458  12.722 -1.7716  0.8840 -1.0887
  432TMC3    H2 6447   0.892   4.141  12.449 -0.0536 -1.2058  1.1487
  432TMC3    C7 6448   0.803   4.281  12.652 -0.1039  0.4632 -0.3542
  432TMC3    C8 6449   1.115   4.123  12.335  0.8202  0.5187 -0.1870
  432TMC3    O1 6450   0.724   4.215  12.587  0.0437  0.0882 -0.1744
  432TMC3    O2 6451   1.033   4.035  12.308  0.1462 -0.3864  0.5133
  433MPD2     C 6452   0.427   3.265  11.096 -0.3438  0.8327  0.2218
  433MPD2    C1 6453   0.431   3.142  11.148  0.1977 -0.1157 -0.0155
  433MPD2    C2 6454   0.456   3.122  11.277  0.0926  0.2213 -0.1381
  433MPD2    C3 6455   0.463   3.230  11.363 -0.1223  0.1684 -0.1122
  433MPD2    C4 6456   0.424   3.354  11.319 -0.3766 -0.6714  0.7445
  433MPD2    C5 6457   0.415   3.372  11.183  0.5038  0.3435 -0.5499
  433MPD2     H 6458   0.480   3.029  11.328  0.4939  1.8539  2.6658
  433MPD2    H1 6459   0.422   3.447  11.374  1.2772  0.1023 -0.4996
  433MPD2    H2 6460   0.419   3.288  10.990 -0.4407 -1.6539 -0.3029
  433MPD2    H3 6461   0.403   3.472  11.143  0.8162  0.2610 -0.8557
  433MPD2     N 6462   0.500   3.206  11.499  0.9369 -0.5588  0.6715
  433MPD2    H5 6463   0.546   3.119  11.525  2.6182 -0.2219 -1.1245
  433MPD2    N1 6464   0.436   3.022  11.072 -0.0325 -0.1317 -0.4565
  433MPD2    H7 6465   0.409   2.937  11.120  3.4065 -1.2962 -0.5820
  434TMC3    C1 6466   0.465   2.897  10.882 -0.1882 -0.0368  0.3074
  434TMC3    C2 6467   0.509   2.799  10.960  0.2890 -0.1787 -0.1482
  434TMC3    C3 6468   0.539   2.679  10.906  0.3444 -0.1489  0.1519
  434TMC3    C4 6469   0.449   2.877  10.751 -0.4227 -0.3414  0.6956
  434TMC3    C5 6470   0.492   2.762  10.692  0.0392  0.1715  0.4364
  434TMC3    C6 6471   0.532   2.656  10.771 -0.3161 -0.0930 -0.0681
  434TMC3     C 6472   0.434   3.023  10.936  0.3231  0.2128 -0.6828
  434TMC3     O 6473   0.446   3.119  10.856  0.3705 -0.4328  0.0406
  434TMC3     H 6474   0.554   2.820  11.056  0.3498 -1.4655  0.1060
  434TMC3    H1 6475   0.432   2.966  10.691  0.9540  0.2955  1.2507
  434TMC3    H2 6476   0.571   2.564  10.730 -0.7527  0.3522 -1.4987
  434TMC3    C7 6477   0.478   2.743  10.545  0.4225 -0.2276 -0.2363
  434TMC3    C8 6478   0.632   2.600  10.983  0.1024  0.4450 -0.4605
  434TMC3    O1 6479   0.454   2.846  10.479 -0.2988 -0.1804  0.3553
  434TMC3    O2 6480   0.687   2.654  11.076  0.3832  0.5956  0.8805
  435MPD2     C 6481   2.323   3.308  15.721  0.2396  0.6712  0.1439
  435MPD2    C1 6482   2.335   3.317  15.857 -0.2193 -0.4319  0.5322
  435MPD2    C2 6483   2.457   3.291  15.916  0.5333 -0.0379 -0.2445
  435MPD2    C3 6484   2.566   3.248  15.845 -0.3361  0.1348  0.3483
  435MPD2    C4 6485   2.549   3.236  15.710 -0.1194  0.3557  0.0276
  435MPD2    C5 6486   2.430   3.267  15.650 -0.2838 -0.6313 -0.2655
  435MPD2     H 6487   2.462   3.293  16.025  0.4164 -1.2087 -0.2137
  435MPD2    H1 6488   2.633   3.205  15.648 -0.4843  0.4867 -0.5318
  435MPD2    H2 6489   2.230   3.338  15.673 -0.0492 -0.4639 -0.0052
  435MPD2    H3 6490   2.424   3.283  15.543 -1.3306 -0.5393 -0.1946
  435MPD2     N 6491   2.682   3.218  15.924  0.8851  0.8668 -0.0334
  435MPD2    H5 6492   2.672   3.219  16.025 -1.4887  1.1588 -0.2769
  435MPD2    N1 6493   2.228   3.344  15.945 -0.6067  1.2417 -0.2070
  435MPD2    H7 6494   2.251   3.354  16.043 -1.3855 -1.0636  0.2141
  436TMC3    C1 6495   1.999   3.539  16.217  0.2104  0.9651  0.4465
  436TMC3    C2 6496   2.081   3.485  16.125  0.1216  0.4302 -0.1116
  436TMC3    C3 6497   2.023   3.415  16.023  0.0961 -0.7604 -0.9629
  436TMC3    C4 6498   1.864   3.522  16.209 -0.1857 -0.1087  0.3829
  436TMC3    C5 6499   1.811   3.456  16.108  0.4764  0.2248 -0.1512
  436TMC3    C6 6500   1.890   3.400  16.012  0.0179  0.4114  0.5089
  436TMC3     C 6501   2.056   3.623  16.312 -0.4996  0.2209 -0.2740
  436TMC3     O 6502   2.162   3.683  16.286  0.6292  0.2985  0.2545
  436TMC3     H 6503   2.188   3.502  16.130  0.3434 -1.3831  1.2017
  436TMC3    H1 6504   1.797   3.570  16.280  0.0167  0.7919 -0.0343
  436TMC3    H2 6505   1.854   3.337  15.931 -1.4163  1.5177  0.3004
  436TMC3    C7 6506   1.680   3.513  16.060 -0.8002  0.3587 -0.0469
  436TMC3    C8 6507   2.101   3.376  15.903 -0.3532 -0.1750  0.5746
  436TMC3    O1 6508   1.588   3.544  16.140  0.0618 -0.7948 -0.6389
  436TMC3    O2 6509   2.046   3.353  15.795  0.3795  0.4293  0.3995
  437TMC3    C1 6510   1.118   0.316  12.201  0.1883  0.1833  0.6619
  437TMC3    C2 6511   1.065   0.282  12.323  0.2693 -0.2313 -0.1110
  437TMC3    C3 6512   1.092   0.366  12.432 -0.0083  0.0867 -0.1821
  437TMC3    C4 6513   1.184   0.444  12.183  0.1597 -0.0559 -0.2256
  437TMC3    C5 6514   1.189   0.529  12.294 -0.3688 -0.1563  0.0951
  437TMC3    C6 6515   1.153   0.484  12.414 -0.1215  0.1381 -0.0818
  437TMC3     C 6516   1.106   0.218  12.090  0.2051 -0.5150 -0.5625
  437TMC3     O 6517   1.054   0.111  12.126 -0.8472 -0.9025  0.2173
  437TMC3     H 6518   1.007   0.193  12.347 -1.4306  1.3590  1.7066
  437TMC3    H1 6519   1.254   0.465  12.103 -1.0284 -1.5927 -1.6792
  437TMC3    H2 6520   1.145   0.548  12.501 -1.7552  3.5385 -2.6997
  437TMC3    C7 6521   1.273   0.642  12.273 -0.6507  0.2535 -0.3000
  437TMC3    C8 6522   1.004   0.354  12.551  0.2067  0.3953 -0.3690
  437TMC3    O1 6523   1.274   0.685  12.159  0.7526  0.0404  0.3129
  437TMC3    O2 6524   0.932   0.451  12.565  0.2430 -0.3776  0.6363
  438MPD2     C 6525   3.729   1.348  16.854  1.0019  0.2168 -0.5043
  438MPD2    C1 6526   3.814   1.262  16.925  0.0299 -0.3432  0.5244
  438MPD2    C2 6527   3.774   1.247  17.056  0.1699 -0.4373 -0.2148
  438MPD2    C3 6528   3.657   1.299  17.112 -0.5845 -0.0127 -0.4277
  438MPD2    C4 6529   3.580   1.371  17.037  0.9674  0.6213 -0.0330
  438MPD2    C5 6530   3.610   1.392  16.908  0.3268  0.2167 -0.0954
  438MPD2     H 6531   3.837   1.200  17.130  0.4308 -1.9108 -1.3732
  438MPD2    H1 6532   3.483   1.408  17.069  1.1589  0.1514  1.0798
  438MPD2    H2 6533   3.740   1.367  16.748 -0.5117 -0.5420 -0.8025
  438MPD2    H3 6534   3.548   1.460  16.851 -2.3812 -0.8940  1.5837
  438MPD2     N 6535   3.603   1.255  17.236 -0.2388  0.3824  0.3860
  438MPD2    H5 6536   3.503   1.251  17.249 -0.3480  2.8404  0.3971
  438MPD2    N1 6537   3.929   1.202  16.875  0.2495 -0.1205  0.5337
  438MPD2    H7 6538   3.990   1.149  16.936  0.2204  0.2557  0.8900
  439TMC3    C1 6539   4.046   1.082  16.702  0.3721  0.2696 -0.8100
  439TMC3    C2 6540   4.092   1.068  16.575  0.4615  0.4368 -0.3067
  439TMC3    C3 6541   4.158   0.955  16.547 -0.6793  0.2563  0.6344
  439TMC3    C4 6542   4.073   0.983  16.794 -0.7977 -0.3165  0.3617
  439TMC3    C5 6543   4.148   0.879  16.757  0.8011 -0.6337  1.0513
  439TMC3    C6 6544   4.196   0.867  16.635  0.4168  0.2015  0.0003
  439TMC3     C 6545   3.950   1.189  16.738 -0.2403  0.3860 -0.0091
  439TMC3     O 6546   3.899   1.249  16.648 -0.0665  0.4489 -0.0361
  439TMC3     H 6547   4.055   1.128  16.492  2.3408 -1.3160 -2.4165
  439TMC3    H1 6548   4.028   0.991  16.892 -1.8241  1.9576 -0.2960
  439TMC3    H2 6549   4.265   0.788  16.606 -0.0077  0.2221 -1.0688
  439TMC3    C7 6550   4.207   0.794  16.864 -0.6281  0.2914  0.2394
  439TMC3    C8 6551   4.157   0.910  16.405 -0.2450  0.5520 -0.2937
  439TMC3    O1 6552   4.171   0.828  16.975 -0.2625  0.0462  0.1540
  439TMC3    O2 6553   4.140   0.996  16.321  0.1865  0.0087  0.4465
  440MPD2     C 6554   2.258   1.913  15.215  0.2636 -0.6740  0.0180
  440MPD2    C1 6555   2.303   1.959  15.338  0.3771  0.5985 -0.0034
  440MPD2    C2 6556   2.393   1.886  15.412  0.5264  0.3781 -0.2697
  440MPD2    C3 6557   2.444   1.771  15.366  0.5369 -0.0421 -0.2343
  440MPD2    C4 6558   2.405   1.723  15.242  1.0422  0.3538  0.5715
  440MPD2    C5 6559   2.317   1.798  15.166  0.2031  0.9701 -0.3742
  440MPD2     H 6560   2.427   1.921  15.509 -0.0590 -0.6255  0.3000
  440MPD2    H1 6561   2.457   1.634  15.207 -0.8942 -0.8288  0.6837
  440MPD2    H2 6562   2.187   1.970  15.156  0.9452 -1.6454 -1.7327
  440MPD2    H3 6563   2.288   1.762  15.068  1.9558  1.7157 -1.1658
  440MPD2     N 6564   2.542   1.707  15.449 -0.0219 -0.7645 -0.4864
  440MPD2    H5 6565   2.574   1.763  15.528  0.9483 -2.0911  0.0654
  440MPD2    N1 6566   2.244   2.057  15.408  0.6901  0.4857 -0.0987
  440MPD2    H7 6567   2.269   2.059  15.507  0.2256  0.8547  0.0080
  441TMC3    C1 6568   2.680   1.545  15.532 -0.1333 -0.7080 -0.1610
  441TMC3    C2 6569   2.770   1.642  15.569  0.4590  0.8395 -0.0007
  441TMC3    C3 6570   2.875   1.592  15.652 -0.0916 -0.7651  0.1299
  441TMC3    C4 6571   2.686   1.420  15.575 -0.2606  0.6269  0.9649
  441TMC3    C5 6572   2.790   1.377  15.647  0.2858 -0.3545  0.1671
  441TMC3    C6 6573   2.888   1.464  15.699  1.1013  0.3808  0.3371
  441TMC3     C 6574   2.567   1.572  15.445  0.7165  0.4772 -0.2017
  441TMC3     O 6575   2.497   1.487  15.388  0.2139 -0.3476 -0.0370
  441TMC3     H 6576   2.779   1.739  15.523 -3.2818  1.5354  0.6869
  441TMC3    H1 6577   2.600   1.357  15.553  0.4188  0.6877 -1.9658
  441TMC3    H2 6578   2.952   1.429  15.779  1.4300 -0.2779 -0.2088
  441TMC3    C7 6579   2.772   1.254  15.709 -0.7103  0.2125 -0.5772
  441TMC3    C8 6580   2.964   1.684  15.726 -0.1814  0.2595 -0.1012
  441TMC3    O1 6581   2.661   1.202  15.701 -0.0139 -0.2439  0.3624
  441TMC3    O2 6582   3.056   1.633  15.790 -0.0699  0.7616 -0.4920
  442MPD2     C 6583   0.583   2.076  16.796 -0.0990  0.8836 -0.3065
  442MPD2    C1 6584   0.531   1.988  16.881  0.3880  0.3711  0.6665
  442MPD2    C2 6585   0.577   1.857  16.883 -0.6889  0.1625 -0.1599
  442MPD2    C3 6586   0.656   1.804  16.778  0.3385 -0.8615  0.1396
  442MPD2    C4 6587   0.709   1.898  16.697 -0.0886 -0.6905  0.0334
  442MPD2    C5 6588   0.675   2.036  16.701 -0.2053  0.4338  0.1347
  442MPD2     H 6589   0.551   1.800  16.972  1.3078 -1.0672 -0.3642
  442MPD2    H1 6590   0.774   1.875  16.613  1.4921  1.5299  0.6356
  442MPD2    H2 6591   0.555   2.181  16.791  2.9277  1.6636 -0.5670
  442MPD2    H3 6592   0.713   2.109  16.630  0.2530  0.3148  0.2638
  442MPD2     N 6593   0.701   1.668  16.772 -0.5617  0.2335  0.0468
  442MPD2    H5 6594   0.751   1.637  16.689 -0.2085 -0.1070  0.3854
  442MPD2    N1 6595   0.444   2.031  16.987 -0.0510 -0.2081  0.2420
  442MPD2    H7 6596   0.419   1.962  17.058 -0.0262 -2.3052 -1.7904
  443TMC3    C1 6597   0.286   2.164  17.104 -0.0243  0.2087  0.2211
  443TMC3    C2 6598   0.188   2.256  17.093 -0.3377 -0.3654 -0.0608
  443TMC3    C3 6599   0.091   2.259  17.191 -0.3266  0.3391 -0.0017
  443TMC3    C4 6600   0.301   2.079  17.204  0.2307 -0.1153 -0.3287
  443TMC3    C5 6601   0.212   2.094  17.308  0.9875 -0.3440 -0.8849
  443TMC3    C6 6602   0.099   2.170  17.294  0.7146  0.4771  0.8832
  443TMC3     C 6603   0.369   2.151  16.989 -0.6099  0.6330  0.4516
  443TMC3     O 6604   0.345   2.228  16.892 -0.1317  0.2529 -0.0519
  443TMC3     H 6605   0.168   2.318  17.006 -0.7892 -0.0832  0.2400
  443TMC3    H1 6606   0.393   2.027  17.229  1.4641  2.0896 -0.2477
  443TMC3    H2 6607   0.024   2.181  17.372 -0.2527 -2.5842  0.3671
  443TMC3    C7 6608   0.228   2.019  17.429  0.7195 -0.4437 -0.3479
  443TMC3    C8 6609   4.697   2.348  17.187 -0.2054 -0.2253 -0.0240
  443TMC3    O1 6610   0.294   1.918  17.420 -0.0354  0.1027  0.2951
  443TMC3    O2 6611   4.682   2.404  17.296  0.1891  0.1655  0.0041
  444MPD2     C 6612   0.880   1.476  17.326 -0.1855  0.3065 -0.3559
  444MPD2    C1 6613   0.824   1.353  17.344 -0.2857  0.3892 -0.0391
  444MPD2    C2 6614   0.876   1.255  17.269 -0.4283  0.4138  0.0842
  444MPD2    C3 6615   0.975   1.276  17.172  0.2807 -0.0469  0.2438
  444MPD2    C4 6616   1.029   1.406  17.157 -0.1391 -0.4859  0.2144
  444MPD2    C5 6617   0.983   1.504  17.242 -0.0652  0.2623  0.0112
  444MPD2     H 6618   0.837   1.156  17.286 -0.0709 -0.0740 -1.9408
  444MPD2    H1 6619   1.105   1.433  17.085 -3.4455  0.0762 -3.0250
  444MPD2    H2 6620   0.858   1.559  17.392 -0.3393 -0.1051  0.1149
  444MPD2    H3 6621   1.025   1.604  17.238  3.7585 -1.4295 -2.7720
  444MPD2     N 6622   1.020   1.165  17.096  0.1622 -0.6420 -0.2347
  444MPD2    H5 6623   0.963   1.083  17.109  1.2467 -1.6329 -1.7114
  444MPD2    N1 6624   0.727   1.319  17.437 -0.0404 -0.5039  0.0132
  444MPD2    H7 6625   0.708   1.219  17.443  0.0066 -0.5420 -0.5409
  445TMC3    C1 6626   1.155   1.026  16.971  0.6691 -0.3404 -0.1760
  445TMC3    C2 6627   1.047   0.954  16.941  0.2854 -0.7298  0.0630
  445TMC3    C3 6628   1.071   0.825  16.902 -0.0094  0.4342 -0.4153
  445TMC3    C4 6629   1.287   0.983  16.958  0.3614 -0.2055  0.2450
  445TMC3    C5 6630   1.305   0.857  16.904 -0.3596 -0.5198  0.6607
  445TMC3    C6 6631   1.198   0.773  16.877  0.2491 -0.5449  0.0142
  445TMC3     C 6632   1.136   1.156  17.023  0.0329 -0.2765 -0.2263
  445TMC3     O 6633   1.239   1.225  17.023  0.1269 -0.1666 -0.5575
  445TMC3     H 6634   0.950   1.000  16.944  0.1138 -0.9771 -1.8707
  445TMC3    H1 6635   1.373   1.041  16.991 -1.9391  3.4005 -0.0892
  445TMC3    H2 6636   1.208   0.671  16.843  1.5986 -0.2138 -0.5613
  445TMC3    C7 6637   1.440   0.804  16.905 -0.1984 -0.1048  0.0345
  445TMC3    C8 6638   0.957   0.777  16.828 -0.8073  0.6973 -0.4928
  445TMC3    O1 6639   1.526   0.876  16.954 -0.3190  0.4142 -0.2183
  445TMC3    O2 6640   0.878   0.858  16.786  0.2505 -0.2703 -0.4112
  446MPD2     C 6641   0.449   2.475  11.546 -0.2209 -0.2675  0.9367
  446MPD2    C1 6642   0.436   2.561  11.437  0.3157 -0.4044  0.4660
  446MPD2    C2 6643   0.545   2.617  11.373 -0.0127 -0.4394  0.0959
  446MPD2    C3 6644   0.673   2.598  11.425 -0.0937  0.7391  0.1864
  446MPD2    C4 6645   0.683   2.536  11.548  0.6126  0.3039  0.6167
  446MPD2    C5 6646   0.572   2.471  11.603 -0.2334  0.6784 -0.9765
  446MPD2     H 6647   0.521   2.679  11.287 -2.5317 -0.8306  0.5098
  446MPD2    H1 6648   0.779   2.517  11.594 -0.2404 -1.0252  1.8542
  446MPD2    H2 6649   0.360   2.439  11.596 -0.2203  0.5378  1.5267
  446MPD2    H3 6650   0.586   2.406  11.689  1.2281  0.9839 -0.9762
  446MPD2     N 6651   0.783   2.649  11.356  0.4756  0.2967 -0.6193
  446MPD2    H5 6652   0.762   2.667  11.258 -1.3202 -0.5845 -0.3942
  446MPD2    N1 6653   0.312   2.571  11.371 -0.1780 -0.1445  0.1709
  446MPD2    H7 6654   0.322   2.632  11.290  2.5267  0.7903  1.2210
  447TMC3    C1 6655   1.005   2.673  11.293  0.0946 -0.4808 -0.6030
  447TMC3    C2 6656   0.974   2.714  11.166 -0.0681  0.3303 -0.7789
  447TMC3    C3 6657   1.067   2.696  11.071 -0.4162  0.0272 -0.0196
  447TMC3    C4 6658   1.122   2.612  11.322 -0.2542 -0.2377  0.0386
  447TMC3    C5 6659   1.205   2.591  11.218  0.5232 -0.7547  1.0146
  447TMC3    C6 6660   1.179   2.624  11.094 -0.3952 -0.4176  0.2373
  447TMC3     C 6661   0.910   2.666  11.402 -0.1595  0.0891 -0.2069
  447TMC3     O 6662   0.959   2.665  11.515  0.4503 -0.0880  0.3382
  447TMC3     H 6663   0.879   2.761  11.143  0.8022  0.3831 -4.1703
  447TMC3    H1 6664   1.154   2.587  11.422  1.4548  3.0174  0.3328
  447TMC3    H2 6665   1.245   2.616  11.008  0.2606  2.2634  0.4848
  447TMC3    C7 6666   1.329   2.523  11.231  0.0311  0.1876 -0.0672
  447TMC3    C8 6667   1.020   2.704  10.940 -0.7580 -0.5185  0.1381
  447TMC3    O1 6668   1.380   2.473  11.132  0.1050 -0.3818  0.2267
  447TMC3    O2 6669   0.963   2.805  10.901 -0.8704  0.4457 -0.0127
  448TMC3    C1 6670   3.593   2.662  17.088 -0.3534 -0.1773 -0.1476
  448TMC3    C2 6671   3.636   2.562  17.006  0.2591  0.1723 -0.4004
  448TMC3    C3 6672   3.746   2.489  17.049 -0.0666 -0.3568  0.6559
  448TMC3    C4 6673   3.654   2.702  17.203  0.4230  0.0616 -0.9278
  448TMC3    C5 6674   3.756   2.626  17.246 -0.0535 -0.3006 -0.5535
  448TMC3    C6 6675   3.799   2.520  17.175 -0.2281 -0.8206 -0.2146
  448TMC3     C 6676   3.492   2.747  17.019  0.6572 -0.2343 -0.5520
  448TMC3     O 6677   3.473   2.734  16.900 -0.0634  0.6092 -0.1841
  448TMC3     H 6678   3.576   2.539  16.919 -0.6662 -1.9375  0.7954
  448TMC3    H1 6679   3.638   2.804  17.234  1.5329  0.2024 -0.8297
  448TMC3    H2 6680   3.882   2.458  17.205  2.7907  2.3694 -1.8894
  448TMC3    C7 6681   3.842   2.689  17.350 -0.5982  0.0912 -0.2046
  448TMC3    C8 6682   3.763   2.352  17.015 -0.4740 -0.1365 -0.1614
  448TMC3    O1 6683   3.799   2.795  17.393  0.2899 -0.7962 -0.2742
  448TMC3    O2 6684   3.803   2.284  17.104 -0.0491 -0.1133 -0.6287
  449MPD2     C 6685   0.766   1.080  14.189  0.0244  0.6032  0.5503
  449MPD2    C1 6686   0.652   1.012  14.145 -0.8330 -0.1325 -0.4240
  449MPD2    C2 6687   0.599   0.918  14.232 -0.3693 -0.2302 -0.2527
  449MPD2    C3 6688   0.643   0.902  14.360 -0.0506 -0.0427 -0.0941
  449MPD2    C4 6689   0.750   0.984  14.404 -0.1968 -0.1865  0.6697
  449MPD2    C5 6690   0.807   1.073  14.318  0.0297 -0.0289 -0.3302
  449MPD2     H 6691   0.508   0.868  14.202 -0.8539  1.0787 -0.9792
  449MPD2    H1 6692   0.780   0.967  14.507  1.9997  0.3130  0.1001
  449MPD2    H2 6693   0.821   1.143  14.120  0.8586  0.3930  1.0316
  449MPD2    H3 6694   0.893   1.133  14.346 -1.6670  1.0875  2.5294
  449MPD2     N 6695   0.572   0.815  14.444  0.0512  0.0818  0.0358
  449MPD2    H5 6696   0.486   0.772  14.411 -0.5274 -1.2012  3.2433
  449MPD2    N1 6697   0.588   1.021  14.017  0.1159  0.2572  0.8698
  449MPD2    H7 6698   0.490   0.993  14.009 -0.4095  2.0976  0.9151
  450TMC3    C1 6699   0.551   1.053  13.800 -0.5546  0.2130  0.1784
  450TMC3    C2 6700   0.593   0.959  13.708  0.7134 -0.0899 -0.4837
  450TMC3    C3 6701   0.509   0.879  13.634 -0.3427 -0.0019  0.5701
  450TMC3    C4 6702   0.419   1.057  13.834  0.7318  0.0944 -0.3078
  450TMC3    C5 6703   0.341   0.960  13.778 -0.2398 -0.1757 -0.5011
  450TMC3    C6 6704   0.381   0.880  13.670  0.3187  0.0707  0.4217
  450TMC3     C 6705   0.646   1.074  13.906  0.1457  0.0814  0.3560
  450TMC3     O 6706   0.756   1.113  13.882 -0.0222 -0.6094  0.0296
  450TMC3     H 6707   0.699   0.968  13.686  0.9935 -0.4451  0.7026
  450TMC3    H1 6708   0.373   1.124  13.906 -0.5561 -1.3313  0.1885
  450TMC3    H2 6709   0.322   0.794  13.642  0.8027 -0.4457  0.9919
  450TMC3    C7 6710   0.279   0.901  13.898  0.2724 -0.1281 -0.5660
  450TMC3    C8 6711   0.567   0.767  13.557 -0.3895 -1.5488 -0.5353
  450TMC3    O1 6712   0.341   0.925  13.998  0.4658  0.2100 -0.0521
  450TMC3    O2 6713   0.500   0.671  13.532 -0.6557  0.6351  0.0294
  451MPD2     C 6714   0.820   4.400   2.347  0.1740 -0.1913 -0.0931
  451MPD2    C1 6715   0.871   4.385   2.224 -0.2124 -0.3562 -0.4011
  451MPD2    C2 6716   0.999   4.334   2.212  0.4792  1.1112 -1.3948
  451MPD2    C3 6717   1.057   4.271   2.327 -0.0316 -0.0491  0.3291
  451MPD2    C4 6718   1.003   4.296   2.451  0.0455  0.1517 -0.8114
  451MPD2    C5 6719   0.884   4.361   2.463  0.6533  0.0402 -0.3716
  451MPD2     H 6720   1.051   4.316   2.118  1.1773  1.2372 -1.0391
  451MPD2    H1 6721   1.052   4.258   2.539  0.4065  1.2335 -0.5497
  451MPD2    H2 6722   0.725   4.450   2.365  0.4895  0.1424  0.6770
  451MPD2    H3 6723   0.846   4.389   2.561 -2.6471 -2.7541 -0.8647
  451MPD2     N 6724   1.179   4.197   2.328  0.3640 -0.4840  0.0139
  451MPD2    H5 6725   1.214   4.145   2.407  0.9539 -0.9698 -0.5641
  451MPD2    N1 6726   0.804   4.439   2.110  0.1000 -0.3974 -0.1303
  451MPD2    H7 6727   0.705   4.461   2.121 -0.1801 -0.6630 -1.9889
  452TMC3    C1 6728   1.353   4.084   2.218 -1.2685 -0.7110 -0.3599
  452TMC3    C2 6729   1.379   4.017   2.341  0.3801 -0.4576 -0.2034
  452TMC3    C3 6730   1.504   3.952   2.355  0.0779 -1.0784 -0.4316
  452TMC3    C4 6731   1.439   4.083   2.117 -0.2906  0.2936  0.2135
  452TMC3    C5 6732   1.560   4.031   2.140 -0.1636 -0.0450 -0.0523
  452TMC3    C6 6733   1.603   3.967   2.260  0.4202 -0.2388 -0.2947
  452TMC3     C 6734   1.260   4.188   2.210  0.4620 -0.0618  0.2983
  452TMC3     O 6735   1.259   4.258   2.108  0.0121 -0.6944 -0.1720
  452TMC3     H 6736   1.302   3.995   2.414  0.0042 -2.1446 -1.1276
  452TMC3    H1 6737   1.419   4.124   2.019  3.4233  1.6866  0.0260
  452TMC3    H2 6738   1.704   3.927   2.266  1.2385  2.0524  1.4336
  452TMC3    C7 6739   1.661   4.053   2.041 -0.3300  0.9900  0.3612
  452TMC3    C8 6740   1.522   3.855   2.462  0.2360  0.3737  0.2637
  452TMC3    O1 6741   1.761   3.985   2.043  0.4434 -0.0299 -0.0423
  452TMC3    O2 6742   1.442   3.855   2.549  0.2024  0.1111 -0.0754
  453TMC3    C1 6743   2.836   1.535  11.882  0.3079 -0.1972  0.3072
  453TMC3    C2 6744   2.708   1.480  11.886 -0.2603 -0.6613  0.5571
  453TMC3    C3 6745   2.640   1.460  11.769 -0.8261  0.0390  0.0019
  453TMC3    C4 6746   2.882   1.578  11.759  0.1413  0.0198  0.6301
  453TMC3    C5 6747   2.808   1.568  11.648  0.0855  0.1104  0.2530
  453TMC3    C6 6748   2.693   1.500  11.650 -0.2320  0.2457 -0.2389
  453TMC3     C 6749   2.890   1.608  11.992  0.2806 -0.0393 -1.2681
  453TMC3     O 6750   3.007   1.644  11.989  0.1015  0.2640  0.6506
  453TMC3     H 6751   2.675   1.429  11.976  1.1905 -2.1797  0.2347
  453TMC3    H1 6752   2.986   1.609  11.764 -0.6562  3.0404 -1.4038
  453TMC3    H2 6753   2.628   1.507  11.563 -1.5241  3.5890  0.9944
  453TMC3    C7 6754   2.871   1.612  11.521 -0.0081 -0.2672  0.0385
  453TMC3    C8 6755   2.505   1.409  11.763 -0.9162 -0.2071 -0.4571
  453TMC3    O1 6756   2.849   1.540  11.425 -0.6395  0.4464 -0.7543
  453TMC3    O2 6757   2.469   1.387  11.648 -0.3084  0.6948  0.2615
  454MPD2     C 6758   1.732   1.129  16.416  0.2775  0.1351 -0.4754
  454MPD2    C1 6759   1.621   1.167  16.346 -0.0079  0.1759  0.0524
  454MPD2    C2 6760   1.562   1.292  16.371  0.4108 -0.3448  0.1681
  454MPD2    C3 6761   1.606   1.366  16.477 -0.1666  0.5267  0.3815
  454MPD2    C4 6762   1.717   1.326  16.550 -0.1224 -1.1713  0.6062
  454MPD2    C5 6763   1.781   1.204  16.521 -0.3833  0.9723 -0.8962
  454MPD2     H 6764   1.475   1.317  16.310 -0.5523 -0.4294  1.5052
  454MPD2    H1 6765   1.761   1.381  16.633 -0.2375 -0.8380  0.4483
  454MPD2    H2 6766   1.778   1.034  16.389 -1.6730 -1.0745  0.4732
  454MPD2    H3 6767   1.867   1.172  16.579 -0.4861 -1.3798 -2.0564
  454MPD2     N 6768   1.538   1.481  16.518  0.5693 -0.6316  0.0838
  454MPD2    H5 6769   1.570   1.516  16.608  0.8513 -1.4803  0.3050
  454MPD2    N1 6770   1.557   1.101  16.239  0.6731  0.4731  0.7649
  454MPD2    H7 6771   1.477   1.157  16.208  1.0301 -0.0760 -1.1493
  455TMC3    C1 6772   1.309   1.543  16.534 -0.2908  0.3749  0.3341
  455TMC3    C2 6773   1.324   1.606  16.651 -0.4447  0.1293  0.2775
  455TMC3    C3 6774   1.258   1.561  16.755 -0.0005  0.2695  0.0731
  455TMC3    C4 6775   1.227   1.438  16.525  0.0624  0.2708  0.2897
  455TMC3    C5 6776   1.153   1.395  16.632 -0.9854 -0.2542  0.0774
  455TMC3    C6 6777   1.162   1.466  16.749  0.0528  0.3711 -0.1656
  455TMC3     C 6778   1.430   1.536  16.448  1.0191 -0.2773 -0.2697
  455TMC3     O 6779   1.398   1.512  16.328 -0.0385 -0.0215 -0.3935
  455TMC3     H 6780   1.391   1.692  16.659  0.4621 -0.4700 -0.7814
  455TMC3    H1 6781   1.210   1.394  16.428  0.7556 -1.4216  0.9391
  455TMC3    H2 6782   1.138   1.418  16.844 -1.2345  0.4820 -0.4323
  455TMC3    C7 6783   1.135   1.248  16.643  0.4034 -0.4901  0.1431
  455TMC3    C8 6784   1.238   1.654  16.867  0.5270  0.0262 -0.2311
  455TMC3    O1 6785   1.047   1.195  16.705  0.0548 -0.3471 -0.3299
  455TMC3    O2 6786   1.269   1.615  16.978  0.0805 -0.6473 -0.3219
  456MPD2     C 6787   4.475   1.150  16.527 -0.1844 -0.1114 -0.4736
  456MPD2    C1 6788   4.474   1.088  16.650 -0.1898  1.3438  0.0034
  456MPD2    C2 6789   4.400   1.147  16.752 -0.0937 -0.0317  0.0746
  456MPD2    C3 6790   4.336   1.269  16.730  0.3667 -0.4850  0.0039
  456MPD2    C4 6791   4.366   1.332  16.609 -0.3607 -0.2442 -0.3069
  456MPD2    C5 6792   4.427   1.267  16.509 -0.6509 -0.0356 -0.4054
  456MPD2     H 6793   4.404   1.113  16.855 -1.9203  0.7628  0.4183
  456MPD2    H1 6794   4.321   1.427  16.583  0.2897  0.7795  2.2851
  456MPD2    H2 6795   4.517   1.112  16.434 -1.2815 -0.1432 -0.9590
  456MPD2    H3 6796   4.424   1.319  16.414 -1.7558 -1.2349 -1.0251
  456MPD2     N 6797   4.246   1.330  16.827  0.8391 -0.4472 -0.5669
  456MPD2    H5 6798   4.229   1.272  16.909  1.8657  0.4733  0.2905
  456MPD2    N1 6799   4.540   0.964  16.661 -0.0737  0.2247 -0.2956
  456MPD2    H7 6800   4.598   0.935  16.582  0.3109 -2.0428  0.8125
  457TMC3    C1 6801   4.078   1.485  16.925  0.1601 -0.4115 -0.4067
  457TMC3    C2 6802   3.997   1.597  16.909 -0.0655 -0.2565 -0.4609
  457TMC3    C3 6803   3.967   1.675  17.014 -0.4308 -0.5176  0.1258
  457TMC3    C4 6804   4.129   1.461  17.051  0.6265 -0.4206 -0.1326
  457TMC3    C5 6805   4.084   1.532  17.156  0.0886  0.3137 -0.0598
  457TMC3    C6 6806   4.009   1.647  17.141 -0.3698 -0.6592 -0.2253
  457TMC3     C 6807   4.176   1.444  16.816 -0.6113  0.0634  0.2334
  457TMC3     O 6808   4.176   1.528  16.725  0.2246 -0.1958  0.0432
  457TMC3     H 6809   3.962   1.625  16.811  1.5442 -2.1120 -1.5673
  457TMC3    H1 6810   4.192   1.375  17.071  0.9166 -0.6922 -2.1875
  457TMC3    H2 6811   3.977   1.709  17.223  0.9956  0.2232 -0.3456
  457TMC3    C7 6812   4.157   1.509  17.278 -0.3959  0.6383  0.4129
  457TMC3    C8 6813   3.914   1.805  16.993  0.1304 -0.0661  0.0068
  457TMC3    O1 6814   4.161   1.391  17.321 -0.2738 -0.1278 -0.2774
  457TMC3    O2 6815   3.913   1.880  17.091 -0.5673 -0.0971  1.0368
  458MPD2     C 6816   1.533   1.052  12.413  0.4292  0.2200  0.2649
  458MPD2    C1 6817   1.521   0.974  12.531 -0.3438 -0.5000 -0.2524
  458MPD2    C2 6818   1.453   0.845  12.512 -0.3278  0.2544  0.4220
  458MPD2    C3 6819   1.402   0.817  12.386  0.0801  0.8171 -0.0357
  458MPD2    C4 6820   1.402   0.905  12.279 -0.1286 -0.0182 -0.2109
  458MPD2    C5 6821   1.481   1.012  12.290  0.1176 -0.5714  0.0119
  458MPD2     H 6822   1.443   0.779  12.598  0.2685  0.1344  0.4004
  458MPD2    H1 6823   1.370   0.889  12.177 -2.6085 -0.6182  0.6796
  458MPD2    H2 6824   1.605   1.133  12.407  0.5582  0.1596  0.9433
  458MPD2    H3 6825   1.506   1.070  12.201 -1.8386  1.8672  1.0537
  458MPD2     N 6826   1.330   0.693  12.385 -0.1666  0.5950 -0.6460
  458MPD2    H5 6827   1.331   0.640  12.472  1.7875  0.3523 -0.8194
  458MPD2    N1 6828   1.572   1.022  12.654  0.2899  0.6893 -0.5003
  458MPD2    H7 6829   1.621   1.111  12.648  0.4506  0.5250 -1.5567
  459TMC3    C1 6830   1.640   1.016  12.882  0.0120  0.5301 -0.1610
  459TMC3    C2 6831   1.730   1.116  12.852  0.3213  1.2634  0.3734
  459TMC3    C3 6832   1.817   1.153  12.958  0.4555  0.3553 -0.0741
  459TMC3    C4 6833   1.621   0.961  13.003 -0.3287  0.8194 -0.8548
  459TMC3    C5 6834   1.707   0.999  13.099  0.2649  0.3557 -0.1548
  459TMC3    C6 6835   1.806   1.094  13.083  0.7005  0.1626  0.2592
  459TMC3     C 6836   1.556   0.960  12.781  0.8423  0.1212  0.4390
  459TMC3     O 6837   1.477   0.872  12.816  0.1650 -0.0582  0.7300
  459TMC3     H 6838   1.748   1.149  12.751  0.6367 -0.3920 -0.1092
  459TMC3    H1 6839   1.546   0.884  13.020 -1.3711  1.6963 -1.4925
  459TMC3    H2 6840   1.887   1.106  13.154  3.2114 -3.4198 -2.0498
  459TMC3    C7 6841   1.726   0.905  13.201  0.2283 -0.1542 -0.4664
  459TMC3    C8 6842   1.920   1.253  12.944 -0.8968  0.8599  0.6295
  459TMC3    O1 6843   1.693   0.790  13.170  0.1256  0.7664  0.1959
  459TMC3    O2 6844   2.012   1.268  13.025 -1.1417  0.3722 -0.2411
  460MPD2     C 6845   0.902   2.400  10.768  0.0310  0.4222 -0.4050
  460MPD2    C1 6846   0.933   2.534  10.777 -0.0277 -0.5406  0.6121
  460MPD2    C2 6847   0.909   2.614  10.670  0.9220  0.3148  0.2601
  460MPD2    C3 6848   0.861   2.562  10.547 -0.2199  0.0381 -0.4668
  460MPD2    C4 6849   0.832   2.426  10.544 -0.2976  0.1031  0.1646
  460MPD2    C5 6850   0.850   2.347  10.654 -0.5885 -0.0604  0.3457
  460MPD2     H 6851   0.941   2.718  10.674 -1.8096  1.0594  2.6724
  460MPD2    H1 6852   0.800   2.383  10.450 -0.9622 -0.4067  0.6246
  460MPD2    H2 6853   0.920   2.332  10.851  0.7248 -0.8487 -1.5928
  460MPD2    H3 6854   0.817   2.245  10.645 -0.3568 -0.2576  1.6204
  460MPD2     N 6855   0.855   2.642  10.431 -0.0123 -0.2853  0.2224
  460MPD2    H5 6856   0.850   2.741  10.453  1.0714 -0.1125 -0.2813
  460MPD2    N1 6857   0.992   2.574  10.896  1.0634  0.5451 -1.3861
  460MPD2    H7 6858   1.019   2.499  10.958  1.3582  2.4226  0.7559
  461TMC3    C1 6859   0.847   2.693  10.206 -0.1215 -0.5190  0.8958
  461TMC3    C2 6860   0.914   2.665  10.085  0.1441  0.2760 -0.3285
  461TMC3    C3 6861   0.881   2.753   9.978 -0.0044  0.4359  0.3646
  461TMC3    C4 6862   0.770   2.804  10.226  0.0040  0.1870  0.2227
  461TMC3    C5 6863   0.759   2.896  10.121  0.3649  0.3862  0.7712
  461TMC3    C6 6864   0.798   2.867   9.995  0.8973  0.0856 -0.0364
  461TMC3     C 6865   0.862   2.593  10.303 -0.2736  0.0383 -1.0080
  461TMC3     O 6866   0.900   2.482  10.266 -0.1097 -0.1464  0.4247
  461TMC3     H 6867   0.961   2.568  10.073 -2.7661 -1.0453 -1.1517
  461TMC3    H1 6868   0.735   2.826  10.327  0.7112 -1.0660  0.7534
  461TMC3    H2 6869   0.788   2.935   9.911  1.0369  0.2196  0.0559
  461TMC3    C7 6870   0.686   3.015  10.141 -0.0610  0.4885  0.4571
  461TMC3    C8 6871   0.912   2.712   9.847 -0.0554 -0.1228 -0.0315
  461TMC3    O1 6872   0.636   3.065  10.039  0.2532  0.7537 -0.1594
  461TMC3    O2 6873   1.020   2.660   9.834 -0.8858  0.2294 -0.1903
  462TMC3    C1 6874   0.172   4.410   0.312  0.0724 -0.3483  0.0573
  462TMC3    C2 6875   0.286   4.349   0.268  0.4635 -0.0355  0.5771
  462TMC3    C3 6876   0.324   4.238   0.332 -0.3463  0.9163 -0.3333
  462TMC3    C4 6877   0.099   4.368   0.415  0.0400  0.4708 -0.1298
  462TMC3    C5 6878   0.157   4.256   0.485  0.3110 -0.5954 -0.1669
  462TMC3    C6 6879   0.269   4.191   0.437 -0.2381 -1.2795  0.8800
  462TMC3     C 6880   0.127   4.520   0.235  0.1016  0.6979 -0.0356
  462TMC3     O 6881   0.011   4.562   0.243 -0.6784 -0.3789  0.3353
  462TMC3     H 6882   0.347   4.372   0.181 -0.3333 -3.4687 -0.9330
  462TMC3    H1 6883   0.013   4.428   0.441 -1.0767 -2.5282  3.2255
  462TMC3    H2 6884   0.278   4.088   0.469  0.0674 -2.1019 -1.7994
  462TMC3    C7 6885   0.076   4.167   0.559 -0.4605 -0.0616  1.2109
  462TMC3    C8 6886   0.405   4.143   0.253 -0.0950 -0.3325 -0.1548
  462TMC3    O1 6887   0.124   4.113   0.654 -0.0220  0.6906  0.5162
  462TMC3    O2 6888   0.420   4.156   0.132 -0.7796  0.3637 -0.4997
  463MPD2     C 6889   1.657   3.087   2.267 -0.3212 -0.1353 -0.5643
  463MPD2    C1 6890   1.711   2.993   2.188  0.7807 -0.0599  0.4507
  463MPD2    C2 6891   1.787   2.888   2.241  0.1460  0.9307 -0.8151
  463MPD2    C3 6892   1.820   2.884   2.377 -0.3058 -0.3122  0.7624
  463MPD2    C4 6893   1.764   2.980   2.453 -0.1711 -0.2470 -0.8176
  463MPD2    C5 6894   1.689   3.080   2.403  0.9635 -0.1385 -1.2962
  463MPD2     H 6895   1.822   2.823   2.161 -0.7747 -0.3722 -0.1532
  463MPD2    H1 6896   1.772   2.981   2.561  2.0709  1.0544 -0.9814
  463MPD2    H2 6897   1.595   3.168   2.232 -1.3097 -0.9680 -0.7385
  463MPD2    H3 6898   1.646   3.151   2.473  2.0629  0.1142 -0.8736
  463MPD2     N 6899   1.908   2.782   2.426  0.4716  0.0937  0.4451
  463MPD2    H5 6900   1.920   2.776   2.527  1.1298 -2.1621  0.2288
  463MPD2    N1 6901   1.693   2.987   2.048  0.5836  0.2291 -0.5371
  463MPD2    H7 6902   1.728   2.903   2.004  0.6725  0.4912 -0.9654
  464TMC3    C1 6903   1.593   3.036   1.835 -0.0595  0.1416 -0.4705
  464TMC3    C2 6904   1.568   3.133   1.747  0.4615 -0.2525 -0.2318
  464TMC3    C3 6905   1.541   3.115   1.619 -0.1107 -1.1644  0.3611
  464TMC3    C4 6906   1.600   2.909   1.786  0.0104 -0.1166 -0.1144
  464TMC3    C5 6907   1.578   2.893   1.650 -0.6355 -0.1157 -0.1156
  464TMC3    C6 6908   1.547   2.993   1.562  0.6254 -0.4439  0.2935
  464TMC3     C 6909   1.622   3.078   1.971  0.3088  0.5925 -0.0896
  464TMC3     O 6910   1.579   3.192   1.996 -0.0063 -0.4175  0.2970
  464TMC3     H 6911   1.603   3.233   1.773 -1.1171 -0.4959  2.7338
  464TMC3    H1 6912   1.605   2.824   1.854  1.8994 -0.1893 -0.3619
  464TMC3    H2 6913   1.534   2.970   1.457  2.0204 -1.4262  0.3402
  464TMC3    C7 6914   1.588   2.765   1.597 -1.0429  0.1748 -0.0886
  464TMC3    C8 6915   1.545   3.223   1.523  0.1849  0.3204  0.5431
  464TMC3    O1 6916   1.542   2.753   1.487 -0.0780  0.2335  0.1891
  464TMC3    O2 6917   1.578   3.193   1.408 -0.4556 -0.4325 -0.0948
  465MPD2     C 6918   3.622   1.484   0.147 -0.2945  0.0524 -0.5152
  465MPD2    C1 6919   3.496   1.531   0.181  0.2653  0.2781 -0.6970
  465MPD2    C2 6920   3.400   1.544   0.083  0.0345  0.6525 -0.2257
  465MPD2    C3 6921   3.428   1.540  17.639 -0.5533  0.0241 -0.5667
  465MPD2    C4 6922   3.561   1.503  17.607 -0.3614  0.1723  0.2451
  465MPD2    C5 6923   3.648   1.469   0.017  0.0931  0.0234 -0.3105
  465MPD2     H 6924   3.299   1.580   0.101 -0.1322 -0.2533  0.6325
  465MPD2    H1 6925   3.604   1.471  17.513 -1.4649  0.9154 -0.5032
  465MPD2    H2 6926   3.702   1.461   0.217 -0.6988  0.8629  0.2109
  465MPD2    H3 6927   3.748   1.439  17.678 -0.3563 -1.9250  0.1443
  465MPD2     N 6928   3.336   1.579  17.542  0.5641 -0.5838  0.3695
  465MPD2    H5 6929   3.248   1.613  17.579  1.0923  1.1398  0.0903
  465MPD2    N1 6930   3.449   1.544   0.318  0.0716  0.3776  0.2678
  465MPD2    H7 6931   3.350   1.543   0.336  0.1471  0.7983  0.7217
  466TMC3    C1 6932   3.004   1.512  17.372  0.1371  0.0987  0.1649
  466TMC3    C2 6933   2.977   1.533  17.236  0.3094  0.5594  0.0872
  466TMC3    C3 6934   3.089   1.574  17.165  0.4350  0.1195  1.1040
  466TMC3    C4 6935   3.125   1.515  17.434  0.1332 -0.2226  0.6291
  466TMC3    C5 6936   3.227   1.556  17.352 -0.3755 -1.0424 -0.0991
  466TMC3    C6 6937   3.212   1.592  17.219 -0.1729 -0.1419 -0.7041
  466TMC3     C 6938   2.899   1.476  17.457 -0.1280  0.4120 -0.6558
  466TMC3     O 6939   2.914   1.493  17.578  0.9007  0.3369 -0.2420
  466TMC3     H 6940   2.880   1.543  17.189  0.3040  0.2149  0.0209
  466TMC3    H1 6941   3.132   1.483  17.537 -1.5542 -1.6991  0.2987
  466TMC3    H2 6942   3.296   1.617  17.155  1.3350 -2.1837  0.4633
  466TMC3    C7 6943   3.355   1.563  17.411 -0.4302 -0.0243 -0.4567
  466TMC3    C8 6944   3.062   1.644  17.042 -0.6441  0.1252 -0.3002
  466TMC3    O1 6945   3.460   1.548  17.347  0.8178 -0.2471  0.8998
  466TMC3    O2 6946   3.093   1.588  16.939 -0.0688  0.0852  0.1330
  467TMC3    C1 6947   3.526   4.645  14.283  0.3009  0.5786 -0.4808
  467TMC3    C2 6948   3.510   0.049  14.241 -0.8406 -0.2210 -0.1630
  467TMC3    C3 6949   3.392   0.077  14.178  0.4629 -0.1271 -0.4032
  467TMC3    C4 6950   3.425   4.549  14.289 -0.2452 -0.0455 -0.1695
  467TMC3    C5 6951   3.306   4.588  14.233  0.0734  0.4650  0.0226
  467TMC3    C6 6952   3.282   4.712  14.183 -0.4512 -0.4463 -0.4017
  467TMC3     C 6953   3.664   4.611  14.311 -0.9097 -0.0493  0.7720
  467TMC3     O 6954   3.739   4.700  14.350 -0.5709 -0.7393 -0.6177
  467TMC3     H 6955   3.598   0.112  14.247  1.1803 -2.7534 -3.4953
  467TMC3    H1 6956   3.445   4.453  14.336 -0.6558 -0.4893 -0.8991
  467TMC3    H2 6957   3.195   0.001  14.119  0.2933  0.8317 -1.2028
  467TMC3    C7 6958   3.209   4.475  14.219  0.2194  0.3497 -0.2357
  467TMC3    C8 6959   3.376   0.207  14.128  0.4139  0.4273 -0.2340
  467TMC3    O1 6960   3.249   4.365  14.255  0.4915 -0.4569 -0.0966
  467TMC3    O2 6961   3.479   0.264  14.109  0.1037  0.2031 -0.4515
  468MPD2     C 6962   2.942   2.631  10.951 -0.4759 -0.1454  0.0316
  468MPD2    C1 6963   2.944   2.545  11.057 -0.6464  0.0199 -0.0932
  468MPD2    C2 6964   2.974   2.410  11.036  0.1002 -0.0642  0.0722
  468MPD2    C3 6965   2.994   2.363  10.903 -0.1010  0.1502 -0.7298
  468MPD2    C4 6966   2.990   2.449  10.792 -0.6119 -0.5737 -0.3585
  468MPD2    C5 6967   2.964   2.583  10.823  0.1631 -0.2296 -0.0390
  468MPD2     H 6968   2.968   2.344  11.122 -1.7394 -0.4517 -0.3387
  468MPD2    H1 6969   2.991   2.414  10.689 -0.8558 -0.1945 -0.4893
  468MPD2    H2 6970   2.935   2.738  10.968 -2.9600 -0.7863  2.9967
  468MPD2    H3 6971   2.951   2.651  10.739  1.5697 -0.7628 -0.6825
  468MPD2     N 6972   3.010   2.227  10.866  0.2889  0.3665 -0.4119
  468MPD2    H5 6973   3.013   2.216  10.765 -0.4335  1.2520 -0.5252
  468MPD2    N1 6974   2.917   2.594  11.189 -0.5748 -0.1368  0.5182
  468MPD2    H7 6975   2.932   2.530  11.267 -2.4099 -0.1007  0.9050
  469TMC3    C1 6976   2.896   2.739  11.373 -0.3250 -0.2514  0.1261
  469TMC3    C2 6977   2.980   2.664  11.451  0.4146  0.6161  0.8181
  469TMC3    C3 6978   2.992   2.694  11.583  0.3676  0.6155  0.3640
  469TMC3    C4 6979   2.818   2.831  11.429  0.0712  0.5769  0.2030
  469TMC3    C5 6980   2.827   2.860  11.561  0.4621 -0.2045  0.3057
  469TMC3    C6 6981   2.917   2.791  11.644 -0.3901 -0.0257 -0.3068
  469TMC3     C 6982   2.875   2.713  11.228  0.2368  0.1553  0.2019
  469TMC3     O 6983   2.810   2.799  11.163 -0.0731  0.3664 -0.0581
  469TMC3     H 6984   3.044   2.588  11.406 -0.2820 -0.1407  1.1093
  469TMC3    H1 6985   2.749   2.878  11.361  0.7266  0.9551 -0.1972
  469TMC3    H2 6986   2.920   2.799  11.752 -1.2159 -2.3568 -0.1234
  469TMC3    C7 6987   2.720   2.940  11.611 -0.5812 -0.0368 -0.3964
  469TMC3    C8 6988   3.108   2.629  11.645 -0.6932  0.5316 -0.4860
  469TMC3    O1 6989   2.657   3.001  11.529  0.1039  0.0143  0.4274
  469TMC3    O2 6990   3.149   2.527  11.592 -0.3591 -0.4230  0.3539
  470TMC3    C1 6991   0.187   3.791   0.870 -0.3338  0.2879  0.4536
  470TMC3    C2 6992   0.110   3.864   0.955  0.3345 -0.1256 -0.9396
  470TMC3    C3 6993   0.173   3.954   1.031 -0.0820 -0.0425 -0.7756
  470TMC3    C4 6994   0.326   3.809   0.871  0.2605 -0.0535  0.5925
  470TMC3    C5 6995   0.385   3.891   0.958  0.9841  0.6913  0.0665
  470TMC3    C6 6996   0.306   3.972   1.037  0.3468  0.7463  0.0769
  470TMC3     C 6997   0.123   3.666   0.825 -0.1099  0.5942 -0.7673
  470TMC3     O 6998   0.010   3.673   0.781  0.5409  0.0410  0.0172
  470TMC3     H 6999   0.006   3.835   0.955  0.6150 -1.1039 -0.2315
  470TMC3    H1 7000   0.389   3.756   0.801 -0.4792  0.9217 -0.8051
  470TMC3    H2 7001   0.347   4.046   1.104 -1.5904  2.1482 -0.2868
  470TMC3    C7 7002   0.527   3.900   0.966  0.4757 -0.7476 -0.0704
  470TMC3    C8 7003   0.090   4.077   1.048 -0.4467  0.4920  0.6561
  470TMC3    O1 7004   0.587   3.879   0.862 -0.5493 -0.0292 -0.1714
  470TMC3    O2 7005   0.125   4.171   1.115  0.3517 -0.9895 -0.0454
  471MPD2     C 7006   0.551   0.200  16.857  0.2248 -0.4465 -0.2799
  471MPD2    C1 7007   0.473   0.091  16.867  0.2615 -0.0070 -0.2190
  471MPD2    C2 7008   0.416   0.046  16.987  0.2986  0.1611 -0.5137
  471MPD2    C3 7009   0.439   0.115  17.098  0.2362 -0.1927  0.4458
  471MPD2    C4 7010   0.520   0.231  17.090 -1.2253 -0.2299  0.4455
  471MPD2    C5 7011   0.569   0.267  16.972  0.1081 -0.5214  0.5217
  471MPD2     H 7012   0.357   4.678  16.991  1.7211 -0.7698 -0.5284
  471MPD2    H1 7013   0.544   0.292  17.176 -0.9955  2.2363 -1.3751
  471MPD2    H2 7014   0.588   0.240  16.763 -1.3883  1.3936 -0.1067
  471MPD2    H3 7015   0.618   0.363  16.965 -1.1224  0.2117  1.9085
  471MPD2     N 7016   0.414   0.073  17.229  0.0980  0.2390 -0.5555
  471MPD2    H5 7017   0.450   0.128  17.306 -2.5880  2.1998 -0.7364
  471MPD2    N1 7018   0.447   0.001  16.760 -0.1934  0.1569 -0.1992
  471MPD2    H7 7019   0.391   4.640  16.776  0.3254 -0.0406  0.6033
  472TMC3    C1 7020   0.447   4.624  16.555  0.0742 -0.2253  0.3433
  472TMC3    C2 7021   0.391   4.644  16.435  0.8137  0.4803 -0.0068
  472TMC3    C3 7022   0.344   4.540  16.365 -0.6406  0.2572 -0.1765
  472TMC3    C4 7023   0.468   4.493  16.601  0.7999  0.7815  0.1843
  472TMC3    C5 7024   0.416   4.390  16.531 -0.0583  0.3115  0.3249
  472TMC3    C6 7025   0.349   4.412  16.409 -0.1129 -0.3239 -0.1820
  472TMC3     C 7026   0.486   0.020  16.630 -0.2527 -0.2644  0.1891
  472TMC3     O 7027   0.551   0.110  16.580  0.4142 -0.3750 -0.2676
  472TMC3     H 7028   0.384   0.026  16.406 -0.0595  0.9995  2.1063
  472TMC3    H1 7029   0.519   4.473  16.694 -2.6331 -2.4130  1.3451
  472TMC3    H2 7030   0.305   4.333  16.349 -0.6495 -1.4575  1.6991
  472TMC3    C7 7031   0.422   4.263  16.603 -0.3110 -0.9475  0.0956
  472TMC3    C8 7032   0.254   4.558  16.254  0.0944 -0.0336 -0.0753
  472TMC3    O1 7033   0.452   4.273  16.720  0.0663  0.5614 -0.2825
  472TMC3    O2 7034   0.290   4.616  16.155  0.0328  0.0281  0.1769
  473MPD2     C 7035   0.552   2.307  14.664  0.3005 -0.4203 -0.9489
  473MPD2    C1 7036   0.501   2.374  14.555 -0.3854  0.4966  0.1206
  473MPD2    C2 7037   0.503   2.512  14.557 -0.0434  0.5226 -0.4492
  473MPD2    C3 7038   0.570   2.580  14.659 -0.1627 -0.2075  0.4646
  473MPD2    C4 7039   0.611   2.507  14.773  0.4204  0.0246  0.3770
  473MPD2    C5 7040   0.602   2.370  14.776 -0.4171 -0.0861  0.2423
  473MPD2     H 7041   0.468   2.567  14.471 -1.0306  2.6238  1.3156
  473MPD2    H1 7042   0.644   2.558  14.862 -1.3343  0.4375  0.7715
  473MPD2    H2 7043   0.537   2.200  14.674  0.2950 -0.3074  0.1957
  473MPD2    H3 7044   0.611   2.321  14.872  3.2220  4.2058  2.1025
  473MPD2     N 7045   0.580   2.719  14.668  0.3083 -0.0630 -0.7825
  473MPD2    H5 7046   0.639   2.751  14.744  0.2780  0.4760 -0.9801
  473MPD2    N1 7047   0.447   2.308  14.440 -0.0727  0.6255 -1.1820
  473MPD2    H7 7048   0.415   2.357  14.357 -2.1024  0.9014 -0.2570
  474TMC3    C1 7049   0.541   2.949  14.622  0.0461  0.0558 -0.9428
  474TMC3    C2 7050   0.456   3.031  14.554  0.1626  0.5857 -0.4016
  474TMC3    C3 7051   0.482   3.164  14.545 -0.0744 -0.7400 -0.1653
  474TMC3    C4 7052   0.668   2.984  14.662  0.0820 -0.6921 -0.2569
  474TMC3    C5 7053   0.690   3.117  14.645 -0.5621 -0.2875  0.1672
  474TMC3    C6 7054   0.600   3.208  14.594 -0.0738 -0.3984 -0.5886
  474TMC3     C 7055   0.512   2.810  14.588  0.0022  0.6382  0.3234
  474TMC3     O 7056   0.423   2.792  14.505 -0.1460 -0.2121  0.6558
  474TMC3     H 7057   0.361   2.989  14.522  1.4705 -0.1984 -3.2249
  474TMC3    H1 7058   0.750   2.918  14.688  2.2894  2.0496 -0.3426
  474TMC3    H2 7059   0.642   3.306  14.573  2.0083 -1.0950  0.2653
  474TMC3    C7 7060   0.825   3.174  14.639  0.7168  0.3764  0.8008
  474TMC3    C8 7061   0.409   3.254  14.457 -0.0659  0.2594  0.0452
  474TMC3    O1 7062   0.859   3.220  14.532  0.3832 -0.1702  1.0477
  474TMC3    O2 7063   0.358   3.196  14.365  0.6811  0.1952  0.1752
  475MPD2     C 7064   4.162   1.300  10.900  0.0306  0.2591 -0.1317
  475MPD2    C1 7065   4.136   1.182  10.836 -0.4635  0.1265 -0.2784
  475MPD2    C2 7066   4.039   1.099  10.884 -0.0770 -0.1092 -0.1207
  475MPD2    C3 7067   3.963   1.122  10.998 -0.7476 -0.5520  0.8190
  475MPD2    C4 7068   3.997   1.241  11.066 -0.8200 -0.3505 -0.0533
  475MPD2    C5 7069   4.089   1.327  11.012 -0.5934 -0.7743  0.2091
  475MPD2     H 7070   4.034   0.998  10.845  1.8409 -0.7684  1.3635
  475MPD2    H1 7071   3.956   1.280  11.159 -2.6144  1.0665 -1.4403
  475MPD2    H2 7072   4.228   1.376  10.861  1.0736  0.2100  1.5171
  475MPD2    H3 7073   4.114   1.420  11.062  1.0869 -1.6240  0.9371
  475MPD2     N 7074   3.860   1.036  11.036 -0.1326  0.3378 -0.3512
  475MPD2    H5 7075   3.840   0.962  10.970  0.5835 -0.2176  0.0603
  475MPD2    N1 7076   4.203   1.157  10.713  0.0819  0.8005  0.3032
  475MPD2    H7 7077   4.284   1.213  10.688  2.5634 -2.0331  1.9816
  476TMC3    C1 7078   4.244   1.073  10.486 -0.1298 -0.2673 -0.2769
  476TMC3    C2 7079   4.203   0.999  10.383 -0.0200  0.0362  0.0507
  476TMC3    C3 7080   4.269   1.010  10.263  0.1817 -0.4186 -0.6201
  476TMC3    C4 7081   4.345   1.163  10.476  0.2058 -0.1562 -0.2043
  476TMC3    C5 7082   4.408   1.174  10.349 -0.5219  0.5444 -0.3235
  476TMC3    C6 7083   4.364   1.104  10.241  0.6755 -0.2291 -0.0602
  476TMC3     C 7084   4.165   1.064  10.618  0.0113 -0.1905 -0.3652
  476TMC3     O 7085   4.083   0.978  10.622  0.3293  0.2646  0.4895
  476TMC3     H 7086   4.113   0.938  10.386 -0.5213  0.7645 -0.3801
  476TMC3    H1 7087   4.399   1.199  10.562 -1.9468 -0.1496  1.1207
  476TMC3    H2 7088   4.414   1.111  10.145 -0.6251  2.4096 -0.5416
  476TMC3    C7 7089   4.528   1.247  10.328  0.7912 -0.3477  0.0859
  476TMC3    C8 7090   4.224   0.941  10.145 -0.0031 -0.1755 -0.2866
  476TMC3    O1 7091   4.591   1.225  10.224  0.2064 -0.1698 -0.1360
  476TMC3    O2 7092   4.270   0.984  10.039  0.0714  0.0345  0.3062
  477MPD2     C 7093   1.692   2.015  11.379  0.3786  0.3690  0.4163
  477MPD2    C1 7094   1.607   2.023  11.487 -0.1529  0.3538 -0.2210
  477MPD2    C2 7095   1.628   1.941  11.601  0.5309  0.1395  0.2986
  477MPD2    C3 7096   1.734   1.849  11.592 -0.7981 -0.0904  1.0019
  477MPD2    C4 7097   1.822   1.845  11.489 -0.1616 -0.6052  0.3018
  477MPD2    C5 7098   1.797   1.926  11.377 -0.3144 -0.6344  0.0637
  477MPD2     H 7099   1.565   1.935  11.689 -0.0808 -1.6025 -0.2521
  477MPD2    H1 7100   1.905   1.775  11.486 -1.7321 -2.5459  2.4713
  477MPD2    H2 7101   1.659   2.074  11.294  0.4859 -0.5885 -0.2964
  477MPD2    H3 7102   1.862   1.928  11.290  2.1110 -0.6549  1.8590
  477MPD2     N 7103   1.742   1.757  11.695 -0.0963  0.1310  0.4533
  477MPD2    H5 7104   1.660   1.762  11.755 -1.0952 -0.7472 -0.8431
  477MPD2    N1 7105   1.498   2.113  11.473 -0.0748  0.2943  0.0308
  477MPD2    H7 7106   1.482   2.147  11.379 -2.6681  0.9798  0.7042
  478TMC3    C1 7107   1.315   2.234  11.551 -0.4555 -0.0619 -0.1619
  478TMC3    C2 7108   1.281   2.325  11.645  0.0964  0.5435  0.1802
  478TMC3    C3 7109   1.160   2.386  11.620 -0.0849 -0.6470 -0.4448
  478TMC3    C4 7110   1.241   2.192  11.451  0.4287 -0.2088 -0.4293
  478TMC3    C5 7111   1.118   2.254  11.437  0.5089 -0.9308  0.4862
  478TMC3    C6 7112   1.073   2.350  11.522  0.0605  0.2718  0.3817
  478TMC3     C 7113   1.435   2.162  11.586  0.7945  0.0561 -0.2789
  478TMC3     O 7114   1.472   2.158  11.701  0.0001 -0.1024  0.1973
  478TMC3     H 7115   1.348   2.353  11.726 -1.3813  2.0815  0.8954
  478TMC3    H1 7116   1.262   2.107  11.389  0.5255 -0.8956  0.5457
  478TMC3    H2 7117   0.967   2.371  11.525 -0.3197 -1.5667  0.1750
  478TMC3    C7 7118   1.028   2.187  11.344 -0.0053  0.2535  0.6126
  478TMC3    C8 7119   1.111   2.448  11.751 -0.5021  0.2621 -0.0970
  478TMC3    O1 7120   1.063   2.079  11.302  0.7048 -0.2827  0.0009
  478TMC3    O2 7121   1.158   2.402  11.857 -0.2664 -0.3628  0.4550
  479MPD2     C 7122   0.066   4.170  14.934  0.1436 -0.4592 -0.2159
  479MPD2    C1 7123   0.051   4.097  15.049  0.2930  0.4812 -0.2101
  479MPD2    C2 7124   0.154   4.100  15.138  0.0747 -0.4203 -0.4822
  479MPD2    C3 7125   0.267   4.179  15.121 -0.7225 -0.1840  0.2818
  479MPD2    C4 7126   0.285   4.243  15.001  1.1627  0.3796  0.0210
  479MPD2    C5 7127   0.181   4.240  14.909  0.3634 -0.1073  0.6757
  479MPD2     H 7128   0.145   4.036  15.224  1.5595 -0.1026 -0.0975
  479MPD2    H1 7129   0.373   4.302  14.979  1.4200  0.1672  0.4771
  479MPD2    H2 7130   4.707   4.183  14.863  0.8556 -0.1136 -0.9672
  479MPD2    H3 7131   0.189   4.299  14.818 -2.6567 -0.0193  0.4596
  479MPD2     N 7132   0.371   4.183  15.213  0.1885 -0.1113 -0.0192
  479MPD2    H5 7133   0.466   4.199  15.180  0.9476 -2.1431  1.1552
  479MPD2    N1 7134   4.645   4.033  15.067  0.1360 -0.5254 -0.0639
  479MPD2    H7 7135   4.589   4.024  14.983 -0.6626  1.2949  0.2697
  480TMC3    C1 7136   0.093   4.178  15.603 -1.1411 -0.1814  0.0293
  480TMC3    C2 7137   0.012   4.283  15.554 -0.5437  0.3985 -0.5898
  480TMC3    C3 7138   0.051   4.342  15.435  0.2986 -0.2967 -0.4402
  480TMC3    C4 7139   0.205   4.129  15.536  0.0942 -1.4681  0.4596
  480TMC3    C5 7140   0.239   4.202  15.422 -0.1736 -0.5523 -0.4771
  480TMC3    C6 7141   0.164   4.305  15.367  0.1592  0.0968 -0.2758
  480TMC3     C 7142   0.058   4.123  15.737  0.7422  0.1908 -0.2219
  480TMC3     O 7143   0.156   4.068  15.793 -0.1666 -0.0719  0.1339
  480TMC3     H 7144   4.657   4.340  15.605 -0.8519 -0.7824  0.2661
  480TMC3    H1 7145   0.273   4.053  15.573  0.6061 -0.1547  2.2595
  480TMC3    H2 7146   0.201   4.346  15.274 -0.5361  0.7072 -0.2867
  480TMC3    C7 7147   0.351   4.142  15.344  0.2390  1.1157  0.4991
  480TMC3    C8 7148   4.660   4.381  15.354 -0.3096  0.1015  0.1370
  480TMC3    O1 7149   0.438   4.089  15.411  0.3425  0.8283 -0.3756
  480TMC3    O2 7150   4.546   4.357  15.399  0.5148 -0.2480 -0.3346
  481MPD2     C 7151   1.804   3.904  14.258 -0.6542  0.3183  0.7801
  481MPD2    C1 7152   1.720   3.999  14.305 -0.4370 -0.0526  0.2919
  481MPD2    C2 7153   1.729   4.032  14.444 -0.4991  0.1453  0.0918
  481MPD2    C3 7154   1.819   3.959  14.523  0.2389 -0.1392 -0.2053
  481MPD2    C4 7155   1.911   3.866  14.469  0.7440  0.0868  0.2382
  481MPD2    C5 7156   1.898   3.840  14.334 -0.1329 -0.3348  0.0948
  481MPD2     H 7157   1.648   4.092  14.484  0.1064  1.2439 -0.3404
  481MPD2    H1 7158   1.985   3.816  14.530  0.8954 -0.3587 -0.3067
  481MPD2    H2 7159   1.808   3.875  14.154  0.1585  2.5553  0.1877
  481MPD2    H3 7160   1.975   3.771  14.299  1.0258  1.7088 -1.3834
  481MPD2     N 7161   1.833   3.987  14.662  0.1380  0.8251  0.6114
  481MPD2    H5 7162   1.906   3.941  14.715 -0.5297 -1.4426 -0.4378
  481MPD2    N1 7163   1.651   4.074  14.204  0.0473  0.0486  0.2032
  481MPD2    H7 7164   1.648   4.030  14.112  0.3114 -1.2911  0.8368
  482TMC3    C1 7165   1.486   4.218  14.111 -0.6923 -0.4626 -0.7656
  482TMC3    C2 7166   1.477   4.125  14.008 -0.5454 -0.6740 -0.4283
  482TMC3    C3 7167   1.413   4.172  13.896  0.3296  0.4465 -0.5501
  482TMC3    C4 7168   1.428   4.338  14.102 -0.6720 -0.0095  1.1837
  482TMC3    C5 7169   1.360   4.374  13.991 -0.0076  0.1692 -0.1873
  482TMC3    C6 7170   1.354   4.296  13.880 -0.1485  0.7395  0.1519
  482TMC3     C 7171   1.572   4.187  14.220 -0.5735 -0.0524  0.3399
  482TMC3     O 7172   1.576   4.252  14.326 -1.0914  0.2006 -0.0615
  482TMC3     H 7173   1.510   4.022  14.015 -1.3065 -0.8127  1.0815
  482TMC3    H1 7174   1.427   4.405  14.188  0.6159 -0.6942  1.7405
  482TMC3    H2 7175   1.313   4.334  13.787 -2.5880 -3.1766 -0.4098
  482TMC3    C7 7176   1.291   4.505  13.989  0.3291 -0.5798 -0.6178
  482TMC3    C8 7177   1.396   4.074  13.791  0.4754  0.3683  0.5998
  482TMC3    O1 7178   1.323   4.580  14.080 -0.2598  0.4631  0.4373
  482TMC3    O2 7179   1.347   3.964  13.818 -0.1641 -0.0836 -0.1148
  483TMC3    C1 7180   0.384   3.500   1.298 -0.4729  0.0478  0.6686
  483TMC3    C2 7181   0.416   3.514   1.166  0.1876  0.2003  0.0136
  483TMC3    C3 7182   0.546   3.533   1.128 -0.0428  0.8933 -0.0286
  483TMC3    C4 7183   0.485   3.496   1.395  0.7441  0.5497 -0.2203
  483TMC3    C5 7184   0.607   3.528   1.359  0.0909 -0.6757  0.0124
  483TMC3    C6 7185   0.645   3.541   1.224 -0.5673 -0.9008  0.2119
  483TMC3     C 7186   0.255   3.434   1.328  0.3565  0.0803 -0.0367
  483TMC3     O 7187   0.217   3.443   1.443  0.2267 -0.2007  0.0562
  483TMC3     H 7188   0.333   3.521   1.096 -1.3972  1.3127  2.0161
  483TMC3    H1 7189   0.457   3.475   1.498 -1.2165 -0.3396 -0.9372
  483TMC3    H2 7190   0.748   3.556   1.194 -0.7113 -2.2759 -0.9772
  483TMC3    C7 7191   0.715   3.512   1.455 -0.7332 -0.3293  0.2736
  483TMC3    C8 7192   0.569   3.522   0.990  0.4593 -0.5191  0.1493
  483TMC3    O1 7193   0.831   3.514   1.413 -0.2427  0.1096  0.3327
  483TMC3    O2 7194   0.471   3.555   0.921  0.5533  1.0952  0.2179
  484MPD2     C 7195   1.959   1.398  12.609 -0.5797  0.1376  0.4200
  484MPD2    C1 7196   2.000   1.355  12.736  0.2582  0.4369 -0.2691
  484MPD2    C2 7197   2.133   1.348  12.765  0.0396  0.1962 -0.0230
  484MPD2    C3 7198   2.228   1.392  12.675  0.6174 -0.2168  0.0716
  484MPD2    C4 7199   2.189   1.452  12.563  0.8460 -0.3930  0.6155
  484MPD2    C5 7200   2.057   1.451  12.527  0.2886  0.2825  0.5737
  484MPD2     H 7201   2.167   1.299  12.855  0.5942  0.4863 -0.0756
  484MPD2    H1 7202   2.263   1.486  12.492 -1.1159  2.4431 -0.0689
  484MPD2    H2 7203   1.857   1.400  12.572  0.2629  0.4811 -1.8983
  484MPD2    H3 7204   2.041   1.488  12.426  2.9971 -3.1310 -1.1091
  484MPD2     N 7205   2.365   1.376  12.698 -0.6568  0.0921 -0.5756
  484MPD2    H5 7206   2.423   1.425  12.631 -0.3555  0.4302 -0.0647
  484MPD2    N1 7207   1.900   1.303  12.819 -0.4750  0.1947  0.1024
  484MPD2    H7 7208   1.808   1.291  12.777 -0.1082 -0.3584 -0.5421
  485TMC3    C1 7209   2.584   1.299  12.786  0.8038  0.7636 -0.2587
  485TMC3    C2 7210   2.644   1.191  12.850 -0.3071  0.3131 -1.1379
  485TMC3    C3 7211   2.781   1.181  12.851 -0.4696  0.2359 -0.5696
  485TMC3    C4 7212   2.656   1.395  12.721  0.0378 -0.6993  0.3367
  485TMC3    C5 7213   2.791   1.383  12.722 -0.6846  0.0721 -0.0695
  485TMC3    C6 7214   2.855   1.282  12.792  0.3706  0.0437 -0.0750
  485TMC3     C 7215   2.437   1.308  12.795 -0.5443  0.0328 -0.3248
  485TMC3     O 7216   2.389   1.238  12.884 -0.4493  0.1420  0.0526
  485TMC3     H 7217   2.581   1.117  12.897  0.6092  0.3281  0.1099
  485TMC3    H1 7218   2.611   1.485  12.681  1.7690  0.3745  0.8332
  485TMC3    H2 7219   2.962   1.281  12.812  0.3983 -1.4304 -0.3212
  485TMC3    C7 7220   2.850   1.414  12.596  0.2973  0.1870 -0.4452
  485TMC3    C8 7221   2.864   1.061  12.880  0.1710  0.3160  0.6055
  485TMC3    O1 7222   2.786   1.470  12.511  0.1907 -0.0693 -0.0901
  485TMC3    O2 7223   2.981   1.079  12.903 -0.1246 -0.2513 -0.0195
  486MPD2     C 7224   3.634   4.585  13.015 -0.0710  0.2787 -0.8382
  486MPD2    C1 7225   3.666   4.630  12.891 -0.6228 -0.9019  0.0842
  486MPD2    C2 7226   3.731   0.027  12.873 -0.3237 -0.5644 -0.3547
  486MPD2    C3 7227   3.771   0.108  12.974  0.4502  0.2811 -0.3356
  486MPD2    C4 7228   3.737   0.062  13.098 -0.2536 -0.1540  0.2051
  486MPD2    C5 7229   3.681   4.662  13.118 -0.9159  0.7528 -0.6896
  486MPD2     H 7230   3.744   0.066  12.773 -2.2718  0.2623 -0.2812
  486MPD2    H1 7231   3.758   0.117  13.190 -0.1276  1.7439 -0.9422
  486MPD2    H2 7232   3.570   4.500  13.036 -1.4275  1.1347 -1.4944
  486MPD2    H3 7233   3.651   4.639  13.220 -0.1221  0.7484 -0.4538
  486MPD2     N 7234   3.832   0.232  12.949 -0.1226  0.2187  0.9402
  486MPD2    H5 7235   3.856   0.253  12.853 -1.3316  1.7681  0.9702
  486MPD2    N1 7236   3.620   4.543  12.785  0.2392 -0.2670 -0.2121
  486MPD2    H7 7237   3.564   4.461  12.809 -0.1037 -0.4451 -1.6211
  487TMC3    C1 7238   3.598   4.441  12.580 -0.4592 -0.4988  0.0281
  487TMC3    C2 7239   3.499   4.376  12.651 -0.0628  0.1624 -0.2820
  487TMC3    C3 7240   3.508   4.243  12.657  0.0217  0.2892 -0.4803
  487TMC3    C4 7241   3.689   4.378  12.507  0.1503 -0.1722  0.0815
  487TMC3    C5 7242   3.694   4.240  12.507  0.4310  0.1758  0.1141
  487TMC3    C6 7243   3.587   4.173  12.563 -1.0125  0.3848 -0.5055
  487TMC3     C 7244   3.662   4.546  12.657 -0.1962 -0.6337  0.1866
  487TMC3     O 7245   3.753   4.613  12.609  0.4704  0.1076  0.1127
  487TMC3     H 7246   3.420   4.432  12.700 -0.7873  0.0018 -1.2577
  487TMC3    H1 7247   3.762   4.441  12.457 -1.0893  1.9221  0.9187
  487TMC3    H2 7248   3.598   4.067  12.580  1.6406  0.6545 -0.4669
  487TMC3    C7 7249   3.820   4.195  12.563 -0.1589 -0.1131 -0.4743
  487TMC3    C8 7250   3.522   4.201  12.794 -0.6721  0.7104 -0.0519
  487TMC3    O1 7251   3.895   4.279  12.613  0.2582  0.2772  0.1115
  487TMC3    O2 7252   3.487   4.280  12.881 -0.6379  0.4834 -0.5818
  488MPD2     C 7253   0.284   1.259  17.009 -0.4073  0.7299 -0.6930
  488MPD2    C1 7254   0.269   1.385  17.061 -0.0719 -0.3620  0.0796
  488MPD2    C2 7255   0.233   1.409  17.190  0.3180 -0.2175 -0.4658
  488MPD2    C3 7256   0.205   1.293  17.267 -0.3488 -0.0333  0.0397
  488MPD2    C4 7257   0.209   1.165  17.208 -0.9126  0.0310 -0.0158
  488MPD2    C5 7258   0.251   1.146  17.079 -0.2179  0.7043  0.0455
  488MPD2     H 7259   0.232   1.510  17.230 -0.0904  0.5241 -2.3207
  488MPD2    H1 7260   0.189   1.078  17.270  0.5453  0.2458  0.7665
  488MPD2    H2 7261   0.302   1.250  16.903 -1.4662  0.0802 -0.8227
  488MPD2    H3 7262   0.237   1.053  17.026 -0.9676  0.6541  0.3281
  488MPD2     N 7263   0.166   1.316  17.402  0.1532  0.1036  0.1679
  488MPD2    H5 7264   0.176   1.409  17.439  1.2853 -0.4726  1.2829
  488MPD2    N1 7265   0.301   1.508  16.982  0.0107 -0.0860 -0.0838
  488MPD2    H7 7266   0.284   1.600  17.021 -0.3727 -0.9475  1.7588
  489TMC3    C1 7267   0.093   1.286  17.617  0.0587 -0.9324 -0.3108
  489TMC3    C2 7268   0.060   1.416  17.611  0.7606  0.8163 -0.1543
  489TMC3    C3 7269   0.044   1.494   0.037  1.0472 -0.6080  0.2316
  489TMC3    C4 7270   0.107   1.232   0.058  0.2723 -0.0694 -0.5157
  489TMC3    C5 7271   0.098   1.313   0.166  0.1165  0.0365 -0.4822
  489TMC3    C6 7272   0.051   1.439   0.159  0.1903 -0.7898 -0.4457
  489TMC3     C 7273   0.116   1.227  17.490 -0.1579 -0.4411 -0.5219
  489TMC3     O 7274   0.103   1.105  17.481 -0.3931 -0.0664  0.0254
  489TMC3     H 7275   0.021   1.456  17.517  0.2096 -0.4953 -0.4899
  489TMC3    H1 7276   0.140   1.129   0.063  0.8718  0.0464 -2.0334
  489TMC3    H2 7277   0.042   1.499   0.249 -0.5026  0.9334 -1.6584
  489TMC3    C7 7278   0.112   1.264   0.300  0.5048  0.2878 -0.3540
  489TMC3    C8 7279   0.068   1.632   0.007 -0.2879  0.1119 -0.1097
  489TMC3    O1 7280   0.118   1.354   0.385  0.5514  0.5325 -0.4010
  489TMC3    O2 7281   0.082   1.659  17.580  0.8035 -0.1206 -0.1645
  490MPD2     C 7282   0.938   1.245   0.038  0.2092 -0.2550 -0.9735
  490MPD2    C1 7283   0.963   1.136   0.120 -0.1344 -0.4064  0.1704
  490MPD2    C2 7284   1.054   1.151   0.220  0.2857  0.6665  0.4035
  490MPD2    C3 7285   1.130   1.269   0.243  0.1032 -0.2064  0.0355
  490MPD2    C4 7286   1.097   1.377   0.167 -0.8268 -0.2646  0.1145
  490MPD2    C5 7287   1.002   1.363   0.065 -0.0846  0.0176 -0.2319
  490MPD2     H 7288   1.068   1.069   0.289  1.2166  1.0187  0.6350
  490MPD2    H1 7289   1.152   1.470   0.171 -0.6819 -0.3875  1.1754
  490MPD2    H2 7290   0.871   1.244  17.642 -0.5275 -1.8107 -0.4042
  490MPD2    H3 7291   0.970   1.456   0.020  2.6578  0.8054 -0.5397
  490MPD2     N 7292   1.217   1.264   0.356  0.2654  0.3062  0.5098
  490MPD2    H5 7293   1.234   1.172   0.394  2.5280  0.9922  1.1272
  490MPD2    N1 7294   0.893   1.009   0.106  0.4968 -0.7299 -0.1500
  490MPD2    H7 7295   0.891   0.946   0.186  0.4615  1.4601  1.5723
  491TMC3    C1 7296   0.759   0.838   0.006  0.2028  0.2741  0.6021
  491TMC3    C2 7297   0.788   0.754   0.113  0.4852 -0.1882  0.4982
  491TMC3    C3 7298   0.723   0.637   0.129 -0.7652  0.4053 -0.1780
  491TMC3    C4 7299   0.665   0.806  17.597 -0.0677  0.3705 -0.3047
  491TMC3    C5 7300   0.612   0.680  17.610 -0.1302 -1.0395 -0.1850
  491TMC3    C6 7301   0.635   0.598   0.030  0.0164 -0.1732 -0.4352
  491TMC3     C 7302   0.817   0.972  17.688 -0.4857 -0.0868  0.1683
  491TMC3     O 7303   0.796   1.034  17.585 -0.1159 -0.2255  0.6419
  491TMC3     H 7304   0.862   0.785   0.186  0.6639 -0.8222  0.5813
  491TMC3    H1 7305   0.658   0.868  17.508 -1.0074  2.2499  1.0942
  491TMC3    H2 7306   0.570   0.514   0.053  1.1273 -0.7626  0.6064
  491TMC3    C7 7307   0.503   0.635  17.529 -1.0858 -0.3540  0.0900
  491TMC3    C8 7308   0.711   0.581   0.261 -0.1735 -0.7856 -0.0918
  491TMC3    O1 7309   0.500   0.516  17.506 -0.6364  0.0149 -0.2167
  491TMC3    O2 7310   0.735   0.646   0.360  0.4300  0.0117 -0.0526
  492MPD2     C 7311   1.106   1.111  11.631  0.5771  0.5465 -0.4970
  492MPD2    C1 7312   1.048   0.992  11.577 -0.1133 -0.1542  1.0765
  492MPD2    C2 7313   0.950   0.924  11.651  0.6753  0.3866 -0.1468
  492MPD2    C3 7314   0.912   0.976  11.770 -0.8051 -0.8970 -0.1069
  492MPD2    C4 7315   0.965   1.091  11.819  0.3573 -0.1112 -0.4946
  492MPD2    C5 7316   1.056   1.165  11.745 -0.9467  0.1268 -0.0588
  492MPD2     H 7317   0.897   0.838  11.610  0.5446  0.4756 -0.1643
  492MPD2    H1 7318   0.935   1.135  11.914  0.6151 -2.1953  0.5581
  492MPD2    H2 7319   1.169   1.178  11.573 -0.6585  0.7084 -1.6436
  492MPD2    H3 7320   1.089   1.260  11.784  1.0133 -0.9917  1.0225
  492MPD2     N 7321   0.815   0.906  11.848 -0.2529  0.1614  0.5577
  492MPD2    H5 7322   0.806   0.929  11.946 -2.2478 -0.9556  0.6404
  492MPD2    N1 7323   1.086   0.938  11.453 -0.4696  0.3974  0.7406
  492MPD2    H7 7324   1.030   0.864  11.412 -1.1622 -0.7561  3.7218
  493TMC3    C1 7325   1.183   0.907  11.250  0.8621  0.7039  0.3513
  493TMC3    C2 7326   1.225   0.957  11.122 -0.6901 -0.0638 -0.3075
  493TMC3    C3 7327   1.200   0.883  11.009 -0.2234 -0.3466  0.6491
  493TMC3    C4 7328   1.125   0.778  11.264 -0.0561  0.5400  0.5494
  493TMC3    C5 7329   1.095   0.714  11.142 -0.0703  0.1224 -0.0866
  493TMC3    C6 7330   1.141   0.761  11.022 -0.4927  0.3856  0.3012
  493TMC3     C 7331   1.176   0.991  11.361  0.8036 -0.3291 -0.2896
  493TMC3     O 7332   1.228   1.099  11.364 -0.5591  0.2542 -0.2886
  493TMC3     H 7333   1.256   1.060  11.108 -2.3017  0.8831  3.1853
  493TMC3    H1 7334   1.133   0.723  11.357 -2.3459 -0.0259  0.4043
  493TMC3    H2 7335   1.110   0.709  10.932 -1.6408 -0.0844  0.9635
  493TMC3    C7 7336   0.962   0.655  11.131 -0.0531  0.1383  0.1708
  493TMC3    C8 7337   1.180   0.948  10.882 -0.3516 -0.1663 -0.0284
  493TMC3    O1 7338   0.912   0.657  11.018 -0.0283 -0.0562  0.0656
  493TMC3    O2 7339   1.092   0.895  10.810 -0.0855  0.3930 -1.0010
  494TMC3    C1 7340   1.531   3.145   0.145  0.2049 -0.6636 -0.6968
  494TMC3    C2 7341   1.564   3.014   0.166 -0.4754  0.4029  0.1629
  494TMC3    C3 7342   1.603   2.941   0.057 -0.0274  0.2187 -0.4610
  494TMC3    C4 7343   1.539   3.207   0.026  0.7123  0.0923 -0.2145
  494TMC3    C5 7344   1.580   3.121  17.616 -0.0634  0.5547  0.0888
  494TMC3    C6 7345   1.636   2.994  17.632  0.8818 -0.7795 -0.1436
  494TMC3     C 7346   1.478   3.231   0.252 -0.9045 -1.1972  0.7511
  494TMC3     O 7347   1.535   3.337   0.273  0.0185 -0.1393 -0.1309
  494TMC3     H 7348   1.564   2.967   0.264 -0.3120  0.3309  0.1280
  494TMC3    H1 7349   1.512   3.311   0.013  1.8575  0.3833 -0.2946
  494TMC3    H2 7350   1.666   2.941  17.542  2.4111 -1.0452  0.5221
  494TMC3    C7 7351   1.583   3.167  17.478  0.0084  0.0578  0.6880
  494TMC3    C8 7352   1.624   2.794   0.074 -0.1591  0.3117 -0.0972
  494TMC3    O1 7353   1.663   3.118  17.402  0.3800 -0.6217 -0.1740
  494TMC3    O2 7354   1.658   2.757   0.185  0.0174 -0.6231 -0.6494
  495TMC3    C1 7355   0.094   4.567  14.364 -0.3093  0.0793  0.1624
  495TMC3    C2 7356   4.695   4.582  14.305  0.1232 -0.7364 -0.4411
  495TMC3    C3 7357   4.594   4.614  14.388  0.3256  0.2937  0.1321
  495TMC3    C4 7358   0.109   4.579  14.505  0.1390  0.1776  0.0172
  495TMC3    C5 7359   4.720   4.613  14.579  0.1621 -0.3275  0.0475
  495TMC3    C6 7360   4.603   4.635  14.520 -0.2052  0.4214  0.0681
  495TMC3     C 7361   0.134   4.438  14.320 -0.4101  0.6111  0.2060
  495TMC3     O 7362   0.093   4.406  14.213  0.1055 -0.6987 -0.0005
  495TMC3     H 7363   4.692   4.593  14.197  2.4727 -1.4589 -0.5762
  495TMC3    H1 7364   0.203   4.555  14.554  1.0472  1.6710 -1.0045
  495TMC3    H2 7365   4.516   4.651  14.582 -1.2438 -2.5795 -0.5959
  495TMC3    C7 7366   0.001   4.586  14.720  0.1776 -0.3138  0.3846
  495TMC3    C8 7367   4.467   4.550  14.351 -0.6772  0.9973  0.0393
  495TMC3    O1 7368   0.100   4.524  14.762  0.7393  0.5288  0.2410
  495TMC3    O2 7369   4.371   4.581  14.423 -0.0967  0.5297  0.0689
  496MPD2     C 7370   1.762   0.419  16.114 -0.3382 -0.1752 -0.5257
  496MPD2    C1 7371   1.820   0.296  16.102 -1.2032  0.6244 -0.8393
  496MPD2    C2 7372   1.852   0.226  16.219  0.1565 -0.0156 -0.0333
  496MPD2    C3 7373   1.835   0.279  16.343 -0.0825 -0.8701 -0.1322
  496MPD2    C4 7374   1.780   0.406  16.353  0.5475  0.4866 -0.6624
  496MPD2    C5 7375   1.735   0.470  16.238  0.2089  0.0779  0.2972
  496MPD2     H 7376   1.900   0.130  16.200 -0.0966  0.1789 -1.6094
  496MPD2    H1 7377   1.753   0.457  16.444 -1.3893  0.1509 -1.0444
  496MPD2    H2 7378   1.731   0.481  16.030 -0.9776 -2.1951 -1.7624
  496MPD2    H3 7379   1.698   0.572  16.246 -0.6294 -0.3893  2.3273
  496MPD2     N 7380   1.880   0.213  16.463 -0.2196 -0.2067  0.1496
  496MPD2    H5 7381   1.886   0.263  16.551  0.7646 -1.8150  0.9905
  496MPD2    N1 7382   1.836   0.231  15.978  0.3185 -0.1880  0.9305
  496MPD2    H7 7383   1.863   0.133  15.977  1.2445  0.0788 -0.9975
  497TMC3    C1 7384   1.962   0.043  16.599 -0.2060  0.6583 -0.4278
  497TMC3    C2 7385   1.921   4.644  16.638  0.3348 -1.2002 -0.3288
  497TMC3    C3 7386   1.936   4.626  16.772 -1.1129 -0.9426 -0.6411
  497TMC3    C4 7387   2.027   0.135  16.671 -0.8684  0.5734  0.6775
  497TMC3    C5 7388   2.040   0.107  16.803 -0.8063 -0.1086  0.1439
  497TMC3    C6 7389   1.993   4.713  16.852  0.2581 -0.3588  0.3523
  497TMC3     C 7390   1.936   0.084  16.465  0.5028  0.4176  0.4403
  497TMC3     O 7391   1.955   0.002  16.377 -0.5266 -0.2827 -0.2796
  497TMC3     H 7392   1.883   4.577  16.562  0.3844 -0.6807 -0.8156
  497TMC3    H1 7393   2.063   0.228  16.628 -1.5170  1.0431  1.1449
  497TMC3    H2 7394   1.995   4.696  16.960  4.5778 -0.4223  0.2532
  497TMC3    C7 7395   2.059   0.209  16.904  0.7022  0.5164  0.1028
  497TMC3    C8 7396   1.871   4.511  16.822  0.0031 -0.0067  0.4129
  497TMC3    O1 7397   2.014   0.186  17.017  1.0560  0.0049  0.2160
  497TMC3    O2 7398   1.864   4.418  16.743 -0.0892  0.3438 -0.4903
  498MPD2     C 7399   3.193   4.389  10.032  0.7035  0.3083 -0.1735
  498MPD2    C1 7400   3.161   4.523  10.044 -0.0951  0.1870 -0.4627
  498MPD2    C2 7401   3.033   4.551  10.084 -0.2812  0.2601 -0.0302
  498MPD2    C3 7402   2.935   4.453  10.111  0.1585  0.7342  0.2363
  498MPD2    C4 7403   2.978   4.322  10.100  0.8126  0.2443 -0.2328
  498MPD2    C5 7404   3.100   4.294  10.054  0.2232  0.5339  0.2830
  498MPD2     H 7405   3.002   4.654  10.084  0.3131  0.4297  1.5522
  498MPD2    H1 7406   2.917   4.235  10.123 -1.6812  1.6726 -1.4662
  498MPD2    H2 7407   3.296   4.359  10.015  0.4785 -0.9419  0.6664
  498MPD2    H3 7408   3.123   4.188  10.046 -1.6346  0.2018 -0.4916
  498MPD2     N 7409   2.802   4.489  10.150 -0.1007  0.0122  0.4351
  498MPD2    H5 7410   2.794   4.586  10.178 -1.3720  0.1024 -0.2610
  498MPD2    N1 7411   3.251   4.624  10.006  0.1325 -0.6516  0.1134
  498MPD2    H7 7412   3.228   4.714  10.046 -0.4793 -1.4503  1.5801
  499TMC3    C1 7413   3.455   4.719   9.917 -0.4333 -0.2596  0.6939
  499TMC3    C2 7414   3.591   4.703   9.904  0.0083  0.2645  0.3173
  499TMC3    C3 7415   3.659   0.093   9.864  0.4737  0.4547  0.9049
  499TMC3    C4 7416   3.390   0.117   9.876  0.9592 -0.7425 -0.2476
  499TMC3    C5 7417   3.460   0.222   9.833  0.5420  0.2543 -0.0394
  499TMC3    C6 7418   3.595   0.211   9.836  0.6744 -0.4739 -0.2436
  499TMC3     C 7419   3.367   4.601   9.946  0.6366 -0.1421  0.2326
  499TMC3     O 7420   3.417   4.497   9.905  0.1851  0.3486 -0.3810
  499TMC3     H 7421   3.640   4.614   9.939  1.8059  1.3612  0.5766
  499TMC3    H1 7422   3.282   0.123   9.873  0.9679 -1.4581 -1.9826
  499TMC3    H2 7423   3.646   0.303   9.814 -0.6493 -0.3314 -2.8072
  499TMC3    C7 7424   3.391   0.338   9.764  0.4113  0.5661  0.7164
  499TMC3    C8 7425   3.798   0.092   9.888 -0.2546  0.0908 -0.1078
  499TMC3    O1 7426   3.445   0.444   9.799  0.0936  0.0387  0.1312
  499TMC3    O2 7427   3.835   0.002   9.961 -0.5417 -0.2364  0.1005
  500MPD2     C 7428   0.544   1.334  10.020  0.3019 -0.5540  0.7301
  500MPD2    C1 7429   0.483   1.456  10.013  0.5899  0.2280 -0.6281
  500MPD2    C2 7430   0.349   1.461   9.997 -0.3978 -0.4223  0.6580
  500MPD2    C3 7431   0.272   1.348   9.992  0.0065 -0.2310 -0.6913
  500MPD2    C4 7432   0.333   1.224  10.006 -0.0172  0.5301 -0.5894
  500MPD2    C5 7433   0.473   1.213  10.009  0.2981 -1.0004 -0.5476
  500MPD2     H 7434   0.304   1.555   9.968  3.3649  0.6106 -1.7927
  500MPD2    H1 7435   0.273   1.136   9.987 -0.9254  1.3804 -1.6521
  500MPD2    H2 7436   0.652   1.335  10.033  0.3167 -0.3214  0.5871
  500MPD2    H3 7437   0.528   1.121  10.021 -0.6042 -1.3713  0.7234
  500MPD2     N 7438   0.141   1.355   9.946  0.2096 -0.5036 -0.3013
  500MPD2    H5 7439   0.091   1.269   9.962  0.3398 -0.3300  1.0204
  500MPD2    N1 7440   0.564   1.575  10.011 -0.0682 -0.2013 -0.2766
  500MPD2    H7 7441   0.665   1.567  10.013 -0.0523 -0.0375 -0.3918
  501TMC3    C1 7442   0.612   1.811  10.027 -0.4217  0.7570 -0.3031
  501TMC3    C2 7443   0.566   1.942  10.019 -0.7186  0.1057  0.0330
  501TMC3    C3 7444   0.633   2.039  10.093 -0.4663 -0.5574  0.6388
  501TMC3    C4 7445   0.702   1.784  10.123 -0.6035  0.5074 -0.0850
  501TMC3    C5 7446   0.751   1.878  10.211 -0.2568 -0.6451 -0.0536
  501TMC3    C6 7447   0.726   2.011  10.191 -0.1999 -0.1415 -0.2768
  501TMC3     C 7448   0.514   1.705  10.002  0.4509  0.0873  0.7139
  501TMC3     O 7449   0.402   1.752  10.019  0.4724 -0.1450 -0.4774
  501TMC3     H 7450   0.483   1.967   9.954 -1.8718  0.0929  1.4947
  501TMC3    H1 7451   0.729   1.681  10.141 -1.5475  0.4574  1.0951
  501TMC3    H2 7452   0.784   2.091  10.236 -1.0085 -0.4063  1.2583
  501TMC3    C7 7453   0.833   1.838  10.328 -0.4383  0.4043  0.3368
  501TMC3    C8 7454   0.580   2.176  10.083  0.0194  0.4657 -0.4132
  501TMC3    O1 7455   0.856   1.719  10.342  0.3618  0.0570  0.3476
  501TMC3    O2 7456   0.531   2.205   9.975 -0.1924  0.2201  0.5027
  502TMC3    C1 7457   4.324   0.551  15.389  1.1060 -0.0787  0.7814
  502TMC3    C2 7458   4.313   0.682  15.363  0.1979  0.1094 -0.2079
  502TMC3    C3 7459   4.189   0.734  15.365 -0.4427  0.6573 -0.8440
  502TMC3    C4 7460   4.221   0.478  15.431 -0.6174  0.7172 -0.2492
  502TMC3    C5 7461   4.103   0.535  15.443  0.2060  0.3306  0.2830
  502TMC3    C6 7462   4.078   0.660  15.402 -0.2168  0.4983 -0.1705
  502TMC3     C 7463   4.454   0.506  15.429  0.7978 -0.9377 -0.4472
  502TMC3     O 7464   4.544   0.585  15.402 -0.4555  0.0393 -0.2376
  502TMC3     H 7465   4.395   0.753  15.358  1.0102 -1.0166 -2.9846
  502TMC3    H1 7466   4.226   0.371  15.441  0.9513  0.9211  1.1124
  502TMC3    H2 7467   3.979   0.705  15.412 -0.1931  0.8666 -1.6235
  502TMC3    C7 7468   4.002   0.469  15.523  0.4358  0.3609  0.0048
  502TMC3    C8 7469   4.176   0.871  15.370 -0.3878 -0.1723 -0.4573
  502TMC3    O1 7470   4.048   0.414  15.624  0.1766  0.1647  0.4167
  502TMC3    O2 7471   4.226   0.946  15.289  0.6762 -0.4295  0.6034
  503MPD2     C 7472   1.796   1.420  17.001  0.8176  0.6480 -0.5069
  503MPD2    C1 7473   1.804   1.462  17.133 -0.4559  0.1640  0.4700
  503MPD2    C2 7474   1.891   1.399  17.221  0.2506  0.5300  0.3408
  503MPD2    C3 7475   1.966   1.292  17.181 -0.3900  0.0425  0.7082
  503MPD2    C4 7476   1.955   1.255  17.053  0.1577  0.2236  0.1896
  503MPD2    C5 7477   1.878   1.318  16.960  0.5266  0.4185  0.2764
  503MPD2     H 7478   1.902   1.432  17.324 -0.0291 -0.5151  0.7060
  503MPD2    H1 7479   2.009   1.174  17.005 -0.7696 -1.7342  2.4913
  503MPD2    H2 7480   1.731   1.472  16.931 -0.4372 -0.4933 -0.1882
  503MPD2    H3 7481   1.873   1.282  16.857  2.5654  1.8600 -0.3088
  503MPD2     N 7482   2.054   1.234  17.274  0.4736  0.0209  0.0281
  503MPD2    H5 7483   2.083   1.285  17.357  0.6178  0.3427 -0.2172
  503MPD2    N1 7484   1.733   1.579  17.181  0.2945  0.5049 -0.1590
  503MPD2    H7 7485   1.760   1.609  17.275 -1.1928  0.4148  0.2913
  504TMC3    C1 7486   2.223   1.089  17.345  0.2292 -0.6661  0.2672
  504TMC3    C2 7487   2.185   1.114  17.471  0.3355 -0.4069 -0.1896
  504TMC3    C3 7488   2.271   1.078  17.572  0.2098  0.3905  0.1748
  504TMC3    C4 7489   2.351   1.052  17.313 -0.3819  0.2953  0.5618
  504TMC3    C5 7490   2.434   1.029  17.419 -0.2155  0.5011  0.1030
  504TMC3    C6 7491   2.391   1.021  17.548 -0.0594  0.3126 -0.1656
  504TMC3     C 7492   2.138   1.128  17.237 -0.3709 -0.3973  0.3097
  504TMC3     O 7493   2.138   1.059  17.138 -0.2110  0.1403 -0.0847
  504TMC3     H 7494   2.079   1.116  17.492  0.1938 -1.4627 -0.7885
  504TMC3    H1 7495   2.380   1.052  17.208 -0.5320  2.2996  0.5039
  504TMC3    H2 7496   2.454   0.986  17.628  0.2147 -0.3368 -0.6647
  504TMC3    C7 7497   2.576   1.033  17.389 -0.0010  0.2459  0.2255
  504TMC3    C8 7498   2.215   1.061   0.014  0.4434  0.6244  0.0724
  504TMC3    O1 7499   2.603   1.021  17.269 -0.4983  0.2808  0.1534
  504TMC3    O2 7500   2.138   1.144   0.059  0.3314 -0.1266 -0.3276
  505MPD2     C 7501   1.818   4.705  11.563 -0.1774 -1.3035 -0.1058
  505MPD2    C1 7502   1.881   4.677  11.444  0.0393  0.3503  0.1430
  505MPD2    C2 7503   1.957   0.048  11.371  0.0420  0.0140  0.1081
  505MPD2    C3 7504   1.979   0.172  11.430  0.3576 -0.1890 -0.3599
  505MPD2    C4 7505   1.910   0.200  11.544 -0.7413 -1.1956 -0.5609
  505MPD2    C5 7506   1.831   0.107  11.611 -0.4827  0.0509  0.2061
  505MPD2     H 7507   2.008   0.028  11.277  1.8379 -0.4968  1.1980
  505MPD2    H1 7508   1.909   0.301  11.583 -1.6266 -0.7431 -1.7475
  505MPD2    H2 7509   1.744   4.636  11.602 -2.6359  1.0917 -0.5338
  505MPD2    H3 7510   1.774   0.139  11.698 -0.3954 -0.4371  0.4406
  505MPD2     N 7511   2.056   0.276  11.378  0.1988  0.3705 -0.1630
  505MPD2    H5 7512   2.063   0.357  11.440  2.1497 -0.1625  0.3203
  505MPD2    N1 7513   1.862   4.546  11.401  0.0393 -0.2516 -0.1320
  505MPD2    H7 7514   1.796   4.487  11.451 -0.3291  0.1858 -0.1008
  506TMC3    C1 7515   1.937   4.335  11.324 -0.2747 -0.1586 -0.3635
  506TMC3    C2 7516   1.963   4.269  11.209  0.1234  0.5197  0.0829
  506TMC3    C3 7517   2.032   4.151  11.216 -0.2642 -0.7113  0.7358
  506TMC3    C4 7518   1.982   4.299  11.445 -0.2193 -0.3177  0.7076
  506TMC3    C5 7519   2.064   4.191  11.442  0.4510 -0.0781  0.0207
  506TMC3    C6 7520   2.084   4.112  11.335  0.3224  0.8560 -0.2917
  506TMC3     C 7521   1.937   4.478  11.305 -0.7077 -0.1143  0.6039
  506TMC3     O 7522   2.024   4.515  11.227  0.4983 -0.6706 -0.4075
  506TMC3     H 7523   1.911   4.313  11.125  0.1815 -0.6456 -0.5575
  506TMC3    H1 7524   1.967   4.362  11.532  0.5272 -0.9052  1.2653
  506TMC3    H2 7525   2.135   4.016  11.341 -1.1046  0.0199 -1.3827
  506TMC3    C7 7526   2.191   4.210  11.516 -0.2564  0.0246 -0.3080
  506TMC3    C8 7527   2.049   4.077  11.092  0.7601 -0.7186 -0.5528
  506TMC3    O1 7528   2.263   4.113  11.539 -0.7608 -0.4611  0.2792
  506TMC3    O2 7529   2.049   3.957  11.094  0.3456 -0.8142 -0.2550
  507TMC3    C1 7530   2.966   1.419  15.205 -0.4180  1.0943  0.3306
  507TMC3    C2 7531   2.989   1.374  15.074 -0.3124 -0.1653  0.0542
  507TMC3    C3 7532   3.051   1.470  14.991  0.1261 -0.3702  0.0503
  507TMC3    C4 7533   2.999   1.542  15.244  0.3496 -0.1453  0.0474
  507TMC3    C5 7534   3.065   1.624  15.160 -0.0494 -0.1042  0.1900
  507TMC3    C6 7535   3.098   1.588  15.037 -0.3046  0.1046  0.2430
  507TMC3     C 7536   2.947   1.312  15.302  0.4051 -0.4476  0.1453
  507TMC3     O 7537   2.962   1.336  15.421 -0.3312  0.0486 -0.2441
  507TMC3     H 7538   2.972   1.281  15.021  3.1948  0.9269 -2.9233
  507TMC3    H1 7539   2.968   1.578  15.341  1.3286  0.7052  0.0530
  507TMC3    H2 7540   3.157   1.656  14.977 -0.3323  0.4546  0.6083
  507TMC3    C7 7541   3.052   1.765  15.166 -1.0690  0.7673  0.1242
  507TMC3    C8 7542   2.981   1.483  14.865 -0.3874 -0.1919  0.6429
  507TMC3    O1 7543   3.040   1.830  15.065 -0.4148 -0.2288 -0.2369
  507TMC3    O2 7544   2.934   1.387  14.808 -0.3961  0.2314 -0.2650
  508MPD2     C 7545   3.635   3.274  16.378 -0.2630  0.1635 -0.6188
  508MPD2    C1 7546   3.598   3.358  16.480  0.3279  0.4174  0.6936
  508MPD2    C2 7547   3.511   3.461  16.454  0.7952  0.3126 -0.4238
  508MPD2    C3 7548   3.462   3.485  16.329 -0.0202  0.1472 -0.5929
  508MPD2    C4 7549   3.489   3.393  16.229  0.2831 -0.1471  0.5112
  508MPD2    C5 7550   3.566   3.285  16.257  0.4134 -0.1592 -0.0596
  508MPD2     H 7551   3.500   3.543  16.525 -0.7065 -0.0506 -0.2422
  508MPD2    H1 7552   3.450   3.404  16.129  1.3619  2.1068  0.3451
  508MPD2    H2 7553   3.718   3.205  16.385 -0.7519 -0.4598 -0.8779
  508MPD2    H3 7554   3.593   3.220  16.175 -1.6823 -1.5816  0.3736
  508MPD2     N 7555   3.401   3.613  16.304 -0.0360  0.0810  0.1990
  508MPD2    H5 7556   3.406   3.685  16.375 -3.3022  1.0761 -0.5905
  508MPD2    N1 7557   3.662   3.344  16.610  0.1156 -0.2153 -0.4176
  508MPD2    H7 7558   3.743   3.283  16.612 -0.1028 -0.5446 -1.4315
  509TMC3    C1 7559   3.244   3.944  16.012  0.7715 -0.8426 -0.1066
  509TMC3    C2 7560   3.340   4.033  16.053 -0.2904 -0.6388 -0.3237
  509TMC3    C3 7561   3.432   3.990  16.150  0.3798  0.1005 -0.8449
  509TMC3    C4 7562   3.235   3.822  16.070  0.6833 -0.2225 -0.1794
  509TMC3    C5 7563   3.323   3.785  16.171  0.2260  0.2507 -0.2448
  509TMC3    C6 7564   3.430   3.869  16.207  0.5999 -0.2814  0.3110
  509TMC3     C 7565   3.143   3.986  15.913  0.2277  1.3212 -0.2481
  509TMC3     O 7566   3.033   3.930  15.924 -0.0227 -0.0942 -0.0833
  509TMC3     H 7567   3.361   4.129  16.006  2.0381 -0.9263  0.1241
  509TMC3    H1 7568   3.171   3.747  16.025  0.6322  0.0942 -0.6308
  509TMC3    H2 7569   3.495   3.837  16.288  1.1901  0.7731  0.2454
  509TMC3    C7 7570   3.337   3.645  16.186  0.1369 -0.2952 -0.8385
  509TMC3    C8 7571   3.550   4.070  16.144  0.4289 -0.1382 -0.1071
  509TMC3    O1 7572   3.299   3.569  16.102 -0.2057 -0.4940  0.0193
  509TMC3    O2 7573   3.534   4.190  16.117 -0.2900 -0.3624  0.1288
  510MPD2     C 7574   1.344   0.565  14.980  0.1035  0.0235 -0.4014
  510MPD2    C1 7575   1.463   0.496  15.001 -0.1498 -0.5239  0.0013
  510MPD2    C2 7576   1.580   0.537  14.939 -0.2169  0.4518 -0.3627
  510MPD2    C3 7577   1.577   0.653  14.866 -0.8770 -0.2518 -0.3426
  510MPD2    C4 7578   1.464   0.736  14.867 -0.6153  0.6582 -0.5787
  510MPD2    C5 7579   1.350   0.690  14.922 -0.2055 -0.1466  0.0359
  510MPD2     H 7580   1.671   0.479  14.931  0.1280  0.7759  1.3411
  510MPD2    H1 7581   1.450   0.827  14.810  1.9538  0.8564 -0.8790
  510MPD2    H2 7582   1.248   0.543  15.025  1.3330 -2.2346  1.0629
  510MPD2    H3 7583   1.253   0.739  14.911  0.3935  0.9759 -0.2978
  510MPD2     N 7584   1.697   0.685  14.800 -0.0156 -0.6228 -0.6810
  510MPD2    H5 7585   1.781   0.638  14.831 -1.2266 -0.3423  3.1148
  510MPD2    N1 7586   1.461   0.390  15.091  0.1732 -0.3361 -0.4585
  510MPD2    H7 7587   1.371   0.363  15.129 -0.4191 -0.7430 -2.1516
  511TMC3    C1 7588   1.527   0.214  15.228 -0.3934 -0.3877  0.0963
  511TMC3    C2 7589   1.442   0.254  15.328  0.6433 -0.0389  0.3634
  511TMC3    C3 7590   1.378   0.160  15.412 -1.1623 -0.4236  0.5274
  511TMC3    C4 7591   1.536   0.080  15.197 -0.3712  0.0996  0.5478
  511TMC3    C5 7592   1.456   4.709  15.264 -0.1402  0.3901 -0.0673
  511TMC3    C6 7593   1.381   0.027  15.380  0.1267 -0.4612 -0.2950
  511TMC3     C 7594   1.574   0.314  15.131 -0.2852 -0.3877  0.9578
  511TMC3     O 7595   1.678   0.298  15.065  0.6080 -0.3270 -0.1196
  511TMC3     H 7596   1.430   0.356  15.362 -2.3922  0.4121 -2.0896
  511TMC3    H1 7597   1.601   0.058  15.114  1.6952  2.0720  1.6287
  511TMC3    H2 7598   1.313   4.682  15.432  1.6431  0.1229  2.4440
  511TMC3    C7 7599   1.394   4.599  15.192  0.4721 -0.3592 -0.3058
  511TMC3    C8 7600   1.320   0.207  15.533  0.1007  0.1050 -0.1008
  511TMC3    O1 7601   1.388   4.616  15.070  0.4943  0.0986  0.2756
  511TMC3    O2 7602   1.277   0.322  15.546  0.1517  0.0785 -0.2494
  512TMC3    C1 7603   0.632   4.240  13.811  0.2917  1.2360  0.1033
  512TMC3    C2 7604   0.695   4.335  13.885  0.6067 -0.0104 -0.1633
  512TMC3    C3 7605   0.761   4.291  13.993 -0.5021  0.5795  0.4683
  512TMC3    C4 7606   0.641   4.108  13.839  0.3286  1.7389  0.1954
  512TMC3    C5 7607   0.743   4.076  13.929 -0.0319 -1.1281 -0.4664
  512TMC3    C6 7608   0.806   4.163  14.011 -0.3918  0.4408  0.3826
  512TMC3     C 7609   0.541   4.276  13.708 -0.8606  0.2750  0.1827
  512TMC3     O 7610   0.529   4.179  13.637 -0.0569 -0.8222 -0.5934
  512TMC3     H 7611   0.657   4.434  13.865  1.5604  0.2166 -0.8398
  512TMC3    H1 7612   0.578   4.036  13.789 -1.5890  3.8383 -0.4460
  512TMC3    H2 7613   0.878   4.134  14.086 -0.9960 -1.1684  0.3351
  512TMC3    C7 7614   0.758   3.939  13.972  0.2489 -0.4310 -0.3267
  512TMC3    C8 7615   0.808   4.389  14.099  0.1186 -0.1854  0.8259
  512TMC3    O1 7616   0.792   3.923  14.090 -0.1521  0.2643  0.2798
  512TMC3    O2 7617   0.847   4.340  14.202 -0.3106 -0.0382 -0.2026
  513MPD2     C 7618   1.744   3.871  13.502 -0.4453  0.7488  1.2688
  513MPD2    C1 7619   1.752   4.009  13.497 -0.4302 -0.6693  1.1105
  513MPD2    C2 7620   1.790   4.076  13.613  0.5740  0.1281  0.1294
  513MPD2    C3 7621   1.833   4.014  13.730 -0.8802  0.6670  0.1793
  513MPD2    C4 7622   1.815   3.883  13.738  0.1555  0.1842 -0.4677
  513MPD2    C5 7623   1.773   3.814  13.625  0.2218  0.3536 -0.2338
  513MPD2     H 7624   1.802   4.184  13.609 -1.2773  0.3164 -0.6476
  513MPD2    H1 7625   1.829   3.827  13.830  1.4547 -1.7954 -1.8463
  513MPD2    H2 7626   1.700   3.813  13.423  0.9452  2.0676 -0.4745
  513MPD2    H3 7627   1.746   3.709  13.636  0.9545  0.1261 -0.6381
  513MPD2     N 7628   1.885   4.092  13.836 -0.4964 -0.6360 -0.1413
  513MPD2    H5 7629   1.879   4.193  13.832  0.5104 -0.5450  0.6528
  513MPD2    N1 7630   1.724   4.088  13.383  0.8052  0.1100 -0.3573
  513MPD2    H7 7631   1.722   4.187  13.404  2.2343  0.1907 -0.5586
  514TMC3    C1 7632   1.738   4.157  13.162 -0.6117  0.2974  0.4286
  514TMC3    C2 7633   1.847   4.158  13.083  0.3998  0.8035 -0.6600
  514TMC3    C3 7634   1.910   4.279  13.074  0.2190 -0.4321  0.0721
  514TMC3    C4 7635   1.699   4.269  13.234 -0.1001 -0.0065 -0.1012
  514TMC3    C5 7636   1.781   4.385  13.228 -0.4283 -0.5084  0.1436
  514TMC3    C6 7637   1.880   4.391  13.139 -0.1908  0.3925 -0.2824
  514TMC3     C 7638   1.723   4.043  13.252 -0.9052 -0.5587  0.5733
  514TMC3     O 7639   1.735   3.928  13.207  1.1600 -0.8320  0.2987
  514TMC3     H 7640   1.876   4.070  13.027 -1.4822 -1.1061  1.3631
  514TMC3    H1 7641   1.601   4.270  13.280 -0.4971 -1.0945 -0.9204
  514TMC3    H2 7642   1.951   4.472  13.130 -0.6616  0.5382 -2.8726
  514TMC3    C7 7643   1.803   4.438  13.364  0.1142 -0.4886 -0.6747
  514TMC3    C8 7644   2.021   4.292  12.978 -0.2603  0.0336  0.0394
  514TMC3    O1 7645   1.726   4.385  13.446 -0.3396 -0.5597  0.1457
  514TMC3    O2 7646   2.095   4.385  12.995 -0.3419 -0.1452  0.4428
  515MPD2     C 7647   0.216   1.763  15.379 -0.3501 -0.0433  0.2755
  515MPD2    C1 7648   0.255   1.645  15.444  0.0190 -1.2329  0.3050
  515MPD2    C2 7649   0.373   1.645  15.512  0.2271 -0.0671  0.0801
  515MPD2    C3 7650   0.457   1.754  15.521  0.6220  0.5712  0.4791
  515MPD2    C4 7651   0.417   1.871  15.450  0.1893  0.3146  0.1204
  515MPD2    C5 7652   0.292   1.878  15.394 -0.3244 -0.4999  0.0996
  515MPD2     H 7653   0.398   1.549  15.555  0.0714  0.0364  0.4014
  515MPD2    H1 7654   0.474   1.963  15.459 -0.3925  0.6607  0.2613
  515MPD2    H2 7655   0.123   1.765  15.324 -0.5313 -0.3893  0.5700
  515MPD2    H3 7656   0.255   1.972  15.354 -1.2703 -0.6405  0.6448
  515MPD2     N 7657   0.586   1.736  15.577  0.4979  1.0947  0.4353
  515MPD2    H5 7658   0.648   1.816  15.562  2.3701 -0.1293  1.6166
  515MPD2    N1 7659   0.191   1.520  15.428 -0.2433 -0.3750  0.2331
  515MPD2    H7 7660   0.224   1.441  15.482 -1.5269 -0.3146  1.0974
  516TMC3    C1 7661   0.070   1.348  15.319 -0.5755  0.8729  0.4141
  516TMC3    C2 7662   0.030   1.315  15.196 -0.0205  1.0341  0.1514
  516TMC3    C3 7663   0.064   1.192  15.154  0.9213  0.1589  0.0014
  516TMC3    C4 7664   0.129   1.263  15.407 -0.6551 -0.0066 -0.1981
  516TMC3    C5 7665   0.147   1.134  15.365  1.3595 -0.0797  0.8966
  516TMC3    C6 7666   0.120   1.099  15.236  0.1794 -0.0208  0.3007
  516TMC3     C 7667   0.100   1.488  15.331  0.1878  0.4446 -0.2135
  516TMC3     O 7668   0.066   1.555  15.237  0.4459  0.2295 -0.1231
  516TMC3     H 7669   4.709   1.378  15.119  3.2390  1.3166 -1.4524
  516TMC3    H1 7670   0.153   1.285  15.510 -1.0880 -1.1229  0.1407
  516TMC3    H2 7671   0.156   1.010  15.187  0.7456  1.0347 -1.1984
  516TMC3    C7 7672   0.244   1.050  15.437 -0.4872 -0.4655 -0.6236
  516TMC3    C8 7673   0.083   1.173  15.006  0.1575 -0.4934 -0.5850
  516TMC3    O1 7674   0.311   1.101  15.530  0.3466 -0.1698  0.1879
  516TMC3    O2 7675   0.011   1.242  14.931 -0.2202  0.2144 -0.0400
  517MPD2     C 7676   4.638   2.630   0.515 -0.2080 -0.0089 -0.7239
  517MPD2    C1 7677   0.019   2.664   0.435 -0.7562 -0.1656  0.1347
  517MPD2    C2 7678   0.067   2.793   0.421  0.4299 -0.7375 -0.3478
  517MPD2    C3 7679   0.013   2.899   0.489 -0.0131  0.1166 -0.0265
  517MPD2    C4 7680   4.632   2.870   0.582  0.0103 -0.4508  0.4055
  517MPD2    C5 7681   4.590   2.740   0.585 -0.1593 -0.0659  0.1421
  517MPD2     H 7682   0.147   2.814   0.351 -0.3729 -0.0985 -1.0604
  517MPD2    H1 7683   4.587   2.945   0.646 -1.2365 -0.1063 -0.8852
  517MPD2    H2 7684   4.605   2.529   0.535 -1.8001  0.7430  0.4131
  517MPD2    H3 7685   4.521   2.723   0.667 -2.7264  2.6139 -1.4864
  517MPD2     N 7686   0.052   3.036   0.479 -0.3300  0.1707 -0.2763
  517MPD2    H5 7687   4.719   3.105   0.530 -2.0657 -1.7538  0.4368
  517MPD2    N1 7688   0.095   2.570   0.365 -0.7369 -0.4837 -0.1335
  517MPD2    H7 7689   0.177   2.605   0.317  0.5017  0.9898  3.0979
  518TMC3    C1 7690   0.175   2.367   0.298 -0.0720  0.2250 -0.0024
  518TMC3    C2 7691   0.234   2.251   0.342 -1.2034 -0.1728  0.0040
  518TMC3    C3 7692   0.344   2.200   0.276 -0.8163  0.0701  0.0387
  518TMC3    C4 7693   0.240   2.442   0.203 -0.3279 -0.2036 -0.1880
  518TMC3    C5 7694   0.358   2.396   0.155  0.5042  0.4604  0.4038
  518TMC3    C6 7695   0.407   2.278   0.180  0.1778  1.1816 -0.1924
  518TMC3     C 7696   0.068   2.435   0.360  0.0963 -0.2151 -0.0940
  518TMC3     O 7697   4.709   2.361   0.419  0.0738  0.0737  0.5003
  518TMC3     H 7698   0.192   2.197   0.426  1.0112  0.6853  1.6766
  518TMC3    H1 7699   0.203   2.533   0.157 -0.7763  0.0548  0.6731
  518TMC3    H2 7700   0.482   2.226   0.122 -1.8899 -1.4304 -0.5304
  518TMC3    C7 7701   0.432   2.482   0.062 -0.0168  0.7271 -0.4280
  518TMC3    C8 7702   0.382   2.056   0.279 -0.6230  0.5109 -0.2690
  518TMC3    O1 7703   0.361   2.562   0.002  0.1959 -0.8379 -0.1418
  518TMC3    O2 7704   0.465   2.015   0.195  0.0907  0.5202  0.3258
  519MPD2     C 7705   1.604   1.419  15.103 -0.3801  0.0646 -0.0591
  519MPD2    C1 7706   1.564   1.474  14.979 -0.2233  0.1637 -0.8780
  519MPD2    C2 7707   1.594   1.416  14.861 -0.1021 -0.1347  0.1358
  519MPD2    C3 7708   1.686   1.312  14.858 -0.1250 -1.0011  0.8038
  519MPD2    C4 7709   1.728   1.260  14.981 -0.0214  0.3914  0.5551
  519MPD2    C5 7710   1.684   1.305  15.101 -0.4916 -0.5285  0.2473
  519MPD2     H 7711   1.557   1.450  14.765 -1.2514 -2.9349 -0.4205
  519MPD2    H1 7712   1.792   1.173  14.982 -0.9329 -0.2711  2.8131
  519MPD2    H2 7713   1.589   1.469  15.198  0.8782  0.6609 -0.1688
  519MPD2    H3 7714   1.711   1.259  15.196  0.3601 -1.8924 -0.6416
  519MPD2     N 7715   1.737   1.261  14.733 -0.0287 -0.1133 -0.7826
  519MPD2    H5 7716   1.716   1.315  14.649  0.0502 -2.9871 -2.6634
  519MPD2    N1 7717   1.483   1.587  14.983 -0.0190  0.0080 -0.2136
  519MPD2    H7 7718   1.446   1.615  15.073 -0.2485 -1.9747  0.2934
  520TMC3    C1 7719   1.900   1.172  14.594 -0.5231  0.4001 -0.4568
  520TMC3    C2 7720   1.817   1.216  14.483 -0.5012 -0.2303 -0.1549
  520TMC3    C3 7721   1.864   1.174  14.355 -0.1542  0.0411  0.4789
  520TMC3    C4 7722   2.014   1.106  14.581  0.6515  0.4137 -0.0609
  520TMC3    C5 7723   2.046   1.063  14.456  0.0799 -0.6382 -0.6191
  520TMC3    C6 7724   1.981   1.105  14.341 -0.3301  0.5434 -0.4362
  520TMC3     C 7725   1.844   1.180  14.720 -0.7809  0.3359  0.5018
  520TMC3     O 7726   1.898   1.110  14.809 -0.2387 -0.4687  0.2515
  520TMC3     H 7727   1.732   1.282  14.499 -1.3809 -1.3329 -0.2189
  520TMC3    H1 7728   2.079   1.072  14.662  0.5925  2.8786  1.0299
  520TMC3    H2 7729   2.006   1.058  14.246  0.1890 -1.7730  0.8614
  520TMC3    C7 7730   2.170   0.984  14.444  0.3580 -0.0210  0.5264
  520TMC3    C8 7731   1.801   1.226  14.237 -0.8057  0.1017  0.1306
  520TMC3    O1 7732   2.211   0.929  14.546 -0.8063 -0.1657  0.0950
  520TMC3    O2 7733   1.877   1.234  14.140  0.3070  0.3269 -0.2709
  521MPD2     C 7734   2.691   3.672   0.378  0.0393  0.5672  0.3625
  521MPD2    C1 7735   2.704   3.667   0.239  0.3338  0.3073 -0.0394
  521MPD2    C2 7736   2.829   3.682   0.182 -0.3144  0.4427 -0.2101
  521MPD2    C3 7737   2.942   3.696   0.259 -0.3728  0.3713  0.1128
  521MPD2    C4 7738   2.933   3.701   0.397  0.4999 -0.2732 -0.1013
  521MPD2    C5 7739   2.807   3.679   0.452 -0.4450  0.1043  0.9088
  521MPD2     H 7740   2.846   3.680   0.075  1.2227 -2.0621  0.0961
  521MPD2    H1 7741   3.012   3.710   0.470 -1.1955  0.6044  1.6397
  521MPD2    H2 7742   2.598   3.663   0.432 -0.5279  1.1912 -0.5098
  521MPD2    H3 7743   2.801   3.674   0.560  1.3145 -0.8559  0.9662
  521MPD2     N 7744   3.068   3.718   0.190  0.3948  0.3582  0.3346
  521MPD2    H5 7745   3.070   3.732   0.089  0.5771 -0.5343  0.2189
  521MPD2    N1 7746   2.582   3.654   0.164 -0.1101 -0.2159  0.9369
  521MPD2    H7 7747   2.495   3.680   0.209  0.8033 -1.6036  3.4717
  522TMC3    C1 7748   3.307   3.762   0.178  0.6785  0.6161 -0.3785
  522TMC3    C2 7749   3.418   3.687   0.195 -0.7312  0.0155  0.1679
  522TMC3    C3 7750   3.533   3.736   0.141  0.1726 -0.3339  0.1202
  522TMC3    C4 7751   3.308   3.879   0.113  0.2486 -0.3600 -0.4200
  522TMC3    C5 7752   3.420   3.922   0.043  0.0632  0.3486  0.5235
  522TMC3    C6 7753   3.536   3.847   0.054  0.4439  0.2790 -0.8048
  522TMC3     C 7754   3.191   3.716   0.248  0.5359 -0.3747 -0.1624
  522TMC3     O 7755   3.227   3.657   0.353  0.1045  0.5281  0.1921
  522TMC3     H 7756   3.415   3.593   0.249  1.4136 -1.1719 -1.7627
  522TMC3    H1 7757   3.222   3.945   0.119  1.7903  1.8082 -2.0215
  522TMC3    H2 7758   3.618   3.884  17.684 -0.2012  2.4773 -0.3121
  522TMC3    C7 7759   3.415   4.038  17.638  0.0527  0.6713  0.0647
  522TMC3    C8 7760   3.630   3.630   0.119  0.4850  0.5700  0.1991
  522TMC3    O1 7761   3.520   4.081  17.594  0.4425  0.0472  0.1511
  522TMC3    O2 7762   3.661   3.558   0.212  0.0210 -0.3136  0.4962
  523MPD2     C 7763   0.715   3.240  10.427  0.2808  0.3029  0.3146
  523MPD2    C1 7764   0.667   3.198  10.308  0.1725  0.0570  0.3198
  523MPD2    C2 7765   0.569   3.270  10.245 -0.3573  0.1049  0.1435
  523MPD2    C3 7766   0.525   3.383  10.304 -0.0781  0.2702 -0.4021
  523MPD2    C4 7767   0.567   3.429  10.431  0.1823  0.7663 -0.2546
  523MPD2    C5 7768   0.669   3.357  10.486  0.8796 -1.4049 -0.1749
  523MPD2     H 7769   0.553   3.254  10.139  1.0581 -1.8124  0.2185
  523MPD2    H1 7770   0.524   3.514  10.483 -0.2870  0.6294 -0.4188
  523MPD2    H2 7771   0.803   3.187  10.462  0.6717  0.4609 -0.4100
  523MPD2    H3 7772   0.717   3.374  10.581 -0.2253 -0.6753  0.2457
  523MPD2     N 7773   0.406   3.442  10.254  0.0308  0.7971 -0.1455
  523MPD2    H5 7774   0.383   3.529  10.302  2.2508  1.1429  0.3126
  523MPD2    N1 7775   0.719   3.080  10.263 -0.2308 -0.2198  0.5349
  523MPD2    H7 7776   0.775   3.029  10.330  2.1067 -0.3651 -1.5173
  524TMC3    C1 7777   0.193   3.432  10.122 -0.4866 -0.1835  0.5657
  524TMC3    C2 7778   0.103   3.346  10.068 -0.4190  0.7640 -0.2120
  524TMC3    C3 7779   4.695   3.395  10.038 -0.2945  0.2420 -0.3165
  524TMC3    C4 7780   0.174   3.564  10.120 -0.4215 -0.1793  0.1833
  524TMC3    C5 7781   0.049   3.607  10.086 -0.7362 -0.4503  0.2257
  524TMC3    C6 7782   4.673   3.529  10.036  0.2359 -0.3691  0.2810
  524TMC3     C 7783   0.317   3.375  10.164 -0.1037  0.1592  0.5230
  524TMC3     O 7784   0.339   3.274  10.098  0.1376  0.6611  0.3931
  524TMC3     H 7785   0.112   3.243  10.100 -0.5277  0.8029 -0.0552
  524TMC3    H1 7786   0.226   3.632  10.187 -1.0021  0.2539  0.1937
  524TMC3    H2 7787   4.570   3.558  10.022 -0.1756 -0.7844  2.4517
  524TMC3    C7 7788   0.042   3.752  10.076  0.6089 -0.3440  0.2662
  524TMC3    C8 7789   4.585   3.299  10.036  0.2015  0.1522 -0.8018
  524TMC3    O1 7790   0.121   3.822  10.139  0.0800 -0.2916 -0.5979
  524TMC3    O2 7791   4.481   3.344  10.082 -0.5206 -0.7886  0.0932
  525MPD2     C 7792   2.956   0.500  14.703  0.0048  0.5210 -0.2060
  525MPD2    C1 7793   3.088   0.488  14.751  0.2028  0.5815  0.1611
  525MPD2    C2 7794   3.173   0.587  14.718 -0.1076  0.0308 -0.2178
  525MPD2    C3 7795   3.138   0.707  14.643  0.3247  0.1496  0.4296
  525MPD2    C4 7796   3.010   0.709  14.597 -0.4897  0.1765  0.0315
  525MPD2    C5 7797   2.927   0.602  14.621  0.9925 -0.7421 -0.1765
  525MPD2     H 7798   3.271   0.580  14.764 -0.1156  0.3617 -0.1565
  525MPD2    H1 7799   2.986   0.798  14.541 -2.0375 -0.5577 -0.4522
  525MPD2    H2 7800   2.877   0.433  14.735 -0.9007  1.2705 -0.8935
  525MPD2    H3 7801   2.823   0.625  14.597  0.4422 -1.8213  1.1552
  525MPD2     N 7802   3.220   0.818  14.620 -0.2871 -0.0533 -0.2280
  525MPD2    H5 7803   3.176   0.887  14.559  0.4957 -0.5292 -1.3179
  525MPD2    N1 7804   3.126   0.381  14.839 -0.4064  0.0185  0.3222
  525MPD2    H7 7805   3.220   0.386  14.878 -0.3061 -0.5895  0.1576
  526TMC3    C1 7806   3.101   0.202  14.993  0.5481  0.2004  0.0019
  526TMC3    C2 7807   3.043   0.189  15.111 -0.4772 -0.5665  0.0105
  526TMC3    C3 7808   3.109   0.133  15.213  0.3649  0.4240 -0.0798
  526TMC3    C4 7809   3.237   0.174  14.973  0.3468  0.3366 -0.2461
  526TMC3    C5 7810   3.306   0.113  15.078 -0.3244 -0.6522 -0.2568
  526TMC3    C6 7811   3.242   0.094  15.202  0.3286  0.2185  0.5774
  526TMC3     C 7812   3.035   0.288  14.896 -0.2962  0.4017  0.1339
  526TMC3     O 7813   2.916   0.279  14.888 -0.7097 -0.0608 -0.1045
  526TMC3     H 7814   2.935   0.204  15.114 -0.6989 -2.0545 -0.5256
  526TMC3    H1 7815   3.292   0.190  14.881 -1.1996 -0.4793 -1.2943
  526TMC3    H2 7816   3.288   0.047  15.289  2.6164  2.9318  0.8720
  526TMC3    C7 7817   3.427   0.042  15.054 -0.8050  0.2182  0.2677
  526TMC3    C8 7818   3.055   0.125  15.353 -0.0476  0.0892 -0.5082
  526TMC3    O1 7819   3.482   0.081  14.951 -0.0364 -0.5218  0.1547
  526TMC3    O2 7820   3.133   0.101  15.444  0.0975 -0.3344  0.5791
  527MPD2     C 7821   1.993   4.051   1.153 -0.1473 -0.0335  0.5226
  527MPD2    C1 7822   2.007   3.938   1.233 -0.7036  0.0096 -0.6896
  527MPD2    C2 7823   2.094   3.839   1.200 -0.4721  0.1278 -0.1817
  527MPD2    C3 7824   2.164   3.841   1.080 -0.4924 -0.8509  1.4053
  527MPD2    C4 7825   2.151   3.949   0.997  0.5055  0.2827  0.6298
  527MPD2    C5 7826   2.067   4.053   1.037  0.5018  0.2440  0.2442
  527MPD2     H 7827   2.095   3.750   1.262 -1.3916  0.8244  0.8349
  527MPD2    H1 7828   2.184   3.949   0.894  0.5444 -1.3322  0.6359
  527MPD2    H2 7829   1.917   4.126   1.167 -0.3106  0.2048 -1.5896
  527MPD2    H3 7830   2.048   4.131   0.965  0.3494 -1.2681 -1.3604
  527MPD2     N 7831   2.213   3.718   1.033 -0.1341  0.0333 -0.5036
  527MPD2    H5 7832   2.198   3.640   1.098  0.2929  1.8366  1.7695
  527MPD2    N1 7833   1.931   3.928   1.356 -0.6077 -0.2415  0.8084
  527MPD2    H7 7834   1.913   3.835   1.392  0.2911 -0.7048  0.0396
  528TMC3    C1 7835   1.781   3.989   1.523  0.3400 -0.4694 -0.2395
  528TMC3    C2 7836   1.819   3.889   1.602  0.0164  0.0739 -0.0173
  528TMC3    C3 7837   1.738   3.855   1.705 -0.3591  0.1760 -0.2265
  528TMC3    C4 7838   1.663   4.058   1.528  0.4061  0.6156 -0.4882
  528TMC3    C5 7839   1.588   4.024   1.643 -0.9043  0.5251 -0.4540
  528TMC3    C6 7840   1.622   3.922   1.731  0.1229  0.0140  0.5854
  528TMC3     C 7841   1.865   4.034   1.415 -0.4214 -0.0835 -1.0423
  528TMC3     O 7842   1.854   4.150   1.377  0.1809  0.2082  0.3186
  528TMC3     H 7843   1.913   3.836   1.592 -0.5682 -1.1162  0.7915
  528TMC3    H1 7844   1.649   4.157   1.486 -1.8115  0.6261  0.2514
  528TMC3    H2 7845   1.554   3.893   1.810 -1.8789 -1.0445 -1.5122
  528TMC3    C7 7846   1.444   4.057   1.660  0.1942  0.3279 -0.3969
  528TMC3    C8 7847   1.771   3.730   1.775  0.3123 -0.5834  0.0372
  528TMC3    O1 7848   1.403   4.056   1.775  0.0718  0.1639 -0.6240
  528TMC3    O2 7849   1.762   3.724   1.899  1.0312 -0.6105  0.4508
  529MPD2     C 7850   4.352   2.229   1.021  0.3344  0.0174  0.1060
  529MPD2    C1 7851   4.394   2.124   0.943 -0.7898  0.0340  0.0858
  529MPD2    C2 7852   4.437   2.144   0.814  0.2857 -0.0385  0.1945
  529MPD2    C3 7853   4.422   2.262   0.754 -0.0321  0.5688  0.3113
  529MPD2    C4 7854   4.373   2.372   0.828 -0.0541 -0.0888  0.0976
  529MPD2    C5 7855   4.350   2.353   0.962 -0.1876 -0.4708 -0.3673
  529MPD2     H 7856   4.473   2.052   0.769  1.1449  0.0669  0.6550
  529MPD2    H1 7857   4.356   2.472   0.789 -2.1787 -0.6511 -0.4181
  529MPD2    H2 7858   4.319   2.216   1.123  1.6830  2.1286  0.8173
  529MPD2    H3 7859   4.308   2.434   1.020  1.6684  0.5072 -0.4035
  529MPD2     N 7860   4.445   2.279   0.617  0.1976 -0.0706  0.2515
  529MPD2    H5 7861   4.419   2.372   0.587  0.1119 -0.6278 -1.3859
  529MPD2    N1 7862   4.379   1.988   0.975 -0.0387  0.2851 -0.4559
  529MPD2    H7 7863   4.416   1.913   0.917 -0.8511 -2.0869  2.1160
  530TMC3    C1 7864   4.326   1.802   1.092  0.1063 -0.5167  0.9210
  530TMC3    C2 7865   4.368   1.730   1.202 -0.4374  1.0392 -0.9889
  530TMC3    C3 7866   4.318   1.609   1.228 -0.6143  0.5696  0.0668
  530TMC3    C4 7867   4.219   1.752   1.019 -0.0641 -0.0882 -0.5707
  530TMC3    C5 7868   4.155   1.642   1.065 -0.3048  1.2855 -0.3029
  530TMC3    C6 7869   4.206   1.564   1.162  0.0334  0.1898 -0.2651
  530TMC3     C 7870   4.326   1.948   1.097  0.1928  0.5635 -0.2057
  530TMC3     O 7871   4.275   2.004   1.194  0.2622 -0.1825 -0.3168
  530TMC3     H 7872   4.462   1.765   1.244 -0.1980 -1.7499  0.7648
  530TMC3    H1 7873   4.162   1.820   0.957 -1.5611  0.9618  1.9264
  530TMC3    H2 7874   4.169   1.462   1.172 -0.0071  0.5389  3.1350
  530TMC3    C7 7875   4.034   1.602   0.991  0.1869 -0.9836 -0.7591
  530TMC3    C8 7876   4.322   1.568   1.370  1.1683  0.0542 -0.2488
  530TMC3    O1 7877   4.029   1.616   0.872  0.0510  0.0734 -0.0789
  530TMC3    O2 7878   4.209   1.540   1.416  0.4509  0.2995 -0.0199
  531MPD2     C 7879   2.171   4.607  13.689  0.5818 -0.7399 -0.5822
  531MPD2    C1 7880   2.060   4.530  13.722  0.2187  0.0258 -0.2740
  531MPD2    C2 7881   1.969   4.500  13.615  0.0809 -0.6419 -0.8583
  531MPD2    C3 7882   1.999   4.547  13.486 -0.6470  0.6493 -0.3925
  531MPD2    C4 7883   2.103   4.629  13.466 -0.6547 -0.2737 -0.1908
  531MPD2    C5 7884   2.189   4.658  13.563  0.7433  0.8639  0.4189
  531MPD2     H 7885   1.887   4.430  13.623 -1.0886  0.3100 -4.4431
  531MPD2    H1 7886   2.125   4.668  13.368 -3.7680 -0.6305 -1.0547
  531MPD2    H2 7887   2.247   4.630  13.762  0.3119  0.9431 -0.8247
  531MPD2    H3 7888   2.269   0.005  13.541  2.5028 -0.6821  1.9093
  531MPD2     N 7889   1.917   4.516  13.374  0.3083  0.2599 -0.2236
  531MPD2    H5 7890   1.936   4.549  13.280 -0.2871  0.7274 -0.1813
  531MPD2    N1 7891   2.042   4.464  13.846  0.2320  0.1009 -0.2573
  531MPD2    H7 7892   1.954   4.414  13.855  0.7474 -0.9710 -1.2315
  532TMC3    C1 7893   2.111   4.346  14.025 -0.6836  0.1746  1.3680
  532TMC3    C2 7894   2.001   4.266  14.005 -0.2931 -0.6523 -0.2513
  532TMC3    C3 7895   2.003   4.134  14.032 -0.3349  0.2373  0.0075
  532TMC3    C4 7896   2.228   4.294  14.071 -0.0892 -0.4244 -0.0888
  532TMC3    C5 7897   2.227   4.165  14.108 -0.8881  0.2518 -0.0283
  532TMC3    C6 7898   2.116   4.081  14.095  0.1287 -0.3490  0.0197
  532TMC3     C 7899   2.128   4.464  13.947 -0.5576 -0.1302  0.4214
  532TMC3     O 7900   2.230   4.532  13.965  0.8115  0.2480 -0.7730
  532TMC3     H 7901   1.903   4.307  13.982 -1.2123 -1.1344  2.8668
  532TMC3    H1 7902   2.311   4.360  14.094 -0.5825  0.1737 -0.0182
  532TMC3    H2 7903   2.140   3.975  14.098  0.0314 -0.4310 -2.1209
  532TMC3    C7 7904   2.356   4.098  14.108  0.3381  0.1207 -0.0795
  532TMC3    C8 7905   1.944   4.034  13.943  0.1096  0.5839  0.1439
  532TMC3    O1 7906   2.361   3.989  14.160  0.5926 -0.0072 -0.4260
  532TMC3    O2 7907   1.984   3.922  13.961 -0.4623 -0.0152  0.3066
  533TMC3    C1 7908   3.405   0.961  14.626 -0.7580  0.2899 -0.4271
  533TMC3    C2 7909   3.530   0.986  14.679  0.1988 -0.4786  0.0295
  533TMC3    C3 7910   3.574   1.118  14.688 -0.3739  0.6074 -0.3686
  533TMC3    C4 7911   3.322   1.071  14.601  0.2813 -0.0263  0.5349
  533TMC3    C5 7912   3.355   1.194  14.647  0.0137  0.1594  0.4625
  533TMC3    C6 7913   3.486   1.223  14.672  0.2390  0.9047 -0.8385
  533TMC3     C 7914   3.346   0.831  14.663  0.2963  0.3082  0.7408
  533TMC3     O 7915   3.410   0.764  14.737 -0.0152 -0.1269  0.1856
  533TMC3     H 7916   3.600   0.906  14.703  0.9062 -0.4469 -1.9626
  533TMC3    H1 7917   3.220   1.058  14.566  0.0166 -0.2637  1.3763
  533TMC3    H2 7918   3.525   1.321  14.694  0.3017  0.3136  1.7243
  533TMC3    C7 7919   3.274   1.217  14.761  0.0075  0.4270 -0.3723
  533TMC3    C8 7920   3.687   1.152  14.779  0.6652 -0.0889 -0.0452
  533TMC3    O1 7921   3.173   1.145  14.769 -0.1619  0.2226 -0.0419
  533TMC3    O2 7922   3.661   1.199  14.890  0.2387 -0.0186 -0.2030
  534MPD2     C 7923   1.782   2.479   1.687  0.4411 -0.1756  0.5367
  534MPD2    C1 7924   1.672   2.545   1.637  0.0962 -0.1574  1.3670
  534MPD2    C2 7925   1.584   2.481   1.550 -0.8513 -0.1194  0.4970
  534MPD2    C3 7926   1.606   2.353   1.515 -0.3286  0.2890 -0.4221
  534MPD2    C4 7927   1.722   2.292   1.555 -0.4071  0.0802  0.0015
  534MPD2    C5 7928   1.806   2.354   1.644  0.4371 -0.4437  0.0672
  534MPD2     H 7929   1.504   2.532   1.497 -0.0646  2.2385  1.6094
  534MPD2    H1 7930   1.743   2.190   1.523  1.5974  0.0881  1.2415
  534MPD2    H2 7931   1.854   2.523   1.755 -0.4786 -0.6602  1.8244
  534MPD2    H3 7932   1.886   2.298   1.690 -0.3864 -1.4483  0.2778
  534MPD2     N 7933   1.517   2.283   1.428  0.5199 -0.7101  0.6873
  534MPD2    H5 7934   1.542   2.187   1.407  1.5710 -0.4466  0.7477
  534MPD2    N1 7935   1.664   2.680   1.672  0.1587 -0.1826  0.2308
  534MPD2    H7 7936   1.723   2.717   1.746  2.0898 -0.3461 -1.2304
  535TMC3    C1 7937   1.334   2.200   1.308 -0.4740  0.8450  0.1961
  535TMC3    C2 7938   1.194   2.183   1.315 -0.5759 -0.3369 -0.1764
  535TMC3    C3 7939   1.146   2.096   1.220  0.2018 -0.3731 -0.8977
  535TMC3    C4 7940   1.416   2.147   1.213 -0.3226  0.7580  0.3657
  535TMC3    C5 7941   1.357   2.087   1.112  0.3767 -0.1783 -0.0729
  535TMC3    C6 7942   1.221   2.057   1.113  0.4155  0.0448 -0.1595
  535TMC3     C 7943   1.390   2.309   1.388  0.1963 -0.4016  0.3103
  535TMC3     O 7944   1.311   2.380   1.443  0.6496 -0.3561  0.2873
  535TMC3     H 7945   1.138   2.230   1.396 -1.3739  0.2472 -1.0710
  535TMC3    H1 7946   1.515   2.189   1.199 -0.0055  0.6966  2.4851
  535TMC3    H2 7947   1.176   1.993   1.038 -1.5418  0.8317  0.3536
  535TMC3    C7 7948   1.452   1.989   1.048  0.9039  0.0999  0.0966
  535TMC3    C8 7949   1.019   2.031   1.235  0.0335 -0.3709 -0.3527
  535TMC3    O1 7950   1.560   1.972   1.100 -0.3893 -0.6572  0.0451
  535TMC3    O2 7951   0.974   1.963   1.144  0.1186 -0.3621 -0.4915
  536MPD2     C 7952   0.264   0.260  16.592  0.5978  0.0230 -0.0945
  536MPD2    C1 7953   0.155   0.193  16.648 -0.3728  0.5296 -0.0826
  536MPD2    C2 7954   0.063   0.137  16.566  0.0164 -0.0491 -0.9760
  536MPD2    C3 7955   0.072   0.153  16.430  0.0401 -0.6682  0.7802
  536MPD2    C4 7956   0.187   0.217  16.377 -0.0813 -0.6807 -0.1432
  536MPD2    C5 7957   0.282   0.269  16.460 -0.3753  0.0069  0.2566
  536MPD2     H 7958   4.693   0.094  16.603  0.5933 -0.9001 -0.5277
  536MPD2    H1 7959   0.188   0.221  16.269 -0.8706  0.3669 -0.1111
  536MPD2    H2 7960   0.338   0.308  16.654  1.3006  1.0747 -1.7677
  536MPD2    H3 7961   0.375   0.311  16.425  0.0959 -1.9482 -0.8252
  536MPD2     N 7962   4.702   0.103  16.338  0.1697 -0.1020  0.1413
  536MPD2    H5 7963   4.711   0.119  16.238  0.0032  1.7818  0.4211
  536MPD2    N1 7964   0.134   0.189  16.791 -0.1129 -0.2013  0.0601
  536MPD2    H7 7965   0.199   0.251  16.838 -1.3827  0.1720  1.3213
  537TMC3    C1 7966   0.060   0.101  16.998 -0.7562  0.2237 -0.0069
  537TMC3    C2 7967   0.100   0.220  17.056 -0.5289  0.1044 -0.7087
  537TMC3    C3 7968   0.096   0.221  17.198 -0.2266  1.1099 -0.8845
  537TMC3    C4 7969   4.722   4.718  17.071  0.5512 -0.1633  0.2642
  537TMC3    C5 7970   4.714   0.012  17.207 -0.3753  0.7153  0.0116
  537TMC3    C6 7971   0.046   0.115  17.272  0.5948  0.5625 -0.0779
  537TMC3     C 7972   0.064   0.091  16.851  1.0265 -0.1987  0.7193
  537TMC3     O 7973   0.015   4.713  16.799 -0.2660 -0.1092  0.0680
  537TMC3     H 7974   0.135   0.302  16.994  1.1487  1.0084  1.4268
  537TMC3    H1 7975   4.661   4.643  17.020  2.8554 -2.0104  0.2125
  537TMC3    H2 7976   0.044   0.128  17.379 -1.6185  1.1076 -0.1795
  537TMC3    C7 7977   4.601   4.676  17.270  0.1568 -0.1124  0.8966
  537TMC3    C8 7978   0.145   0.336  17.265 -0.4392 -0.1860  0.0195
  537TMC3    O1 7979   4.534   0.029  17.338 -0.4559 -0.4250 -0.2704
  537TMC3    O2 7980   0.198   0.314  17.375 -0.5274  0.6471  0.0668
  538TMC3    C1 7981   1.180   3.015  11.018  1.0116 -0.6509  0.5816
  538TMC3    C2 7982   1.238   2.959  10.901  0.1513 -0.3126 -0.3889
  538TMC3    C3 7983   1.202   3.003  10.780 -0.7902  0.3222  0.4517
  538TMC3    C4 7984   1.086   3.115  11.004 -0.3348  0.0295 -0.1155
  538TMC3    C5 7985   1.050   3.152  10.874 -0.1018 -0.1622  0.0567
  538TMC3    C6 7986   1.110   3.103  10.761  0.5360  0.5372  0.0149
  538TMC3     C 7987   1.251   3.014  11.146 -0.0632 -0.3014 -0.0125
  538TMC3     O 7988   1.179   3.055  11.238  0.9291  0.0351  0.2331
  538TMC3     H 7989   1.311   2.879  10.898  3.3403  2.5553  1.4088
  538TMC3    H1 7990   1.033   3.148  11.093 -1.1396  1.0964 -1.0012
  538TMC3    H2 7991   1.073   3.141  10.667 -3.2028 -1.5967  0.5951
  538TMC3    C7 7992   0.937   3.242  10.862  0.2126  0.6964  0.2626
  538TMC3    C8 7993   1.311   2.999  10.680 -0.0246 -0.0406 -0.5967
  538TMC3    O1 7994   0.875   3.242  10.754  0.5997  0.3653  0.3165
  538TMC3    O2 7995   1.366   2.895  10.664  0.6379  0.1639 -0.2194
  539MPD2     C 7996   0.966   2.550  11.984 -0.0124  0.2941 -0.3557
  539MPD2    C1 7997   0.946   2.598  11.856 -0.0641  0.4521 -0.2856
  539MPD2    C2 7998   0.875   2.718  11.830 -0.4973  0.0962 -0.2793
  539MPD2    C3 7999   0.842   2.796  11.943 -0.0375  0.5517  0.1866
  539MPD2    C4 8000   0.859   2.744  12.068  0.5800 -0.0166 -0.5663
  539MPD2    C5 8001   0.906   2.616  12.088 -0.3271 -0.4474  0.3662
  539MPD2     H 8002   0.873   2.749  11.727 -2.7748  0.6082 -0.0690
  539MPD2    H1 8003   0.840   2.803  12.156 -0.9221  0.9797 -1.5571
  539MPD2    H2 8004   1.018   2.458  12.006 -1.5661 -0.3816  0.5047
  539MPD2    H3 8005   0.926   2.584  12.190  0.4179  0.2418  0.4325
  539MPD2     N 8006   0.770   2.919  11.941  0.4255  0.4328 -0.2666
  539MPD2    H5 8007   0.722   2.946  12.026  5.3762  2.9384  1.7091
  539MPD2    N1 8008   1.008   2.536  11.743 -0.5042 -0.3006 -0.4555
  539MPD2    H7 8009   0.992   2.579  11.652  1.9001 -0.3138 -0.8925
  540TMC3    C1 8010   0.647   3.088  11.831  0.0325  0.2294  0.9852
  540TMC3    C2 8011   0.622   3.160  11.717 -0.0872  0.4864  0.1998
  540TMC3    C3 8012   0.520   3.246  11.719  0.2476  0.8859  0.3486
  540TMC3    C4 8013   0.582   3.123  11.947  0.4004  0.0981 -0.2989
  540TMC3    C5 8014   0.477   3.209  11.945  0.4626  1.0849 -0.1043
  540TMC3    C6 8015   0.442   3.273  11.827  0.5462 -0.5513  0.4627
  540TMC3     C 8016   0.750   2.989  11.827  0.2577  0.3190 -0.1661
  540TMC3     O 8017   0.802   2.976  11.717 -0.0936  0.3292  0.5938
  540TMC3     H 8018   0.689   3.159  11.632  0.5769 -0.1192  0.7286
  540TMC3    H1 8019   0.581   3.059  12.034 -1.7202  1.1798  0.4888
  540TMC3    H2 8020   0.354   3.336  11.822 -0.5928 -2.2360 -0.6978
  540TMC3    C7 8021   0.378   3.205  12.052 -0.0965 -0.1011 -0.3643
  540TMC3    C8 8022   0.470   3.296  11.597  0.2697  0.4026 -0.4531
  540TMC3    O1 8023   0.262   3.217  12.021  0.4581  0.0669 -0.1878
  540TMC3    O2 8024   0.398   3.391  11.595  0.6600  0.2242 -0.4198
  541MPD2     C 8025   3.367   4.716  13.662 -0.3615  0.4244  0.1923
  541MPD2    C1 8026   3.421   4.642  13.557 -0.3867 -0.8150  0.1236
  541MPD2    C2 8027   3.396   4.677  13.425  0.4461  0.1246  0.5617
  541MPD2    C3 8028   3.322   0.068  13.394  0.0088 -0.2016 -0.2446
  541MPD2    C4 8029   3.285   0.154  13.495 -0.5382 -0.7938  0.6451
  541MPD2    C5 8030   3.311   0.115  13.624  0.1083 -0.1222  0.4707
  541MPD2     H 8031   3.449   4.626  13.346 -1.0621  2.2581 -1.8457
  541MPD2    H1 8032   3.257   0.255  13.471 -0.7258 -0.9504  0.2051
  541MPD2    H2 8033   3.388   4.698  13.767 -1.0782 -0.8186  0.1198
  541MPD2    H3 8034   3.284   0.185  13.702 -0.2761 -0.1990  0.4094
  541MPD2     N 8035   3.315   0.116  13.261 -0.5805 -0.6687 -0.2190
  541MPD2    H5 8036   3.290   0.214  13.258 -0.2790 -0.5871 -0.0653
  541MPD2    N1 8037   3.509   4.536  13.587  0.9170  0.2649  0.5117
  541MPD2    H7 8038   3.541   4.530  13.683 -2.0283  1.7188  1.5747
  542TMC3    C1 8039   3.369   0.161  13.037 -0.1390  0.7269  0.3970
  542TMC3    C2 8040   3.371   0.108  12.910 -0.5891 -0.6600 -0.0484
  542TMC3    C3 8041   3.438   0.173  12.813 -0.3526  0.3923 -0.6012
  542TMC3    C4 8042   3.426   0.277  13.063 -0.0100 -0.2365  0.5944
  542TMC3    C5 8043   3.497   0.340  12.966  1.1041  0.0407 -0.7145
  542TMC3    C6 8044   3.502   0.297  12.841 -0.4264  0.1248 -0.5064
  542TMC3     C 8045   3.357   0.058  13.146  0.0049  0.2036 -0.1570
  542TMC3     O 8046   3.370   4.664  13.114  0.0157 -1.1887  0.7313
  542TMC3     H 8047   3.326   0.011  12.896 -1.3374 -0.2474 -0.5467
  542TMC3    H1 8048   3.395   0.325  13.155  2.1000  1.4889  0.4049
  542TMC3    H2 8049   3.576   0.331  12.769 -0.8324  0.7027 -0.6497
  542TMC3    C7 8050   3.569   0.456  13.003  0.5854  0.4821 -0.1006
  542TMC3    C8 8051   3.435   0.134  12.675  0.0391 -0.1588  0.7435
  542TMC3    O1 8052   3.596   0.449  13.124  0.1937  0.2927 -0.7203
  542TMC3    O2 8053   3.525   0.177  12.599  0.5551 -0.3396  0.1271
  543TMC3    C1 8054   3.565   1.128  17.413 -0.0508 -0.0380 -0.3217
  543TMC3    C2 8055   3.479   1.044  17.342  0.7723  0.1104  0.0366
  543TMC3    C3 8056   3.377   0.991  17.414 -1.1638  0.1050 -0.3135
  543TMC3    C4 8057   3.548   1.166  17.547  0.0583  0.0492 -0.0763
  543TMC3    C5 8058   3.454   1.094  17.614  0.0031 -0.3213  0.1915
  543TMC3    C6 8059   3.361   1.011  17.551 -0.3157 -0.9684  0.2004
  543TMC3     C 8060   3.662   1.182  17.336 -0.2026  0.4753 -0.0271
  543TMC3     O 8061   3.778   1.190  17.369  0.1012  0.1574  0.3331
  543TMC3     H 8062   3.489   1.014  17.238  1.6170  2.2488 -0.4917
  543TMC3    H1 8063   3.622   1.234  17.587  0.5683 -0.6719  0.2053
  543TMC3    H2 8064   3.284   0.963  17.609 -1.0448  1.7787  1.4966
  543TMC3    C7 8065   3.417   1.126   0.060 -1.1361  0.3475 -0.0126
  543TMC3    C8 8066   3.320   0.868  17.359  0.6676 -0.2836  0.5144
  543TMC3    O1 8067   3.298   1.130   0.077 -0.0852 -0.0786  0.1552
  543TMC3    O2 8068   3.395   0.808  17.280 -0.1685  0.0063  0.5404
  544MPD2     C 8069   2.950   0.528  17.291 -0.3065 -0.2435 -0.1992
  544MPD2    C1 8070   3.089   0.516  17.275 -0.5202 -0.3423 -0.3153
  544MPD2    C2 8071   3.166   0.625  17.311  1.1797 -0.2885 -0.1098
  544MPD2    C3 8072   3.107   0.745  17.345  0.1644 -1.0872  0.1768
  544MPD2    C4 8073   2.971   0.753  17.364 -0.1553 -0.9771  0.0115
  544MPD2    C5 8074   2.896   0.640  17.347 -0.6349 -0.8306 -0.0547
  544MPD2     H 8075   3.274   0.616  17.317  1.2070  0.4494  0.5251
  544MPD2    H1 8076   2.914   0.840  17.395 -0.2799 -0.4844 -1.5565
  544MPD2    H2 8077   2.884   0.447  17.261 -1.6621  0.3926  1.0954
  544MPD2    H3 8078   2.790   0.656  17.360 -0.7517 -2.9243  1.4996
  544MPD2     N 8079   3.183   0.864  17.375 -0.3262  0.0979  0.6138
  544MPD2    H5 8080   3.138   0.942  17.423  0.4377  1.0122 -0.1531
  544MPD2    N1 8081   3.147   0.391  17.240  0.1370 -0.4188 -0.3058
  544MPD2    H7 8082   3.083   0.313  17.239 -0.5484  0.1697 -1.3450
  545TMC3    C1 8083   3.315   0.224  17.206  0.0473 -0.0925 -0.0942
  545TMC3    C2 8084   3.439   0.191  17.167 -0.4448  0.5809 -0.5660
  545TMC3    C3 8085   3.497   0.078  17.221  0.0569  0.0637  0.0445
  545TMC3    C4 8086   3.256   0.145  17.298 -0.1410 -0.2139 -0.0927
  545TMC3    C5 8087   3.307   0.028  17.339 -0.3323  1.0643 -0.7247
  545TMC3    C6 8088   3.434   4.713  17.308 -0.7786  0.1362  0.1655
  545TMC3     C 8089   3.278   0.366  17.207 -0.2611  0.8211 -0.6020
  545TMC3     O 8090   3.357   0.447  17.163 -0.3907  0.0835 -0.3250
  545TMC3     H 8091   3.483   0.239  17.080 -1.2642  2.3021 -0.0210
  545TMC3    H1 8092   3.151   0.164  17.319  0.1488  0.3422  0.8616
  545TMC3    H2 8093   3.476   4.630  17.364  0.9372  1.5465  0.9372
  545TMC3    C7 8094   3.258   4.720  17.474  0.6164  0.2144 -0.0414
  545TMC3    C8 8095   3.638   0.056  17.206  0.1525 -0.1750  0.4218
  545TMC3    O1 8096   3.173   0.070  17.522 -0.7198 -0.3106 -0.0814
  545TMC3    O2 8097   3.682   4.674  17.250 -0.1872 -0.3043  0.2997
  546MPD2     C 8098   0.271   0.554   0.187  0.9996 -0.7384 -0.9662
  546MPD2    C1 8099   0.214   0.646   0.095  0.2045 -0.0830 -0.0285
  546MPD2    C2 8100   0.276   0.767   0.068 -0.3372 -0.1946  0.2590
  546MPD2    C3 8101   0.380   0.813   0.149  0.2059  0.5548 -0.2616
  546MPD2    C4 8102   0.425   0.731   0.253 -0.4275  0.3396 -0.1330
  546MPD2    C5 8103   0.367   0.610   0.271  0.5454  0.5681 -0.0876
  546MPD2     H 8104   0.235   0.829  17.678 -0.9695 -0.7683  0.1441
  546MPD2    H1 8105   0.512   0.753   0.313 -0.9311 -2.2210  1.5181
  546MPD2    H2 8106   0.240   0.451   0.203 -4.1317  1.4464  3.0175
  546MPD2    H3 8107   0.410   0.550   0.350  1.4739  0.1127 -0.9423
  546MPD2     N 8108   0.434   0.942   0.134  0.0845  0.3185 -0.1437
  546MPD2    H5 8109   0.498   0.971   0.207  1.2527 -0.6357 -0.7928
  546MPD2    N1 8110   0.090   0.602   0.039  0.0036 -0.5548  0.9143
  546MPD2    H7 8111   0.046   0.515   0.068  1.3719 -1.7072 -0.4791
  547TMC3    C1 8112   4.599   0.624  17.642  0.0815 -0.8868  0.2074
  547TMC3    C2 8113   4.550   0.602  17.519 -0.5022  0.2176 -0.0899
  547TMC3    C3 8114   4.456   0.508  17.496 -0.1454  0.5275  0.3602
  547TMC3    C4 8115   4.553   0.547   0.050 -0.1421 -0.0195 -0.2910
  547TMC3    C5 8116   4.466   0.437   0.025  0.3339  0.3983  0.2622
  547TMC3    C6 8117   4.414   0.421  17.592  0.2249  0.2371 -0.3392
  547TMC3     C 8118   0.009   0.683  17.658  0.1410  0.1616 -0.4593
  547TMC3     O 8119   0.028   0.802  17.621 -0.3445  0.2265  0.2927
  547TMC3     H 8120   4.602   0.648  17.435  3.9251  0.2334  2.6371
  547TMC3    H1 8121   4.589   0.555   0.152 -0.9001 -0.2164 -0.0007
  547TMC3    H2 8122   4.346   0.342  17.564 -1.0655  1.1603  0.2043
  547TMC3    C7 8123   4.401   0.371   0.143  0.7919  0.0450 -0.0359
  547TMC3    C8 8124   4.464   0.457  17.358  0.2534 -0.0339 -0.5659
  547TMC3    O1 8125   4.409   0.430   0.252  0.3262 -0.4415  0.2956
  547TMC3    O2 8126   4.483   0.339  17.342 -0.1963 -0.6129 -0.2480
  548MPD2     C 8127   0.150   1.450  13.291  0.0245 -0.2275 -0.0223
  548MPD2    C1 8128   0.060   1.461  13.194 -0.0952  0.4234  0.1803
  548MPD2    C2 8129   0.094   1.439  13.063 -0.6581 -0.0818  0.0675
  548MPD2    C3 8130   0.226   1.401  13.034  0.0484  0.1038  0.2892
  548MPD2    C4 8131   0.317   1.391  13.137  0.0777  0.8924 -0.2101
  548MPD2    C5 8132   0.280   1.423  13.263 -0.1860  0.0098  0.2218
  548MPD2     H 8133   0.020   1.436  12.984  0.2137 -1.6170 -0.6985
  548MPD2    H1 8134   0.417   1.356  13.115  0.6630  2.7679 -0.5766
  548MPD2    H2 8135   0.111   1.463  13.391  2.1615 -0.4569  0.8220
  548MPD2    H3 8136   0.354   1.430  13.343 -0.2363  2.4087  0.0354
  548MPD2     N 8137   0.258   1.361  12.902 -0.7829  0.0901 -0.7168
  548MPD2    H5 8138   0.175   1.346  12.844  0.8206  2.7601 -3.7616
  548MPD2    N1 8139   4.650   1.498  13.234  0.0074 -0.0787 -0.2356
  548MPD2    H7 8140   4.626   1.503  13.332 -2.4933  3.1056 -1.0016
  549TMC3    C1 8141   4.419   1.552  13.192 -0.0722 -0.1253  0.9951
  549TMC3    C2 8142   4.337   1.595  13.094 -0.2745 -0.1824 -0.6387
  549TMC3    C3 8143   4.214   1.537  13.094 -0.7518  0.1807 -0.7509
  549TMC3    C4 8144   4.382   1.467  13.292 -0.4674  0.2283  0.0417
  549TMC3    C5 8145   4.259   1.421  13.293  0.1135  0.3034 -0.5535
  549TMC3    C6 8146   4.171   1.452  13.190 -0.0896  0.0239  0.2400
  549TMC3     C 8147   4.551   1.541  13.145  0.1286 -0.7185 -1.2687
  549TMC3     O 8148   4.565   1.549  13.023 -0.1719 -0.4349 -0.1907
  549TMC3     H 8149   4.365   1.671  13.023 -0.3277  0.6021  0.1820
  549TMC3    H1 8150   4.455   1.425  13.361 -0.0874  1.4227  0.3547
  549TMC3    H2 8151   4.075   1.405  13.176 -0.1602  0.4657 -0.7612
  549TMC3    C7 8152   4.229   1.314  13.383  0.0054 -0.4617 -0.4319
  549TMC3    C8 8153   4.120   1.576  12.987 -0.0422  0.2476  0.8790
  549TMC3    O1 8154   4.270   1.312  13.499 -0.1612 -0.1618 -0.2577
  549TMC3    O2 8155   4.003   1.564  13.017  0.6263  0.3058  0.0599
  550TMC3    C1 8156   3.169   4.007  12.282 -0.1583 -0.4250  0.4628
  550TMC3    C2 8157   3.161   4.068  12.404 -0.0734  0.7309  0.2206
  550TMC3    C3 8158   3.036   4.074  12.466 -0.5368 -0.0615 -0.1839
  550TMC3    C4 8159   3.059   3.943  12.231  0.6384  0.1618 -0.4369
  550TMC3    C5 8160   2.935   3.951  12.292 -0.0525 -0.2437 -0.0080
  550TMC3    C6 8161   2.919   4.016  12.413 -0.1001 -0.3123 -0.6841
  550TMC3     C 8162   3.293   4.024  12.209  0.3036  0.1205  0.5329
  550TMC3     O 8163   3.386   4.069  12.272 -0.1201  0.2618 -0.0861
  550TMC3     H 8164   3.244   4.125  12.444  0.1548  1.1527 -0.8573
  550TMC3    H1 8165   3.060   3.898  12.132 -2.4779 -0.6540 -0.1135
  550TMC3    H2 8166   2.823   4.027  12.461 -0.1696  0.6583 -1.0539
  550TMC3    C7 8167   2.808   3.914  12.231 -0.6977  0.1093 -0.4908
  550TMC3    C8 8168   2.997   4.197  12.534  0.0356  0.4076  0.5741
  550TMC3    O1 8169   2.716   3.879  12.305 -0.2319  0.1018 -0.6447
  550TMC3    O2 8170   2.901   4.256  12.491  0.1041 -0.2876  0.4737
  551TMC3    C1 8171   1.293   2.588  13.524 -0.6726 -0.1924  0.1693
  551TMC3    C2 8172   1.322   2.661  13.408  0.2925 -0.4995 -0.2961
  551TMC3    C3 8173   1.359   2.788  13.433 -0.7208 -0.0003 -0.9213
  551TMC3    C4 8174   1.258   2.642  13.650 -0.8015  0.6953 -0.0442
  551TMC3    C5 8175   1.298   2.772  13.661 -0.1104  0.0731  0.1323
  551TMC3    C6 8176   1.362   2.845  13.559 -0.6805 -0.3185 -0.4337
  551TMC3     C 8177   1.244   2.454  13.481  0.0072 -0.0563  1.0647
  551TMC3     O 8178   1.266   2.421  13.365 -0.6655 -0.0693  0.5166
  551TMC3     H 8179   1.335   2.621  13.309  0.0779  0.5159 -0.7387
  551TMC3    H1 8180   1.207   2.587  13.728  0.7938  0.9491  1.1851
  551TMC3    H2 8181   1.397   2.947  13.556 -1.2863 -0.1721 -2.3543
  551TMC3    C7 8182   1.253   2.846  13.780 -0.8830 -0.4693 -0.9641
  551TMC3    C8 8183   1.459   2.836  13.339  0.3558 -0.4386  0.5295
  551TMC3    O1 8184   1.196   2.777  13.866  0.1046  0.0846 -0.7037
  551TMC3    O2 8185   1.566   2.874  13.387 -0.1083 -0.0443  0.0261
  552MPD2     C 8186   2.164   3.589  14.442 -0.5378  0.0999  0.3819
  552MPD2    C1 8187   2.251   3.684  14.398  1.0441  0.0518  0.6051
  552MPD2    C2 8188   2.362   3.716  14.481  0.0852  0.4935 -0.4895
  552MPD2    C3 8189   2.378   3.654  14.610  0.2650 -0.4577  0.7450
  552MPD2    C4 8190   2.272   3.572  14.656 -0.4082 -0.3910 -0.2387
  552MPD2    C5 8191   2.175   3.540  14.569  0.5934  0.1257  0.2837
  552MPD2     H 8192   2.443   3.774  14.438 -0.9963  3.4326  1.4190
  552MPD2    H1 8193   2.264   3.533  14.756  0.2276 -2.6761 -1.0733
  552MPD2    H2 8194   2.085   3.557  14.374  0.9025 -0.6187 -0.9474
  552MPD2    H3 8195   2.097   3.477  14.610  0.3764 -0.1353 -0.5358
  552MPD2     N 8196   2.500   3.664  14.685  0.0760 -0.5207  0.1533
  552MPD2    H5 8197   2.517   3.596  14.759 -1.2820  0.4738  1.3796
  552MPD2    N1 8198   2.271   3.727  14.260 -0.3320  0.0751 -0.1259
  552MPD2    H7 8199   2.350   3.790  14.251 -0.3266 -0.3274 -2.9036
  553TMC3    C1 8200   2.291   3.718  14.028  0.0266 -0.0920  0.0951
  553TMC3    C2 8201   2.224   3.699  13.909  0.4485 -0.2538 -0.0388
  553TMC3    C3 8202   2.299   3.667  13.805 -0.1160 -0.1703  0.1128
  553TMC3    C4 8203   2.422   3.696  14.039 -0.2704  0.5156 -0.2379
  553TMC3    C5 8204   2.489   3.651  13.932 -0.6325  0.2734 -0.4070
  553TMC3    C6 8205   2.431   3.636  13.810 -0.1399  0.7818  0.2135
  553TMC3     C 8206   2.209   3.680  14.147 -0.7964  0.7134 -0.2408
  553TMC3     O 8207   2.110   3.612  14.130 -0.2001  0.2412  0.2606
  553TMC3     H 8208   2.116   3.691  13.903  0.4463 -0.1704 -0.1196
  553TMC3    H1 8209   2.476   3.718  14.131  2.5907  0.6976 -1.9510
  553TMC3    H2 8210   2.485   3.608  13.721  1.0433  0.3921  1.0465
  553TMC3    C7 8211   2.634   3.633  13.946  0.7042 -0.7069 -0.2575
  553TMC3    C8 8212   2.279   3.753  13.686 -0.8358 -0.6229  0.1003
  553TMC3    O1 8213   2.671   3.643  14.063 -0.5320 -0.2537 -0.0652
  553TMC3    O2 8214   2.346   3.718  13.591  0.9818 -0.0075 -0.0119
  554TMC3    C1 8215   4.275   3.136  11.911  0.0852 -0.1499  0.2716
  554TMC3    C2 8216   4.182   3.080  11.827  0.2442  0.0229  0.2421
  554TMC3    C3 8217   4.165   3.140  11.705 -0.0460 -0.1927  0.0786
  554TMC3    C4 8218   4.346   3.255  11.880  0.5654 -0.1520  0.3757
  554TMC3    C5 8219   4.320   3.317  11.758 -0.5883  0.3962 -0.6412
  554TMC3    C6 8220   4.240   3.253  11.669  0.6011  0.6678 -0.4165
  554TMC3     C 8221   4.258   3.104  12.051 -0.3827  0.2373  0.5838
  554TMC3     O 8222   4.152   3.052  12.090 -0.6112 -0.4119  0.5411
  554TMC3     H 8223   4.122   2.998  11.865  1.1569 -1.1653 -0.8788
  554TMC3    H1 8224   4.404   3.314  11.950  0.3313  0.4640  0.0540
  554TMC3    H2 8225   4.213   3.300  11.576  0.3717  0.3939 -0.4907
  554TMC3    C7 8226   4.419   3.416  11.712  0.3132  0.1711 -0.3564
  554TMC3    C8 8227   4.122   3.058  11.592 -0.1457  0.2967 -0.0961
  554TMC3    O1 8228   4.479   3.476  11.800 -0.0884 -0.4915 -0.3841
  554TMC3    O2 8229   4.139   3.101  11.481  0.4351 -0.2953  0.8218
  555TMC3    C1 8230   3.639   2.406  14.708  0.1736  0.1299  0.0101
  555TMC3    C2 8231   3.669   2.518  14.780  0.2926 -0.6606 -0.3542
  555TMC3    C3 8232   3.717   2.498  14.913  0.4939 -0.7014 -0.9595
  555TMC3    C4 8233   3.664   2.278  14.747 -0.6307  0.6386 -0.1488
  555TMC3    C5 8234   3.718   2.269  14.869 -0.2178 -0.2811  0.3268
  555TMC3    C6 8235   3.744   2.369  14.956  0.3234  1.1327 -0.6706
  555TMC3     C 8236   3.553   2.424  14.589 -0.6674 -0.2837 -0.0575
  555TMC3     O 8237   3.559   2.334  14.504 -0.1869  0.7689 -0.5588
  555TMC3     H 8238   3.651   2.620  14.748 -2.0017 -0.4461  1.6538
  555TMC3    H1 8239   3.620   2.202  14.683 -0.1476  0.5114 -0.3328
  555TMC3    H2 8240   3.796   2.360  15.050 -1.0392  0.1474 -0.0138
  555TMC3    C7 8241   3.725   2.139  14.938  0.4758 -0.3266  0.1038
  555TMC3    C8 8242   3.738   2.601  15.008 -0.0263  0.3974 -0.9481
  555TMC3    O1 8243   3.749   2.144  15.057 -0.0902 -0.6968  0.3937
  555TMC3    O2 8244   3.650   2.678  15.023  0.0994 -0.5473 -0.3426
  556MPD2     C 8245   1.242   4.061  11.165 -0.0906 -0.2038  1.0266
  556MPD2    C1 8246   1.352   3.992  11.226 -0.0303  0.2502  1.0261
  556MPD2    C2 8247   1.457   3.953  11.149  0.6039  0.0234 -0.2793
  556MPD2    C3 8248   1.453   3.967  11.010 -0.5996 -0.1148  0.2074
  556MPD2    C4 8249   1.345   4.030  10.948 -0.2922 -0.4331  0.8931
  556MPD2    C5 8250   1.240   4.064  11.028 -0.5137  0.0224  0.6261
  556MPD2     H 8251   1.540   3.906  11.201 -2.1105 -2.1894  2.0610
  556MPD2    H1 8252   1.335   4.036  10.840 -0.2997  3.2821  1.0902
  556MPD2    H2 8253   1.165   4.102  11.229 -0.9731 -2.1873  1.2525
  556MPD2    H3 8254   1.164   4.124  10.979 -1.4947 -2.1265 -0.4981
  556MPD2     N 8255   1.569   3.919  10.940  0.2465 -0.2570 -0.0783
  556MPD2    H5 8256   1.636   3.866  10.994 -0.6903 -0.2270  1.1165
  556MPD2    N1 8257   1.369   3.975  11.367 -0.0191 -0.6322 -0.3425
  556MPD2    H7 8258   1.460   3.946  11.402  0.0635  1.3539  1.0525
  557TMC3    C1 8259   1.722   3.884  10.761  0.1454 -0.5502 -0.3913
  557TMC3    C2 8260   1.749   3.923  10.631 -0.7780  0.3956  0.0262
  557TMC3    C3 8261   1.769   3.824  10.540  0.6993 -0.1888 -0.1133
  557TMC3    C4 8262   1.737   3.750  10.803  0.1842 -0.0952 -0.5963
  557TMC3    C5 8263   1.750   3.655  10.702 -0.0151 -0.3564 -0.5220
  557TMC3    C6 8264   1.758   3.691  10.577  0.6230  0.0621 -0.6162
  557TMC3     C 8265   1.603   3.948  10.810  0.5543  0.7057  0.0397
  557TMC3     O 8266   1.540   4.030  10.742 -0.0959  0.2600  0.1231
  557TMC3     H 8267   1.750   4.026  10.599 -0.3363  1.0529  2.1046
  557TMC3    H1 8268   1.701   3.711  10.897  0.3641 -0.3178 -0.6202
  557TMC3    H2 8269   1.762   3.617  10.499  0.1906  0.9103 -1.4502
  557TMC3    C7 8270   1.691   3.521  10.715  0.1836 -0.4010 -0.1930
  557TMC3    C8 8271   1.816   3.867  10.412  0.1018  0.4466 -0.5287
  557TMC3    O1 8272   1.591   3.511  10.787  0.4672  0.6625  0.6206
  557TMC3    O2 8273   1.877   3.974  10.411 -0.0346 -0.4450 -0.9857
  558TMC3    C1 8274   4.641   1.416   9.905  0.1558  0.5257 -0.4430
  558TMC3    C2 8275   4.543   1.488   9.965 -0.7058  0.2521  0.3864
  558TMC3    C3 8276   4.419   1.438   9.996 -0.3119  0.1634 -0.6575
  558TMC3    C4 8277   4.616   1.291   9.867  0.0967  0.4088  0.5234
  558TMC3    C5 8278   4.487   1.242   9.878 -0.3151 -0.3807 -0.1416
  558TMC3    C6 8279   4.388   1.312   9.951 -0.2197  0.5074 -0.3582
  558TMC3     C 8280   0.056   1.464   9.930 -0.1724  0.1604 -0.5141
  558TMC3     O 8281   0.081   1.583   9.945 -0.2602  0.2730  0.1042
  558TMC3     H 8282   4.568   1.588   9.998  2.0779 -0.7694  1.3480
  558TMC3    H1 8283   4.688   1.226   9.819 -1.2377 -0.4879 -0.2640
  558TMC3    H2 8284   4.288   1.275   9.970  0.9033 -1.7312  1.1462
  558TMC3    C7 8285   4.451   1.135   9.781  0.1673  0.0723 -0.4593
  558TMC3    C8 8286   4.342   1.499  10.099  0.3476  0.0277  0.5912
  558TMC3    O1 8287   4.541   1.071   9.728 -0.0749 -0.0332 -0.7412
  558TMC3    O2 8288   4.234   1.444  10.117 -0.6599 -0.5148  0.2529
  559MPD2     C 8289   4.464   2.273  10.665  0.2462  0.0251  0.8947
  559MPD2    C1 8290   4.391   2.306  10.775  0.0167  0.1223  0.5698
  559MPD2    C2 8291   4.446   2.371  10.881 -0.3521  0.3701 -0.4361
  559MPD2    C3 8292   4.575   2.418  10.876 -0.9509 -0.4349 -0.8529
  559MPD2    C4 8293   4.642   2.398  10.764 -0.1507  0.4732 -0.0320
  559MPD2    C5 8294   4.594   2.321  10.661 -0.0647  0.4650  0.6574
  559MPD2     H 8295   4.385   2.390  10.968  1.7991  0.3072  1.0676
  559MPD2    H1 8296   0.024   2.427  10.750 -0.1990 -0.3265 -2.0340
  559MPD2    H2 8297   4.433   2.196  10.595  1.3394  0.0500  0.3973
  559MPD2    H3 8298   4.655   2.288  10.578  2.6536  1.9622  2.0926
  559MPD2     N 8299   4.623   2.495  10.981  0.7598 -0.7245  0.1407
  559MPD2    H5 8300   4.558   2.514  11.057  2.0808 -0.6207  1.2295
  559MPD2    N1 8301   4.271   2.237  10.789 -0.1736  0.5632  0.2829
  559MPD2    H7 8302   4.247   2.184  10.706 -0.0043 -2.4167  2.1632
  560TMC3    C1 8303   0.008   2.651  11.114 -0.4127 -0.2876 -0.1847
  560TMC3    C2 8304   4.604   2.669  11.161 -0.0959  0.2935  0.4604
  560TMC3    C3 8305   4.581   2.628  11.292  0.1698 -0.1577  0.7678
  560TMC3    C4 8306   0.105   2.614  11.195  0.2152 -0.6287 -0.0469
  560TMC3    C5 8307   0.078   2.589  11.326  0.1310  0.4263  0.4163
  560TMC3    C6 8308   4.677   2.600  11.382  0.1589  0.6680 -0.6743
  560TMC3     C 8309   0.014   2.566  10.991  0.6560 -0.0534 -0.0020
  560TMC3     O 8310   0.113   2.565  10.924 -0.7122  0.2035  0.1075
  560TMC3     H 8311   4.517   2.703  11.105  0.8416  1.6896 -0.1509
  560TMC3    H1 8312   0.200   2.585  11.150 -0.4361 -1.7237 -0.7298
  560TMC3    H2 8313   4.655   2.582  11.486  1.4699  1.3741 -0.2697
  560TMC3    C7 8314   0.190   2.546  11.421  0.0687  0.4823  0.7824
  560TMC3    C8 8315   4.468   2.533  11.294  1.4731 -0.0705  0.6642
  560TMC3    O1 8316   0.151   2.481  11.517 -0.0562 -0.0023  0.7434
  560TMC3    O2 8317   4.417   2.515  11.182  0.2237 -0.4895 -0.1902
  561TMC3    C1 8318   2.347   0.966  10.990  0.3815 -0.6424  0.0720
  561TMC3    C2 8319   2.250   0.896  11.052  0.6536  0.3463 -0.1494
  561TMC3    C3 8320   2.163   0.970  11.135 -0.3795 -0.2398  0.4065
  561TMC3    C4 8321   2.358   1.103  10.998 -0.4627 -0.1101 -0.1772
  561TMC3    C5 8322   2.278   1.168  11.082 -0.5672 -0.3995  0.2905
  561TMC3    C6 8323   2.178   1.106  11.145  0.4514  0.1517  0.3369
  561TMC3     C 8324   2.451   0.900  10.914 -0.2146  0.3493 -0.6000
  561TMC3     O 8325   2.435   0.783  10.890 -0.1534 -0.2669 -0.9125
  561TMC3     H 8326   2.234   0.789  11.050  1.8425  0.1860 -0.6733
  561TMC3    H1 8327   2.428   1.159  10.937 -0.4298  0.4582  0.3862
  561TMC3    H2 8328   2.116   1.168  11.208 -1.2745 -2.0860  0.8268
  561TMC3    C7 8329   2.280   1.311  11.088  0.0807  0.0202  0.9311
  561TMC3    C8 8330   2.141   0.915  11.264 -0.4623 -0.0849 -0.3866
  561TMC3    O1 8331   2.188   1.351  11.156 -0.5288 -0.1039  1.0553
  561TMC3    O2 8332   2.224   0.833  11.306  0.1487  0.1518 -0.5148
  562TMC3    C1 8333   3.489   3.065  16.682  0.1824  0.1816  0.0852
  562TMC3    C2 8334   3.378   3.148  16.705 -0.2783  0.0057 -0.5442
  562TMC3    C3 8335   3.299   3.171  16.591  0.7687 -0.3691 -0.4437
  562TMC3    C4 8336   3.510   2.999  16.562 -0.5285 -0.0596  0.4762
  562TMC3    C5 8337   3.430   3.028  16.458  0.4489 -0.3122 -1.1756
  562TMC3    C6 8338   3.326   3.118  16.469  0.1264 -0.1677  0.1726
  562TMC3     C 8339   3.593   3.050  16.780 -0.3009 -0.1977  0.1448
  562TMC3     O 8340   3.704   3.015  16.746  0.4014  0.4079 -0.4465
  562TMC3     H 8341   3.361   3.200  16.798 -0.9263  2.7280 -2.1917
  562TMC3    H1 8342   3.606   2.951  16.546 -0.5613 -0.3672  1.1875
  562TMC3    H2 8343   3.258   3.129  16.385 -1.0431 -0.4362  1.0774
  562TMC3    C7 8344   3.426   2.951  16.340  0.3160 -0.9868 -0.9352
  562TMC3    C8 8345   3.201   3.279  16.600  0.6307 -0.2135 -0.1713
  562TMC3    O1 8346   3.367   3.005  16.250 -0.7592 -0.4497 -0.5225
  562TMC3    O2 8347   3.173   3.314  16.714  0.2124  0.0138  0.3481
  563MPD2     C 8348   1.375   4.483  16.189  0.2561  0.1750  0.1568
  563MPD2    C1 8349   1.388   4.395  16.303 -0.0488 -0.1925  0.2382
  563MPD2    C2 8350   1.492   4.306  16.314 -0.3237 -0.8673 -0.0379
  563MPD2    C3 8351   1.582   4.294  16.211  0.3259  0.2774 -0.0686
  563MPD2    C4 8352   1.563   4.370  16.094  0.6206  0.4187 -0.1547
  563MPD2    C5 8353   1.468   4.469  16.090 -0.0960 -0.8055  0.4826
  563MPD2     H 8354   1.505   4.244  16.403 -4.0207 -0.4839  0.7345
  563MPD2    H1 8355   1.621   4.351  16.005 -0.3441 -3.3999  0.0506
  563MPD2    H2 8356   1.293   4.553  16.188 -0.3787 -0.5863 -0.9800
  563MPD2    H3 8357   1.471   4.523  15.995 -0.5559  0.2881  1.0920
  563MPD2     N 8358   1.680   4.187  16.220  0.1174  0.0410  0.0961
  563MPD2    H5 8359   1.687   4.127  16.302  2.9121  1.2319  0.7325
  563MPD2    N1 8360   1.286   4.412  16.399  0.3405  0.6379 -0.2823
  563MPD2    H7 8361   1.227   4.492  16.376 -0.7428  0.6243  2.4555
  564TMC3    C1 8362   1.153   4.380  16.584  0.6656  0.8660 -0.1577
  564TMC3    C2 8363   1.028   4.367  16.531 -0.4786  0.8985  0.0212
  564TMC3    C3 8364   0.931   4.336  16.617 -0.0221 -0.7944 -0.2993
  564TMC3    C4 8365   1.180   4.357  16.717  0.2511  0.5446  0.1431
  564TMC3    C5 8366   1.081   4.332  16.809  0.0374  0.3541  0.0617
  564TMC3    C6 8367   0.956   4.308  16.749  0.4484 -0.2372 -0.3022
  564TMC3     C 8368   1.262   4.335  16.510 -0.3737  0.6943  0.4536
  564TMC3     O 8369   1.325   4.239  16.546 -0.0602 -0.2097  0.0126
  564TMC3     H 8370   1.004   4.395  16.429 -1.2203 -1.9093 -0.5611
  564TMC3    H1 8371   1.281   4.340  16.751  0.4425 -3.0520 -2.2675
  564TMC3    H2 8372   0.886   4.255  16.813  0.9416 -1.2841 -0.6220
  564TMC3    C7 8373   1.116   4.213  16.884 -0.0088  0.1952 -0.1966
  564TMC3    C8 8374   0.846   4.228  16.562 -0.1864 -0.0467 -0.0718
  564TMC3    O1 8375   1.207   4.228  16.962 -0.1309  0.4398 -0.4332
  564TMC3    O2 8376   0.847   4.121  16.626 -0.3884 -0.3153 -0.3907
  565TMC3    C1 8377   1.453   1.008  10.383 -0.4502 -0.7195 -0.6022
  565TMC3    C2 8378   1.538   0.942  10.474 -0.5732 -0.0623 -0.0921
  565TMC3    C3 8379   1.473   0.880  10.574 -0.5246 -0.2509 -0.0265
  565TMC3    C4 8380   1.322   0.988  10.379 -0.2942  0.2864 -0.1868
  565TMC3    C5 8381   1.262   0.908  10.471  0.0004  0.8715  0.2543
  565TMC3    C6 8382   1.336   0.862  10.577  0.5401  0.6242 -0.3438
  565TMC3     C 8383   1.510   1.080  10.266  0.8264 -0.3935 -0.0467
  565TMC3     O 8384   1.433   1.134  10.188  0.4051  0.2670  0.2947
  565TMC3     H 8385   1.642   0.967  10.492 -0.4493  1.3655 -2.7782
  565TMC3    H1 8386   1.261   1.024  10.297 -1.0225  0.0161  0.2375
  565TMC3    H2 8387   1.300   0.789  10.648  3.6138 -0.8467 -0.2887
  565TMC3    C7 8388   1.130   0.856  10.441 -0.4856 -0.3692 -0.6757
  565TMC3    C8 8389   1.538   0.783  10.654  0.0501 -0.2635  0.4554
  565TMC3    O1 8390   1.098   0.859  10.324 -0.0070 -0.0945  0.3778
  565TMC3    O2 8391   1.480   0.765  10.762  0.0182  0.0308 -0.4110
  566MPD2     C 8392   2.609   2.507  14.717 -0.0655  0.4716  0.2874
  566MPD2    C1 8393   2.628   2.576  14.603  0.6707  0.0695 -0.2497
  566MPD2    C2 8394   2.522   2.583  14.515 -0.4288 -0.0166 -0.0933
  566MPD2    C3 8395   2.406   2.517  14.537  0.7723  0.1559 -0.1742
  566MPD2    C4 8396   2.385   2.463  14.659  0.3594 -0.2823  0.2789
  566MPD2    C5 8397   2.485   2.459  14.755 -0.3831  0.8539  0.3810
  566MPD2     H 8398   2.532   2.627  14.417  0.4285  2.8789  1.2923
  566MPD2    H1 8399   2.293   2.410  14.678  0.8976 -0.9628  0.9577
  566MPD2    H2 8400   2.683   2.497  14.796 -1.2578 -1.5251  1.1560
  566MPD2    H3 8401   2.462   2.430  14.858 -0.6693 -2.8598 -0.7403
  566MPD2     N 8402   2.294   2.519  14.445  0.1606 -0.2530 -0.1205
  566MPD2    H5 8403   2.209   2.467  14.468 -1.0576  1.2852 -1.1133
  566MPD2    N1 8404   2.759   2.623  14.574  0.1185  0.2389 -0.2936
  566MPD2    H7 8405   2.826   2.609  14.649 -1.1338  0.9721  0.9577
  567TMC3    C1 8406   2.938   2.653  14.430 -0.4028 -0.4032  0.8068
  567TMC3    C2 8407   2.963   2.662  14.295  0.0387 -0.3298 -0.3289
  567TMC3    C3 8408   3.056   2.575  14.249 -0.3515  1.0238 -0.1699
  567TMC3    C4 8409   3.007   2.575  14.519  0.2374  0.5217  0.7106
  567TMC3    C5 8410   3.103   2.494  14.462  0.0347  0.8645 -0.0846
  567TMC3    C6 8411   3.126   2.489  14.329  0.1017 -0.1253 -0.6764
  567TMC3     C 8412   2.791   2.672  14.450  0.2837  0.0255  0.8599
  567TMC3     O 8413   2.718   2.695  14.352  0.4800 -0.4026  0.6684
  567TMC3     H 8414   2.895   2.711  14.225 -2.1578  0.0377  2.0371
  567TMC3    H1 8415   2.979   2.559  14.623  0.2288 -0.7514  0.5084
  567TMC3    H2 8416   3.210   2.430  14.295 -0.3845  0.2354 -2.4575
  567TMC3    C7 8417   3.157   2.386  14.544  0.3403  0.1093 -0.3395
  567TMC3    C8 8418   3.071   2.560  14.102 -1.2587  0.4963 -0.2653
  567TMC3    O1 8419   3.194   2.281  14.487  0.0806  0.3004  0.1894
  567TMC3    O2 8420   3.048   2.658  14.038  0.2930 -0.3432  0.7751
  568MPD2     C 8421   0.911   2.870  16.352  0.1311  0.0088 -0.0895
  568MPD2    C1 8422   0.807   2.863  16.446  0.7990 -0.3316 -0.1957
  568MPD2    C2 8423   0.718   2.963  16.466 -0.1326  0.5492  0.1760
  568MPD2    C3 8424   0.729   3.063  16.369  0.1089  0.7445 -0.0274
  568MPD2    C4 8425   0.824   3.069  16.267  0.2121 -1.1644 -0.0009
  568MPD2    C5 8426   0.916   2.970  16.259  0.8516 -0.2084  0.1705
  568MPD2     H 8427   0.651   2.968  16.552 -0.3546 -0.0701  0.0435
  568MPD2    H1 8428   0.827   3.136  16.181 -1.2369 -1.0300  0.0584
  568MPD2    H2 8429   0.983   2.790  16.339  0.9749  0.8371 -0.5323
  568MPD2    H3 8430   0.985   2.968  16.176  0.1169  0.1042 -0.4439
  568MPD2     N 8431   0.635   3.167  16.388  0.6323  0.2151 -0.1686
  568MPD2    H5 8432   0.562   3.158  16.458  2.2225 -1.2619  1.3066
  568MPD2    N1 8433   0.807   2.744  16.520 -0.2560  0.1398  0.2661
  568MPD2    H7 8434   0.878   2.677  16.493 -0.1392  0.2352  0.3374
  569TMC3    C1 8435   0.562   3.384  16.396  0.7064 -0.1041  0.5821
  569TMC3    C2 8436   0.581   3.390  16.537  1.1866  0.8283  0.1648
  569TMC3    C3 8437   0.591   3.505  16.605  0.0673  0.0192 -0.0537
  569TMC3    C4 8438   0.546   3.504  16.335 -0.9128 -0.6502  0.7368
  569TMC3    C5 8439   0.538   3.618  16.407  0.9462 -0.0884  0.1038
  569TMC3    C6 8440   0.553   3.622  16.546  1.0383 -0.6065  0.5501
  569TMC3     C 8441   0.637   3.290  16.323  0.9587 -0.1129 -0.2289
  569TMC3     O 8442   0.682   3.327  16.213  0.3081  0.2451 -0.5471
  569TMC3     H 8443   0.603   3.301  16.594 -1.2162 -0.0270 -0.2321
  569TMC3    H1 8444   0.542   3.511  16.226  0.0475 -0.1810  0.7244
  569TMC3    H2 8445   0.546   3.713  16.604 -1.4464  0.3273 -1.2159
  569TMC3    C7 8446   0.518   3.744  16.331  0.3647 -0.4960 -0.1773
  569TMC3    C8 8447   0.608   3.495  16.751  0.0470  0.7074 -0.0389
  569TMC3    O1 8448   0.433   3.750  16.239  0.1682  0.0153  0.3374
  569TMC3    O2 8449   0.550   3.407  16.810 -0.6616  0.6013  0.6073
  570TMC3    C1 8450   0.316   1.654  16.810 -0.1851  0.0919  0.7450
  570TMC3    C2 8451   0.357   1.662  16.677  0.0888  0.1067  0.4955
  570TMC3    C3 8452   0.325   1.774  16.603 -1.1382 -0.2048 -0.6233
  570TMC3    C4 8453   0.219   1.730  16.863  0.2550  0.3340 -0.2256
  570TMC3    C5 8454   0.187   1.840  16.780  0.4531 -0.2971 -0.0755
  570TMC3    C6 8455   0.238   1.863  16.653 -0.4632 -0.5828  0.3248
  570TMC3     C 8456   0.334   1.518  16.856 -0.3889 -0.0452  0.6167
  570TMC3     O 8457   0.358   1.427  16.780  0.0225 -0.3592  0.5503
  570TMC3     H 8458   0.427   1.583  16.656  0.3976  0.3377  0.6466
  570TMC3    H1 8459   0.157   1.704  16.948 -0.5444  2.6155 -0.1202
  570TMC3    H2 8460   0.191   1.929  16.581  2.3822  1.8408  0.6928
  570TMC3    C7 8461   0.094   1.924  16.850  0.2237 -0.0980 -0.6997
  570TMC3    C8 8462   0.391   1.802  16.475 -0.0197 -0.0027  0.0506
  570TMC3    O1 8463   0.108   1.933  16.970  0.1544 -0.5121  0.6578
  570TMC3    O2 8464   0.365   1.898  16.412 -0.3357 -0.3763  0.0501
  571MPD2     C 8465   2.472   3.101   0.621  0.1542  0.6418  0.1099
  571MPD2    C1 8466   2.436   3.115   0.757 -0.5493  0.5051  0.0331
  571MPD2    C2 8467   2.495   3.220   0.826 -0.2290 -0.8143 -0.3414
  571MPD2    C3 8468   2.581   3.314   0.765  0.3218 -0.3275 -0.1896
  571MPD2    C4 8469   2.613   3.301   0.628  0.3062  0.2239  0.6978
  571MPD2    C5 8470   2.556   3.189   0.559 -0.8452  0.4250  0.2446
  571MPD2     H 8471   2.459   3.229   0.928  1.4243  0.2629  0.1386
  571MPD2    H1 8472   2.675   3.367   0.568 -1.2411  0.0778 -1.0459
  571MPD2    H2 8473   2.451   3.013   0.560  1.3847  0.2133  0.3149
  571MPD2    H3 8474   2.585   3.166   0.458 -0.2419  1.1312  0.2575
  571MPD2     N 8475   2.634   3.426   0.831  0.3609 -0.0602  0.0871
  571MPD2    H5 8476   2.684   3.496   0.777 -1.4597  0.1076 -1.3881
  571MPD2    N1 8477   2.350   3.032   0.827 -0.2984 -0.1542 -0.5074
  571MPD2    H7 8478   2.346   3.025   0.929  1.0116 -0.4952 -0.4712
  572TMC3    C1 8479   2.754   3.554   0.988 -0.1149  0.1655 -0.5897
  572TMC3    C2 8480   2.834   3.553   1.105 -0.8031 -0.0760  0.5468
  572TMC3    C3 8481   2.924   3.655   1.123 -0.2749  0.5677 -0.6204
  572TMC3    C4 8482   2.767   3.657   0.894  0.4985 -0.1452  0.1345
  572TMC3    C5 8483   2.865   3.756   0.919  0.2880  0.0618 -0.3524
  572TMC3    C6 8484   2.946   3.745   1.027  0.7684 -0.8423  0.1622
  572TMC3     C 8485   2.666   3.438   0.961  0.6848  0.7423 -0.7930
  572TMC3     O 8486   2.641   3.364   1.058 -0.3253  0.3766 -0.0804
  572TMC3     H 8487   2.835   3.461   1.161  0.8844 -0.0791  0.5128
  572TMC3    H1 8488   2.719   3.651   0.797  0.8626  1.6084 -0.1578
  572TMC3    H2 8489   3.018   3.823   1.048 -1.3997  1.3632 -0.6400
  572TMC3    C7 8490   2.859   3.876   0.836 -0.1176  0.6723 -0.2185
  572TMC3    C8 8491   3.026   3.660   1.225  0.0375  0.5391 -0.1046
  572TMC3    O1 8492   2.797   3.870   0.729  0.3591  0.3845 -0.1737
  572TMC3    O2 8493   3.135   3.705   1.197 -0.0485 -0.0067  0.3217
  573MPD2     C 8494   3.918   3.742   1.022  0.0448  0.0832  0.5887
  573MPD2    C1 8495   3.857   3.868   1.014 -0.4614  0.1550 -0.4732
  573MPD2    C2 8496   3.795   3.900   0.894  0.7163 -0.1106  0.9677
  573MPD2    C3 8497   3.793   3.813   0.789  0.3592 -1.1794  0.3848
  573MPD2    C4 8498   3.856   3.692   0.797 -0.1706 -0.2433  0.0528
  573MPD2    C5 8499   3.914   3.658   0.919 -0.0325 -0.1979  0.4404
  573MPD2     H 8500   3.748   3.997   0.884 -0.2908 -0.4346  2.5551
  573MPD2    H1 8501   3.848   3.634   0.705  2.2323  1.2768 -1.1142
  573MPD2    H2 8502   3.948   3.702   1.118  1.3335 -0.9329 -0.2424
  573MPD2    H3 8503   3.960   3.562   0.941  3.4576  0.7331 -2.7789
  573MPD2     N 8504   3.741   3.851   0.663 -0.3411 -0.4499 -0.0737
  573MPD2    H5 8505   3.756   3.784   0.589 -0.0420 -0.6074  0.1244
  573MPD2    N1 8506   3.871   3.958   1.121  0.0302  0.0786  0.0586
  573MPD2    H7 8507   3.935   3.921   1.191  1.4768  0.2477 -1.1562
  574TMC3    C1 8508   3.662   4.005   0.497 -0.4495 -0.7545 -0.8046
  574TMC3    C2 8509   3.573   4.104   0.469  0.7760  0.7151  0.7953
  574TMC3    C3 8510   3.572   4.150   0.341  0.3857  1.1966  0.2379
  574TMC3    C4 8511   3.760   3.959   0.415 -1.0403 -0.4437  0.3300
  574TMC3    C5 8512   3.749   4.013   0.289  0.7055  0.0262  0.1505
  574TMC3    C6 8513   3.663   4.110   0.247 -0.2717 -0.6335 -0.7032
  574TMC3     C 8514   3.667   3.965   0.640 -0.3586 -0.4428 -0.2908
  574TMC3     O 8515   3.615   4.037   0.721 -0.4346  0.4614  0.0217
  574TMC3     H 8516   3.498   4.130   0.542 -2.0504 -0.3949 -1.7073
  574TMC3    H1 8517   3.847   3.903   0.447  1.9068  2.9926 -1.5721
  574TMC3    H2 8518   3.652   4.143   0.145  0.0711 -3.4170 -1.6398
  574TMC3    C7 8519   3.831   3.952   0.184  0.0298 -0.2525  0.6493
  574TMC3    C8 8520   3.481   4.263   0.318 -0.3611 -0.2302 -0.4668
  574TMC3    O1 8521   3.881   3.844   0.212  0.0547 -0.3434  0.0302
  574TMC3    O2 8522   3.393   4.269   0.401  0.0024  0.3903 -0.1549
  575TMC3    C1 8523   1.592   0.294  11.353 -0.3481  0.4264 -0.4216
  575TMC3    C2 8524   1.599   0.154  11.343 -0.0125  0.0445  0.0943
  575TMC3    C3 8525   1.615   0.106  11.217 -0.5363 -0.1657 -0.3771
  575TMC3    C4 8526   1.622   0.380  11.250 -0.1228 -0.0697 -0.0271
  575TMC3    C5 8527   1.649   0.325  11.131 -0.1017 -0.3091  0.2509
  575TMC3    C6 8528   1.634   0.187  11.109 -0.2165  0.3244 -0.0309
  575TMC3     C 8529   1.551   0.341  11.479  0.2883 -0.3242 -0.0103
  575TMC3     O 8530   1.559   0.263  11.575 -0.6213 -0.2398 -0.0445
  575TMC3     H 8531   1.569   0.079  11.415  0.0443 -2.1764 -2.2048
  575TMC3    H1 8532   1.636   0.485  11.273  0.5135 -0.3998  1.0598
  575TMC3    H2 8533   1.649   0.134  11.015  0.3383 -1.9626  1.3603
  575TMC3    C7 8534   1.662   0.421  11.021  0.5186  0.1574 -0.0079
  575TMC3    C8 8535   1.627   4.684  11.201 -1.0461  0.4859  0.0248
  575TMC3    O1 8536   1.606   0.527  11.028  0.1760  0.0127  0.0907
  575TMC3    O2 8537   1.574   4.611  11.284  0.2347  0.5729 -0.7677
  576MPD2     C 8538   1.650   1.599  12.413  0.0015  0.0573 -0.1364
  576MPD2    C1 8539   1.616   1.686  12.310  0.0383 -0.1104  0.3605
  576MPD2    C2 8540   1.604   1.822  12.333 -0.5913 -0.6078  0.0889
  576MPD2    C3 8541   1.605   1.869  12.461 -0.2713  0.2394 -0.0712
  576MPD2    C4 8542   1.642   1.774  12.560  0.3894 -0.7669  1.0057
  576MPD2    C5 8543   1.670   1.646  12.537 -0.0033  0.3796 -0.1525
  576MPD2     H 8544   1.586   1.893  12.252  0.5618 -0.9312 -0.4534
  576MPD2    H1 8545   1.650   1.798  12.666 -1.2343 -0.7860  1.1349
  576MPD2    H2 8546   1.674   1.496  12.390  1.0639  0.0525  1.0051
  576MPD2    H3 8547   1.694   1.575  12.616  1.6866 -0.6253 -1.5623
  576MPD2     N 8548   1.595   2.008  12.490  0.3358  0.5064 -0.3452
  576MPD2    H5 8549   1.566   2.069  12.414  0.8226 -0.8791 -1.6552
  576MPD2    N1 8550   1.614   1.636  12.172  0.0029  0.0348  0.3009
  576MPD2    H7 8551   1.618   1.704  12.097 -0.1165  1.2190  1.3706
  577TMC3    C1 8552   1.659   1.496  11.997 -0.2267  0.1187 -0.1066
  577TMC3    C2 8553   1.666   1.367  11.952  0.0169 -0.3390  0.5959
  577TMC3    C3 8554   1.697   1.327  11.825  0.3898 -0.6553  0.0708
  577TMC3    C4 8555   1.702   1.596  11.914  0.2871  0.1729 -0.1148
  577TMC3    C5 8556   1.752   1.551  11.791 -0.0067 -0.3827 -0.3466
  577TMC3    C6 8557   1.755   1.426  11.750  0.3539 -0.3025  0.0469
  577TMC3     C 8558   1.629   1.505  12.138  0.2558 -1.0949 -0.4871
  577TMC3     O 8559   1.601   1.410  12.210  0.1599  0.0641  0.3567
  577TMC3     H 8560   1.630   1.293  12.023 -0.1080 -0.5478  0.3135
  577TMC3    H1 8561   1.707   1.700  11.945 -3.2491 -0.3148  2.1327
  577TMC3    H2 8562   1.797   1.397  11.654  0.0612 -1.5931  0.3029
  577TMC3    C7 8563   1.826   1.650  11.708 -0.4548 -0.2585 -1.0445
  577TMC3    C8 8564   1.749   1.189  11.815 -0.2769  0.5960  0.2438
  577TMC3    O1 8565   1.917   1.612  11.637 -0.5680  0.0469  0.4819
  577TMC3    O2 8566   1.777   1.135  11.922 -0.3098  0.4982  0.1026
  578MPD2     C 8567   4.562   2.216   1.363  0.3629  0.2206  0.0459
  578MPD2    C1 8568   4.640   2.212   1.247  1.4352 -1.1900 -0.0893
  578MPD2    C2 8569   0.013   2.109   1.230  0.1972 -0.1638  0.3408
  578MPD2    C3 8570   4.717   1.992   1.298 -0.5845  0.0848  0.6440
  578MPD2    C4 8571   4.627   1.987   1.404  0.4203 -0.3602  0.0639
  578MPD2    C5 8572   4.554   2.101   1.436 -0.4623 -0.3347  0.7090
  578MPD2     H 8573   0.093   2.110   1.158 -1.6904 -1.1526 -1.7612
  578MPD2    H1 8574   4.593   1.900   1.459  1.4871 -0.7674  0.0849
  578MPD2    H2 8575   4.510   2.301   1.404  0.0925 -0.5956  1.4240
  578MPD2    H3 8576   4.496   2.106   1.528 -0.6557  1.9605  0.4514
  578MPD2     N 8577   0.090   1.885   1.283 -0.4224 -0.5648  0.1911
  578MPD2    H5 8578   0.170   1.899   1.222  0.5427 -1.5459  1.2453
  578MPD2    N1 8579   4.644   2.330   1.168  0.3643 -0.0388  0.0835
  578MPD2    H7 8580   4.561   2.388   1.178  0.4657 -0.2409  2.1903
  579TMC3    C1 8581   0.175   1.668   1.308 -0.1153 -0.2627  0.4200
  579TMC3    C2 8582   0.306   1.697   1.331 -0.5036  0.7950 -0.7301
  579TMC3    C3 8583   0.394   1.597   1.348 -0.2235  0.4927  0.7975
  579TMC3    C4 8584   0.136   1.540   1.281 -0.2214  0.3945  0.5818
  579TMC3    C5 8585   0.231   1.442   1.283 -0.1990  0.4488 -0.0760
  579TMC3    C6 8586   0.361   1.465   1.326  0.4938 -0.4079 -0.0467
  579TMC3     C 8587   0.068   1.759   1.340  0.6777 -0.8831 -0.5741
  579TMC3     O 8588   4.685   1.703   1.381  0.6628  0.3875  0.4422
  579TMC3     H 8589   0.339   1.797   1.357  1.9499 -0.3633  0.5514
  579TMC3    H1 8590   0.031   1.517   1.267 -0.2029  0.5749  0.1655
  579TMC3    H2 8591   0.434   1.385   1.334  0.5563 -0.3230  0.2323
  579TMC3    C7 8592   0.189   1.301   1.300 -1.0498 -0.5194  0.2263
  579TMC3    C8 8593   0.508   1.632   1.432 -0.2168 -0.7762  0.2691
  579TMC3    O1 8594   0.279   1.219   1.325  0.1359 -0.0119  0.3403
  579TMC3    O2 8595   0.531   1.574   1.538  0.5338  0.0698 -0.5026
  580TMC3    C1 8596   3.993   1.523  12.271  0.2026 -0.1308 -0.4511
  580TMC3    C2 8597   4.124   1.550  12.245  0.0933  0.1981 -0.0363
  580TMC3    C3 8598   4.216   1.495  12.330 -0.0525 -0.8730  0.5521
  580TMC3    C4 8599   3.958   1.435  12.373 -0.1240 -0.3653  0.4742
  580TMC3    C5 8600   4.052   1.387  12.451  0.5506 -0.1480 -0.5227
  580TMC3    C6 8601   4.182   1.409  12.433 -0.2159  0.5764 -0.5699
  580TMC3     C 8602   3.895   1.514  12.166  0.8169  0.1563 -0.0649
  580TMC3     O 8603   3.831   1.410  12.153  0.1361  0.1804 -0.3337
  580TMC3     H 8604   4.153   1.632  12.180  0.5215  0.8138  0.9342
  580TMC3    H1 8605   3.855   1.408  12.394  0.0150 -2.2626 -1.3599
  580TMC3    H2 8606   4.260   1.360  12.490 -2.6742 -1.4126  1.0700
  580TMC3    C7 8607   4.023   1.251  12.498  0.9175  0.0791  0.0900
  580TMC3    C8 8608   4.357   1.533  12.319  0.0031  0.5178  0.2622
  580TMC3    O1 8609   4.106   1.204  12.578  0.1977 -0.4003 -0.3814
  580TMC3    O2 8610   4.431   1.521  12.412  0.3499  0.4084  0.4477
  581MPD2     C 8611   1.789   0.884  15.221 -0.1046  0.2526  0.0065
  581MPD2    C1 8612   1.799   0.942  15.342 -0.6652 -0.5386 -0.6894
  581MPD2    C2 8613   1.686   1.009  15.401  0.1331 -0.4708  0.0363
  581MPD2    C3 8614   1.567   1.008  15.338  0.1274 -0.0079 -0.8699
  581MPD2    C4 8615   1.561   0.935  15.223  0.8785 -0.4671 -0.0965
  581MPD2    C5 8616   1.664   0.874  15.166 -0.5347  0.3500  0.1751
  581MPD2     H 8617   1.695   1.074  15.488 -1.7359  0.6602 -0.6229
  581MPD2    H1 8618   1.465   0.925  15.172  0.2332  1.0894  0.8277
  581MPD2    H2 8619   1.867   0.827  15.172  0.1732  0.2526  0.4510
  581MPD2    H3 8620   1.654   0.810  15.079  1.4498  0.3697 -0.0541
  581MPD2     N 8621   1.449   1.067  15.394  0.5532 -0.6052  0.0021
  581MPD2    H5 8622   1.449   1.140  15.464 -1.3558 -2.3568  1.8272
  581MPD2    N1 8623   1.925   0.929  15.399  0.1377  0.5733 -0.5661
  581MPD2    H7 8624   1.984   0.859  15.354  1.1016  0.3644  1.0002
  582TMC3    C1 8625   2.103   0.934  15.545 -0.0247 -0.6210 -0.2343
  582TMC3    C2 8626   2.131   0.906  15.674  0.2877 -0.1959  0.5884
  582TMC3    C3 8627   2.218   0.802  15.699 -0.4020 -0.0470 -0.8585
  582TMC3    C4 8628   2.169   0.879  15.441  0.3695  0.1536 -0.0602
  582TMC3    C5 8629   2.245   0.768  15.465 -0.1282  0.1990  0.1036
  582TMC3    C6 8630   2.270   0.724  15.593  0.4428  0.2151 -0.0747
  582TMC3     C 8631   1.969   0.977  15.517  0.0631 -0.2771 -0.0257
  582TMC3     O 8632   1.909   1.047  15.600 -0.1412  0.3243  0.0192
  582TMC3     H 8633   2.065   0.939  15.753  0.5666  1.0866  0.2893
  582TMC3    H1 8634   2.143   0.913  15.342  1.9412 -0.4093 -0.6700
  582TMC3    H2 8635   2.332   0.637  15.608  2.5306  1.7852  0.4656
  582TMC3    C7 8636   2.195   0.660  15.378  0.1030  0.1100 -0.0367
  582TMC3    C8 8637   2.272   0.784  15.829  0.1271 -0.5535  0.1143
  582TMC3    O1 8638   2.196   0.691  15.262  0.9937 -0.2932  0.2538
  582TMC3    O2 8639   2.200   0.839  15.912  0.4674  0.3400 -0.5107
  583MPD2     C 8640   2.112   2.442  16.511  0.2476 -0.1947  0.5464
  583MPD2    C1 8641   2.191   2.537  16.566 -0.7559  0.2463 -0.2022
  583MPD2    C2 8642   2.131   2.655  16.598  0.8684 -0.4533  0.2054
  583MPD2    C3 8643   1.991   2.669  16.596 -0.3709  0.1873 -0.1746
  583MPD2    C4 8644   1.907   2.567  16.539 -0.2084 -0.4323  0.2673
  583MPD2    C5 8645   1.972   2.456  16.499 -0.9490  0.2214  1.0559
  583MPD2     H 8646   2.191   2.729  16.650  1.8224 -0.3318 -1.0898
  583MPD2    H1 8647   1.799   2.569  16.538 -0.2236 -1.6580 -0.2010
  583MPD2    H2 8648   2.147   2.348  16.471 -1.1904 -0.3962 -0.2104
  583MPD2    H3 8649   1.914   2.375  16.457  2.1449 -0.3795 -1.9685
  583MPD2     N 8650   1.944   2.786  16.664  0.6485 -0.7573 -0.0330
  583MPD2    H5 8651   2.010   2.843  16.715  1.0979  1.3282 -2.9724
  583MPD2    N1 8652   2.330   2.514  16.594  0.2512 -0.0554 -0.3512
  583MPD2    H7 8653   2.383   2.599  16.610 -0.5452  0.4313 -0.3360
  584TMC3    C1 8654   1.797   2.948  16.731  0.7936  0.0301 -0.9285
  584TMC3    C2 8655   1.880   3.045  16.697 -0.2566 -0.1354 -0.1849
  584TMC3    C3 8656   1.853   3.172  16.745 -0.3923  0.5525  0.5078
  584TMC3    C4 8657   1.683   2.963  16.806 -0.6728 -0.2875  0.1364
  584TMC3    C5 8658   1.665   3.092  16.850  0.1279  0.7557 -0.1942
  584TMC3    C6 8659   1.751   3.195  16.833  0.5934  0.0559  0.8268
  584TMC3     C 8660   1.808   2.816  16.677 -0.3475  0.4754  0.1440
  584TMC3     O 8661   1.709   2.759  16.638 -0.1863  0.1990 -0.3452
  584TMC3     H 8662   1.950   3.033  16.615  0.2585  2.5231 -0.1386
  584TMC3    H1 8663   1.641   2.874  16.850 -1.1664  0.2861  0.8329
  584TMC3    H2 8664   1.717   3.297  16.844 -0.9014 -0.3811  0.2366
  584TMC3    C7 8665   1.574   3.100  16.966 -0.0417  0.4986 -0.4966
  584TMC3    C8 8666   1.978   3.246  16.762 -0.3767  0.1605 -0.0651
  584TMC3    O1 8667   1.548   3.003  17.032  0.4685 -0.2522  0.1607
  584TMC3    O2 8668   2.079   3.189  16.716  0.0740  0.8185  0.3817
  585MPD2     C 8669   1.574   1.559   1.263 -0.1163  0.5202  0.1259
  585MPD2    C1 8670   1.660   1.469   1.210  0.0181  0.0990  0.5755
  585MPD2    C2 8671   1.618   1.412   1.091  0.4105  0.6115 -0.3174
  585MPD2    C3 8672   1.498   1.445   1.017 -0.2753 -1.1938 -0.1855
  585MPD2    C4 8673   1.426   1.552   1.067 -0.7301  0.1421  0.0756
  585MPD2    C5 8674   1.469   1.600   1.188 -0.5443  0.1894  0.0542
  585MPD2     H 8675   1.678   1.331   1.052  2.5379  1.3645  1.3979
  585MPD2    H1 8676   1.340   1.601   1.022 -1.6945  1.0046  2.7845
  585MPD2    H2 8677   1.590   1.609   1.358  3.3167  0.2239 -0.2830
  585MPD2    H3 8678   1.403   1.670   1.238 -0.8685 -0.9908  1.2743
  585MPD2     N 8679   1.455   1.392   0.896  0.7220  0.1073  0.1090
  585MPD2    H5 8680   1.371   1.436   0.860  0.3422  0.5112  1.4765
  585MPD2    N1 8681   1.784   1.440   1.266 -0.2073 -0.4508  0.6373
  585MPD2    H7 8682   1.786   1.468   1.364 -2.6373 -0.8412  0.7973
  586TMC3    C1 8683   1.497   1.271   0.689  0.4223 -0.8947 -0.2984
  586TMC3    C2 8684   1.584   1.186   0.630  0.0193  0.0648 -0.5946
  586TMC3    C3 8685   1.559   1.162   0.496 -0.2980  0.4756  0.4243
  586TMC3    C4 8686   1.400   1.349   0.627  0.3464  0.0461  0.2052
  586TMC3    C5 8687   1.383   1.317   0.493 -0.2684  0.4957 -0.2025
  586TMC3    C6 8688   1.454   1.225   0.425  0.5973 -0.2784  0.0330
  586TMC3     C 8689   1.519   1.283   0.833 -0.1850  0.2638 -0.4351
  586TMC3     O 8690   1.601   1.212   0.889  0.0222  0.3667  0.4799
  586TMC3     H 8691   1.652   1.118   0.681 -1.3443 -0.9279 -0.0964
  586TMC3    H1 8692   1.333   1.413   0.682 -0.1623  0.7765 -1.2617
  586TMC3    H2 8693   1.433   1.198   0.323  1.4975  0.1663 -0.2739
  586TMC3    C7 8694   1.266   1.366   0.425  0.6875  0.3194  0.0916
  586TMC3    C8 8695   1.634   1.047   0.446  0.2714  0.1433  0.1988
  586TMC3    O1 8696   1.226   1.480   0.436  0.3889 -0.3067 -0.5985
  586TMC3    O2 8697   1.625   0.952   0.520  0.3971 -0.3433 -0.1798
  587TMC3    C1 8698   3.754   0.320  16.766 -0.0623  0.3917 -0.6344
  587TMC3    C2 8699   3.758   0.456  16.744 -0.0753 -0.0744 -0.1686
  587TMC3    C3 8700   3.881   0.507  16.725 -1.1009  0.0679 -0.0664
  587TMC3    C4 8701   3.873   0.242  16.767 -0.5729  0.1863  0.3388
  587TMC3    C5 8702   3.993   0.305  16.755 -0.1220  0.1023  0.1103
  587TMC3    C6 8703   3.999   0.444  16.739 -0.1186  0.2803 -0.2985
  587TMC3     C 8704   3.632   0.253  16.777 -0.3545 -0.6813  0.5445
  587TMC3     O 8705   3.635   0.130  16.774 -0.3958  0.2238 -0.0894
  587TMC3     H 8706   3.665   0.509  16.730  0.7670  1.2098 -0.8199
  587TMC3    H1 8707   3.856   0.138  16.743  2.1666 -0.4851  1.3073
  587TMC3    H2 8708   4.097   0.490  16.734 -0.0041  0.2708  1.7540
  587TMC3    C7 8709   4.116   0.229  16.752  0.5021 -0.0737 -0.0275
  587TMC3    C8 8710   3.889   0.629  16.647 -0.8254  0.8655  0.2811
  587TMC3    O1 8711   4.210   0.285  16.699 -0.1169  0.5141  0.0320
  587TMC3    O2 8712   3.979   0.646  16.565  0.2295 -0.5471  0.4642
  588TMC3    C1 8713   1.287   2.436   9.700  0.4346 -0.4052  0.3428
  588TMC3    C2 8714   1.308   2.301   9.675  0.0318 -0.1831 -0.4374
  588TMC3    C3 8715   1.325   2.212   9.772  0.3016 -0.2148 -0.2903
  588TMC3    C4 8716   1.283   2.470   9.831 -0.2084 -0.4275  0.4230
  588TMC3    C5 8717   1.305   2.381   9.940 -0.0415  0.2671  0.7152
  588TMC3    C6 8718   1.323   2.246   9.907 -0.4629 -0.3433  0.1384
  588TMC3     C 8719   1.251   2.536   9.608  0.1821  0.3559  0.1779
  588TMC3     O 8720   1.187   2.502   9.506 -0.5420 -0.4258  0.4957
  588TMC3     H 8721   1.305   2.266   9.572 -1.9767  1.5042 -0.9412
  588TMC3    H1 8722   1.240   2.566   9.858 -1.3634 -0.3537 -1.6937
  588TMC3    H2 8723   1.322   2.171   9.986 -3.5107 -1.0381 -0.5569
  588TMC3    C7 8724   1.283   2.429  10.075 -0.1474  0.1102 -0.9002
  588TMC3    C8 8725   1.324   2.069   9.741  0.6496  0.2834  0.1043
  588TMC3    O1 8726   1.253   2.345  10.158  0.0456 -0.6313 -0.2663
  588TMC3    O2 8727   1.281   2.030   9.632  0.8040  0.0686 -0.0237
  589TMC3    C1 8728   4.304   0.078   1.275  0.1431  0.6053 -0.4231
  589TMC3    C2 8729   4.377   0.140   1.373  0.7094 -0.3751  0.3175
  589TMC3    C3 8730   4.501   0.088   1.401  0.4357  0.1872 -0.2267
  589TMC3    C4 8731   4.339   4.684   1.213  0.0000  0.0144 -0.1560
  589TMC3    C5 8732   4.465   4.635   1.250  0.1152 -0.6156 -0.2958
  589TMC3    C6 8733   4.548   4.688   1.343  0.8806 -0.0209 -0.3002
  589TMC3     C 8734   4.171   0.125   1.245  0.0676  0.3305 -0.1263
  589TMC3     O 8735   4.125   0.080   1.144 -0.1811  0.3516  0.1614
  589TMC3     H 8736   4.352   0.237   1.414 -0.3578 -0.1752 -0.8011
  589TMC3    H1 8737   4.262   4.633   1.156  2.9894 -4.1263 -0.4245
  589TMC3    H2 8738   4.650   4.651   1.348  0.3878 -1.3566 -0.1574
  589TMC3    C7 8739   4.519   4.510   1.188  0.2138  0.6365 -0.0045
  589TMC3    C8 8740   4.581   0.160   1.496  0.0814 -0.7887 -0.0135
  589TMC3    O1 8741   4.623   4.468   1.229 -0.7608 -0.4054  0.1068
  589TMC3    O2 8742   4.531   0.260   1.543 -0.8895  0.2687  0.2916
  590MPD2     C 8743   4.385   3.361  17.022 -0.4179 -0.4848 -0.9213
  590MPD2    C1 8744   4.311   3.427  16.933  0.4670 -0.6186 -0.1396
  590MPD2    C2 8745   4.378   3.468  16.819 -0.1494 -0.6842 -0.5738
  590MPD2    C3 8746   4.517   3.449  16.802 -0.6966  0.2634 -0.5346
  590MPD2    C4 8747   4.590   3.398  16.907  0.2814  0.0204  0.0975
  590MPD2    C5 8748   4.517   3.349  17.011 -0.3086 -0.1553 -0.1722
  590MPD2     H 8749   4.324   3.513  16.737 -2.0205 -1.4657  0.2236
  590MPD2    H1 8750   4.698   3.392  16.911  0.4743  1.6136 -2.7925
  590MPD2    H2 8751   4.336   3.308  17.103 -2.8274 -0.7891 -2.5619
  590MPD2    H3 8752   4.573   3.308  17.095 -0.8073 -2.3949 -0.9368
  590MPD2     N 8753   4.582   3.502  16.686  0.3207 -0.5412  0.3373
  590MPD2    H5 8754   4.526   3.551  16.617  1.8575 -1.3008 -1.4692
  590MPD2    N1 8755   4.170   3.429  16.942  0.1744 -0.7882  0.0401
  590MPD2    H7 8756   4.127   3.388  17.025 -1.6718 -2.6649 -1.8518
  591TMC3    C1 8757   0.017   3.507  16.510  0.0058  0.1873 -0.1208
  591TMC3    C2 8758   0.094   3.421  16.443  1.0618  0.1158 -0.2411
  591TMC3    C3 8759   0.126   3.466  16.314 -0.4090  0.6516 -0.1770
  591TMC3    C4 8760   4.702   3.631  16.464 -0.0185 -0.7945 -0.0883
  591TMC3    C5 8761   0.013   3.663  16.337 -0.1044 -0.9276  0.2696
  591TMC3    C6 8762   0.087   3.583  16.257  0.1912 -0.3856  0.2561
  591TMC3     C 8763   4.713   3.471  16.650 -0.6207 -0.3049  0.1321
  591TMC3     O 8764   0.073   3.399  16.702  0.4202 -0.2273  0.3300
  591TMC3     H 8765   0.089   3.317  16.470  1.0825  0.9910  3.1271
  591TMC3    H1 8766   4.628   3.680  16.526 -2.1384 -1.6601 -1.9195
  591TMC3    H2 8767   0.106   3.594  16.150 -0.1614 -0.3756  0.1935
  591TMC3    C7 8768   4.635   3.752  16.267 -0.7186 -0.4755 -0.5598
  591TMC3    C8 8769   0.236   3.395  16.254  0.3945 -0.3127 -0.1470
  591TMC3    O1 8770   4.528   3.766  16.324  0.3127  0.1980  0.7862
  591TMC3    O2 8771   0.271   3.292  16.307 -0.3733  0.5032 -0.5474
  592MPD2     C 8772   0.219   0.817  11.581 -0.1327 -0.2319  0.0665
  592MPD2    C1 8773   0.226   0.864  11.715  0.7211 -0.7312  0.6144
  592MPD2    C2 8774   0.139   0.815  11.805  0.5675  0.5542 -0.2020
  592MPD2    C3 8775   0.044   0.714  11.772 -0.6365 -0.5646 -1.0488
  592MPD2    C4 8776   0.034   0.669  11.642  0.0487 -0.3878  0.6782
  592MPD2    C5 8777   0.124   0.720  11.547  0.4997  0.8985 -0.7662
  592MPD2     H 8778   0.145   0.852  11.907 -0.8135  0.9457 -0.2744
  592MPD2    H1 8779   4.686   0.595  11.603  1.4211 -1.4022  0.1649
  592MPD2    H2 8780   0.273   0.853  11.494 -1.7852  2.0312 -0.0107
  592MPD2    H3 8781   0.116   0.690  11.443 -0.4166 -3.9568  0.6965
  592MPD2     N 8782   4.683   0.673  11.878 -0.8534 -0.3317  0.0628
  592MPD2    H5 8783   4.686   0.711  11.973  2.5144 -1.4129  0.4017
  592MPD2    N1 8784   0.322   0.963  11.745 -0.0891 -0.1511  0.0508
  592MPD2    H7 8785   0.373   0.997  11.663 -1.6530  1.2365 -0.3405
  593TMC3    C1 8786   0.439   1.122  11.866  0.1767 -0.0818 -0.0099
  593TMC3    C2 8787   0.425   1.231  11.948  0.5481 -0.2510 -0.5704
  593TMC3    C3 8788   0.501   1.337  11.903  0.1898 -0.5163 -0.0848
  593TMC3    C4 8789   0.530   1.117  11.759  0.2106 -0.4556 -0.7535
  593TMC3    C5 8790   0.622   1.217  11.738 -0.0190  0.2784 -0.7134
  593TMC3    C6 8791   0.612   1.332  11.819  0.2723 -0.0854 -0.1847
  593TMC3     C 8792   0.339   1.022  11.872  0.0095 -0.0108  0.4998
  593TMC3     O 8793   0.271   1.012  11.978  0.0455 -0.0615  0.1574
  593TMC3     H 8794   0.355   1.243  12.030 -0.2167 -1.0885 -1.0923
  593TMC3    H1 8795   0.552   1.017  11.723  1.0347 -1.2013  1.8223
  593TMC3    H2 8796   0.679   1.414  11.799 -1.0769  0.5007 -2.4311
  593TMC3    C7 8797   0.713   1.222  11.626  0.1385 -0.0245  0.0493
  593TMC3    C8 8798   0.487   1.455  11.980 -0.0382  0.1682 -0.1085
  593TMC3    O1 8799   0.785   1.321  11.607 -0.1830  0.1638  0.1116
  593TMC3    O2 8800   0.373   1.492  11.994 -0.0563 -0.8010  1.0039
  594MPD2     C 8801   3.109   3.923  14.323  0.3536 -0.3707 -1.1951
  594MPD2    C1 8802   3.156   3.900  14.449 -0.2212  0.3174  0.5969
  594MPD2    C2 8803   3.293   3.928  14.483  0.1197 -0.2888 -0.2100
  594MPD2    C3 8804   3.370   3.989  14.389 -0.1328 -0.6178  0.4886
  594MPD2    C4 8805   3.316   4.022  14.267  0.0525 -0.4729  0.9361
  594MPD2    C5 8806   3.183   3.994  14.235  0.5318 -0.1036 -0.0051
  594MPD2     H 8807   3.338   3.895  14.577 -1.5485  0.6214  0.9102
  594MPD2    H1 8808   3.369   4.080  14.192 -0.2782 -1.5160 -0.1144
  594MPD2    H2 8809   3.003   3.916  14.303  0.2822 -1.8089 -0.3361
  594MPD2    H3 8810   3.137   4.029  14.144 -0.2977  1.3908  0.9912
  594MPD2     N 8811   3.483   4.051  14.438 -0.7056 -0.0854 -0.3969
  594MPD2    H5 8812   3.493   4.044  14.539  0.5957  1.0214 -0.4430
  594MPD2    N1 8813   3.063   3.843  14.540 -0.7282  0.2722 -0.0241
  594MPD2    H7 8814   2.970   3.825  14.504 -0.6072 -0.2217 -0.0857
  595TMC3    C1 8815   3.875   4.287  14.478 -0.5391 -0.4526  0.3149
  595TMC3    C2 8816   3.794   4.209  14.406  0.4748 -0.0277  0.1764
  595TMC3    C3 8817   3.668   4.191  14.451  0.3206  0.1048  0.6160
  595TMC3    C4 8818   3.834   4.332  14.599  0.5157  0.1569 -0.4936
  595TMC3    C5 8819   3.707   4.296  14.644  0.7504 -0.3383 -0.5438
  595TMC3    C6 8820   3.618   4.231  14.569  0.1238 -0.3006  0.2620
  595TMC3     C 8821   4.014   4.314  14.445  0.1388 -0.0735  0.6815
  595TMC3     O 8822   4.068   4.401  14.511  0.1391 -0.2335  0.4036
  595TMC3     H 8823   3.832   4.170  14.312 -0.6498  1.2790 -0.8269
  595TMC3    H1 8824   3.893   4.391  14.669  0.1210 -0.7755  0.6333
  595TMC3    H2 8825   3.513   4.241  14.593  0.8519  1.5002  2.7107
  595TMC3    C7 8826   3.648   4.379  14.748 -0.0704 -0.0048 -0.0585
  595TMC3    C8 8827   3.577   4.119  14.367 -0.0423  1.0145  0.5145
  595TMC3    O1 8828   3.534   4.420  14.738 -0.1409  0.0555 -0.2898
  595TMC3    O2 8829   3.595   4.127  14.244 -0.0304 -0.0190  0.0437
  596MPD2     C 8830   3.321   2.406  17.085  0.3422 -0.0803  0.1237
  596MPD2    C1 8831   3.233   2.498  17.033 -0.5421  0.1301  0.1950
  596MPD2    C2 8832   3.223   2.498  16.895  0.5412  0.8546 -0.1638
  596MPD2    C3 8833   3.304   2.415  16.818  0.2094 -0.4936  0.0625
  596MPD2    C4 8834   3.389   2.319  16.873  0.1953 -0.3355 -0.0896
  596MPD2    C5 8835   3.395   2.317  17.013 -0.1053 -0.3054 -0.4270
  596MPD2     H 8836   3.154   2.564  16.843 -2.0700 -0.3783  1.6882
  596MPD2    H1 8837   3.438   2.242  16.815  0.3792 -0.7774  0.6480
  596MPD2    H2 8838   3.343   2.404  17.191 -0.9877 -0.4496  0.3881
  596MPD2    H3 8839   3.446   2.234  17.059 -0.3726 -0.7768 -0.9807
  596MPD2     N 8840   3.304   2.410  16.678 -0.3295  0.2597 -0.4060
  596MPD2    H5 8841   3.359   2.335  16.636 -0.6613 -0.4473  0.4394
  596MPD2    N1 8842   3.153   2.586  17.106 -0.4307 -0.1807 -0.4097
  596MPD2    H7 8843   3.084   2.641  17.055  0.7899  2.1351  0.4036
  597TMC3    C1 8844   3.054   2.691  17.296 -0.9050  0.5958 -0.1668
  597TMC3    C2 8845   3.098   2.779  17.392  0.0525 -0.4480 -0.2299
  597TMC3    C3 8846   3.024   2.894  17.414 -0.4340  0.8004  0.0728
  597TMC3    C4 8847   2.937   2.715  17.232 -0.0975 -0.3925  0.0417
  597TMC3    C5 8848   2.874   2.834  17.244 -0.3267  0.2961 -0.6694
  597TMC3    C6 8849   2.913   2.926  17.342 -0.2428  0.3095 -0.1877
  597TMC3     C 8850   3.151   2.592  17.248 -0.1511 -0.3717 -0.4257
  597TMC3     O 8851   3.231   2.548  17.330  0.2217  0.8547 -0.0154
  597TMC3     H 8852   3.181   2.759  17.459 -0.5486 -1.1604  0.2984
  597TMC3    H1 8853   2.892   2.636  17.173  1.1506 -0.4500 -0.8160
  597TMC3    H2 8854   2.857   3.017  17.363 -2.1602 -1.3432  1.9406
  597TMC3    C7 8855   2.733   2.838  17.215 -0.4632 -0.5780  0.2882
  597TMC3    C8 8856   3.077   2.989  17.510  0.6116 -0.5152  0.1130
  597TMC3    O1 8857   2.671   2.735  17.207  1.1232 -0.0724  0.1167
  597TMC3    O2 8858   2.995   3.074  17.537  0.4710  0.4582 -0.3838
  598TMC3    C1 8859   1.000   3.865  15.729 -0.6228  0.0683  0.3436
  598TMC3    C2 8860   0.915   3.762  15.708  0.2012  0.1192  0.2688
  598TMC3    C3 8861   0.867   3.738  15.581 -0.2610  0.6631 -0.1316
  598TMC3    C4 8862   1.026   3.953  15.625 -0.1162 -0.3581  0.5207
  598TMC3    C5 8863   0.980   3.924  15.497 -0.8675  0.5259 -0.1322
  598TMC3    C6 8864   0.904   3.809  15.472 -0.3104  0.5659 -0.8527
  598TMC3     C 8865   1.051   3.892  15.863  0.7131  0.6431 -0.7314
  598TMC3     O 8866   1.134   3.980  15.870  0.4082 -0.1540 -0.4124
  598TMC3     H 8867   0.879   3.696  15.786 -2.7565 -1.3073 -2.2739
  598TMC3    H1 8868   1.100   4.031  15.644  0.3639 -0.6206 -0.2635
  598TMC3    H2 8869   0.880   3.768  15.374  2.0746 -1.2890 -0.6549
  598TMC3    C7 8870   0.988   4.012  15.384 -0.3369  0.2723 -0.1844
  598TMC3    C8 8871   0.779   3.623  15.559 -0.2992  0.4370 -0.0768
  598TMC3    O1 8872   0.908   3.998  15.289  0.3516 -0.1329  0.4915
  598TMC3    O2 8873   0.791   3.530  15.639 -0.0368 -0.7716  0.1922
  599MPD2     C 8874   1.073   1.409  16.135 -0.2417  0.7744 -0.0908
  599MPD2    C1 8875   1.045   1.284  16.178 -0.6765  0.1809  0.1939
  599MPD2    C2 8876   0.971   1.263  16.288 -1.0151 -0.2589  0.9956
  599MPD2    C3 8877   0.918   1.377  16.353  0.5830 -0.4041  0.4780
  599MPD2    C4 8878   0.942   1.502  16.309 -0.4825  0.0481 -0.1972
  599MPD2    C5 8879   1.028   1.513  16.203  0.6727 -0.3086 -0.4250
  599MPD2     H 8880   0.954   1.162  16.326 -1.1092 -0.0372  1.5459
  599MPD2    H1 8881   0.900   1.591  16.353 -2.4183  0.3140 -2.5530
  599MPD2    H2 8882   1.149   1.413  16.058  1.7422 -1.5455  1.7641
  599MPD2    H3 8883   1.052   1.616  16.178 -0.4190  0.2775  0.9678
  599MPD2     N 8884   0.836   1.377  16.463  0.0586 -0.7607 -0.4513
  599MPD2    H5 8885   0.825   1.465  16.513 -2.4763 -0.8992 -0.7501
  599MPD2    N1 8886   1.117   1.183  16.115 -0.0470  0.4333  0.2318
  599MPD2    H7 8887   1.181   1.219  16.044  0.4534 -1.5809 -0.3199
  600TMC3    C1 8888   0.728   1.297  16.649  0.3740 -1.0286  0.4187
  600TMC3    C2 8889   0.725   1.188  16.730 -0.3635  0.2042 -0.0686
  600TMC3    C3 8890   0.699   1.204  16.864  0.1940  0.5229 -0.8411
  600TMC3    C4 8891   0.696   1.422  16.679  0.1770 -0.1760 -0.2839
  600TMC3    C5 8892   0.684   1.437  16.817 -0.3380  0.1030 -0.4192
  600TMC3    C6 8893   0.683   1.334  16.914 -0.2606  0.3180 -0.2914
  600TMC3     C 8894   0.782   1.266  16.518  0.4159 -0.4954  0.1492
  600TMC3     O 8895   0.781   1.151  16.476 -0.0923 -0.4740  0.1760
  600TMC3     H 8896   0.751   1.088  16.697 -1.7755  0.4003 -1.7360
  600TMC3    H1 8897   0.699   1.498  16.602 -1.2062 -0.9669 -1.1157
  600TMC3    H2 8898   0.668   1.350  17.020  3.2555 -2.0260  0.5474
  600TMC3    C7 8899   0.670   1.574  16.868  0.1881  0.1594 -0.4914
  600TMC3    C8 8900   0.656   1.093  16.940 -0.4166 -0.0565 -0.2288
  600TMC3    O1 8901   0.632   1.589  16.979  0.3737 -0.5882  0.8888
  600TMC3    O2 8902   0.679   1.081  17.062  0.8289 -0.4302  0.2472
  601MPD2     C 8903   3.008   4.362   0.773 -0.0953 -0.0198 -0.3501
  601MPD2    C1 8904   2.933   4.285   0.690 -0.4956 -0.2114  0.4904
  601MPD2    C2 8905   2.895   4.158   0.739  0.0250  0.2139 -0.2504
  601MPD2    C3 8906   2.945   4.107   0.853  1.2254  0.3907  0.4453
  601MPD2    C4 8907   3.032   4.182   0.928 -0.4105 -1.1462 -0.7525
  601MPD2    C5 8908   3.056   4.316   0.895 -0.3557 -0.2808 -0.5061
  601MPD2     H 8909   2.840   4.095   0.670  0.3942 -0.9560  0.5258
  601MPD2    H1 8910   3.079   4.138   1.015 -0.5442 -0.3564 -0.2812
  601MPD2    H2 8911   3.031   4.465   0.744 -0.9017  0.6766  1.5386
  601MPD2    H3 8912   3.126   4.376   0.952 -0.6852 -1.1481  0.8024
  601MPD2     N 8913   2.929   3.977   0.897 -0.5853  0.1070 -0.2728
  601MPD2    H5 8914   2.978   3.951   0.982  0.8612  0.7287 -0.9154
  601MPD2    N1 8915   2.897   4.321   0.559  0.4086 -0.1702 -0.1195
  601MPD2    H7 8916   2.843   4.258   0.501 -0.0261 -0.0406  0.1428
  602TMC3    C1 8917   2.867   4.463   0.372  0.5433 -0.1261 -0.1051
  602TMC3    C2 8918   2.919   4.548   0.277  0.4324 -0.3328  0.4630
  602TMC3    C3 8919   2.834   4.602   0.183 -0.3967  0.3209 -0.1240
  602TMC3    C4 8920   2.723   4.459   0.391 -0.1581 -0.6987 -0.5501
  602TMC3    C5 8921   2.642   4.528   0.300  0.1484  0.3303 -0.0032
  602TMC3    C6 8922   2.696   4.604   0.197 -0.3604  1.0042  0.4187
  602TMC3     C 8923   2.951   4.427   0.487  0.0711  0.2263 -0.0031
  602TMC3     O 8924   3.045   4.504   0.508 -0.5150  0.5435 -0.4032
  602TMC3     H 8925   3.024   4.570   0.261  0.0990  1.7096  1.1568
  602TMC3    H1 8926   2.678   4.395   0.466  1.8858  0.4552  1.6435
  602TMC3    H2 8927   2.636   4.626   0.110 -0.9590 -1.2127  0.2855
  602TMC3    C7 8928   2.499   4.523   0.314  0.0755  0.0705 -0.7056
  602TMC3    C8 8929   2.885   4.702   0.092  0.7720 -0.1831  0.5673
  602TMC3    O1 8930   2.458   4.425   0.372  0.0686  0.0250  0.7875
  602TMC3    O2 8931   2.982   0.045   0.128 -0.5813  0.6605  0.6224
  603TMC3    C1 8932   0.668   0.193  11.233  0.2210 -0.4439  0.4428
  603TMC3    C2 8933   0.660   0.189  11.372  0.4723  0.3410  0.0430
  603TMC3    C3 8934   0.771   0.241  11.440  0.3424  0.3429 -0.0629
  603TMC3    C4 8935   0.782   0.208  11.164 -0.1155 -0.4565 -0.1419
  603TMC3    C5 8936   0.890   0.255  11.237  0.3097 -0.0312 -0.4032
  603TMC3    C6 8937   0.879   0.277  11.369 -0.1189 -0.6422 -0.0954
  603TMC3     C 8938   0.553   0.154  11.157 -0.2132 -0.2063  0.0927
  603TMC3     O 8939   0.552   0.197  11.039 -0.6442  0.1059  0.3143
  603TMC3     H 8940   0.577   0.146  11.428 -0.0080 -0.2316 -1.1134
  603TMC3    H1 8941   0.779   0.223  11.057  0.3592  0.4901 -0.0290
  603TMC3    H2 8942   0.974   0.278  11.421 -0.0964  0.5285 -0.1463
  603TMC3    C7 8943   1.005   0.309  11.175 -0.0542 -0.5989 -0.7365
  603TMC3    C8 8944   0.757   0.285  11.581 -0.8783 -0.1336  0.4506
  603TMC3    O1 8945   1.102   0.334  11.244 -0.0201 -0.0047 -0.2428
  603TMC3    O2 8946   0.666   0.241  11.645 -0.4310  0.2498  0.2088
  604MPD2     C 8947   2.102   3.791  16.791  0.3038 -0.1255  0.7596
  604MPD2    C1 8948   1.987   3.712  16.782  0.2743  0.0793 -1.0000
  604MPD2    C2 8949   1.963   3.644  16.663 -0.5932  0.2086 -0.1233
  604MPD2    C3 8950   2.050   3.643  16.558  0.6756 -0.6327  0.1495
  604MPD2    C4 8951   2.162   3.720  16.568 -0.1138  0.3791 -0.4880
  604MPD2    C5 8952   2.187   3.784  16.684  0.3116  0.1222 -0.6122
  604MPD2     H 8953   1.876   3.582  16.642 -0.2549 -1.1188  2.4171
  604MPD2    H1 8954   2.241   3.724  16.494 -0.4007  1.5653 -0.7226
  604MPD2    H2 8955   2.127   3.852  16.876 -0.9283  2.4883 -0.7639
  604MPD2    H3 8956   2.278   3.839  16.706  0.0575  0.3420 -0.0955
  604MPD2     N 8957   2.006   3.589  16.433  0.0323 -0.3140  0.2800
  604MPD2    H5 8958   1.932   3.520  16.427  0.4601 -0.8844  1.5052
  604MPD2    N1 8959   1.896   3.709  16.893  0.0103 -0.0722  0.5170
  604MPD2    H7 8960   1.918   3.772  16.970 -0.8081 -0.2956  0.9309
  605TMC3    C1 8961   1.720   3.643  17.028  0.2925  0.3280 -0.7022
  605TMC3    C2 8962   1.794   3.657  17.145 -1.0588  0.4324  0.0059
  605TMC3    C3 8963   1.722   3.708  17.253  0.4641 -0.0646  0.2263
  605TMC3    C4 8964   1.584   3.663  17.020 -0.7165 -0.7213  0.2125
  605TMC3    C5 8965   1.529   3.723  17.126 -0.0323 -0.3192  0.1547
  605TMC3    C6 8966   1.589   3.749  17.245 -0.0806 -0.1668 -0.0674
  605TMC3     C 8967   1.783   3.629  16.903  0.2808 -0.3009  0.3599
  605TMC3     O 8968   1.734   3.557  16.819  0.0420 -0.3643  0.1557
  605TMC3     H 8969   1.901   3.642  17.154 -1.0042  3.0166  3.4811
  605TMC3    H1 8970   1.549   3.670  16.917 -0.1588 -0.0390  0.0723
  605TMC3    H2 8971   1.539   3.792  17.331  0.4769 -0.8257  0.5917
  605TMC3    C7 8972   1.414   3.795  17.098 -0.2313 -0.1729  0.5894
  605TMC3    C8 8973   1.788   3.752  17.379  0.7254  0.0616  0.0105
  605TMC3    O1 8974   1.409   3.910  17.139 -0.8313  0.3801 -0.2091
  605TMC3    O2 8975   1.729   3.751  17.488  0.1600  0.6374  0.4687
  606TMC3    C1 8976   3.441   1.906  17.591  0.4722 -0.0810  0.1005
  606TMC3    C2 8977   3.584   1.882  17.581  0.3734  0.0337  0.2831
  606TMC3    C3 8978   3.635   1.848   0.013 -0.0990 -0.2896 -0.9776
  606TMC3    C4 8979   3.369   1.909   0.019 -0.0281 -0.9047 -0.6540
  606TMC3    C5 8980   3.440   1.883   0.134  0.9048  0.1351 -0.3506
  606TMC3    C6 8981   3.571   1.851   0.136  0.3421 -0.4875 -0.0195
  606TMC3     C 8982   3.362   1.923  17.469 -0.4907  0.6649 -0.4360
  606TMC3     O 8983   3.258   1.986  17.486 -0.0861  0.5495 -0.1248
  606TMC3     H 8984   3.652   1.894  17.498 -1.3318  2.0788 -0.8244
  606TMC3    H1 8985   3.263   1.932   0.020 -0.2842 -2.0490 -2.0386
  606TMC3    H2 8986   3.621   1.843   0.232  0.0864 -1.7414  0.0021
  606TMC3    C7 8987   3.379   1.881   0.268 -0.4256 -0.1025  0.4119
  606TMC3    C8 8988   3.783   1.830   0.021  0.4277 -0.3427 -0.1103
  606TMC3    O1 8989   3.449   1.896   0.364  0.0034  0.4581  0.1740
  606TMC3    O2 8990   3.850   1.899  17.633 -0.6547 -0.6785 -0.0139
  607MPD2     C 8991   0.091   0.457  12.111 -0.2977  0.1597 -0.0346
  607MPD2    C1 8992   0.159   0.561  12.172  0.4707 -1.1161 -0.5780
  607MPD2    C2 8993   0.110   0.609  12.292  0.4703  0.4029 -0.5758
  607MPD2    C3 8994   0.006   0.547  12.358 -0.7410  0.0426  0.5652
  607MPD2    C4 8995   4.662   0.433  12.303  0.0038  0.4113  0.3018
  607MPD2    C5 8996   4.706   0.401  12.181 -0.1342 -0.3193  0.5331
  607MPD2     H 8997   0.167   0.687  12.341 -0.3468 -0.2676  1.4477
  607MPD2    H1 8998   4.570   0.388  12.338 -1.3979  2.2528 -0.9962
  607MPD2    H2 8999   0.121   0.418  12.014  1.7798  0.0190  0.6711
  607MPD2    H3 9000   4.651   0.318  12.138 -1.0473  0.9009 -0.6574
  607MPD2     N 9001   4.704   0.589  12.492  0.0002 -0.2715  0.1912
  607MPD2    H5 9002   0.033   0.672  12.522  1.0494  0.1099 -2.7336
  607MPD2    N1 9003   0.269   0.631  12.120 -0.2374 -0.3079  0.0690
  607MPD2    H7 9004   0.305   0.717  12.161 -4.8446  0.7634  1.8571
  608TMC3    C1 9005   0.469   0.665  12.019  0.3109  1.0346  0.1801
  608TMC3    C2 9006   0.512   0.682  12.150 -0.6017 -0.4881 -0.1296
  608TMC3    C3 9007   0.634   0.747  12.155  0.0441  0.8192  0.7087
  608TMC3    C4 9008   0.540   0.689  11.907  0.2396 -0.1468  0.4626
  608TMC3    C5 9009   0.661   0.759  11.924  0.0397  0.1923 -0.2730
  608TMC3    C6 9010   0.700   0.799  12.046 -0.0252  0.4162 -0.7585
  608TMC3     C 9011   0.347   0.588  12.016 -0.1651  0.0518 -0.4120
  608TMC3     O 9012   0.325   0.512  11.921  0.7523  0.4770 -0.1910
  608TMC3     H 9013   0.472   0.637  12.240  0.5969 -0.3397  0.4800
  608TMC3    H1 9014   0.508   0.650  11.811 -0.4937  1.5711  0.0172
  608TMC3    H2 9015   0.780   0.868  12.070  0.3360 -0.3984  0.3933
  608TMC3    C7 9016   0.721   0.818  11.807  0.2039  0.1742  0.6587
  608TMC3    C8 9017   0.674   0.810  12.279 -0.0715 -0.4283  0.3014
  608TMC3    O1 9018   0.682   0.799  11.695  0.4736  0.6082  0.0733
  608TMC3    O2 9019   0.796   0.815  12.295  0.0270  0.1363  0.7534
  609TMC3    C1 9020   3.606   3.487   9.994 -0.7784  0.4426 -0.5071
  609TMC3    C2 9021   3.532   3.398   9.914  0.3738  0.3284 -0.4931
  609TMC3    C3 9022   3.565   3.266   9.913  0.1058  0.4729 -0.6797
  609TMC3    C4 9023   3.710   3.444  10.075  0.2504 -0.0927 -0.0516
  609TMC3    C5 9024   3.730   3.310  10.079 -0.0223 -0.1941  0.0830
  609TMC3    C6 9025   3.656   3.222  10.003  0.5586  0.1473 -0.1250
  609TMC3     C 9026   3.543   3.608  10.034  0.2007 -0.6588  0.4912
  609TMC3     O 9027   3.436   3.632   9.979  0.9596 -0.6653  0.3239
  609TMC3     H 9028   3.448   3.436   9.857 -0.6571 -2.4431 -0.8626
  609TMC3    H1 9029   3.767   3.507  10.144 -0.3355  0.5143 -0.1217
  609TMC3    H2 9030   3.692   3.120   9.997 -0.6856 -0.3415  0.7702
  609TMC3    C7 9031   3.816   3.253  10.181  0.0196 -0.5556 -0.1227
  609TMC3    C8 9032   3.485   3.165   9.845 -0.4030  0.0730 -0.3867
  609TMC3    O1 9033   3.906   3.327  10.212  0.4442 -0.5456 -0.1839
  609TMC3    O2 9034   3.499   3.046   9.869  0.3717 -0.0758  0.7045
  610TMC3    C1 9035   0.455   0.953  13.284 -0.0331  0.3117 -0.0624
  610TMC3    C2 9036   0.554   0.986  13.204  0.9292  0.1323 -0.0379
  610TMC3    C3 9037   0.598   0.883  13.113 -0.0100  0.4330  0.5834
  610TMC3    C4 9038   0.379   0.841  13.269 -0.2790 -0.2897 -0.3004
  610TMC3    C5 9039   0.415   0.750  13.176 -0.3562  0.1824  0.5519
  610TMC3    C6 9040   0.530   0.759  13.100 -0.4665  0.2982  0.0773
  610TMC3     C 9041   0.393   1.048  13.366  0.4978 -0.9160 -0.0108
  610TMC3     O 9042   0.281   1.031  13.407  0.0962  0.1375  0.0404
  610TMC3     H 9043   0.613   1.077  13.217  0.7345  0.2934 -0.2849
  610TMC3    H1 9044   0.297   0.820  13.336  0.3911 -0.7910  0.3648
  610TMC3    H2 9045   0.565   0.673  13.045  3.3190 -0.4494  3.6138
  610TMC3    C7 9046   0.379   0.616  13.207  0.2928  0.6764 -0.8290
  610TMC3    C8 9047   0.719   0.900  13.032 -0.2321  0.0979  0.3081
  610TMC3    O1 9048   0.453   0.521  13.178 -0.1478  0.4809 -0.3080
  610TMC3    O2 9049   0.774   1.010  13.037  0.5278 -0.2121 -0.3895
  611MPD2     C 9050   0.361   0.076  10.068  0.9788  0.2187 -0.5374
  611MPD2    C1 9051   0.382   0.103  10.197  0.3109 -0.0961  0.2349
  611MPD2    C2 9052   0.506   0.162  10.230  0.2327  0.4944 -0.2116
  611MPD2    C3 9053   0.594   0.206  10.128  0.1251 -0.2891  0.0798
  611MPD2    C4 9054   0.559   0.178   9.996  0.7563 -0.8185 -0.1375
  611MPD2    C5 9055   0.442   0.109   9.962  0.1057  0.6516 -0.3172
  611MPD2     H 9056   0.531   0.180  10.334  0.6024 -1.6610  0.0569
  611MPD2    H1 9057   0.611   0.216   9.909  0.9032 -1.7718 -0.4745
  611MPD2    H2 9058   0.270   0.022  10.044  1.3803 -0.7068  0.0144
  611MPD2    H3 9059   0.431   0.081   9.858  0.5556 -1.8765  0.3279
  611MPD2     N 9060   0.713   0.276  10.151  0.7074  0.0346 -0.8521
  611MPD2    H5 9061   0.778   0.271  10.073  1.1170 -0.7610 -0.4637
  611MPD2    N1 9062   0.278   0.081  10.292 -0.0174 -0.2035 -0.0738
  611MPD2    H7 9063   0.187   0.052  10.257 -0.0158  0.5056 -0.6553
  612TMC3    C1 9064   0.903   0.380  10.249  0.1614 -0.1794 -0.2017
  612TMC3    C2 9065   0.974   0.405  10.365  0.2840 -0.5825 -0.4280
  612TMC3    C3 9066   1.087   0.485  10.363 -0.2565  0.4340 -0.2006
  612TMC3    C4 9067   0.944   0.438  10.133 -1.2088 -0.7646 -0.0217
  612TMC3    C5 9068   1.051   0.519  10.132  0.4823 -0.7675  0.3226
  612TMC3    C6 9069   1.126   0.547  10.248 -0.1669 -0.5682  0.0938
  612TMC3     C 9070   0.761   0.343  10.263 -0.1808 -0.8239 -0.3499
  612TMC3     O 9071   0.709   0.365  10.372 -0.0542 -0.5796  0.1460
  612TMC3     H 9072   0.940   0.351  10.452  0.2376  2.2859  1.3569
  612TMC3    H1 9073   0.877   0.440  10.048 -2.6264  0.6832  1.1248
  612TMC3    H2 9074   1.211   0.613  10.253  1.9235 -3.2116 -0.4568
  612TMC3    C7 9075   1.074   0.603  10.018 -0.1279 -0.4892  0.2140
  612TMC3    C8 9076   1.163   0.509  10.487  0.8118 -0.7576  0.3288
  612TMC3    O1 9077   1.022   0.569   9.914  0.7532 -0.0591 -0.0036
  612TMC3    O2 9078   1.276   0.549  10.479 -0.0020  0.1500 -0.0111
  613MPD2     C 9079   4.637   2.399  16.013  0.4010  0.0696  0.0169
  613MPD2    C1 9080   4.534   2.459  15.941  0.0675 -0.0333 -0.0334
  613MPD2    C2 9081   4.402   2.437  15.982 -0.5052  0.5562 -0.2397
  613MPD2    C3 9082   4.370   2.336  16.074  0.2494 -0.2425  0.3504
  613MPD2    C4 9083   4.477   2.275  16.142 -0.5723 -0.3630 -0.1947
  613MPD2    C5 9084   4.606   2.306  16.113 -0.8196  0.2973 -0.6044
  613MPD2     H 9085   4.322   2.478  15.921 -2.5179  0.8815  2.6279
  613MPD2    H1 9086   4.468   2.198  16.217 -1.0086 -0.7523 -0.6508
  613MPD2    H2 9087   0.015   2.412  15.971  0.7157 -0.1889  0.6889
  613MPD2    H3 9088   4.687   2.263  16.172  0.1924  1.8552 -0.8494
  613MPD2     N 9089   4.239   2.297  16.105  0.1720 -0.1599 -0.1444
  613MPD2    H5 9090   4.226   2.208  16.153  0.1857 -1.3743 -2.4199
  613MPD2    N1 9091   4.570   2.532  15.818 -0.7831  0.1576 -0.3922
  613MPD2    H7 9092   4.662   2.511  15.781 -0.5309 -0.5520  0.6219
  614TMC3    C1 9093   4.529   2.667  15.627 -0.3378  0.2921 -0.2138
  614TMC3    C2 9094   4.582   2.578  15.540  1.0013 -0.7234 -0.2683
  614TMC3    C3 9095   4.536   2.574  15.406  0.0267 -1.2070 -0.3852
  614TMC3    C4 9096   4.459   2.778  15.584 -0.0249  0.3581  0.1778
  614TMC3    C5 9097   4.421   2.778  15.454  0.3031 -0.5191  0.1425
  614TMC3    C6 9098   4.464   2.686  15.367 -0.1256  0.0998  0.0016
  614TMC3     C 9099   4.482   2.614  15.753  0.1821 -0.1678  0.2939
  614TMC3     O 9100   4.375   2.652  15.787 -0.4627  0.2644 -0.4316
  614TMC3     H 9101   4.649   2.503  15.582  1.6640  0.9870  1.6695
  614TMC3    H1 9102   4.421   2.843  15.662 -1.5359 -0.5790  0.2362
  614TMC3    H2 9103   4.447   2.694  15.260 -1.3787 -2.3464  0.0180
  614TMC3    C7 9104   4.282   2.823  15.441 -0.6068 -0.7878  0.5325
  614TMC3    C8 9105   4.470   2.448  15.383  0.5371  0.3332 -0.1636
  614TMC3    O1 9106   4.243   2.920  15.502  0.2229  0.0244 -0.3211
  614TMC3    O2 9107   4.491   2.358  15.459  0.1769  0.1108  0.1203
  615MPD2     C 9108   3.087   4.439  16.161 -0.1510  0.2185 -0.1177
  615MPD2    C1 9109   3.061   4.569  16.184 -0.5325  0.2918  1.0088
  615MPD2    C2 9110   2.969   4.637  16.107 -0.2191 -0.5869  0.2035
  615MPD2    C3 9111   2.903   4.578  16.000  0.2178  0.7800 -0.1277
  615MPD2    C4 9112   2.928   4.442  15.983 -0.0880  0.1711  0.4885
  615MPD2    C5 9113   3.026   4.383  16.056  0.1485 -0.1079  0.3519
  615MPD2     H 9114   2.941   0.014  16.143  0.5053  0.1550 -1.2764
  615MPD2    H1 9115   2.882   4.389  15.900  1.1741  0.6561 -0.5263
  615MPD2    H2 9116   3.153   4.374  16.218  0.1048  0.2047 -0.4283
  615MPD2    H3 9117   3.059   4.283  16.031  0.5477 -0.3761  1.9639
  615MPD2     N 9118   2.816   4.643  15.915 -0.1637 -0.2632 -0.2768
  615MPD2    H5 9119   2.755   4.584  15.859  0.2322 -0.2860 -0.6932
  615MPD2    N1 9120   3.108   4.646  16.298 -0.1715 -0.1095 -0.5272
  615MPD2    H7 9121   3.085   0.022  16.302 -0.3110 -0.0924 -1.8132
  616TMC3    C1 9122   3.259   4.714  16.455  0.0137 -0.5556 -0.5854
  616TMC3    C2 9123   3.391   0.005  16.435 -0.0837 -0.2437 -0.0016
  616TMC3    C3 9124   3.442   0.135  16.450  0.0443  0.4979 -0.8520
  616TMC3    C4 9125   3.168   0.097  16.479 -0.0881  0.1090  0.4561
  616TMC3    C5 9126   3.225   0.226  16.487  0.9889  0.0784 -0.5375
  616TMC3    C6 9127   3.365   0.243  16.478 -0.4518  0.0590 -0.2182
  616TMC3     C 9128   3.209   4.604  16.376 -0.1082 -0.3165  0.0911
  616TMC3     O 9129   3.276   4.497  16.375  0.3710 -0.0278 -0.5377
  616TMC3     H 9130   3.445   4.637  16.407  0.3729 -0.5819  1.9905
  616TMC3    H1 9131   3.061   0.086  16.496  0.4735  0.2442  4.0339
  616TMC3    H2 9132   3.402   0.343  16.497 -0.4584 -0.1752  1.0459
  616TMC3    C7 9133   3.132   0.335  16.514 -0.3166  0.2592  0.6058
  616TMC3    C8 9134   3.587   0.160  16.429  0.1987  0.0860 -0.2675
  616TMC3    O1 9135   3.016   0.307  16.531  0.7657 -0.1793  0.1980
  616TMC3    O2 9136   3.631   0.273  16.423  0.1762 -0.2650 -0.1059
  617MPD2     C 9137   1.708   2.175  14.665 -0.1771  0.2536 -0.8630
  617MPD2    C1 9138   1.674   2.118  14.782 -0.1342  0.2020  0.8972
  617MPD2    C2 9139   1.545   2.138  14.837  0.4698  0.0033  0.1800
  617MPD2    C3 9140   1.446   2.215  14.773  0.5222 -0.5152  0.2157
  617MPD2    C4 9141   1.483   2.261  14.647  1.0615  0.0877 -0.3752
  617MPD2    C5 9142   1.611   2.248  14.603 -0.0031  0.1510 -0.4242
  617MPD2     H 9143   1.522   2.078  14.924  3.9750 -1.7470 -0.1353
  617MPD2    H1 9144   1.424   2.322  14.580  0.6365  2.7306  2.4137
  617MPD2    H2 9145   1.806   2.158  14.622 -1.0085  1.3842 -3.1876
  617MPD2    H3 9146   1.644   2.286  14.507 -1.2862  0.3488 -0.7835
  617MPD2     N 9147   1.308   2.231  14.812 -0.1030 -0.1822  0.7225
  617MPD2    H5 9148   1.248   2.286  14.752  2.7276  0.2864 -1.6520
  617MPD2    N1 9149   1.771   2.034  14.841  0.4822  0.1771  0.2238
  617MPD2    H7 9150   1.852   2.016  14.782  0.0372  0.0367 -0.3459
  618TMC3    C1 9151   1.875   1.889  14.981 -0.6084 -0.5911  0.3285
  618TMC3    C2 9152   1.859   1.749  14.989  0.4643 -0.2167 -0.2502
  618TMC3    C3 9153   1.970   1.679  14.949  0.3287  0.1223  0.0387
  618TMC3    C4 9154   1.993   1.948  14.928 -0.2120  0.6490  0.2801
  618TMC3    C5 9155   2.095   1.864  14.878 -0.9765 -0.6660  0.0246
  618TMC3    C6 9156   2.086   1.733  14.902 -0.0243 -0.0320 -0.2142
  618TMC3     C 9157   1.756   1.965  14.959 -0.2617  0.1287 -0.2638
  618TMC3     O 9158   1.656   1.935  15.026 -0.1710 -0.4085  0.2834
  618TMC3     H 9159   1.776   1.693  15.030  0.3753 -0.1130 -0.2888
  618TMC3    H1 9160   1.997   2.056  14.919  0.0827  0.5309 -1.0747
  618TMC3    H2 9161   2.166   1.667  14.870 -0.1802  0.2492 -1.1999
  618TMC3    C7 9162   2.101   1.886  14.733  0.0336  0.4869 -0.3080
  618TMC3    C8 9163   1.990   1.530  14.967  0.3479  0.5951 -0.0063
  618TMC3    O1 9164   2.015   1.958  14.687 -0.2280  0.2261  0.4777
  618TMC3    O2 9165   2.000   1.489  15.081  0.0313  0.4547 -0.3687
  619MPD2     C 9166   2.734   3.488  13.203 -0.3534 -0.2017  0.0700
  619MPD2    C1 9167   2.653   3.602  13.202  0.8910 -0.3284 -0.1702
  619MPD2    C2 9168   2.516   3.588  13.184 -0.7953 -0.3508  0.2057
  619MPD2    C3 9169   2.463   3.461  13.181  0.3956 -0.8975  0.0250
  619MPD2    C4 9170   2.543   3.347  13.186 -0.0336 -0.2889  0.4645
  619MPD2    C5 9171   2.679   3.361  13.191 -0.1567 -0.0591  0.1829
  619MPD2     H 9172   2.453   3.675  13.173  1.1784  0.8380 -1.6958
  619MPD2    H1 9173   2.500   3.248  13.176  1.0434 -0.6446 -0.7295
  619MPD2    H2 9174   2.842   3.492  13.212 -0.4111 -1.1772  1.2468
  619MPD2    H3 9175   2.741   3.274  13.207 -0.3954 -0.6805 -2.1872
  619MPD2     N 9176   2.323   3.452  13.154  0.0603  0.1968  0.0204
  619MPD2    H5 9177   2.274   3.364  13.171  0.6984  0.1167  1.4129
  619MPD2    N1 9178   2.696   3.731  13.222  0.2680 -0.1173  0.1292
  619MPD2    H7 9179   2.635   3.812  13.221  1.0064  0.4204 -1.3316
  620TMC3    C1 9180   2.829   3.916  13.250  0.2755  0.0218  1.1871
  620TMC3    C2 9181   2.709   3.965  13.203  0.3904  0.1336  0.4681
  620TMC3    C3 9182   2.657   4.068  13.272  0.3410  0.0164 -0.6252
  620TMC3    C4 9183   2.890   3.946  13.369  0.0440 -0.6791  0.9381
  620TMC3    C5 9184   2.833   4.048  13.434  0.9951  0.0158  0.6012
  620TMC3    C6 9185   2.722   4.116  13.387  0.1493  0.1996 -0.0362
  620TMC3     C 9186   2.821   3.776  13.239 -0.3743  0.2046  0.1530
  620TMC3     O 9187   2.919   3.710  13.264 -0.5705 -0.3934 -0.1615
  620TMC3     H 9188   2.667   3.935  13.107 -0.7034  3.1056 -0.0035
  620TMC3    H1 9189   2.972   3.888  13.410  0.7348  0.6299  1.4181
  620TMC3    H2 9190   2.697   4.216  13.420  1.5684  1.1540 -1.8541
  620TMC3    C7 9191   2.853   4.042  13.579  0.2758  0.1601  0.6136
  620TMC3    C8 9192   2.522   4.025  13.309  0.1029  0.3553  1.1024
  620TMC3    O1 9193   2.960   3.993  13.621  0.0938  0.4984 -0.3595
  620TMC3    O2 9194   2.492   3.909  13.291 -0.3814 -0.0381  0.3889
  621MPD2     C 9195   2.957   3.372  10.817 -0.0834 -0.0497  0.7671
  621MPD2    C1 9196   3.057   3.289  10.875  0.0543 -0.0877 -0.2376
  621MPD2    C2 9197   3.176   3.273  10.802 -0.3513 -0.2958 -0.1600
  621MPD2    C3 9198   3.201   3.327  10.684 -0.0748  0.4238  0.1726
  621MPD2    C4 9199   3.105   3.406  10.620 -0.4792  0.1635 -0.5505
  621MPD2    C5 9200   2.982   3.424  10.686 -0.1137 -0.7598 -0.0612
  621MPD2     H 9201   3.248   3.209  10.851  2.2307  0.6071 -2.7867
  621MPD2    H1 9202   3.117   3.442  10.519 -1.9890 -1.8484 -1.4198
  621MPD2    H2 9203   2.862   3.402  10.860 -0.0100  1.3197 -0.0037
  621MPD2    H3 9204   2.901   3.477  10.639  0.2292 -0.2786 -0.1112
  621MPD2     N 9205   3.334   3.302  10.628  0.2371  0.0621 -0.5930
  621MPD2    H5 9206   3.396   3.247  10.688 -1.6366 -0.5214  0.8147
  621MPD2    N1 9207   3.052   3.228  11.000 -0.2820  0.4199  0.4855
  621MPD2    H7 9208   3.126   3.169  11.037  1.5172  0.6994 -2.7393
  622TMC3    C1 9209   2.981   3.195  11.221  0.5172  0.6336 -0.4697
  622TMC3    C2 9210   2.921   3.252  11.331 -0.3171  0.3191 -0.2756
  622TMC3    C3 9211   2.951   3.196  11.451 -0.3436 -0.1141 -0.1588
  622TMC3    C4 9212   3.052   3.078  11.223  0.1010  0.0952  0.8935
  622TMC3    C5 9213   3.100   3.039  11.351 -0.2503  0.2881 -0.1836
  622TMC3    C6 9214   3.046   3.100  11.458 -1.0365 -0.0518 -0.3861
  622TMC3     C 9215   2.950   3.253  11.091 -0.5401  0.7636 -0.3140
  622TMC3     O 9216   2.854   3.324  11.071  0.5486 -0.1583  0.4989
  622TMC3     H 9217   2.857   3.339  11.323 -0.1353  0.3316 -1.6134
  622TMC3    H1 9218   3.050   3.017  11.134 -2.6412 -1.7882  2.2426
  622TMC3    H2 9219   3.075   3.064  11.557 -0.0080 -1.5431 -1.2365
  622TMC3    C7 9220   3.170   2.913  11.364  0.4203  0.0811  0.4307
  622TMC3    C8 9221   2.887   3.243  11.575 -0.4099  0.9118  0.1117
  622TMC3    O1 9222   3.182   2.867  11.479 -0.0029 -0.1752 -0.3420
  622TMC3    O2 9223   2.950   3.233  11.678  0.6427 -0.1859 -0.5226
  623MPD2     C 9224   2.398   4.317  16.475 -0.1268 -0.5280  0.0824
  623MPD2    C1 9225   2.331   4.207  16.534  0.4466 -0.4186 -0.3591
  623MPD2    C2 9226   2.371   4.172  16.660 -0.6514  0.1961 -0.2925
  623MPD2    C3 9227   2.475   4.233  16.729  0.5700  0.8577 -0.0069
  623MPD2    C4 9228   2.528   4.350  16.680 -0.0392  0.4098 -0.3766
  623MPD2    C5 9229   2.490   4.391  16.552  0.0880 -0.3722 -0.0401
  623MPD2     H 9230   2.330   4.082  16.706 -1.2830  0.5196 -0.2314
  623MPD2    H1 9231   2.606   4.411  16.724 -0.6233 -0.8569  2.3960
  623MPD2    H2 9232   2.374   4.364  16.380  1.2473  1.4456  0.7131
  623MPD2    H3 9233   2.529   4.482  16.510  0.4492  0.4205  2.0454
  623MPD2     N 9234   2.507   4.186  16.863 -0.0230 -0.2809 -1.0896
  623MPD2    H5 9235   2.452   4.105  16.891  0.4173 -0.5810 -1.1025
  623MPD2    N1 9236   2.230   4.135  16.469 -0.2888  0.2818  0.1651
  623MPD2    H7 9237   2.190   4.061  16.526 -0.0815 -0.4660 -0.6740
  624TMC3    C1 9238   2.691   4.161  17.291 -0.2122 -0.0265  0.0945
  624TMC3    C2 9239   2.591   4.078  17.343  0.1118 -0.3887  0.5251
  624TMC3    C3 9240   2.479   4.075  17.258  0.2586 -0.4555  0.6062
  624TMC3    C4 9241   2.689   4.227  17.170  0.5119 -0.3172 -0.4005
  624TMC3    C5 9242   2.573   4.215  17.091 -0.1629  0.6142  0.9580
  624TMC3    C6 9243   2.468   4.134  17.134 -0.1945  0.4251 -0.1594
  624TMC3     C 9244   2.817   4.133  17.357 -0.3265  0.6095 -0.7548
  624TMC3     O 9245   2.823   4.036  17.430  0.5696 -0.2057  0.0298
  624TMC3     H 9246   2.596   4.023  17.436 -0.3251  0.1269  0.8562
  624TMC3    H1 9247   2.772   4.287  17.133 -0.6746  1.4279 -0.2148
  624TMC3    H2 9248   2.382   4.114  17.071  0.2365 -0.1998 -0.5486
  624TMC3    C7 9249   2.601   4.239  16.949 -0.0960 -0.2298  0.1066
  624TMC3    C8 9250   2.374   3.985  17.290 -0.1198 -0.0666  0.1488
  624TMC3    O1 9251   2.695   4.314  16.913  0.0002  0.2043  0.3238
  624TMC3    O2 9252   2.318   3.942  17.192 -0.3335 -0.2745 -0.6047
  625MPD2     C 9253   2.505   0.183   0.987  0.3048  0.1113  0.2616
  625MPD2    C1 9254   2.545   0.254   0.868  0.1353  0.2338 -0.3968
  625MPD2    C2 9255   2.683   0.302   0.865  0.3788 -0.0410  0.5416
  625MPD2    C3 9256   2.771   0.284   0.978  0.5898  0.5192  0.2791
  625MPD2    C4 9257   2.720   0.221   1.096  0.0231 -0.0080  0.3993
  625MPD2    C5 9258   2.590   0.174   1.094  0.1007 -0.4961 -0.0893
  625MPD2     H 9259   2.712   0.368   0.784  1.0687 -2.0867 -0.8772
  625MPD2    H1 9260   2.781   0.207   1.185  0.0013  0.4219  0.4811
  625MPD2    H2 9261   2.408   0.137   1.003  0.8161 -1.2253 -0.4515
  625MPD2    H3 9262   2.566   0.123   1.187  0.4462 -0.4350  0.0342
  625MPD2     N 9263   2.906   0.333   0.969 -0.0416 -0.0978 -0.0714
  625MPD2    H5 9264   2.928   0.351   0.872 -0.8249  1.4777  0.0419
  625MPD2    N1 9265   2.461   0.281   0.757  0.4181 -0.3140 -0.3874
  625MPD2    H7 9266   2.496   0.354   0.696 -1.0307  1.4678  0.8896
  626TMC3    C1 9267   2.270   0.238   0.615  0.0580 -0.3282  0.6105
  626TMC3    C2 9268   2.283   0.359   0.557 -0.3098 -0.0401 -0.0091
  626TMC3    C3 9269   2.228   0.374   0.430 -0.2578 -0.5821  0.5029
  626TMC3    C4 9270   2.194   0.140   0.559  0.2931 -0.1455 -0.3266
  626TMC3    C5 9271   2.158   0.148   0.421 -0.2286 -0.7259  0.3018
  626TMC3    C6 9272   2.181   0.267   0.359 -0.2163 -0.8715 -0.1245
  626TMC3     C 9273   2.338   0.218   0.744 -0.1787  0.1136  0.0565
  626TMC3     O 9274   2.297   0.121   0.806  0.0573  0.5719  0.1082
  626TMC3     H 9275   2.345   0.434   0.604  0.8573  0.2928 -2.0893
  626TMC3    H1 9276   2.188   0.051   0.620  2.8695  0.2185  0.4661
  626TMC3    H2 9277   2.144   0.278   0.258  1.9142  0.6312 -0.7396
  626TMC3    C7 9278   2.034   0.086   0.389  0.3996 -0.9673  0.7060
  626TMC3    C8 9279   2.233   0.498   0.357  0.2498 -0.3515  0.1614
  626TMC3    O1 9280   1.995   0.099   0.277 -0.1795  0.1442  0.1376
  626TMC3    O2 9281   2.233   0.494   0.233  0.2728  0.0224 -0.4575
  627MPD2     C 9282   0.602   1.020  15.229 -0.7171  0.1342 -0.0631
  627MPD2    C1 9283   0.706   0.945  15.267  0.2882  1.3646 -0.7724
  627MPD2    C2 9284   0.704   0.811  15.240 -0.4786 -0.1004  0.3308
  627MPD2    C3 9285   0.599   0.749  15.165 -0.0049  0.1841 -0.3435
  627MPD2    C4 9286   0.495   0.833  15.127 -0.1652 -0.1396  0.0236
  627MPD2    C5 9287   0.494   0.962  15.167 -0.7207 -0.0066  0.4050
  627MPD2     H 9288   0.786   0.746  15.266  1.7476  2.2710 -0.8548
  627MPD2    H1 9289   0.400   0.807  15.082  0.2421 -1.7132  0.0862
  627MPD2    H2 9290   0.597   1.126  15.249  1.7140  0.0577  0.9768
  627MPD2    H3 9291   0.416   1.035  15.144 -0.2916  0.5485  0.7001
  627MPD2     N 9292   0.605   0.617  15.125 -0.3955  0.5594  0.1466
  627MPD2    H5 9293   0.666   0.548  15.167  0.0875 -0.9091 -2.9697
  627MPD2    N1 9294   0.818   0.998  15.338 -0.1012 -0.0609  0.1509
  627MPD2    H7 9295   0.891   0.927  15.342  0.7913  0.8008 -0.8859
  628TMC3    C1 9296   0.983   1.165  15.397 -0.0228 -0.0306  0.3887
  628TMC3    C2 9297   1.083   1.070  15.374 -0.0377 -0.1054 -0.6252
  628TMC3    C3 9298   1.212   1.109  15.409  0.0257 -0.2558  0.3389
  628TMC3    C4 9299   1.013   1.294  15.445 -0.5071 -0.0923 -0.7654
  628TMC3    C5 9300   1.138   1.324  15.480 -0.1304 -0.4520  0.0359
  628TMC3    C6 9301   1.240   1.230  15.475 -0.2264 -0.7668  0.0634
  628TMC3     C 9302   0.843   1.132  15.363  0.8327  0.7756  0.4726
  628TMC3     O 9303   0.760   1.216  15.377  0.3537  0.0498  0.0962
  628TMC3     H 9304   1.071   0.967  15.342  2.9319 -1.7875  3.6802
  628TMC3    H1 9305   0.940   1.373  15.431 -1.5342 -0.8130  0.5776
  628TMC3    H2 9306   1.340   1.271  15.476 -0.6635  0.2954  0.5471
  628TMC3    C7 9307   1.176   1.451  15.520  0.6200 -0.1519 -0.3577
  628TMC3    C8 9308   1.320   1.024  15.357 -0.3395 -1.0476 -0.3822
  628TMC3    O1 9309   1.255   1.460  15.613  0.0112  0.0439 -0.5576
  628TMC3    O2 9310   1.280   0.930  15.288  0.1600  0.0445 -0.3415
  629MPD2     C 9311   4.079   0.008  16.441 -0.0677 -0.0024  0.2361
  629MPD2    C1 9312   3.991   4.620  16.426 -0.0170 -0.3519  0.4258
  629MPD2    C2 9313   3.853   4.632  16.425 -0.5969 -0.3165 -0.9813
  629MPD2    C3 9314   3.799   0.037  16.426 -0.3512 -0.2910 -1.0058
  629MPD2    C4 9315   3.887   0.150  16.449  0.4959 -0.1521 -0.0323
  629MPD2    C5 9316   4.020   0.128  16.451  0.2076  0.2514 -0.0384
  629MPD2     H 9317   3.790   4.547  16.400 -1.0340  0.2685 -1.8606
  629MPD2    H1 9318   3.847   0.249  16.463 -0.6040 -0.6656  0.4052
  629MPD2    H2 9319   4.187   4.722  16.445 -0.2023 -2.4001 -0.8247
  629MPD2    H3 9320   4.084   0.215  16.456  1.6514 -0.8852  1.4202
  629MPD2     N 9321   3.661   0.043  16.440  0.1953  0.0035 -0.2111
  629MPD2    H5 9322   3.605   4.681  16.454  0.1193  0.1420  0.2791
  629MPD2    N1 9323   4.050   4.488  16.411 -0.2320 -0.1146 -0.4821
  629MPD2    H7 9324   4.151   4.489  16.419 -0.3452 -0.7565  1.0401
  630TMC3    C1 9325   4.086   4.265  16.395  0.3616 -0.9565 -1.0690
  630TMC3    C2 9326   4.176   4.291  16.293  0.0906  0.0963  0.0122
  630TMC3    C3 9327   4.261   4.187  16.260  0.0042 -0.1765  0.3701
  630TMC3    C4 9328   4.077   4.146  16.463  0.6490 -0.2612 -0.4733
  630TMC3    C5 9329   4.170   4.049  16.433 -0.6138  0.1748 -0.1727
  630TMC3    C6 9330   4.258   4.072  16.334  0.6490  0.2197 -0.0152
  630TMC3     C 9331   3.991   4.366  16.423  0.1141  0.4937 -0.4874
  630TMC3     O 9332   3.875   4.339  16.435 -0.1709  0.8209  0.0944
  630TMC3     H 9333   4.170   4.386  16.241 -1.5415 -0.5366 -0.9582
  630TMC3    H1 9334   4.037   4.151  16.563 -0.4035 -0.5603 -0.8813
  630TMC3    H2 9335   4.333   3.997  16.310 -0.2742 -0.9321  0.7098
  630TMC3    C7 9336   4.228   3.985  16.551  0.2890  0.4864  0.1732
  630TMC3    C8 9337   4.401   4.227  16.238  0.4962 -0.0740  0.3101
  630TMC3    O1 9338   4.157   3.960  16.647  0.0862 -0.1027  0.5151
  630TMC3    O2 9339   4.480   4.170  16.314  0.1337 -0.3256  0.4343
  631MPD2     C 9340   1.987   4.329  15.542 -0.4702  0.9996  0.3230
  631MPD2    C1 9341   1.942   4.444  15.593  0.1555 -0.4329 -0.3706
  631MPD2    C2 9342   2.040   4.527  15.644 -0.0575  0.3093 -0.3128
  631MPD2    C3 9343   2.177   4.504  15.634 -0.1173 -0.3880  0.4055
  631MPD2    C4 9344   2.226   4.391  15.570  1.0272 -0.7490  0.7439
  631MPD2    C5 9345   2.120   4.302  15.528 -0.2994  0.0302  0.0956
  631MPD2     H 9346   2.024   4.621  15.694 -1.4305  0.5880 -1.2822
  631MPD2    H1 9347   2.328   4.360  15.548  1.0129  0.9788 -1.7842
  631MPD2    H2 9348   1.915   4.256  15.507  1.4681 -1.4869  1.5714
  631MPD2    H3 9349   2.146   4.199  15.503 -0.4841 -0.3385  1.4144
  631MPD2     N 9350   2.264   4.599  15.695  0.1082 -0.3244  0.0969
  631MPD2    H5 9351   2.219   4.660  15.763 -0.1246 -1.6165  1.1068
  631MPD2    N1 9352   1.803   4.468  15.594 -0.2418  0.3914 -0.1903
  631MPD2    H7 9353   1.742   4.389  15.574 -0.8970  0.8029  0.1632
  632TMC3    C1 9354   1.808   4.716  15.625 -0.3866  0.2469  0.4596
  632TMC3    C2 9355   1.787   0.075  15.736 -0.5502 -0.7574  0.0177
  632TMC3    C3 9356   1.853   0.201  15.740  0.2322  0.1674 -0.6471
  632TMC3    C4 9357   1.893   0.025  15.518 -0.2228  0.3422  0.9671
  632TMC3    C5 9358   1.958   0.145  15.532  0.9493  1.1195 -0.2178
  632TMC3    C6 9359   1.933   0.239  15.633 -0.0518  0.7224 -0.4875
  632TMC3     C 9360   1.735   4.589  15.625  0.0335 -0.7142  0.1588
  632TMC3     O 9361   1.620   4.602  15.657 -0.1130 -0.4347 -0.2346
  632TMC3     H 9362   1.733   0.025  15.815 -1.9674 -0.9282 -1.0638
  632TMC3    H1 9363   1.903   4.677  15.436 -2.2783  2.4633 -1.1075
  632TMC3    H2 9364   2.011   0.314  15.631  1.2606 -0.6127  0.9006
  632TMC3    C7 9365   2.097   0.127  15.486  0.3156  0.0123  0.0675
  632TMC3    C8 9366   1.829   0.286  15.853  0.2056 -0.5352 -0.4319
  632TMC3    O1 9367   2.190   0.179  15.554 -0.5632  0.6070  1.0176
  632TMC3    O2 9368   1.820   0.405  15.822 -0.2331  0.0375  0.1762
  633MPD2     C 9369   2.309   2.347   0.091  0.7315  0.7085  0.3883
  633MPD2    C1 9370   2.331   2.233   0.017 -0.6780 -0.4983  0.3835
  633MPD2    C2 9371   2.336   2.112   0.088  0.0800 -0.5982  0.2089
  633MPD2    C3 9372   2.294   2.102   0.221 -0.5094  0.2822 -0.3694
  633MPD2    C4 9373   2.278   2.220   0.289  0.4164  0.2336  0.0782
  633MPD2    C5 9374   2.286   2.339   0.228  0.1137 -0.5563 -0.6164
  633MPD2     H 9375   2.382   2.025   0.044 -0.1734 -1.5796  1.8874
  633MPD2    H1 9376   2.263   2.227   0.396 -0.6616 -2.5783  0.1229
  633MPD2    H2 9377   2.301   2.449   0.053 -0.7675  0.7780  0.9034
  633MPD2    H3 9378   2.273   2.427   0.290 -1.2544 -0.3296 -1.2353
  633MPD2     N 9379   2.301   1.980   0.295 -0.9946 -0.1991 -0.0425
  633MPD2    H5 9380   2.286   1.995   0.394 -4.2336  2.5712 -0.9296
  633MPD2    N1 9381   2.358   2.242  17.567  0.0080 -0.2694  0.3226
  633MPD2    H7 9382   2.383   2.154  17.522  0.2920  0.2857 -0.6116
  634TMC3    C1 9383   2.411   2.332  17.360  0.5037  0.2340  0.7498
  634TMC3    C2 9384   2.494   2.230  17.319 -0.3375  0.0583  0.2541
  634TMC3    C3 9385   2.516   2.218  17.181  0.5347  0.2847 -0.0424
  634TMC3    C4 9386   2.362   2.418  17.266 -0.3440  0.7019  0.5034
  634TMC3    C5 9387   2.381   2.397  17.127 -0.0731  0.0535 -0.5533
  634TMC3    C6 9388   2.463   2.301  17.085  0.0904 -0.0033  0.4669
  634TMC3     C 9389   2.376   2.361  17.494  0.3291 -0.3835  0.0637
  634TMC3     O 9390   2.351   2.480  17.524  0.2537  0.2096 -0.2781
  634TMC3     H 9391   2.529   2.152  17.386 -1.2193 -0.6470 -0.0986
  634TMC3    H1 9392   2.316   2.508  17.304 -2.4979 -0.1252 -0.1568
  634TMC3    H2 9393   2.491   2.299  16.980 -0.0831  2.7959  0.3433
  634TMC3    C7 9394   2.351   2.502  17.036  0.3326 -0.1124  0.2348
  634TMC3    C8 9395   2.637   2.138  17.153  0.5344  0.4108  0.8487
  634TMC3    O1 9396   2.440   2.539  16.955 -0.4431 -0.5825  0.0681
  634TMC3    O2 9397   2.711   2.119  17.247 -0.3629  0.2686  0.3082
  635TMC3    C1 9398   2.161   2.880   0.832  0.2719 -0.3600  0.6223
  635TMC3    C2 9399   2.041   2.840   0.780  0.2889 -0.1408  0.3807
  635TMC3    C3 9400   1.984   2.726   0.824 -0.4148 -0.4628 -0.3484
  635TMC3    C4 9401   2.221   2.820   0.938 -0.0191 -0.0349  0.1221
  635TMC3    C5 9402   2.152   2.719   0.991  0.0580 -0.2837  0.3906
  635TMC3    C6 9403   2.045   2.662   0.931 -0.4710 -0.0349 -0.2939
  635TMC3     C 9404   2.246   2.972   0.759 -0.2954  0.3776 -0.1424
  635TMC3     O 9405   2.203   3.001   0.651 -0.0150  0.5565 -0.0293
  635TMC3     H 9406   2.000   2.905   0.704 -2.7384 -2.9442 -0.3755
  635TMC3    H1 9407   2.311   2.852   0.989 -0.3166 -1.9316  1.8293
  635TMC3    H2 9408   1.986   2.598   0.995 -0.4178 -0.3210 -0.5309
  635TMC3    C7 9409   2.199   2.656   1.114 -0.0014 -0.1925 -0.3093
  635TMC3    C8 9410   1.842   2.692   0.800  0.2482  0.7878  0.2238
  635TMC3    O1 9411   2.159   2.543   1.132 -0.2148 -0.1734  0.3938
  635TMC3    O2 9412   1.791   2.616   0.881 -0.2543 -0.8866 -0.0200
  636MPD2     C 9413   3.348   2.724  16.182  0.2798  0.5517 -0.0900
  636MPD2    C1 9414   3.471   2.739  16.245  0.3267  0.4935 -0.0831
  636MPD2    C2 9415   3.571   2.654  16.205  0.4653  0.3661  1.2258
  636MPD2    C3 9416   3.566   2.580  16.088 -0.1546 -0.3212  0.5838
  636MPD2    C4 9417   3.447   2.581  16.013  0.3117 -0.5320  0.4005
  636MPD2    C5 9418   3.340   2.655  16.063 -0.7364 -0.7180  0.5561
  636MPD2     H 9419   3.666   2.658  16.257  1.1577  0.6346 -0.0623
  636MPD2    H1 9420   3.447   2.549  15.910 -0.4454 -0.4707  0.3815
  636MPD2    H2 9421   3.268   2.783  16.224  1.6581  0.7817  2.2369
  636MPD2    H3 9422   3.246   2.653  16.009  0.8519  0.8215 -2.2860
  636MPD2     N 9423   3.680   2.511  16.040 -0.2302  0.0269  0.5063
  636MPD2    H5 9424   3.764   2.517  16.096 -0.6105  1.4795  0.9257
  636MPD2    N1 9425   3.492   2.830  16.348  0.2593  0.4748 -0.3980
  636MPD2    H7 9426   3.577   2.821  16.403 -2.1947 -2.7089  2.9281
  637TMC3    C1 9427   3.831   2.366  15.913 -0.0645  0.2564  0.3123
  637TMC3    C2 9428   3.905   2.351  16.020  0.1863 -0.1101 -0.1240
  637TMC3    C3 9429   4.022   2.276  16.022 -0.6772  1.2146 -0.0798
  637TMC3    C4 9430   3.860   2.311  15.797  0.6483  0.4619  0.9146
  637TMC3    C5 9431   3.977   2.237  15.790  0.7812  0.2280 -0.0521
  637TMC3    C6 9432   4.046   2.208  15.904 -0.0497  0.3958  0.5732
  637TMC3     C 9433   3.696   2.437  15.928  0.6745  0.1749  0.4224
  637TMC3     O 9434   3.614   2.417  15.843  0.2210 -0.8812 -0.1198
  637TMC3     H 9435   3.892   2.402  16.115  0.0843  0.1207 -0.2609
  637TMC3    H1 9436   3.804   2.339  15.708 -0.5909 -0.1521  1.5040
  637TMC3    H2 9437   4.144   2.164  15.894 -0.6161 -0.8064  0.3114
  637TMC3    C7 9438   4.063   2.274  15.681 -0.6797  0.0189 -0.2207
  637TMC3    C8 9439   4.135   2.361  16.064  0.7503  0.0304  0.3614
  637TMC3    O1 9440   4.176   2.310  15.710 -0.1862 -0.1449  0.4869
  637TMC3    O2 9441   4.130   2.479  16.032 -0.0332 -0.0033 -0.4901
  638MPD2     C 9442   3.352   1.386  15.081  0.3834  0.3080  0.2626
  638MPD2    C1 9443   3.311   1.281  14.995 -0.3121 -0.6755  0.5260
  638MPD2    C2 9444   3.278   1.162  15.043  0.0204  0.1198 -0.8684
  638MPD2    C3 9445   3.266   1.144  15.180 -0.0207 -0.3719  0.4023
  638MPD2    C4 9446   3.293   1.249  15.264  0.6172  0.8087 -0.8146
  638MPD2    C5 9447   3.333   1.371  15.213  0.1505 -0.3089  0.6284
  638MPD2     H 9448   3.274   1.081  14.971  0.5884  0.1471 -0.9249
  638MPD2    H1 9449   3.278   1.247  15.371 -0.0937 -1.4328 -0.9496
  638MPD2    H2 9450   3.381   1.480  15.036  0.6351  0.7899  1.4322
  638MPD2    H3 9451   3.364   1.450  15.280  0.4562  0.7369 -0.7446
  638MPD2     N 9452   3.226   1.011  15.218  0.1391 -0.5266 -0.9819
  638MPD2    H5 9453   3.183   0.951  15.148 -0.5632 -0.6342 -0.4634
  638MPD2    N1 9454   3.330   1.294  14.853 -0.2847 -0.1345 -0.3213
  638MPD2    H7 9455   3.385   1.374  14.824  1.7913 -0.9421  1.3845
  639TMC3    C1 9456   3.192   0.828  15.372 -0.0753  0.0792  0.3547
  639TMC3    C2 9457   3.089   0.787  15.296 -0.6498  0.1636  0.4187
  639TMC3    C3 9458   3.040   0.671  15.332 -0.3413 -0.2729 -0.3277
  639TMC3    C4 9459   3.253   0.753  15.471 -0.0496  0.1744 -0.5576
  639TMC3    C5 9460   3.196   0.635  15.497 -0.3164 -0.1908  0.5663
  639TMC3    C6 9461   3.081   0.590  15.433  0.2071  0.1332  0.3050
  639TMC3     C 9462   3.236   0.963  15.353  0.0760  0.2375  0.0066
  639TMC3     O 9463   3.295   1.019  15.441  0.1996 -0.3373  0.0453
  639TMC3     H 9464   3.034   0.854  15.230 -0.3223 -0.9871 -1.0325
  639TMC3    H1 9465   3.350   0.777  15.513  1.0291 -1.8537 -1.8821
  639TMC3    H2 9466   3.043   0.488  15.435 -2.6828  1.2302  1.2726
  639TMC3    C7 9467   3.278   0.536  15.552  0.1974  0.3815  0.3281
  639TMC3    C8 9468   2.950   0.616  15.237 -0.2398 -0.1074  0.7180
  639TMC3    O1 9469   3.221   0.438  15.605  0.1602  0.4404 -0.4105
  639TMC3    O2 9470   2.961   0.660  15.124 -0.0675 -0.3790 -0.6656
  640MPD2     C 9471   4.345   4.506  10.313  0.8250 -0.3898  0.0232
  640MPD2    C1 9472   4.223   4.455  10.297  0.8279  0.7269 -0.5692
  640MPD2    C2 9473   4.117   4.540  10.295  0.4516  0.7844 -0.3388
  640MPD2    C3 9474   4.129   4.678  10.314  0.4095  0.0406 -1.3450
  640MPD2    C4 9475   4.255   0.006  10.340 -0.0395 -0.4385  0.7436
  640MPD2    C5 9476   4.362   4.638  10.335  0.3623 -0.9675  0.1535
  640MPD2     H 9477   4.015   4.504  10.283  0.4282  1.1486 -1.2198
  640MPD2    H1 9478   4.272   0.110  10.364  0.0501 -0.1872 -0.3723
  640MPD2    H2 9479   4.431   4.441  10.328  1.3608  0.3117  0.0123
  640MPD2    H3 9480   4.455   4.667  10.383  0.4463  0.1122 -0.6525
  640MPD2     N 9481   4.018   0.041  10.311  0.2915 -0.0668  0.0637
  640MPD2    H5 9482   4.047   0.137  10.297  0.2718  0.4417  3.4222
  640MPD2    N1 9483   4.207   4.315  10.274  0.5520  0.0339  0.0417
  640MPD2    H7 9484   4.108   4.294  10.260  0.6537 -1.5907  1.8055
  641TMC3    C1 9485   4.254   4.082  10.212  0.4059 -0.3832  0.8845
  641TMC3    C2 9486   4.316   3.975  10.264  0.6997  0.1388  0.0218
  641TMC3    C3 9487   4.279   3.853  10.227  0.6560 -0.6574  0.1733
  641TMC3    C4 9488   4.150   4.070  10.119  0.6725  0.1172  0.1465
  641TMC3    C5 9489   4.112   3.946  10.080  0.0350 -0.1905 -0.2390
  641TMC3    C6 9490   4.181   3.836  10.137 -0.2458 -0.1080  1.2485
  641TMC3     C 9491   4.304   4.217  10.247  0.2032 -0.2803 -0.0238
  641TMC3     O 9492   4.427   4.226  10.276 -0.0646  0.0671  0.3505
  641TMC3     H 9493   4.379   3.988  10.352 -0.7900  0.2655  1.0772
  641TMC3    H1 9494   4.103   4.156  10.072 -1.3765 -1.1616 -0.1423
  641TMC3    H2 9495   4.173   3.735  10.098 -1.4565  0.1070  0.9375
  641TMC3    C7 9496   4.016   3.930   9.975 -0.6780 -0.0133  0.2630
  641TMC3    C8 9497   4.340   3.735  10.286 -0.1255 -1.0709 -0.4013
  641TMC3    O1 9498   3.994   4.041   9.929  0.0866 -0.2478 -0.0528
  641TMC3    O2 9499   4.271   3.634  10.271  0.4327 -0.5764  0.5536
  642TMC3    C1 9500   0.380   1.283  12.723 -0.6201 -0.3285 -0.8824
  642TMC3    C2 9501   0.492   1.289  12.649  0.5371 -0.3390 -0.5491
  642TMC3    C3 9502   0.489   1.254  12.514  0.0576  0.5932 -0.5740
  642TMC3    C4 9503   0.274   1.213  12.675  0.5041  0.2560 -0.2377
  642TMC3    C5 9504   0.269   1.181  12.541  0.4554 -0.2638  0.7863
  642TMC3    C6 9505   0.374   1.218  12.457  0.0160 -0.3054 -0.9614
  642TMC3     C 9506   0.383   1.339  12.856  0.4514  0.2677  0.2816
  642TMC3     O 9507   0.493   1.378  12.903  0.7317 -0.2626  0.0465
  642TMC3     H 9508   0.575   1.345  12.692  1.0416 -1.0359 -0.6283
  642TMC3    H1 9509   0.207   1.171  12.748 -0.8501 -1.2160 -2.3240
  642TMC3    H2 9510   0.363   1.194  12.352 -0.7740  1.9006 -1.3877
  642TMC3    C7 9511   0.164   1.099  12.479 -0.1172  0.6287 -0.1893
  642TMC3    C8 9512   0.610   1.223  12.440 -0.6513  0.0040  0.0832
  642TMC3    O1 9513   0.193   1.050  12.372 -0.3588  0.2032  0.3559
  642TMC3    O2 9514   0.605   1.185  12.325 -0.0162  0.0690  0.5556
  643TMC3    C1 9515   4.086   0.408   0.869 -0.5599 -0.6416  0.0814
  643TMC3    C2 9516   3.969   0.462   0.824  0.3103  0.6673 -0.5482
  643TMC3    C3 9517   3.916   0.412   0.711  0.5525 -0.0110 -0.4046
  643TMC3    C4 9518   4.148   0.304   0.801 -0.5010  0.7011  0.6759
  643TMC3    C5 9519   4.090   0.253   0.695  0.0497 -0.3650  0.0687
  643TMC3    C6 9520   3.975   0.307   0.648 -0.4650  0.3531 -0.0456
  643TMC3     C 9521   4.153   0.468   0.983  0.3018 -0.8366 -0.0072
  643TMC3     O 9522   4.082   0.542   1.050 -0.2925  0.1839 -0.5902
  643TMC3     H 9523   3.921   0.543   0.878 -0.3433  0.5508 -0.9550
  643TMC3    H1 9524   4.247   0.271   0.830 -0.0154  0.0652 -1.7224
  643TMC3    H2 9525   3.928   0.269   0.558  0.3198  0.0326 -0.3130
  643TMC3    C7 9526   4.180   0.218   0.588  0.2037  0.0675  0.3473
  643TMC3    C8 9527   3.850   0.506   0.620  0.0078 -0.2012  0.6030
  643TMC3    O1 9528   4.296   0.255   0.586 -0.4716  0.3495 -0.4899
  643TMC3    O2 9529   3.770   0.446   0.551  0.5717 -0.3549  0.1460
  644MPD2     C 9530   3.742   4.642   9.527 -0.0559  0.5819  0.1218
  644MPD2    C1 9531   3.709   4.522   9.587 -0.1487  0.3483  0.0983
  644MPD2    C2 9532   3.573   4.499   9.603  0.2712 -0.4045 -0.2065
  644MPD2    C3 9533   3.473   4.589   9.575  0.1832  0.0912  0.8740
  644MPD2    C4 9534   3.509   4.707   9.524 -0.3463  0.0993  0.2352
  644MPD2    C5 9535   3.642   0.017   9.508 -0.5035  0.0233  0.2690
  644MPD2     H 9536   3.545   4.399   9.633  1.0496 -1.2270 -2.2299
  644MPD2    H1 9537   3.430   0.057   9.503 -0.5646  0.5689  2.6800
  644MPD2    H2 9538   3.843   4.675   9.504  1.0015  0.1448  4.1659
  644MPD2    H3 9539   3.670   0.113   9.467 -1.0922  0.1928  0.2628
  644MPD2     N 9540   3.337   4.550   9.604 -0.5151  0.2090 -0.2451
  644MPD2    H5 9541   3.325   4.462   9.654 -0.5421 -0.6440 -1.7738
  644MPD2    N1 9542   3.809   4.419   9.595 -0.7190  0.0612  0.3416
  644MPD2    H7 9543   3.899   4.449   9.559 -0.9790 -1.1047 -1.2663
  645TMC3    C1 9544   3.109   4.571   9.661 -0.0469  0.6176 -0.4431
  645TMC3    C2 9545   3.088   4.437   9.656 -0.5115  0.4098 -0.3389
  645TMC3    C3 9546   2.963   4.383   9.688  0.0001 -0.1085  0.6878
  645TMC3    C4 9547   3.005   4.652   9.702 -0.5101  0.8701  0.1082
  645TMC3    C5 9548   2.881   4.599   9.720 -0.5567  0.1268  0.6058
  645TMC3    C6 9549   2.859   4.466   9.719 -0.5176 -0.0728 -0.6287
  645TMC3     C 9550   3.227   4.633   9.604  1.0401  0.1012 -0.4009
  645TMC3     O 9551   3.224   0.033   9.578 -0.1531 -0.6001 -0.6978
  645TMC3     H 9552   3.164   4.373   9.611 -0.9148 -0.1011 -0.2953
  645TMC3    H1 9553   3.016   0.038   9.704  0.1072  0.7552  2.8772
  645TMC3    H2 9554   2.758   4.433   9.741 -0.0801 -3.0686 -2.9417
  645TMC3    C7 9555   2.776   4.688   9.673  0.1541 -0.3077 -0.2653
  645TMC3    C8 9556   2.949   4.246   9.726 -0.2124 -0.4630  0.1493
  645TMC3    O1 9557   2.803   0.086   9.651 -0.3505  0.6183 -0.0870
  645TMC3    O2 9558   2.835   4.197   9.734 -0.7146  0.4083 -0.4811
  646MPD2     C 9559   3.327   4.687  14.636  0.0352  0.4517 -0.6142
  646MPD2    C1 9560   3.230   4.635  14.720  0.2617  0.3702  0.1544
  646MPD2    C2 9561   3.104   4.692  14.712  0.4379 -0.0183  0.7269
  646MPD2    C3 9562   3.072   0.069  14.622 -0.6454 -0.3118 -0.3215
  646MPD2    C4 9563   3.169   0.119  14.541 -0.2933  0.3812  0.5532
  646MPD2    C5 9564   3.293   0.066  14.549 -0.7258  0.3663 -0.3998
  646MPD2     H 9565   3.027   4.658  14.781  0.0543  0.1169  0.3621
  646MPD2    H1 9566   3.157   0.193  14.463  4.5339  0.1372 -0.3996
  646MPD2    H2 9567   3.429   4.652  14.632  0.5472  2.1529 -2.3561
  646MPD2    H3 9568   3.368   0.107  14.482  0.2460  0.0542  0.5024
  646MPD2     N 9569   2.941   0.118  14.620 -0.3028 -0.1908 -0.4681
  646MPD2    H5 9570   2.888   0.083  14.698 -0.9029  0.9242 -0.3790
  646MPD2    N1 9571   3.275   4.541  14.818 -0.4481  0.5598  0.4054
  646MPD2    H7 9572   3.369   4.504  14.807 -0.4198  1.0165 -0.8692
  647TMC3    C1 9573   3.253   4.370  14.987  0.2658 -0.1604  0.1057
  647TMC3    C2 9574   3.226   4.347  15.122 -0.1459  0.0150 -0.5982
  647TMC3    C3 9575   3.272   4.230  15.176 -0.0654  0.6088  0.0537
  647TMC3    C4 9576   3.318   4.272  14.917  0.5277 -0.0461 -0.3334
  647TMC3    C5 9577   3.378   4.166  14.981 -0.6280  0.0418  0.1757
  647TMC3    C6 9578   3.358   4.138  15.110  0.0138  0.4263  0.6041
  647TMC3     C 9579   3.206   4.499  14.930 -0.8296  0.5696 -0.7429
  647TMC3     O 9580   3.095   4.539  14.967 -0.3694  0.2908  0.1371
  647TMC3     H 9581   3.196   4.425  15.190 -1.9342  0.5122 -1.9496
  647TMC3    H1 9582   3.331   4.281  14.810  2.7923  2.6991  0.1665
  647TMC3    H2 9583   3.405   4.063  15.173  0.7261  0.2060 -0.1967
  647TMC3    C7 9584   3.468   4.083  14.903 -0.4371  0.0869  0.1536
  647TMC3    C8 9585   3.264   4.204  15.316  0.9493  0.8033 -0.2810
  647TMC3    O1 9586   3.449   4.081  14.778 -0.3718  0.5509  0.2845
  647TMC3    O2 9587   3.330   4.121  15.376  0.3943 -0.0080  0.3406
  648TMC3    C1 9588   3.234   2.442  16.446  0.1202  0.4407 -0.1423
  648TMC3    C2 9589   3.335   2.354  16.410  0.8532 -0.1909  0.5420
  648TMC3    C3 9590   3.339   2.321  16.271 -0.0875 -0.4814  0.5324
  648TMC3    C4 9591   3.137   2.489  16.363  0.0124  0.6022  0.7973
  648TMC3    C5 9592   3.146   2.463  16.233  0.1975 -0.4024 -0.7546
  648TMC3    C6 9593   3.248   2.387  16.182  0.0034  0.8525 -0.1196
  648TMC3     C 9594   3.229   2.486  16.589  0.5520 -0.2598  0.0146
  648TMC3     O 9595   3.172   2.592  16.612 -0.0692 -0.2113  0.2738
  648TMC3     H 9596   3.415   2.332  16.479  2.8244  0.9372 -1.4087
  648TMC3    H1 9597   3.056   2.536  16.418  0.1714 -1.0852  2.4593
  648TMC3    H2 9598   3.257   2.389  16.074 -2.2585 -2.4032 -0.3539
  648TMC3    C7 9599   3.043   2.513  16.141  0.7790  0.6767  0.0687
  648TMC3    C8 9600   3.462   2.263  16.229  0.3445  1.0231 -0.3577
  648TMC3    O1 9601   3.052   2.490  16.018 -0.3201 -0.3137  0.1257
  648TMC3    O2 9602   3.551   2.282  16.310  0.2679 -0.2614  0.6220
  649TMC3    C1 9603   1.522   3.498  12.179 -0.4963  0.3090 -0.3829
  649TMC3    C2 9604   1.657   3.526  12.159  0.1112  0.4692 -0.0921
  649TMC3    C3 9605   1.750   3.483  12.256  1.1733 -0.2393 -0.0684
  649TMC3    C4 9606   1.472   3.455  12.296  0.4549  0.4841  1.3467
  649TMC3    C5 9607   1.566   3.420  12.394  0.1701 -0.2762 -0.0743
  649TMC3    C6 9608   1.704   3.434  12.373 -0.3850 -0.3046 -0.2434
  649TMC3     C 9609   1.424   3.543  12.084 -0.1075 -0.8200  0.1557
  649TMC3     O 9610   1.308   3.559  12.132 -0.3302  0.5269  0.9678
  649TMC3     H 9611   1.683   3.585  12.072 -2.5269  0.4369 -0.9047
  649TMC3    H1 9612   1.366   3.458  12.318 -0.2104 -0.1498 -1.7584
  649TMC3    H2 9613   1.779   3.410  12.448 -1.0502  0.1301  0.5570
  649TMC3    C7 9614   1.526   3.378  12.529  0.8796  0.2186  0.2499
  649TMC3    C8 9615   1.892   3.513  12.237  0.2731 -0.4199 -0.2501
  649TMC3    O1 9616   1.417   3.425  12.563 -0.7977 -0.3382 -0.3411
  649TMC3    O2 9617   1.953   3.542  12.340 -0.2174 -0.1146  0.0845
  650TMC3    C1 9618   3.944   0.436  12.996  0.3605  0.0573  0.1170
  650TMC3    C2 9619   4.021   0.519  13.079  0.1107 -0.0986  0.4552
  650TMC3    C3 9620   4.066   0.635  13.018 -0.8389  0.1211 -0.0907
  650TMC3    C4 9621   3.926   0.466  12.866  0.2468 -0.0066 -0.0453
  650TMC3    C5 9622   3.984   0.580  12.813  0.3629 -0.4015  0.2133
  650TMC3    C6 9623   4.055   0.667  12.885  0.8798  0.4893 -0.2721
  650TMC3     C 9624   3.888   0.309  13.045 -0.6457 -0.1793 -0.8301
  650TMC3     O 9625   3.885   0.308  13.164 -0.5571 -0.3457  0.0108
  650TMC3     H 9626   4.034   0.495  13.184  2.4268  0.2151  0.2371
  650TMC3    H1 9627   3.855   0.427  12.794  0.4893  1.3684 -1.0521
  650TMC3    H2 9628   4.104   0.752  12.838 -1.2700  1.3703 -0.9042
  650TMC3    C7 9629   3.931   0.632  12.690 -0.1064  0.3860  0.0497
  650TMC3    C8 9630   4.117   0.748  13.097  0.0464  0.1777  0.3669
  650TMC3    O1 9631   3.874   0.559  12.609 -0.2859  0.4791 -0.2380
  650TMC3    O2 9632   4.194   0.832  13.047 -0.1908  0.0969  0.1005
  651MPD2     C 9633   3.427   1.727  10.526  0.2568  0.1054 -0.7234
  651MPD2    C1 9634   3.402   1.831  10.612 -0.3577 -0.7619 -0.8635
  651MPD2    C2 9635   3.509   1.908  10.651 -0.1579  0.2497  0.5161
  651MPD2    C3 9636   3.638   1.882  10.600  0.2775  0.8210 -0.9897
  651MPD2    C4 9637   3.657   1.773  10.509  1.0660  0.9003  0.5831
  651MPD2    C5 9638   3.547   1.701  10.473  0.2859  0.0478 -0.4640
  651MPD2     H 9639   3.492   1.987  10.724 -1.0536  1.3434 -0.8769
  651MPD2    H1 9640   3.754   1.747  10.467  0.6295  2.2422 -1.2600
  651MPD2    H2 9641   3.349   1.661  10.489  0.4635 -0.0544 -0.8676
  651MPD2    H3 9642   3.554   1.614  10.410  0.2487 -0.0735 -0.3022
  651MPD2     N 9643   3.747   1.954  10.659  0.0285 -0.2475  0.1349
  651MPD2    H5 9644   3.717   2.022  10.728 -1.9673 -0.8677 -0.1325
  651MPD2    N1 9645   3.267   1.859  10.655  0.1016  0.2249  0.2488
  651MPD2    H7 9646   3.256   1.933  10.723  0.9193 -0.9254  1.6454
  652TMC3    C1 9647   4.071   2.139  10.885  0.2958  0.3463  0.6706
  652TMC3    C2 9648   4.053   2.058  10.774 -0.7736  0.2427 -0.2004
  652TMC3    C3 9649   3.948   1.971  10.780  0.7828 -0.2365 -0.4011
  652TMC3    C4 9650   3.994   2.128  10.993 -0.1053  0.7438 -0.2214
  652TMC3    C5 9651   3.893   2.046  10.996  0.0196 -0.2552 -0.2146
  652TMC3    C6 9652   3.863   1.963  10.887  0.3591  0.6974 -1.0733
  652TMC3     C 9653   4.183   2.230  10.898 -0.4178 -0.2198  0.7326
  652TMC3     O 9654   4.198   2.285  11.007  0.1501 -0.4455  0.0673
  652TMC3     H 9655   4.109   2.066  10.681  0.3259  0.1708  0.4505
  652TMC3    H1 9656   4.019   2.181  11.085  1.0717 -1.0988  0.5181
  652TMC3    H2 9657   3.787   1.886  10.894 -0.3820  1.5464  0.2807
  652TMC3    C7 9658   3.794   2.054  11.098 -0.7202  0.2409 -0.2986
  652TMC3    C8 9659   3.887   1.927  10.657  0.4534  0.2078  0.1745
  652TMC3    O1 9660   3.702   1.974  11.102  0.3302  0.5441  0.3695
  652TMC3    O2 9661   3.958   1.881  10.571 -0.0671 -0.0064 -0.4252
  653MPD2     C 9662   2.007   2.380  17.663 -0.4668 -0.1228 -0.1220
  653MPD2    C1 9663   1.959   2.437  17.548 -0.2693 -0.2487 -0.3728
  653MPD2    C2 9664   1.889   2.352  17.464 -0.3506 -0.3802  0.2379
  653MPD2    C3 9665   1.854   2.225  17.506 -0.2187 -0.0796 -0.4219
  653MPD2    C4 9666   1.894   2.178  17.630  0.4950  0.0703 -0.3314
  653MPD2    C5 9667   1.973   2.255   0.012 -1.0641 -0.1186 -0.3119
  653MPD2     H 9668   1.860   2.389  17.366 -1.7361  0.7183  1.0683
  653MPD2    H1 9669   1.854   2.087  17.673 -0.2484  0.0115 -1.1618
  653MPD2    H2 9670   2.070   2.432   0.045  1.1908 -0.4510 -1.3348
  653MPD2    H3 9671   2.003   2.202   0.102 -0.9871  0.1506 -0.1792
  653MPD2     N 9672   1.776   2.145  17.423 -0.1102 -0.0626 -0.1190
  653MPD2    H5 9673   1.733   2.188  17.342  2.0876 -0.1557 -1.3326
  653MPD2    N1 9674   1.963   2.574  17.513  0.1731  0.3418 -0.3480
  653MPD2    H7 9675   1.914   2.601  17.428  0.0070  0.4812 -0.2100
  654TMC3    C1 9676   1.667   1.955  17.342 -0.2632 -0.3953 -0.7160
  654TMC3    C2 9677   1.554   2.032  17.297  0.2130  0.0116 -0.0609
  654TMC3    C3 9678   1.474   1.981  17.199 -0.3713 -0.8633  0.4582
  654TMC3    C4 9679   1.696   1.830  17.287 -0.0873 -0.2938 -0.1139
  654TMC3    C5 9680   1.617   1.788  17.187  0.5931 -0.0102  0.8173
  654TMC3    C6 9681   1.504   1.853  17.147  0.6848  0.9509 -0.1757
  654TMC3     C 9682   1.752   2.013  17.443 -0.3837 -0.1979 -0.0732
  654TMC3     O 9683   1.823   1.941  17.514  0.2143 -0.2334 -0.3066
  654TMC3     H 9684   1.537   2.135  17.329  0.0937 -0.3636  1.0816
  654TMC3    H1 9685   1.794   1.788  17.311 -0.2570 -0.4717  0.2726
  654TMC3    H2 9686   1.445   1.816  17.064 -0.0628 -1.0815  1.2494
  654TMC3    C7 9687   1.648   1.661  17.110 -0.2009 -0.2624 -0.1137
  654TMC3    C8 9688   1.427   2.077  17.107  0.3656 -0.2807  0.1432
  654TMC3    O1 9689   1.604   1.650  16.995 -0.0101  0.0794 -0.4535
  654TMC3    O2 9690   1.385   2.184  17.147 -0.3661  0.3862  0.6326
  655MPD2     C 9691   3.592   2.950  16.004 -0.2672  0.2836 -0.3450
  655MPD2    C1 9692   3.480   2.945  15.917  0.0441  0.6761  0.0493
  655MPD2    C2 9693   3.483   2.872  15.795  0.5512  0.7668 -1.1608
  655MPD2    C3 9694   3.600   2.807  15.759  0.2018 -0.0658  0.1305
  655MPD2    C4 9695   3.711   2.820  15.841  0.0690  0.2022 -0.3407
  655MPD2    C5 9696   3.704   2.888  15.963 -0.1021  0.3016 -0.6004
  655MPD2     H 9697   3.389   2.857  15.744 -0.2431  1.7072  0.0424
  655MPD2    H1 9698   3.802   2.765  15.820 -0.5144 -0.7901 -0.3118
  655MPD2    H2 9699   3.588   2.987  16.106  0.2785  0.3219 -0.3396
  655MPD2    H3 9700   3.789   2.890  16.031 -0.2808  0.6099 -0.3838
  655MPD2     N 9701   3.611   2.730  15.645 -0.1087  0.4677 -0.6420
  655MPD2    H5 9702   3.694   2.672  15.642 -0.8522 -0.7782  2.4658
  655MPD2    N1 9703   3.358   3.003  15.965 -0.1545 -0.4484  0.1633
  655MPD2    H7 9704   3.354   3.025  16.064  2.5057  0.6317  0.0466
  656TMC3    C1 9705   3.125   3.053  15.954 -0.6978  0.2414 -0.1554
  656TMC3    C2 9706   3.103   3.005  16.077  0.3432 -0.1008 -0.6803
  656TMC3    C3 9707   2.984   3.032  16.135  0.1207  0.8398 -0.6924
  656TMC3    C4 9708   3.032   3.131  15.883  0.2130  0.2369  0.4203
  656TMC3    C5 9709   2.909   3.151  15.947 -0.5234 -0.1055 -0.1702
  656TMC3    C6 9710   2.893   3.118  16.080  0.1870  0.3943  0.7119
  656TMC3     C 9711   3.255   3.033  15.884  0.1742 -0.3791  0.0999
  656TMC3     O 9712   3.254   3.051  15.763 -0.0221 -0.2739 -0.0573
  656TMC3     H 9713   3.181   2.952  16.131 -1.5578 -0.4913  1.7107
  656TMC3    H1 9714   3.054   3.164  15.782  2.9870  1.1381  1.2970
  656TMC3    H2 9715   2.802   3.144  16.132  0.1650  0.7647  0.4884
  656TMC3    C7 9716   2.804   3.199  15.862 -0.3288  0.3395  0.0028
  656TMC3    C8 9717   2.982   2.991  16.277  0.1835  0.6035  0.0658
  656TMC3    O1 9718   2.831   3.234  15.747  0.2774  0.0801  0.0481
  656TMC3    O2 9719   3.048   2.894  16.315  0.0429  0.3784  0.0936
  657TMC3    C1 9720   2.117   2.243  15.456  0.5199 -0.1453 -0.2363
  657TMC3    C2 9721   2.214   2.292  15.552  0.0663  0.1336 -0.2534
  657TMC3    C3 9722   2.175   2.366  15.652 -0.2811 -0.2955 -0.5556
  657TMC3    C4 9723   1.998   2.309  15.451 -0.0131  0.5408  0.3964
  657TMC3    C5 9724   1.974   2.398  15.553 -0.0409 -0.1121 -0.0426
  657TMC3    C6 9725   2.052   2.418  15.661 -0.4114 -0.4152 -0.4155
  657TMC3     C 9726   2.147   2.141  15.361  1.1686  0.4283 -0.7477
  657TMC3     O 9727   2.085   2.142  15.257 -0.2969 -0.4933 -0.5791
  657TMC3     H 9728   2.319   2.267  15.544 -0.3948 -1.4215 -1.4125
  657TMC3    H1 9729   1.931   2.289  15.367  0.0276  1.2240  0.1958
  657TMC3    H2 9730   2.035   2.493  15.737  1.7442  0.2995 -0.6407
  657TMC3    C7 9731   1.844   2.464  15.542 -0.0654  0.6691  0.5974
  657TMC3    C8 9732   2.272   2.408  15.754 -0.3459 -0.3080 -0.1737
  657TMC3    O1 9733   1.816   2.489  15.425  0.2284  0.1715  0.3912
  657TMC3    O2 9734   2.262   2.521  15.797  0.5795  0.2388  0.1381
  658MPD2     C 9735   3.371   2.189  14.956  0.4439 -0.4661  0.3326
  658MPD2    C1 9736   3.362   2.326  14.970  0.1935  0.3794  0.7529
  658MPD2    C2 9737   3.300   2.400  14.876  0.8771 -0.2531 -0.3432
  658MPD2    C3 9738   3.242   2.341  14.764 -0.4436 -0.2768 -0.0708
  658MPD2    C4 9739   3.245   2.200  14.752  0.0862 -0.0799 -0.3621
  658MPD2    C5 9740   3.312   2.130  14.848  0.4574  1.0562 -0.5327
  658MPD2     H 9741   3.311   2.507  14.884 -2.4700  0.0585 -0.2949
  658MPD2    H1 9742   3.201   2.140  14.673 -0.2135 -0.7006  0.2808
  658MPD2    H2 9743   3.425   2.130  15.029  0.0341 -0.2903  0.7750
  658MPD2    H3 9744   3.307   2.022  14.841  4.5451  0.8581 -0.2515
  658MPD2     N 9745   3.180   2.425  14.669 -0.1925  0.6709 -0.1183
  658MPD2    H5 9746   3.147   2.516  14.699  0.1913  0.4804  0.8837
  658MPD2    N1 9747   3.433   2.373  15.081 -0.1382 -0.9685 -0.5147
  658MPD2    H7 9748   3.476   2.305  15.142 -1.4816 -0.5553  0.8797
  659TMC3    C1 9749   3.515   2.499  15.252  0.3623 -0.3813  0.2224
  659TMC3    C2 9750   3.480   2.593  15.338 -0.0695 -0.9338 -0.3350
  659TMC3    C3 9751   3.537   2.593  15.461  0.3562  0.3733 -0.3672
  659TMC3    C4 9752   3.601   2.396  15.282 -0.0795 -0.5892  1.0382
  659TMC3    C5 9753   3.625   2.386  15.419  0.2487 -0.0389  0.4446
  659TMC3    C6 9754   3.612   2.489  15.507 -0.2202  0.5202  0.3142
  659TMC3     C 9755   3.432   2.497  15.131  0.2319  0.3626  0.1272
  659TMC3     O 9756   3.355   2.588  15.107  0.1418  0.1153 -0.2897
  659TMC3     H 9757   3.393   2.654  15.316  0.0274 -0.9435 -0.7477
  659TMC3    H1 9758   3.627   2.313  15.219 -0.8080 -1.4256  1.8449
  659TMC3    H2 9759   3.635   2.472  15.611  0.6060 -0.0628  0.0370
  659TMC3    C7 9760   3.637   2.248  15.477 -0.2819  0.1530  0.4002
  659TMC3    C8 9761   3.510   2.700  15.550  0.8075 -0.5306 -0.0086
  659TMC3    O1 9762   3.735   2.219  15.546 -0.1291  0.0020 -0.1573
  659TMC3    O2 9763   3.402   2.751  15.520 -0.6428  0.0224  0.5160
  660MPD2     C 9764   1.567   1.585  12.923 -0.4123 -0.3679 -0.2392
  660MPD2    C1 9765   1.446   1.530  12.901 -0.6999  0.1322  0.4589
  660MPD2    C2 9766   1.416   1.409  12.961  0.0195  0.0031 -0.8188
  660MPD2    C3 9767   1.489   1.374  13.074 -0.5113 -0.6384 -0.2133
  660MPD2    C4 9768   1.594   1.448  13.112 -0.3039 -0.0172  0.0545
  660MPD2    C5 9769   1.637   1.548  13.034  0.4319 -1.0004 -0.0678
  660MPD2     H 9770   1.350   1.341  12.908  1.2685 -1.1480 -0.9119
  660MPD2    H1 9771   1.650   1.417  13.199  0.0456 -0.1310 -0.2077
  660MPD2    H2 9772   1.605   1.673  12.872 -0.8067 -0.5138 -0.7846
  660MPD2    H3 9773   1.724   1.602  13.072  0.7542 -0.4530 -1.6041
  660MPD2     N 9774   1.474   1.249  13.143  0.6914  1.0001 -0.1160
  660MPD2    H5 9775   1.542   1.222  13.214 -0.3270 -2.0280 -0.2977
  660MPD2    N1 9776   1.371   1.589  12.799 -0.0099 -0.3563 -0.0699
  660MPD2    H7 9777   1.387   1.685  12.770 -0.1574 -0.5751 -0.8772
  661TMC3    C1 9778   1.182   1.638  12.684  0.7445 -0.1413  0.0572
  661TMC3    C2 9779   1.230   1.681  12.561  0.6093 -0.1999  0.1153
  661TMC3    C3 9780   1.147   1.746  12.477  0.2504 -0.3444  0.4152
  661TMC3    C4 9781   1.048   1.634  12.710 -0.9747  0.4478  0.0432
  661TMC3    C5 9782   0.963   1.678  12.611  0.6594  0.2778 -0.0398
  661TMC3    C6 9783   1.011   1.729  12.491 -0.5827  0.4973 -0.0318
  661TMC3     C 9784   1.256   1.541  12.749 -0.5153 -0.4940 -0.5334
  661TMC3     O 9785   1.201   1.437  12.776  0.0629 -0.6900 -0.5732
  661TMC3     H 9786   1.336   1.666  12.540  0.4891  0.1247 -0.7603
  661TMC3    H1 9787   0.999   1.576  12.787 -1.4889  1.7431  0.6938
  661TMC3    H2 9788   0.935   1.770  12.425  0.6426 -0.0416 -1.7640
  661TMC3    C7 9789   0.841   1.595  12.603 -0.8172 -0.3758 -0.6479
  661TMC3    C8 9790   1.191   1.769  12.344  0.2218 -0.8683 -0.4792
  661TMC3    O1 9791   0.768   1.564  12.699  0.1938 -0.4117  0.0513
  661TMC3    O2 9792   1.273   1.694  12.290  0.0486 -0.2696  0.3151
  662MPD2     C 9793   1.903   0.798   0.086  0.7833 -0.3281  0.1308
  662MPD2    C1 9794   1.847   0.754   0.205 -0.1109 -0.0557  0.4148
  662MPD2    C2 9795   1.775   0.845   0.277  0.3350  0.7448 -0.1736
  662MPD2    C3 9796   1.753   0.979   0.240  0.0017  0.4443 -0.6265
  662MPD2    C4 9797   1.798   1.008   0.113  0.3181  0.8158 -0.0539
  662MPD2    C5 9798   1.878   0.927   0.041 -0.6069 -0.5292 -0.0264
  662MPD2     H 9799   1.726   0.810   0.367 -0.1133  1.5296 -0.1030
  662MPD2    H1 9800   1.778   1.112   0.090  0.9369  0.9880  0.1843
  662MPD2    H2 9801   1.980   0.737   0.040  1.1463 -0.5784  1.0686
  662MPD2    H3 9802   1.928   0.973  17.647  0.3923 -0.6725  0.4969
  662MPD2     N 9803   1.682   1.068   0.321 -0.2942  0.2734  0.8054
  662MPD2    H5 9804   1.649   1.159   0.291 -1.3900 -0.4113 -0.0363
  662MPD2    N1 9805   1.875   0.624   0.254  0.4036 -0.5708 -0.0336
  662MPD2    H7 9806   1.833   0.596   0.342  0.3541 -0.4123 -0.0080
  663TMC3    C1 9807   1.850   0.396   0.226 -0.1083 -0.6382 -0.4927
  663TMC3    C2 9808   1.820   0.402   0.359  0.1181 -0.2013  0.0805
  663TMC3    C3 9809   1.735   0.303   0.404  0.5798 -0.1589 -0.1068
  663TMC3    C4 9810   1.801   0.302   0.142 -0.6839 -0.1500  0.5689
  663TMC3    C5 9811   1.709   0.211   0.190  0.0455 -0.1863 -0.4976
  663TMC3    C6 9812   1.657   0.230   0.318  0.0464 -0.5049  1.0415
  663TMC3     C 9813   1.898   0.519   0.165 -0.0376 -0.3478  0.6550
  663TMC3     O 9814   1.922   0.513   0.046 -0.0807  0.2306  0.5446
  663TMC3     H 9815   1.894   0.447   0.424 -0.9569 -1.1569  1.9869
  663TMC3    H1 9816   1.827   0.289   0.037 -0.8034 -0.1959  0.5447
  663TMC3    H2 9817   1.604   0.143   0.356 -0.0767 -0.4462  1.0027
  663TMC3    C7 9818   1.669   0.102   0.106 -0.2688  0.2021  0.5378
  663TMC3    C8 9819   1.686   0.345   0.538  0.1696  0.2545 -0.0377
  663TMC3    O1 9820   1.731   0.078   0.007  0.1099  0.2761 -0.5107
  663TMC3    O2 9821   1.745   0.431   0.599  0.4243 -0.4319 -0.6011
  664MPD2     C 9822   4.186   3.509   0.029  0.6807 -0.1699  0.0384
  664MPD2    C1 9823   4.211   3.646   0.031 -0.1415 -0.0186  1.2556
  664MPD2    C2 9824   4.190   3.710   0.147 -0.5145 -0.0309  0.3649
  664MPD2    C3 9825   4.170   3.638   0.265 -0.7822  0.2592  0.1183
  664MPD2    C4 9826   4.147   3.505   0.260 -0.5404 -0.5238 -0.2664
  664MPD2    C5 9827   4.155   3.439   0.142  0.1715  0.1294  0.3487
  664MPD2     H 9828   4.205   3.818   0.152  1.9537 -0.2459 -2.1340
  664MPD2    H1 9829   4.110   3.448   0.344  0.2047 -1.8076 -0.8070
  664MPD2    H2 9830   4.181   3.456  17.624 -0.1154 -1.0486  0.5723
  664MPD2    H3 9831   4.126   3.335   0.134  0.9651 -0.1575  1.2230
  664MPD2     N 9832   4.152   3.708   0.390 -0.4381  0.2382 -0.0653
  664MPD2    H5 9833   4.149   3.808   0.379  1.6399  0.3443  0.3195
  664MPD2    N1 9834   4.250   3.728  17.609 -0.4602  0.4672  0.5177
  664MPD2    H7 9835   4.259   3.827  17.628  1.2236  0.9309 -2.6573
  665TMC3    C1 9836   4.162   3.757   0.626 -0.0655 -0.6804  0.5344
  665TMC3    C2 9837   4.218   3.722   0.745 -0.6270 -0.2040  0.6195
  665TMC3    C3 9838   4.211   3.814   0.847  0.1659  0.1163  0.1256
  665TMC3    C4 9839   4.113   3.881   0.602 -0.4464  0.4595  0.5192
  665TMC3    C5 9840   4.118   3.977   0.697 -0.4195  0.3706  0.5819
  665TMC3    C6 9841   4.171   3.939   0.825 -0.2103 -0.2982 -0.4923
  665TMC3     C 9842   4.159   3.649   0.515  0.1750 -0.6140 -0.1366
  665TMC3     O 9843   4.171   3.531   0.545 -0.3127 -0.0407 -0.2473
  665TMC3     H 9844   4.253   3.619   0.754 -1.2160 -0.4834 -0.3707
  665TMC3    H1 9845   4.036   3.884   0.525 -0.8880 -0.7554  0.9214
  665TMC3    H2 9846   4.175   3.996   0.917  2.3964  0.6388 -1.1917
  665TMC3    C7 9847   4.032   4.090   0.688  0.0332  0.0675 -0.4063
  665TMC3    C8 9848   4.288   3.790   0.975 -0.7595 -0.5410 -0.3184
  665TMC3    O1 9849   3.974   4.114   0.587  0.1252 -0.3121 -0.4299
  665TMC3    O2 9850   4.260   3.866   1.066  0.3962 -0.1922  0.6228
  666TMC3    C1 9851   3.539   3.359  10.506 -0.8890 -0.6381  0.0862
  666TMC3    C2 9852   3.602   3.267  10.585 -0.4211  0.2435  0.3022
  666TMC3    C3 9853   3.741   3.274  10.597  0.0705 -0.1562  0.3648
  666TMC3    C4 9854   3.609   3.466  10.457 -0.3214  0.0293 -0.3581
  666TMC3    C5 9855   3.748   3.471  10.470  0.1581  0.1288  0.0340
  666TMC3    C6 9856   3.813   3.373  10.543  0.4550 -0.0981 -0.1098
  666TMC3     C 9857   3.390   3.366  10.524  0.2685 -0.3585  0.0681
  666TMC3     O 9858   3.330   3.425  10.435 -0.0261 -0.4686 -0.0549
  666TMC3     H 9859   3.552   3.178  10.621  0.2984  0.6694  2.3769
  666TMC3    H1 9860   3.569   3.540  10.388  0.9802  2.4407  1.4553
  666TMC3    H2 9861   3.920   3.372  10.564  0.9978 -1.4089 -2.9490
  666TMC3    C7 9862   3.818   3.581  10.440  0.1908 -0.2480 -0.4292
  666TMC3    C8 9863   3.798   3.188  10.709 -0.4159 -1.2833 -0.4060
  666TMC3    O1 9864   3.932   3.566  10.398  0.0413 -0.1772 -0.1266
  666TMC3    O2 9865   3.721   3.110  10.763  0.4434  0.1326 -0.6385
  667MPD2     C 9866   0.276   3.745  14.947 -0.1347  0.6588 -0.2608
  667MPD2    C1 9867   0.171   3.712  15.033  0.2751  0.4477 -0.1123
  667MPD2    C2 9868   0.049   3.686  14.980 -0.4411  0.4103 -0.4804
  667MPD2    C3 9869   0.030   3.687  14.843  0.0296  0.8833  0.6265
  667MPD2    C4 9870   0.135   3.702  14.761  0.1678 -0.2725  0.3612
  667MPD2    C5 9871   0.255   3.742  14.810 -0.0430  0.3797  0.4990
  667MPD2     H 9872   4.686   3.663  15.043 -0.5008  1.2327 -0.2485
  667MPD2    H1 9873   0.126   3.683  14.654  1.2672 -0.2056  0.2636
  667MPD2    H2 9874   0.374   3.769  14.988  0.6070 -0.5740 -1.3102
  667MPD2    H3 9875   0.343   3.769  14.753  0.5401  0.5744  1.4955
  667MPD2     N 9876   4.632   3.652  14.773 -0.3245  0.2397  0.2369
  667MPD2    H5 9877   4.640   3.630  14.674  1.0617 -0.4348  0.5047
  667MPD2    N1 9878   0.177   3.721  15.170  0.3960 -0.2429  0.2393
  667MPD2    H7 9879   0.095   3.686  15.219  0.2326 -1.3247 -0.8295
  668TMC3    C1 9880   0.240   3.767  15.397 -0.4853 -0.5886  0.1095
  668TMC3    C2 9881   0.344   3.785  15.482  0.1165  0.6535 -0.8149
  668TMC3    C3 9882   0.318   3.778  15.617 -0.4877 -0.4400 -0.2878
  668TMC3    C4 9883   0.112   3.755  15.441 -0.2140 -0.0173  0.0222
  668TMC3    C5 9884   0.094   3.752  15.571  0.1025 -0.1470  0.3436
  668TMC3    C6 9885   0.192   3.751  15.662 -0.2427  0.7746 -0.2594
  668TMC3     C 9886   0.273   3.775  15.250  0.2290  1.0437 -0.1334
  668TMC3     O 9887   0.374   3.834  15.212 -0.1583 -0.0069  0.5454
  668TMC3     H 9888   0.447   3.796  15.448  0.4807  0.5915  0.2386
  668TMC3    H1 9889   0.026   3.746  15.376  0.4679 -0.6305 -0.7788
  668TMC3    H2 9890   0.165   3.750  15.767  2.9173 -0.6275  0.5475
  668TMC3    C7 9891   4.676   3.762  15.620 -0.4271  1.2634 -0.5848
  668TMC3    C8 9892   0.407   3.834  15.712  0.1263  0.5201 -0.0154
  668TMC3    O1 9893   4.650   3.696  15.721 -0.7492 -0.3062 -0.8340
  668TMC3    O2 9894   0.373   3.814  15.829 -0.2223  0.2101 -0.0212
  669TMC3    C1 9895   2.848   3.646  14.901  0.7501 -0.4254 -0.8509
  669TMC3    C2 9896   2.732   3.646  14.838 -0.4053  0.4197 -0.2268
  669TMC3    C3 9897   2.728   3.724  14.731  0.1736  0.2092 -0.1343
  669TMC3    C4 9898   2.965   3.712  14.868  0.0347  0.1845  0.0062
  669TMC3    C5 9899   2.958   3.778  14.746 -0.6557 -1.0607  0.3258
  669TMC3    C6 9900   2.839   3.784  14.674  0.5355 -0.6086  0.6366
  669TMC3     C 9901   2.843   3.596  15.036  0.6634  0.3990 -0.1129
  669TMC3     O 9902   2.735   3.601  15.092 -0.2269 -0.2464 -0.0291
  669TMC3     H 9903   2.651   3.584  14.875  1.4450 -1.6623  0.3229
  669TMC3    H1 9904   3.056   3.738  14.922 -1.0495 -1.0137  2.3969
  669TMC3    H2 9905   2.832   3.859  14.597 -0.9911 -0.6561  0.7198
  669TMC3    C7 9906   3.080   3.824  14.673 -0.0484 -0.3231 -0.8530
  669TMC3    C8 9907   2.608   3.742  14.650  0.4685  0.4579 -0.0334
  669TMC3    O1 9908   3.181   3.831  14.735  0.1472 -0.2325  0.1878
  669TMC3    O2 9909   2.615   3.812  14.553 -0.4493 -0.5961  0.4622
  670MPD2     C 9910   1.364   2.192  14.174  0.7206  0.2545 -0.3459
  670MPD2    C1 9911   1.473   2.130  14.226 -0.1046  0.2102 -0.2071
  670MPD2    C2 9912   1.461   2.057  14.344  0.3517  0.3426  0.4406
  670MPD2    C3 9913   1.344   2.044  14.415 -0.2142  0.1788  0.3494
  670MPD2    C4 9914   1.236   2.110  14.364  0.3784 -0.2700  0.0215
  670MPD2    C5 9915   1.251   2.195  14.250  0.0066  0.4393 -0.3537
  670MPD2     H 9916   1.544   1.992  14.367  0.7289  0.9890  0.8956
  670MPD2    H1 9917   1.145   2.128  14.420 -0.5579 -1.4819 -1.0946
  670MPD2    H2 9918   1.366   2.250  14.082  0.0757 -1.3585 -1.3801
  670MPD2    H3 9919   1.172   2.259  14.214 -1.4224 -2.2191 -1.9193
  670MPD2     N 9920   1.342   1.981  14.543  0.7476  0.0379  0.5421
  670MPD2    H5 9921   1.429   1.943  14.577  1.1711  0.5247  0.0044
  670MPD2    N1 9922   1.599   2.110  14.168  0.3622 -0.3638  0.3057
  670MPD2    H7 9923   1.671   2.054  14.212  1.0428  1.8187  2.0052
  671TMC3    C1 9924   1.246   1.897  14.743 -0.0902  0.3106 -0.1475
  671TMC3    C2 9925   1.368   1.873  14.799  0.6622 -0.1385  0.5620
  671TMC3    C3 9926   1.373   1.786  14.903 -0.3637 -0.2985 -0.6712
  671TMC3    C4 9927   1.133   1.854  14.805 -0.3100  0.1168 -0.7292
  671TMC3    C5 9928   1.141   1.768  14.911  0.0802  0.6613 -0.2552
  671TMC3    C6 9929   1.261   1.730  14.953 -0.5427 -0.2090 -0.4736
  671TMC3     C 9930   1.223   1.953  14.611  0.1906  0.3771  0.4349
  671TMC3     O 9931   1.114   1.944  14.561 -0.1134 -0.2447  0.5575
  671TMC3     H 9932   1.456   1.907  14.746 -0.8312 -1.7970 -2.9821
  671TMC3    H1 9933   1.041   1.871  14.749 -1.2294  1.8226  1.3265
  671TMC3    H2 9934   1.255   1.649  15.024  0.5699 -0.0649 -0.2195
  671TMC3    C7 9935   1.064   1.653  14.895 -0.6139 -0.0972  0.1491
  671TMC3    C8 9936   1.475   1.681  14.883 -0.3245  0.8809  0.3785
  671TMC3    O1 9937   1.106   1.553  14.849  0.0181  0.4507 -0.0821
  671TMC3    O2 9938   1.533   1.686  14.777  0.4659 -0.0508 -0.0565
  672MPD2     C 9939   1.275   2.285   0.816 -0.3700 -0.7638 -0.0542
  672MPD2    C1 9940   1.408   2.265   0.815 -0.1682 -0.0798 -0.8049
  672MPD2    C2 9941   1.485   2.326   0.918 -0.0164  0.2079  0.1047
  672MPD2    C3 9942   1.432   2.417   1.010 -0.8614 -0.7209 -0.9210
  672MPD2    C4 9943   1.293   2.428   1.011 -0.3953 -0.2744  0.5238
  672MPD2    C5 9944   1.217   2.371   0.909  0.1315 -0.4739 -0.5551
  672MPD2     H 9945   1.591   2.313   0.902  0.1032  1.5941 -0.2493
  672MPD2    H1 9946   1.244   2.484   1.090  3.1010  2.0680  1.0496
  672MPD2    H2 9947   1.214   2.246   0.735 -0.5040 -1.9892  0.6314
  672MPD2    H3 9948   1.110   2.384   0.921  0.2289  2.5152 -3.1642
  672MPD2     N 9949   1.522   2.481   1.101  0.0146 -0.4886 -0.2397
  672MPD2    H5 9950   1.490   2.561   1.156 -0.8070 -0.1548 -1.2032
  672MPD2    N1 9951   1.479   2.201   0.706 -0.1825 -0.3286 -0.2054
  672MPD2    H7 9952   1.579   2.185   0.713  0.0462  0.1050 -2.5915
  673TMC3    C1 9953   1.528   2.135   0.480  0.3744  0.5109  1.0780
  673TMC3    C2 9954   1.617   2.033   0.507 -0.7690 -0.1440 -0.5876
  673TMC3    C3 9955   1.676   1.967   0.405 -0.4625  0.1148  0.2814
  673TMC3    C4 9956   1.494   2.165   0.351 -0.3993  0.1354  0.2233
  673TMC3    C5 9957   1.559   2.097   0.256 -0.8063  0.3375 -0.0122
  673TMC3    C6 9958   1.649   1.995   0.274  0.1345 -0.4136 -0.0106
  673TMC3     C 9959   1.423   2.178   0.579  0.2130  0.4162  0.8325
  673TMC3     O 9960   1.317   2.217   0.532 -0.1246 -0.4045 -0.0334
  673TMC3     H 9961   1.623   1.987   0.605 -1.3449  0.4993 -0.2529
  673TMC3    H1 9962   1.416   2.235   0.324 -0.2701 -0.1949 -0.9754
  673TMC3    H2 9963   1.706   1.961   0.189  2.1463  3.7914 -0.3281
  673TMC3    C7 9964   1.549   2.149   0.125 -0.2484 -0.0375 -0.4500
  673TMC3    C8 9965   1.768   1.858   0.433  0.0680 -0.7401 -0.2967
  673TMC3    O1 9966   1.548   2.068   0.033 -0.2069  0.1486  0.2947
  673TMC3    O2 9967   1.772   1.769   0.349  0.4991  0.0721  0.2051
  674MPD2     C 9968   2.424   0.732   0.879 -0.4351 -0.0452  0.6965
  674MPD2    C1 9969   2.340   0.728   0.990 -0.1767 -0.0981  0.2039
  674MPD2    C2 9970   2.247   0.828   0.996 -0.0671 -0.0501 -0.0468
  674MPD2    C3 9971   2.236   0.929   0.903 -0.1982  0.7583  0.3180
  674MPD2    C4 9972   2.327   0.934   0.799 -0.5127  0.1371 -0.1457
  674MPD2    C5 9973   2.427   0.839   0.793  0.5351 -0.3580  0.6686
  674MPD2     H 9974   2.178   0.825   1.080  0.9452  0.4891  0.8085
  674MPD2    H1 9975   2.341   1.018   0.731 -1.8505 -1.0731 -1.9255
  674MPD2    H2 9976   2.499   0.656   0.863 -2.1881 -1.5773 -0.2547
  674MPD2    H3 9977   2.497   0.844   0.711 -1.1759  1.7346 -0.6519
  674MPD2     N 9978   2.144   1.030   0.936  0.1253 -0.4545  0.1187
  674MPD2    H5 9979   2.100   1.030   1.028  1.3349  0.6405  0.7003
  674MPD2    N1 9980   2.346   0.631   1.095 -0.0901 -0.6026 -0.5020
  674MPD2    H7 9981   2.286   0.631   1.176 -0.5636 -1.3214 -0.8592
  675TMC3    C1 9982   2.417   0.464   1.221 -0.3030 -0.6044 -0.0141
  675TMC3    C2 9983   2.288   0.443   1.256  0.3354 -0.8631 -0.7017
  675TMC3    C3 9984   2.273   0.362   1.368  0.3118 -0.3884  0.7563
  675TMC3    C4 9985   2.527   0.414   1.285 -0.2358  0.0029  0.2014
  675TMC3    C5 9986   2.498   0.337   1.399 -0.5347  0.0458 -0.0494
  675TMC3    C6 9987   2.379   0.309   1.444  0.5559  0.4506 -0.0651
  675TMC3     C 9988   2.447   0.540   1.102 -0.2168  0.2468 -0.9539
  675TMC3     O 9989   2.564   0.544   1.058  0.7687  0.2034  0.0817
  675TMC3     H 9990   2.201   0.478   1.202 -0.8752 -0.8319  1.2773
  675TMC3    H1 9991   2.628   0.433   1.249  0.0202  0.0467  0.9334
  675TMC3    H2 9992   2.365   0.252   1.534  1.9147  0.8682  0.4109
  675TMC3    C7 9993   2.617   0.279   1.454  0.2204 -0.2556 -0.5621
  675TMC3    C8 9994   2.138   0.319   1.390  0.5036  0.2710  0.3950
  675TMC3    O1 9995   2.723   0.345   1.455  0.2696 -0.2199  0.1490
  675TMC3    O2 9996   2.049   0.353   1.310 -0.1889  0.3867  0.3219
  676MPD2     C 9997   4.477   4.715  11.547  0.3090  0.0287 -0.3756
  676MPD2    C1 9998   4.349   4.717  11.491 -0.7554  1.5311  0.7350
  676MPD2    C2 9999   4.288   4.604  11.443  0.4593 -0.2409  0.2727
  676MPD2    C310000   4.353   4.485  11.454 -0.4929 -0.0706 -0.2590
  676MPD2    C410001   4.479   4.481  11.513 -0.7736  0.2076 -0.1656
  676MPD2    C510002   4.539   4.593  11.560 -0.1723  0.1087  1.3543
  676MPD2     H10003   4.186   4.615  11.410 -0.0391 -0.7732  1.6569
  676MPD2    H110004   4.536   4.390  11.523 -1.8606 -0.5033 -0.4278
  676MPD2    H210005   4.530   0.084  11.575 -1.1143 -0.1262  2.6991
  676MPD2    H310006   4.642   4.586  11.596  0.7798  2.1810 -0.9697
  676MPD2     N10007   4.307   4.363  11.402  0.1848 -0.4668 -0.1423
  676MPD2    H510008   4.373   4.286  11.406 -1.1302 -1.5092  1.6818
  676MPD2    N110009   4.276   0.115  11.489  0.9092 -0.5402 -1.0330
  676MPD2    H710010   4.181   0.104  11.453  0.9069 -3.1842 -0.2183
  677TMC3    C110011   4.217   0.342  11.523 -0.2100 -0.4437 -0.0964
  677TMC3    C210012   4.091   0.299  11.500 -0.5970  0.3109 -0.0788
  677TMC3    C310013   3.991   0.386  11.528 -0.0689  1.1824 -0.4107
  677TMC3    C410014   4.240   0.474  11.559 -0.1401 -0.5222 -0.6501
  677TMC3    C510015   4.140   0.552  11.593 -0.1031 -0.4625 -0.1567
  677TMC3    C610016   4.012   0.510  11.578  0.8016  0.1060  0.6317
  677TMC3     C10017   4.324   0.241  11.518 -0.1035 -0.2540  0.0562
  677TMC3     O10018   4.430   0.285  11.556  0.3176  0.6292  0.6062
  677TMC3     H10019   4.052   0.201  11.472 -0.5956 -0.5442  2.9842
  677TMC3    H110020   4.340   0.494  11.596 -0.3039  0.3057 -0.6672
  677TMC3    H210021   3.936   0.576  11.620 -0.8016 -1.0877 -0.4127
  677TMC3    C710022   4.168   0.670  11.680  0.3834 -0.1029  0.3266
  677TMC3    C810023   3.859   0.324  11.531  0.2790 -0.2029 -0.3538
  677TMC3    O110024   4.088   0.691  11.767  0.2174 -0.3320 -0.1503
  677TMC3    O210025   3.826   0.252  11.435  0.0273  0.2117 -0.6424
  678MPD2     C10026   0.281   0.203   1.775 -0.1546 -0.4488  0.5878
  678MPD2    C110027   0.278   0.072   1.728  0.8998  0.3301 -0.3131
  678MPD2    C210028   0.180   0.038   1.629 -0.1131 -0.1052 -0.5005
  678MPD2    C310029   0.076   0.130   1.603 -0.2205 -0.7657 -0.0835
  678MPD2    C410030   0.090   0.259   1.638  0.0529 -0.4483 -0.5978
  678MPD2    C510031   0.199   0.295   1.714 -0.5990 -0.1093  0.1500
  678MPD2     H10032   0.166   4.661   1.589  0.3548  0.1917 -1.4000
  678MPD2    H110033   0.033   0.344   1.601  2.1418 -0.0310 -2.8897
  678MPD2    H210034   0.362   0.243   1.836 -0.4830  1.7010 -0.3703
  678MPD2    H310035   0.206   0.399   1.744  2.6295 -0.4962  0.6544
  678MPD2     N10036   4.699   0.086   1.520  0.0547  0.4013 -0.3290
  678MPD2    H510037   4.716   4.722   1.471 -0.2022  1.1637 -1.7441
  678MPD2    N110038   0.371   4.700   1.752 -0.3740 -0.7816 -0.4104
  678MPD2    H710039   0.367   4.619   1.690  2.8545 -1.7481  0.6367
  679TMC3    C110040   0.776   4.495   1.877  0.1204 -0.4134  0.2547
  679TMC3    C210041   0.663   4.569   1.903 -0.2879  0.1998 -0.3703
  679TMC3    C310042   0.578   4.600   1.799 -0.1737  0.4206 -0.1432
  679TMC3    C410043   0.810   4.469   1.751  0.3710 -0.3372 -0.8837
  679TMC3    C510044   0.724   4.511   1.649 -0.1419  0.2992  0.1638
  679TMC3    C610045   0.599   4.571   1.672  0.2597 -0.0923  0.2178
  679TMC3     C10046   0.872   4.464   1.989 -0.6268  1.0429 -0.3868
  679TMC3     O10047   0.986   4.443   1.951 -0.4531 -0.9632  0.6862
  679TMC3     H10048   0.629   4.583   2.005  2.5565 -1.3006  0.8001
  679TMC3    H110049   0.903   4.416   1.734  0.2439 -0.2557 -1.7998
  679TMC3    H210050   0.549   4.617   1.588  1.2616 -2.6871 -1.8273
  679TMC3    C710051   0.768   4.500   1.514 -0.1330 -0.4159  0.6005
  679TMC3    C810052   0.479   4.706   1.840 -0.3359  0.4607 -0.3738
  679TMC3    O110053   0.680   4.521   1.433 -0.0551 -0.9088  0.0013
  679TMC3    O210054   0.478   0.039   1.948  0.2646  0.1399  0.0146
  680MPD2     C10055   1.299   3.983  13.294 -0.3167  0.3576  0.2048
  680MPD2    C110056   1.321   3.888  13.397  0.4535  0.3513  0.3617
  680MPD2    C210057   1.361   3.932  13.521  0.6419 -0.5965 -0.3602
  680MPD2    C310058   1.388   4.063  13.544  0.8532 -1.1749 -0.5284
  680MPD2    C410059   1.380   4.148  13.444  0.6350  0.1522 -0.2982
  680MPD2    C510060   1.331   4.112  13.321  0.2178  0.3171 -0.2016
  680MPD2     H10061   1.371   3.864  13.605 -1.3590  0.7427  0.9443
  680MPD2    H110062   1.403   4.254  13.455  1.1288  0.2360 -2.2261
  680MPD2    H210063   1.255   3.965  13.197  0.7164 -0.8989 -0.0290
  680MPD2    H310064   1.306   4.189  13.249  1.4687 -0.2297 -1.2188
  680MPD2     N10065   1.424   4.121  13.667  0.2332  0.0000  0.1530
  680MPD2    H510066   1.464   4.214  13.659  0.5185 -0.0414  1.0508
  680MPD2    N110067   1.292   3.753  13.365 -0.1248  0.2349  0.2698
  680MPD2    H710068   1.286   3.737  13.265  0.8874 -0.3172  0.2957
  681TMC3    C110069   1.239   3.526  13.378  0.0720  0.2244 -0.0973
  681TMC3    C210070   1.174   3.431  13.456  0.1251 -0.0132  0.0492
  681TMC3    C310071   1.162   3.305  13.416  0.0980  0.3224 -0.1196
  681TMC3    C410072   1.320   3.484  13.274 -0.4580 -0.2485  0.1480
  681TMC3    C510073   1.313   3.350  13.247 -0.0201 -0.0295 -0.1876
  681TMC3    C610074   1.230   3.260  13.311  0.1297  0.0973 -0.4492
  681TMC3     C10075   1.265   3.648  13.446  0.2618  0.5984  0.4780
  681TMC3     O10076   1.242   3.664  13.564 -0.0479  0.1531 -0.6355
  681TMC3     H10077   1.116   3.479  13.533  1.3591  0.4292  0.7022
  681TMC3    H110078   1.395   3.551  13.234 -1.1963 -0.1104 -1.0090
  681TMC3    H210079   1.208   3.160  13.277 -1.6653  0.0058  0.9421
  681TMC3    C710080   1.420   3.291  13.171  0.4238  1.0071 -0.5577
  681TMC3    C810081   1.095   3.195  13.496 -0.2723  0.6225 -0.3117
  681TMC3    O110082   1.464   3.187  13.226 -0.0538  0.2168  0.5135
  681TMC3    O210083   1.102   3.073  13.474  0.3921  0.5246 -0.1076
  682MPD2     C10084   3.504   0.256  10.831  0.0340  0.0783  0.6321
  682MPD2    C110085   3.405   0.164  10.845 -0.5662  0.6107 -0.4018
  682MPD2    C210086   3.309   0.175  10.954 -0.3174 -0.3659  0.1915
  682MPD2    C310087   3.317   0.291  11.034 -0.4680  0.6946  0.2812
  682MPD2    C410088   3.404   0.392  10.999  0.5178  0.2978 -0.0395
  682MPD2    C510089   3.501   0.377  10.901 -0.4052 -0.2236  0.0390
  682MPD2     H10090   3.238   0.098  10.984 -0.7339  0.2358  0.7632
  682MPD2    H110091   3.394   0.493  11.038 -2.9074  0.7236 -1.9935
  682MPD2    H210092   3.577   0.244  10.751 -1.9015 -2.3972 -0.7828
  682MPD2    H310093   3.568   0.457  10.873 -0.0713 -0.2750  0.6868
  682MPD2     N10094   3.222   0.296  11.138  0.0917 -0.4539 -0.0305
  682MPD2    H510095   3.187   0.205  11.169 -0.4391  0.0079  0.7285
  682MPD2    N110096   3.401   0.045  10.778 -0.2075  0.5182  0.5868
  682MPD2    H710097   3.343   4.699  10.827  0.2814 -0.0717  0.3412
  683TMC3    C110098   3.049   0.368  11.555 -0.0074  0.8203 -0.1927
  683TMC3    C210099   2.968   0.256  11.543  0.7782 -0.2644  0.3858
  683TMC3    C310100   2.946   0.206  11.416 -0.4259  0.0434  0.0065
  683TMC3    C410101   3.110   0.424  11.444  0.2510  0.0125 -0.2702
  683TMC3    C510102   3.105   0.352  11.329  0.7344 -0.1895 -0.2976
  683TMC3    C610103   3.025   0.240  11.309 -0.1969 -0.0736  0.6834
  683TMC3     C10104   3.055   0.445  11.677 -0.4236  0.0504  0.6508
  683TMC3     O10105   3.139   0.528  11.691  0.0962 -0.2711  0.3098
  683TMC3     H10106   2.925   0.204  11.628 -0.1614  0.0948  0.1278
  683TMC3    H110107   3.154   0.522  11.459 -0.1314  0.1097  0.2410
  683TMC3    H210108   3.003   0.201  11.210  1.3355  1.4716 -0.2491
  683TMC3    C710109   3.199   0.393  11.225  0.0023 -0.1288  1.2940
  683TMC3    C810110   2.869   0.081  11.403 -0.7409  0.3588 -0.2123
  683TMC3    O110111   3.258   0.498  11.240  0.2382 -0.4968 -0.0145
  683TMC3    O210112   2.774   0.067  11.484  0.0938 -0.4990  0.2929
  684MPD2     C10113   1.629   3.972  16.733  0.1730 -0.1264 -0.6122
  684MPD2    C110114   1.695   4.058  16.645  0.1550 -0.3033  0.6272
  684MPD2    C210115   1.657   4.186  16.643  0.4899 -0.8405 -0.1477
  684MPD2    C310116   1.570   4.239  16.729  0.2830  0.6617  0.2413
  684MPD2    C410117   1.498   4.151  16.816  0.2601  0.0441  0.1608
  684MPD2    C510118   1.535   4.019  16.828  0.1844  0.0016 -0.4401
  684MPD2     H10119   1.708   4.258  16.580 -3.3197  0.4207 -1.8009
  684MPD2    H110120   1.427   4.194  16.885  0.1466 -1.1333  0.7621
  684MPD2    H210121   1.656   3.868  16.749 -2.4839 -0.7437 -0.1169
  684MPD2    H310122   1.475   3.955  16.892  2.6446  0.1209  2.0034
  684MPD2     N10123   1.541   4.376  16.745  0.2706  0.1218  0.1672
  684MPD2    H510124   1.486   4.407  16.825 -4.2034  1.1232 -3.3275
  684MPD2    N110125   1.799   4.021  16.559 -0.1258  0.2671  0.5228
  684MPD2    H710126   1.847   4.102  16.520 -0.0329 -0.1238 -0.1721
  685TMC3    C110127   1.887   3.933  16.376 -0.2016 -0.1457 -0.1774
  685TMC3    C210128   1.806   3.988  16.278 -0.1770  0.0947 -0.2039
  685TMC3    C310129   1.864   4.065  16.181 -0.0381  0.6539  0.7823
  685TMC3    C410130   2.007   3.990  16.401 -0.0017  0.5742  0.2554
  685TMC3    C510131   2.064   4.079  16.312  0.0858 -0.0472 -0.5355
  685TMC3    C610132   1.996   4.106  16.195 -0.0601 -0.0632  0.3557
  685TMC3     C10133   1.819   3.901  16.500  0.1232  0.5648 -0.6888
  685TMC3     O10134   1.744   3.803  16.505  0.1375 -0.0736 -0.1002
  685TMC3     H10135   1.703   3.959  16.258 -0.1273 -0.7030  0.6982
  685TMC3    H110136   2.070   3.950  16.480 -0.0550  2.0700  1.0543
  685TMC3    H210137   2.024   4.182  16.122 -1.4270 -0.4811 -0.6001
  685TMC3    C710138   2.182   4.160  16.344 -0.2323 -0.3058 -0.3311
  685TMC3    C810139   1.775   4.160  16.129 -0.5489  0.1230  0.1444
  685TMC3    O110140   2.212   4.250  16.266  0.3754  0.3095 -0.0725
  685TMC3    O210141   1.817   4.229  16.031  0.5230  0.2647  0.1073
  686MPD2     C10142   2.610   0.065  16.396  0.1288  0.1303 -0.2719
  686MPD2    C110143   2.565   0.005  16.284  0.2953 -0.4487 -0.0822
  686MPD2    C210144   2.492   0.077  16.194  0.4075  0.5853  0.3392
  686MPD2    C310145   2.475   0.215  16.202  0.1416  0.5402  0.4620
  686MPD2    C410146   2.515   0.276  16.320  0.4403  0.8215 -0.8747
  686MPD2    C510147   2.586   0.196  16.408 -0.2288 -0.4085 -0.1872
  686MPD2     H10148   2.440   0.027  16.113  1.0869 -0.9547  0.8626
  686MPD2    H110149   2.502   0.384  16.328 -0.7372  0.5804  0.4868
  686MPD2    H210150   2.668   0.007  16.468 -2.0397 -2.0813 -0.3284
  686MPD2    H310151   2.624   0.246  16.496  0.3203 -0.0852 -0.6069
  686MPD2     N10152   2.417   0.297  16.105 -0.0247 -0.2785 -0.0227
  686MPD2    H510153   2.403   0.392  16.137 -2.2947 -0.7359  0.3133
  686MPD2    N110154   2.582   4.590  16.257 -0.5690  0.3243  1.0483
  686MPD2    H710155   2.534   4.561  16.173  1.8365 -1.5006  0.2925
  687TMC3    C110156   2.456   0.172  15.917  0.5176  0.4301  0.1027
  687TMC3    C210157   2.387   0.093  15.827 -0.1252  0.0826 -0.6564
  687TMC3    C310158   2.465   0.004  15.753  0.3789 -0.8133  0.2451
  687TMC3    C410159   2.591   0.182  15.918  0.0707  0.2015 -0.2534
  687TMC3    C510160   2.657   0.085  15.853  0.1916  0.5951 -0.5044
  687TMC3    C610161   2.595   4.716  15.769  0.0606  0.4795 -0.0702
  687TMC3     C10162   2.375   0.270  15.977 -0.2475 -0.3632  0.1136
  687TMC3     O10163   2.301   0.333  15.904  0.9967 -0.0082 -0.0764
  687TMC3     H10164   2.279   0.084  15.826 -0.2111  1.1871 -0.9282
  687TMC3    H110165   2.641   0.250  15.986 -0.2348 -1.1779  1.3584
  687TMC3    H210166   2.659   4.642  15.721 -0.9544 -1.2847  1.3029
  687TMC3    C710167   2.786   0.059  15.916 -0.4264  0.0956  0.2858
  687TMC3    C810168   2.400   4.608  15.684 -1.0632  0.0345 -0.2976
  687TMC3    O110169   2.842   0.155  15.962 -0.1783  0.4031 -0.6174
  687TMC3    O210170   2.476   4.527  15.627 -0.0669  0.2887  0.2533
  688MPD2     C10171   2.327   3.127  17.113  0.4844 -0.7670 -0.0822
  688MPD2    C110172   2.336   3.011  17.195  0.4033  0.5501  0.7057
  688MPD2    C210173   2.460   2.943  17.205 -0.2330  0.3109 -0.0597
  688MPD2    C310174   2.567   3.003  17.142 -0.3341 -0.8873  0.0244
  688MPD2    C410175   2.551   3.108  17.058 -0.5756  0.0905  0.5482
  688MPD2    C510176   2.428   3.175  17.041  0.1157 -0.0894 -0.1822
  688MPD2     H10177   2.469   2.858  17.271 -1.8258 -0.5895 -0.9981
  688MPD2    H110178   2.628   3.162  17.004 -2.1583  0.9738 -0.8256
  688MPD2    H210179   2.234   3.181  17.100  1.0072  0.3127  0.6019
  688MPD2    H310180   2.418   3.260  16.974  0.6641  1.5508  1.7911
  688MPD2     N10181   2.699   2.959  17.165 -0.0706  1.1201 -0.0996
  688MPD2    H510182   2.769   3.025  17.135  1.3391 -0.2651  0.1541
  688MPD2    N110183   2.228   2.959  17.281  0.5141  0.2807  0.9370
  688MPD2    H710184   2.247   2.879  17.340  0.5703  0.2824  0.9209
  689TMC3    C110185   2.036   2.975  17.409  0.3298 -0.4317  0.6239
  689TMC3    C210186   2.024   3.076  17.506  0.8880  0.1108 -0.2073
  689TMC3    C310187   1.998   3.041  17.635 -0.0622  0.3695  0.7210
  689TMC3    C410188   2.031   2.842  17.429 -0.0059  0.3920  0.0481
  689TMC3    C510189   2.008   2.811  17.563 -0.0735  0.1376  0.0805
  689TMC3    C610190   1.988   2.906  17.662 -0.0986  0.2133 -0.0877
  689TMC3     C10191   2.112   3.027  17.296 -1.4381  0.1912  0.1952
  689TMC3     O10192   2.063   3.115  17.232  0.5271  0.5429  0.5239
  689TMC3     H10193   2.035   3.180  17.474  0.2932 -0.0691 -1.0014
  689TMC3    H110194   2.059   2.766  17.357 -1.0690 -1.0720  1.1766
  689TMC3    H210195   1.957   2.877   0.072  1.2559 -1.0289 -0.0234
  689TMC3    C710196   2.000   2.675  17.606  0.2049  0.1961  0.1703
  689TMC3    C810197   2.046   3.115   0.057 -0.1565  0.7595 -0.0746
  689TMC3    O110198   2.041   2.657   0.028 -0.2812  0.4266 -0.1428
  689TMC3    O210199   2.031   3.072   0.171  0.2943  0.0690 -0.2379
  690MPD2     C10200   4.087   0.121  15.421  0.2851 -0.1019 -0.1777
  690MPD2    C110201   4.186   0.079  15.508  1.3066 -0.1631 -0.5418
  690MPD2    C210202   4.318   0.079  15.463 -0.0446  0.3933 -0.3104
  690MPD2    C310203   4.350   0.124  15.337  0.2023  0.2439  0.1625
  690MPD2    C410204   4.245   0.171  15.252  0.2102  0.1027 -0.3363
  690MPD2    C510205   4.118   0.179  15.300 -0.5826  0.4127 -0.5605
  690MPD2     H10206   4.394   0.044  15.532  0.4605 -0.0325 -1.0862
  690MPD2    H110207   4.261   0.218  15.156 -0.7647 -1.1907 -1.1435
  690MPD2    H210208   3.987   0.136  15.458  0.2710 -0.0274 -0.2433
  690MPD2    H310209   4.039   0.222  15.238 -1.6790  0.9727  1.2207
  690MPD2     N10210   4.490   0.116  15.311  0.4691 -0.4977  0.6683
  690MPD2    H510211   4.543   0.065  15.380  0.1539 -1.2848  0.3365
  690MPD2    N110212   4.165   0.041  15.645  0.7097 -0.2090 -0.4179
  690MPD2    H710213   4.241   0.002  15.700  0.5889 -2.5860 -1.9003
  691TMC3    C110214   4.036   4.710  15.842  0.0099  0.4367 -0.3366
  691TMC3    C210215   3.937   0.037  15.929  0.3227 -0.0594  0.0682
  691TMC3    C310216   3.924   4.697  16.052  0.0578 -0.9802  0.0846
  691TMC3    C410217   4.118   4.604  15.876 -0.6221  0.3631 -0.0373
  691TMC3    C510218   4.089   4.545  15.995 -0.0594  0.2688  0.0070
  691TMC3    C610219   3.998   4.587  16.079  0.4465 -0.4871  0.2357
  691TMC3     C10220   4.039   0.042  15.707 -0.5626 -0.7886 -0.0143
  691TMC3     O10221   3.928   0.084  15.670 -0.3065  1.0687 -0.5111
  691TMC3     H10222   3.895   0.133  15.903  0.0956  0.1689  1.2835
  691TMC3    H110223   4.180   4.556  15.802 -0.7591 -0.4004  0.3456
  691TMC3    H210224   3.986   4.536  16.174  0.0464 -1.5456 -0.3863
  691TMC3    C710225   4.094   4.402  15.982 -0.0096 -0.3283  0.3973
  691TMC3    C810226   3.788   4.661  16.084  0.2251  0.1039 -0.0692
  691TMC3    O110227   4.200   4.352  15.953 -0.1144  0.2666  0.0864
  691TMC3    O210228   3.765   4.540  16.082 -0.0514  0.8330  0.1316
  692TMC3    C110229   1.226   0.974  16.086 -0.4256  0.5834  0.0092
  692TMC3    C210230   1.350   1.018  16.110 -0.0957 -0.4729  0.2430
  692TMC3    C310231   1.455   0.932  16.118 -0.6134  0.1522 -0.0416
  692TMC3    C410232   1.208   0.837  16.067 -0.1605 -0.4794  0.0681
  692TMC3    C510233   1.307   0.752  16.075  0.7713 -0.2377  0.3411
  692TMC3    C610234   1.432   0.796  16.116  0.2200 -0.4622 -0.0729
  692TMC3     C10235   1.111   1.047  16.136 -0.3550  0.2913 -0.5169
  692TMC3     O10236   1.033   0.971  16.193  0.0988 -0.5193  0.8074
  692TMC3     H10237   1.370   1.121  16.081 -0.9742 -0.3201  0.1771
  692TMC3    H110238   1.110   0.809  16.029 -0.7425  1.8682 -0.1977
  692TMC3    H210239   1.508   0.719  16.126 -0.2724 -0.9005  0.2976
  692TMC3    C710240   1.298   0.604  16.045 -0.4064  0.6372  0.0981
  692TMC3    C810241   1.565   0.966  16.200 -0.0494  0.5418  0.4058
  692TMC3    O110242   1.250   0.572  15.935  0.8638  0.0054  0.5058
  692TMC3    O210243   1.647   0.889  16.246 -0.1656  0.4742 -0.4503
  693MPD2     C10244   0.656   3.620  11.043  1.0650  0.1920  0.2341
  693MPD2    C110245   0.617   3.528  10.949 -0.7899  0.1589  0.3941
  693MPD2    C210246   0.711   3.435  10.912 -0.4868  0.5947 -0.9485
  693MPD2    C310247   0.833   3.439  10.974 -0.3891  0.4434  0.7478
  693MPD2    C410248   0.871   3.532  11.069  0.0449 -0.0127  0.5731
  693MPD2    C510249   0.782   3.623  11.102  0.2472  0.4041 -0.3323
  693MPD2     H10250   0.694   3.355  10.842 -0.1574 -0.6488  0.3835
  693MPD2    H110251   0.966   3.534  11.120 -0.5500  1.1529  1.6288
  693MPD2    H210252   0.598   3.707  11.071 -0.5653 -0.4624 -1.1615
  693MPD2    H310253   0.800   3.709  11.166  2.0344 -1.1221  1.2049
  693MPD2     N10254   0.936   3.342  10.950 -0.1844  0.3913 -0.1946
  693MPD2    H510255   1.013   3.356  11.014 -0.7192  0.2906  0.4763
  693MPD2    N110256   0.492   3.545  10.888 -0.3376  0.5122  0.2951
  693MPD2    H710257   0.440   3.630  10.906 -0.8212  0.4125 -0.6610
  694TMC3    C110258   0.282   3.486  10.821 -0.1277  0.1731 -0.1337
  694TMC3    C210259   0.213   3.385  10.759 -0.6783 -0.3507 -0.8085
  694TMC3    C310260   0.087   3.357  10.814 -0.5934  0.0836  0.0484
  694TMC3    C410261   0.242   3.558  10.936  0.5528 -0.6133 -0.1114
  694TMC3    C510262   0.121   3.517  10.989 -0.0013 -0.2681 -0.6178
  694TMC3    C610263   0.047   3.423  10.931  0.2022 -0.1510  0.0832
  694TMC3     C10264   0.424   3.457  10.802 -0.1182 -0.3935 -0.4802
  694TMC3     O10265   0.454   3.355  10.738 -0.0705 -0.1170  0.2651
  694TMC3     H10266   0.245   3.333  10.669  0.7169  0.7182 -0.9414
  694TMC3    H110267   0.303   3.626  10.994 -0.1331 -1.0626  1.1244
  694TMC3    H210268   4.670   3.407  10.974 -0.5693  0.1740 -1.5424
  694TMC3    C710269   0.082   3.582  11.116 -0.1815 -0.3545 -0.5521
  694TMC3    C810270   0.024   3.225  10.802  0.4270  0.4296  0.9520
  694TMC3    O110271   0.148   3.679  11.155  0.0053  0.1593 -0.2250
  694TMC3    O210272   4.646   3.201  10.867 -0.2813  0.3545  0.3555
  695MPD2     C10273   1.643   1.341  14.022  0.5892 -0.2979  0.4513
  695MPD2    C110274   1.591   1.311  14.146  0.2528 -0.8365 -0.2232
  695MPD2    C210275   1.458   1.324  14.177  0.8282 -0.4051  0.4973
  695MPD2    C310276   1.376   1.389  14.081  0.6094 -0.1604  0.5354
  695MPD2    C410277   1.421   1.416  13.951 -0.5202  0.3170 -0.4818
  695MPD2    C510278   1.552   1.389  13.926  0.0962 -0.1003  0.4483
  695MPD2     H10279   1.419   1.300  14.275 -0.4972 -0.4371 -0.0375
  695MPD2    H110280   1.360   1.453  13.869 -0.8089  3.8600  1.3238
  695MPD2    H210281   1.746   1.328  13.992  0.0196 -2.5309 -0.5394
  695MPD2    H310282   1.601   1.413  13.833 -0.0844 -0.9532  0.1272
  695MPD2     N10283   1.243   1.401  14.117  0.1059  0.2487 -0.0464
  695MPD2    H510284   1.210   1.379  14.210 -0.3751 -1.3563 -0.5928
  695MPD2    N110285   1.666   1.252  14.252  0.6244  0.3581 -0.4512
  695MPD2    H710286   1.609   1.219  14.330  0.3519  0.1622 -0.7312
  696TMC3    C110287   1.031   1.506  14.135 -0.0118 -0.6572 -0.5385
  696TMC3    C210288   0.997   1.430  14.246  0.2062 -0.0254  0.0044
  696TMC3    C310289   0.881   1.457  14.313 -0.3301 -0.7535 -0.2178
  696TMC3    C410290   0.954   1.601  14.088  0.4837  0.3003  0.1593
  696TMC3    C510291   0.854   1.642  14.161 -0.1604  0.0663  0.0079
  696TMC3    C610292   0.815   1.572  14.270 -0.0203  0.5817 -0.0779
  696TMC3     C10293   1.142   1.461  14.046  0.4293  0.0834  0.0999
  696TMC3     O10294   1.144   1.508  13.931 -0.8855 -0.9383  0.1902
  696TMC3     H10295   1.061   1.351  14.284  0.0563  0.3696  1.0972
  696TMC3    H110296   0.986   1.660  14.003  1.8535 -0.8710 -0.1381
  696TMC3    H210297   0.737   1.612  14.334 -0.5649  0.2671 -0.5402
  696TMC3    C710298   0.821   1.786  14.156 -0.0828  0.4915  0.7256
  696TMC3    C810299   0.882   1.433  14.455 -0.4683  0.4855  0.9488
  696TMC3    O110300   0.855   1.842  14.055 -1.0558  0.9297  0.7090
  696TMC3    O210301   0.991   1.411  14.509 -0.0961  0.2330 -0.2777
  697MPD2     C10302   0.816   2.779  15.948  0.1540  0.2670  0.6041
  697MPD2    C110303   0.861   2.688  15.852  0.5887  0.6680  0.1231
  697MPD2    C210304   0.947   2.740  15.757 -0.3016 -0.1951  0.3332
  697MPD2    C310305   0.986   2.871  15.759 -0.1108 -0.4873 -0.1682
  697MPD2    C410306   0.927   2.963  15.844 -0.1049  0.0010 -0.2465
  697MPD2    C510307   0.843   2.919  15.941 -0.3407 -0.3556  0.3315
  697MPD2     H10308   0.996   2.668  15.692 -2.1868 -1.1620 -0.0086
  697MPD2    H110309   0.944   3.070  15.833 -0.6754  0.2682  1.4357
  697MPD2    H210310   0.751   2.750  16.031 -0.9836  0.4334 -0.2346
  697MPD2    H310311   0.795   2.988  16.010  0.3850  1.4388 -0.9410
  697MPD2     N10312   1.073   2.919  15.658 -0.2596 -0.1569 -0.4650
  697MPD2    H510313   1.084   2.853  15.581 -2.3601 -1.1877  0.1219
  697MPD2    N110314   0.848   2.549  15.852  0.1726 -0.1674  0.0671
  697MPD2    H710315   0.890   2.489  15.782  1.3739 -0.0084  0.6419
  698TMC3    C110316   1.233   3.065  15.555 -0.4847 -0.6570  0.4523
  698TMC3    C210317   1.337   3.145  15.578  0.2960 -0.3465  0.5094
  698TMC3    C310318   1.397   3.206  15.473 -0.3002  0.0916  0.0629
  698TMC3    C410319   1.185   3.056  15.428 -0.6074 -0.2687  0.2787
  698TMC3    C510320   1.231   3.138  15.329  0.1510  0.1204  0.0592
  698TMC3    C610321   1.350   3.205  15.350 -0.3984 -0.2134  0.5101
  698TMC3     C10322   1.152   3.030  15.670  0.1055 -0.0942  0.2091
  698TMC3     O10323   1.169   3.112  15.765 -0.3529 -0.2387  0.2943
  698TMC3     H10324   1.374   3.156  15.680  0.5777  2.7307  0.0969
  698TMC3    H110325   1.088   3.009  15.416  0.5442 -2.5460 -0.1820
  698TMC3    H210326   1.406   3.248  15.267  0.8716 -1.8196  0.5215
  698TMC3    C710327   1.164   3.129  15.199  0.3438 -0.2108  0.3366
  698TMC3    C810328   1.527   3.265  15.495 -0.0885 -0.1319  0.2006
  698TMC3    O110329   1.086   3.034  15.179  0.5575 -0.2691  0.2035
  698TMC3    O210330   1.598   3.217  15.587 -0.1294  0.0993  0.0196
  699TMC3    C110331   1.362   1.059  13.237 -0.2773 -1.4645 -0.0018
  699TMC3    C210332   1.450   1.073  13.341 -0.5921  0.4121 -0.2717
  699TMC3    C310333   1.442   0.968  13.430  0.3341  1.0752  0.3279
  699TMC3    C410334   1.299   0.946  13.199 -0.3349 -0.5985 -0.3381
  699TMC3    C510335   1.296   0.843  13.287  0.0766  0.3349 -0.3622
  699TMC3    C610336   1.367   0.851  13.410 -0.6434  1.1999  0.3743
  699TMC3     C10337   1.363   1.169  13.141 -0.7607 -0.0453  0.0899
  699TMC3     O10338   1.279   1.173  13.049 -0.1694  0.2747  0.0899
  699TMC3     H10339   1.480   1.172  13.370  0.5974  0.1014 -0.4519
  699TMC3    H110340   1.232   0.952  13.113  0.6056 -3.5948 -1.2771
  699TMC3    H210341   1.379   0.769  13.479  0.1231 -1.7826 -3.2840
  699TMC3    C710342   1.157   0.815  13.320 -0.5911 -0.3397  0.4187
  699TMC3    C810343   1.438   1.004  13.572  0.1664  0.5858  0.0367
  699TMC3    O110344   1.130   0.852  13.434 -0.4996  0.2988  0.2506
  699TMC3    O210345   1.488   1.114  13.602 -0.3283 -0.2549 -0.1680
  700TMC3    C110346   4.578   2.827  17.427  0.2108 -0.3579 -0.6822
  700TMC3    C210347   4.691   2.804  17.352 -0.7058  0.1839  0.4329
  700TMC3    C310348   0.063   2.730  17.418 -0.5763 -0.6453  0.7865
  700TMC3    C410349   4.565   2.790  17.557  0.1219 -0.5329  0.5406
  700TMC3    C510350   4.672   2.741  17.622 -0.3909  0.1320 -0.2772
  700TMC3    C610351   0.058   2.697  17.551  0.1017  0.0971 -0.2955
  700TMC3     C10352   4.529   2.960  17.402 -0.0066  0.5326  0.4526
  700TMC3     O10353   4.410   2.989  17.416  0.2875 -0.0982 -0.1739
  700TMC3     H10354   4.701   2.830  17.248 -1.0453 -1.9314 -0.1105
  700TMC3    H110355   4.478   2.819  17.615  1.5001  0.0676  2.3089
  700TMC3    H210356   0.142   2.645  17.595 -0.6671  0.9710  2.2093
  700TMC3    C710357   4.655   2.675   0.057 -0.6500  0.1418 -0.2577
  700TMC3    C810358   0.173   2.679  17.336 -0.4009  0.4674 -0.0640
  700TMC3    O110359   4.688   2.556   0.067  0.2678 -0.2291 -0.0210
  700TMC3    O210360   0.208   2.740  17.237  0.4292 -0.4253 -0.2613
  701TMC3    C110361   0.139   1.720  16.087  0.2975  0.3001 -0.2687
  701TMC3    C210362   0.060   1.709  15.979  0.2985 -0.0797  0.2572
  701TMC3    C310363   0.117   1.749  15.863 -0.9245 -0.2770  0.7552
  701TMC3    C410364   0.257   1.780  16.093 -0.1727  0.1676 -0.2547
  701TMC3    C510365   0.305   1.828  15.971  0.8853 -0.0457  0.5707
  701TMC3    C610366   0.239   1.804  15.852 -0.6097  0.8679 -0.4584
  701TMC3     C10367   0.105   1.662  16.217 -0.2265 -0.0777  0.0772
  701TMC3     O10368   0.083   1.743  16.308  0.1008  0.2421  0.0455
  701TMC3     H10369   4.686   1.660  15.979  0.7998 -1.0630 -0.4361
  701TMC3    H110370   0.309   1.763  16.187 -0.8954  0.2323  0.1606
  701TMC3    H210371   0.276   1.848  15.760  0.6773 -1.3846 -1.0173
  701TMC3    C710372   0.353   1.960  15.976 -0.4693 -0.3556  0.0746
  701TMC3    C810373   0.032   1.765  15.743  0.0438  0.0871 -0.1232
  701TMC3    O110374   0.397   2.008  15.874  0.5042 -0.4763 -0.8031
  701TMC3    O210375   4.673   1.671  15.725 -0.1502 -0.2977  0.0786
  702MPD2     C10376   4.470   4.071  10.745  0.2649  0.5122  0.2409
  702MPD2    C110377   4.449   4.167  10.833  0.1290  0.1913 -0.5226
  702MPD2    C210378   4.498   4.292  10.797 -0.7089 -0.0044  0.3579
  702MPD2    C310379   4.563   4.327  10.677 -0.8639  0.1819  1.0330
  702MPD2    C410380   4.576   4.226  10.583  0.0387  0.0050  0.1234
  702MPD2    C510381   4.532   4.103  10.623  0.6797 -0.0368  0.2539
  702MPD2     H10382   4.480   4.373  10.867 -0.8791 -0.5079  0.8972
  702MPD2    H110383   4.629   4.250  10.492 -3.4162  0.7685 -1.6813
  702MPD2    H210384   4.438   3.970  10.768  1.4555 -0.0183 -0.4192
  702MPD2    H310385   4.548   4.024  10.551  2.0614  0.0659  0.4597
  702MPD2     N10386   4.605   4.460  10.656  0.1428 -0.1444  0.0187
  702MPD2    H510387   4.586   4.533  10.725 -0.6883 -1.5875  1.3028
  702MPD2    N110388   4.384   4.153  10.962 -0.3666 -0.7351 -0.2652
  702MPD2    H710389   4.370   4.235  11.020  0.8063 -0.7017 -0.0202
  703TMC3    C110390   0.006   4.640  10.565 -0.0435 -0.5208  0.8170
  703TMC3    C210391   4.697   4.709  10.679 -0.3952 -0.0835 -0.3365
  703TMC3    C310392   0.045   0.104  10.693  0.5129  0.0921  0.5027
  703TMC3    C410393   0.108   4.676  10.476 -0.5230  0.0586 -0.3083
  703TMC3    C510394   0.170   0.075  10.500  0.1804  0.0562  0.7243
  703TMC3    C610395   0.139   0.152  10.605  0.0138 -0.2630  0.0310
  703TMC3     C10396   4.671   4.512  10.544 -0.0279 -0.0068 -0.3390
  703TMC3     O10397   4.699   4.453  10.437  0.1521  0.0109 -0.2942
  703TMC3     H10398   4.625   4.684  10.755  0.1591  0.8650  0.5022
  703TMC3    H110399   0.146   4.615  10.396  0.9563 -2.0207  1.9649
  703TMC3    H210400   0.165   0.257  10.610  1.0453 -0.4435 -1.6076
  703TMC3    C710401   0.276   0.127  10.421  0.7721 -0.2668 -0.2010
  703TMC3    C810402   0.026   0.188  10.813 -0.9466 -0.2066 -0.3839
  703TMC3    O110403   0.348   0.216  10.470  0.0507  0.4551  0.3302
  703TMC3    O210404   0.127   0.236  10.861  0.1440 -0.0450 -0.7183
  704TMC3    C110405   2.397   2.758  12.553  0.1752  0.0400 -0.0124
  704TMC3    C210406   2.494   2.672  12.508 -0.1330  0.1359 -0.0225
  704TMC3    C310407   2.528   2.565  12.587  0.0659  0.5609 -0.2835
  704TMC3    C410408   2.326   2.722  12.666 -0.0756  0.1931 -0.6791
  704TMC3    C510409   2.342   2.596  12.722  0.6550 -0.3776  0.2160
  704TMC3    C610410   2.453   2.527  12.694  0.1783 -0.3093 -0.5144
  704TMC3     C10411   2.304   2.820  12.460  0.2890 -0.3338 -0.3039
  704TMC3     O10412   2.228   2.912  12.493 -0.0310 -0.3716  0.0929
  704TMC3     H10413   2.549   2.692  12.417  0.0113 -2.0789 -0.4270
  704TMC3    H110414   2.243   2.790  12.683  0.2009  0.3248  0.1639
  704TMC3    H210415   2.464   2.435  12.750 -3.4380  1.0233  2.3792
  704TMC3    C710416   2.240   2.510  12.682  0.2992  1.4371  0.8799
  704TMC3    C810417   2.621   2.472  12.519 -1.0215 -0.0560 -0.1156
  704TMC3    O110418   2.227   2.404  12.739  0.4274 -0.1920  0.8544
  704TMC3    O210419   2.614   2.477  12.399  0.7151  0.0407 -0.7679
  705MPD2     C10420   1.795   0.459  16.730 -0.3705 -0.0034  0.0584
  705MPD2    C110421   1.812   0.590  16.770  0.2954  0.4143  0.4595
  705MPD2    C210422   1.705   0.665  16.810 -0.2329  0.3536 -0.6653
  705MPD2    C310423   1.577   0.616  16.796 -0.2311 -0.6293 -0.3141
  705MPD2    C410424   1.564   0.492  16.745 -0.2384  0.1372  0.1862
  705MPD2    C510425   1.674   0.408  16.737 -0.4418 -0.1201  0.5391
  705MPD2     H10426   1.717   0.767  16.842 -0.3666 -0.2450  1.2583
  705MPD2    H110427   1.462   0.458  16.748  0.0274 -0.7037 -0.2838
  705MPD2    H210428   1.873   0.387  16.707 -0.6688  0.2991 -1.9053
  705MPD2    H310429   1.659   0.308  16.699  0.4150 -0.8065  2.0197
  705MPD2     N10430   1.451   0.680  16.837  0.3828 -0.0483 -0.1712
  705MPD2    H510431   1.363   0.643  16.802 -0.3516  1.2302  0.3105
  705MPD2    N110432   1.937   0.652  16.751 -0.0467 -0.0414  0.0577
  705MPD2    H710433   1.940   0.751  16.772 -1.3422 -0.3080  1.4890
  706TMC3    C110434   2.364   0.699  16.553 -0.6774  0.3744  0.3413
  706TMC3    C210435   2.409   0.806  16.637  0.7768  0.4423  0.1095
  706TMC3    C310436   2.315   0.837  16.733  0.5412  0.1522 -0.2671
  706TMC3    C410437   2.245   0.638  16.567 -0.8538  0.4595 -0.0665
  706TMC3    C510438   2.154   0.682  16.661  1.0208 -0.0765  0.7983
  706TMC3    C610439   2.190   0.786  16.740 -0.1365  0.1276 -0.6543
  706TMC3     C10440   2.447   0.660  16.448  0.7755 -0.0265 -0.5343
  706TMC3     O10441   2.571   0.654  16.464  0.1384 -0.2953 -0.3544
  706TMC3     H10442   2.506   0.849  16.613  0.2784  1.2980 -0.3640
  706TMC3    H110443   2.225   0.549  16.508 -0.2885 -2.1027  3.6008
  706TMC3    H210444   2.131   0.806  16.829  2.7262 -1.1538  1.5385
  706TMC3    C710445   2.047   0.590  16.687  0.6088  0.1642  0.0427
  706TMC3    C810446   2.317   0.974  16.782  0.9492  0.0460  0.5584
  706TMC3    O110447   2.057   0.483  16.632  0.1497 -0.1433 -0.4209
  706TMC3    O210448   2.410   1.006  16.858  0.5295  0.5121  0.0520
  707TMC3    C110449   3.484   3.945   2.041 -0.0574  0.5169 -0.5049
  707TMC3    C210450   3.597   3.898   2.109 -0.1219 -0.4457 -0.9471
  707TMC3    C310451   3.576   3.799   2.196 -0.3746  0.1449  0.1889
  707TMC3    C410452   3.357   3.906   2.066 -0.4271 -0.2006 -0.5174
  707TMC3    C510453   3.345   3.814   2.165 -0.9661  0.7609  0.0875
  707TMC3    C610454   3.448   3.763   2.230 -0.2896 -0.0411  0.2051
  707TMC3     C10455   3.510   4.059   1.952  0.0486  0.0567  1.3113
  707TMC3     O10456   3.626   4.059   1.915 -0.2742 -0.5869  0.1757
  707TMC3     H10457   3.696   3.943   2.106 -0.0805 -0.2852  3.1107
  707TMC3    H110458   3.271   3.966   2.037  0.6682  2.3221  1.4383
  707TMC3    H210459   3.431   3.678   2.295  2.0260  0.2519  1.1875
  707TMC3    C710460   3.226   3.804   2.245  1.1648  0.3671  0.5616
  707TMC3    C810461   3.663   3.681   2.199 -0.0373  0.5262 -0.0660
  707TMC3    O110462   3.234   3.762   2.359 -0.1876 -0.1086  0.6928
  707TMC3    O210463   3.630   3.579   2.261 -0.7510 -0.3738 -0.5704
  708MPD2     C10464   0.158   4.042  13.357 -0.2566 -0.9066 -1.1996
  708MPD2    C110465   0.035   4.017  13.410 -0.0373  0.3688  0.5130
  708MPD2    C210466   0.018   3.944  13.528  0.5460  0.2014  0.6631
  708MPD2    C310467   0.130   3.901  13.594 -0.6924  0.4615  0.4020
  708MPD2    C410468   0.253   3.947  13.552  0.3042 -0.7460 -0.4107
  708MPD2    C510469   0.269   4.005  13.430 -0.0043  0.5673 -0.1072
  708MPD2     H10470   4.638   3.925  13.560  0.0113  1.7942 -0.1099
  708MPD2    H110471   0.341   3.916  13.607 -0.3434  1.2909  1.7401
  708MPD2    H210472   0.166   4.093  13.262  2.0262  0.2547 -0.3715
  708MPD2    H310473   0.372   4.031  13.408  0.0588  0.4125  0.0097
  708MPD2     N10474   0.119   3.829  13.717  0.0050  0.6885  0.2850
  708MPD2    H510475   0.204   3.822  13.772  0.6518 -1.0972 -0.9326
  708MPD2    N110476   4.639   4.059  13.347  0.1408 -0.4849  1.0085
  708MPD2    H710477   4.558   4.016  13.390 -0.4970  1.3417  1.6430
  709TMC3    C110478   4.483   4.119  13.190 -0.1208 -0.8012  0.0187
  709TMC3    C210479   4.443   4.062  13.076 -0.4077 -0.3898 -0.5722
  709TMC3    C310480   4.325   4.000  13.067  0.4744 -0.6763  0.7233
  709TMC3    C410481   4.405   4.108  13.300 -0.0062 -0.2314 -0.2903
  709TMC3    C510482   4.287   4.033  13.291 -0.1027  0.0506 -0.0685
  709TMC3    C610483   4.242   3.977  13.177  1.2043 -0.3061 -0.6999
  709TMC3     C10484   4.618   4.130  13.232  0.3812 -0.5146 -0.3637
  709TMC3     O10485   4.695   4.185  13.156  0.0909  0.3272  0.0804
  709TMC3     H10486   4.508   4.065  12.989  0.2008  0.6086 -0.0848
  709TMC3    H110487   4.428   4.169  13.387  2.0872 -1.7038  0.2066
  709TMC3    H210488   4.171   3.895  13.181 -0.5895  1.3478  1.1700
  709TMC3    C710489   4.296   3.939  13.401  0.0271  0.0099  0.1955
  709TMC3    C810490   4.283   3.937  12.945  0.2857 -1.0072 -0.1512
  709TMC3    O110491   4.412   3.930  13.436 -0.1249  0.8906 -0.2698
  709TMC3    O210492   4.365   3.876  12.875  0.0446  0.3218 -0.0529
  710TMC3    C110493   0.775   0.145   0.853 -0.6754 -0.4519 -0.0740
  710TMC3    C210494   0.893   0.179   0.803  0.4287  0.7582  0.1665
  710TMC3    C310495   0.974   0.077   0.769 -0.2309 -0.1037 -0.3068
  710TMC3    C410496   0.746   0.019   0.878  0.5346 -0.7729 -0.1348
  710TMC3    C510497   0.837   4.640   0.853  0.0675  0.1992  0.2335
  710TMC3    C610498   0.949   4.665   0.779 -0.2706  0.0480  0.4199
  710TMC3     C10499   0.683   0.240   0.913  0.2819  0.4452  0.3390
  710TMC3     O10500   0.562   0.216   0.913 -0.4690  0.4802 -0.1182
  710TMC3     H10501   0.910   0.280   0.765  0.4477  0.1160 -1.5262
  710TMC3    H110502   0.660   0.005   0.943 -0.7964  1.2495 -1.4596
  710TMC3    H210503   1.030   4.596   0.757  0.1065 -0.4232  3.2431
  710TMC3    C710504   0.840   4.551   0.965  0.0201 -0.1218 -0.1685
  710TMC3    C810505   1.105   0.117   0.727 -0.4880  0.1233  0.1456
  710TMC3    O110506   0.733   4.517   1.016  0.0970  0.5167 -0.7011
  710TMC3    O210507   1.144   0.063   0.624 -0.3861 -0.2388 -0.2140
  711TMC3    C110508   0.767   1.612  15.680 -0.4578 -0.0408 -0.4075
  711TMC3    C210509   0.836   1.711  15.747 -0.0998 -0.0665 -0.3664
  711TMC3    C310510   0.945   1.677  15.823  0.7335  0.3071 -0.2014
  711TMC3    C410511   0.798   1.480  15.685  0.3632 -0.4628  0.5571
  711TMC3    C510512   0.899   1.448  15.770  0.4675 -0.5277 -0.7779
  711TMC3    C610513   0.976   1.545  15.831  0.4334 -1.1202  0.0925
  711TMC3     C10514   0.629   1.630  15.655 -0.2513 -0.0488 -0.4854
  711TMC3     O10515   0.570   1.526  15.685 -0.0786 -0.1877 -0.4280
  711TMC3     H10516   0.809   1.813  15.725  0.9399  0.5857  1.3567
  711TMC3    H110517   0.749   1.405  15.624  3.8452 -1.9149 -0.4410
  711TMC3    H210518   1.054   1.497  15.888  0.3012  0.2954  1.4537
  711TMC3    C710519   0.946   1.308  15.793  0.0032 -0.3579  0.7257
  711TMC3    C810520   1.017   1.786  15.891 -0.1806 -0.1782 -0.2535
  711TMC3    O110521   1.062   1.289  15.803 -0.2583 -0.1851 -0.1980
  711TMC3    O210522   0.965   1.897  15.889  0.3048 -0.3210 -0.0492
  712MPD2     C10523   1.663   3.348  13.710  0.7755  0.6890 -0.0083
  712MPD2    C110524   1.749   3.250  13.659 -0.1356 -0.0993 -0.6241
  712MPD2    C210525   1.809   3.276  13.536 -0.1485 -0.4156 -0.3990
  712MPD2    C310526   1.791   3.394  13.472 -0.0217 -0.3923 -0.2845
  712MPD2    C410527   1.697   3.484  13.522 -0.2831  0.3284 -0.4834
  712MPD2    C510528   1.636   3.465  13.641 -0.3301 -0.0898 -0.3156
  712MPD2     H10529   1.875   3.202  13.491  0.6288 -0.6918  1.2096
  712MPD2    H110530   1.672   3.575  13.470 -0.9093  0.4876  0.0879
  712MPD2    H210531   1.615   3.333  13.806  2.0883  3.0809  1.0040
  712MPD2    H310532   1.576   3.536  13.696 -0.0984  0.1997 -0.4326
  712MPD2     N10533   1.852   3.400  13.348  0.6785  0.0941 -0.2883
  712MPD2    H510534   1.919   3.327  13.327  1.4172  0.5817  0.3694
  712MPD2    N110535   1.751   3.121  13.711  0.0954 -0.3053  0.1335
  712MPD2    H710536   1.788   3.052  13.647  0.4916 -0.9376  1.0320
  713TMC3    C110537   1.905   3.478  13.131  0.7572  0.2097 -0.0788
  713TMC3    C210538   2.038   3.467  13.157  0.0086 -0.7159  0.2347
  713TMC3    C310539   2.124   3.498  13.057 -0.4185  0.3824  0.2231
  713TMC3    C410540   1.848   3.513  13.015  0.2677 -0.2522  0.2677
  713TMC3    C510541   1.941   3.534  12.917 -0.5991 -0.6769 -0.1041
  713TMC3    C610542   2.073   3.540  12.942  0.0209  0.0481  0.2992
  713TMC3     C10543   1.824   3.496  13.251  0.1932 -0.2217  0.7165
  713TMC3     O10544   1.719   3.557  13.243 -0.3908  0.3871 -0.3403
  713TMC3     H10545   2.083   3.465  13.256  0.7571  0.2785 -0.0848
  713TMC3    H110546   1.742   3.525  12.995  0.4223 -0.4491 -0.6634
  713TMC3    H210547   2.136   3.567  12.858  0.6755  0.1708  0.8280
  713TMC3    C710548   1.900   3.574  12.781 -0.0508 -0.0084  0.5676
  713TMC3    C810549   2.249   3.556  13.094  0.4399  0.0716 -0.8912
  713TMC3    O110550   1.983   3.617  12.703  0.3936  0.4526  0.5300
  713TMC3    O210551   2.282   3.663  13.040  0.1782  0.2796  0.4808
  714MPD2     C10552   4.517   1.269   1.734  0.4717 -0.8472 -0.6026
  714MPD2    C110553   4.616   1.326   1.664 -0.1593 -0.0138  0.0501
  714MPD2    C210554   4.594   1.427   1.569 -0.4189  0.4492  0.0814
  714MPD2    C310555   4.467   1.466   1.532 -0.2715 -0.4414  0.2841
  714MPD2    C410556   4.358   1.414   1.610  0.6323 -0.3490 -0.0785
  714MPD2    C510557   4.389   1.320   1.714 -0.2352  0.0805  0.0527
  714MPD2     H10558   4.669   1.464   1.500 -0.5336  0.4188 -0.0595
  714MPD2    H110559   4.253   1.434   1.592  1.1916  1.4439 -1.3811
  714MPD2    H210560   4.535   1.190   1.806  0.8126  0.0658  0.3120
  714MPD2    H310561   4.304   1.273   1.763 -0.8152  0.5663 -0.4879
  714MPD2     N10562   4.447   1.545   1.422  0.9874 -0.0785 -0.8759
  714MPD2    H510563   4.526   1.563   1.362  1.7577 -1.6670 -0.3452
  714MPD2    N110564   0.019   1.264   1.680  0.5935  0.3829  0.3111
  714MPD2    H710565   0.018   1.178   1.733 -1.8641 -1.3568 -2.6112
  715TMC3    C110566   0.258   1.245   1.684 -0.4422 -0.6514 -1.0876
  715TMC3    C210567   0.262   1.105   1.676 -0.0196 -0.2196  0.4259
  715TMC3    C310568   0.381   1.039   1.675 -0.0772 -0.4344 -0.1370
  715TMC3    C410569   0.374   1.313   1.695 -0.0890 -0.2667 -0.2887
  715TMC3    C510570   0.495   1.248   1.696  0.4285 -0.7179  0.3409
  715TMC3    C610571   0.502   1.110   1.688 -0.2999 -0.3178  0.1803
  715TMC3     C10572   0.139   1.319   1.638  0.1508  0.3476 -0.2754
  715TMC3     O10573   0.161   1.434   1.595 -0.0306  0.0326  0.1153
  715TMC3     H10574   0.176   1.047   1.644  0.3098  0.0587 -0.9657
  715TMC3    H110575   0.375   1.422   1.691  0.9772 -0.2971 -0.9770
  715TMC3    H210576   0.596   1.062   1.711  0.8837  1.4632 -0.9437
  715TMC3    C710577   0.606   1.326   1.757 -0.6752  0.0539  0.7859
  715TMC3    C810578   0.381   0.902   1.632  0.1583 -0.2181 -0.0784
  715TMC3    O110579   0.718   1.298   1.712 -0.4401  0.3189 -0.1027
  715TMC3    O210580   0.276   0.840   1.641  0.3675  0.0456  0.3273
  716MPD2     C10581   4.681   3.689  10.426 -0.2049  0.0913  0.4754
  716MPD2    C110582   4.556   3.651  10.374 -0.4141 -0.0831  0.0342
  716MPD2    C210583   4.523   3.518  10.371  0.2874 -0.0871 -0.4152
  716MPD2    C310584   4.619   3.425  10.409  0.0992  0.0901  0.3714
  716MPD2    C410585   0.016   3.462  10.461  0.2085  0.0948  0.3664
  716MPD2    C510586   0.045   3.594  10.469  0.6177 -0.1008  0.0045
  716MPD2     H10587   4.428   3.476  10.338  0.2451  1.6384 -2.4806
  716MPD2    H110588   0.096   3.402  10.503  0.2726  0.8379  1.3203
  716MPD2    H210589   4.721   3.789  10.433  2.1188 -0.9601  2.0468
  716MPD2    H310590   0.139   3.620  10.518 -0.1747  3.8982 -0.6060
  716MPD2     N10591   4.590   3.286  10.403  0.0766 -0.2054 -0.8495
  716MPD2    H510592   4.494   3.261  10.382  1.0879 -4.7511  0.0688
  716MPD2    N110593   4.470   3.754  10.333  0.5032 -0.1398 -0.4485
  716MPD2    H710594   4.511   3.845  10.350 -0.9867  0.3204  0.6967
  717TMC3    C110595   4.603   3.057  10.389  0.3769  0.3468  0.1000
  717TMC3    C210596   4.476   3.038  10.434  0.4126  0.0105  0.1390
  717TMC3    C310597   4.419   2.917  10.407  0.1044 -0.9785  0.5960
  717TMC3    C410598   4.679   2.958  10.334 -0.8894  0.5120 -0.2643
  717TMC3    C510599   4.623   2.835  10.314 -0.2530 -0.1197  0.3099
  717TMC3    C610600   4.492   2.818  10.348  0.2730  0.1153 -0.7697
  717TMC3     C10601   4.676   3.182  10.411  0.9573 -0.2668 -0.4378
  717TMC3     O10602   0.076   3.185  10.407 -0.6526  0.0902  0.2214
  717TMC3     H10603   4.426   3.120  10.485  1.1892  0.4457  0.2035
  717TMC3    H110604   0.052   2.986  10.291 -0.5686  1.4518  1.0582
  717TMC3    H210605   4.438   2.735  10.303  0.2989  0.9268 -2.3284
  717TMC3    C710606   4.715   2.725  10.280  0.1911  0.0528 -0.6396
  717TMC3    C810607   4.277   2.884  10.439 -0.2070 -0.6073 -0.6344
  717TMC3    O110608   0.102   2.761  10.243  0.1456 -0.2352  0.1024
  717TMC3    O210609   4.248   2.769  10.456 -0.0356 -0.5479  0.8216
  718MPD2     C10610   3.812   2.064  13.498  0.0173 -0.0155  0.6285
  718MPD2    C110611   3.812   2.174  13.410 -0.0501  0.8615  0.1740
  718MPD2    C210612   3.700   2.201  13.340 -0.5253 -0.2643 -0.7067
  718MPD2    C310613   3.583   2.125  13.347 -0.4936  0.1931 -0.1092
  718MPD2    C410614   3.586   2.021  13.441  0.0631 -0.3173  0.0177
  718MPD2    C510615   3.695   1.993  13.519 -0.1884 -0.1590 -0.0070
  718MPD2     H10616   3.693   2.286  13.273 -0.3566 -0.3873 -0.8826
  718MPD2    H110617   3.496   1.965  13.460 -0.3910  1.1606  2.2934
  718MPD2    H210618   3.903   2.027  13.544  0.9603 -0.4731 -1.5740
  718MPD2    H310619   3.692   1.909  13.588  0.5099  2.2788  3.0120
  718MPD2     N10620   3.461   2.176  13.289 -0.2602  0.8830  0.0452
  718MPD2    H510621   3.468   2.260  13.233  0.5149 -0.4569 -1.9093
  718MPD2    N110622   3.930   2.249  13.405  0.3423  0.2427 -0.4227
  718MPD2    H710623   4.016   2.207  13.438  0.9958  1.2512 -0.8535
  719TMC3    C110624   4.063   2.394  13.278  0.1828  0.3143  0.3998
  719TMC3    C210625   4.073   2.297  13.183 -0.1752 -0.2214 -0.1109
  719TMC3    C310626   4.078   2.333  13.051 -0.7055  0.2193  0.1376
  719TMC3    C410627   4.079   2.524  13.248 -0.6595  0.5065  0.5058
  719TMC3    C510628   4.111   2.554  13.117  0.0519 -0.1574  0.0292
  719TMC3    C610629   4.121   2.457  13.017 -0.3900 -0.3244  0.8847
  719TMC3     C10630   3.936   2.374  13.343  0.2063 -0.1311 -1.1921
  719TMC3     O10631   3.851   2.451  13.316  0.0568  0.1428  0.1011
  719TMC3     H10632   4.050   2.194  13.205 -1.2639  0.0642  0.1232
  719TMC3    H110633   4.055   2.598  13.324 -1.0347  2.5040 -1.5450
  719TMC3    H210634   4.151   2.484  12.917  0.0006  0.5969  1.2537
  719TMC3    C710635   4.149   2.682  13.078 -0.1577  0.2761 -0.5562
  719TMC3    C810636   3.951   2.304  12.991  0.9734  0.1733  0.2998
  719TMC3    O110637   4.232   2.689  12.988  0.1475 -0.4255 -0.1699
  719TMC3    O210638   3.889   2.203  13.031  0.0069  0.0562 -0.6635
  720MPD2     C10639   1.768   4.581  14.109  0.8550 -0.4148  0.3943
  720MPD2    C110640   1.861   4.681  14.076 -0.2301 -0.1478  0.1632
  720MPD2    C210641   1.962   4.700  14.168  0.0928  0.0159 -0.0885
  720MPD2    C310642   1.973   4.625  14.290 -0.3810  0.2957  0.3926
  720MPD2    C410643   1.885   4.520  14.309  0.7046  0.0946  0.0811
  720MPD2    C510644   1.789   4.499  14.218  0.2199 -0.8111  0.0742
  720MPD2     H10645   2.040   0.052  14.156  0.0117  0.4309  1.9563
  720MPD2    H110646   1.896   4.454  14.394  1.9477 -0.1124 -0.2307
  720MPD2    H210647   1.689   4.547  14.044  1.3394  0.0590 -0.4427
  720MPD2    H310648   1.723   4.415  14.239  1.8680 -2.2576 -0.5134
  720MPD2     N10649   2.084   4.644  14.374 -0.4221  0.2665  0.2384
  720MPD2    H510650   2.161   4.695  14.332 -0.7173  0.7879  0.3325
  720MPD2    N110651   1.849   0.044  13.963 -0.4082  0.0833 -0.4513
  720MPD2    H710652   1.902   0.130  13.966 -0.6847  0.3307 -2.2630
  721TMC3    C110653   2.250   4.604  14.538 -0.4031 -0.7042  0.0554
  721TMC3    C210654   2.263   4.656  14.660  0.3682 -0.0989 -0.1055
  721TMC3    C310655   2.383   4.706  14.696 -0.2358  0.1806 -0.4908
  721TMC3    C410656   2.353   4.577  14.447  0.5145  0.1933 -0.4010
  721TMC3    C510657   2.474   4.622  14.492 -0.7070 -0.4169  0.3876
  721TMC3    C610658   2.488   4.689  14.611  0.2818 -0.0219  0.8161
  721TMC3     C10659   2.114   4.578  14.490  0.4851  0.4999  0.1025
  721TMC3     O10660   2.048   4.514  14.565  0.0628  0.4205  0.3390
  721TMC3     H10661   2.183   4.649  14.734  0.6422 -1.3742  0.0698
  721TMC3    H110662   2.338   4.532  14.350  1.0454  0.7915 -0.7573
  721TMC3    H210663   2.590   4.709  14.642  0.5134 -1.2850  0.8687
  721TMC3    C710664   2.591   4.624  14.412 -0.3810  0.8269  1.1833
  721TMC3    C810665   2.418   0.004  14.837  0.0055  0.2984  0.2231
  721TMC3    O110666   2.655   0.001  14.384  1.0120 -0.5443 -0.1186
  721TMC3    O210667   2.539   0.014  14.862 -0.2260 -0.4054 -0.2658
  722MPD2     C10668   1.083   3.274  12.971  0.4840 -0.3187 -0.1465
  722MPD2    C110669   1.008   3.386  13.004  0.1259  0.3006 -0.4773
  722MPD2    C210670   0.916   3.373  13.101 -0.4355  0.3282  0.0106
  722MPD2    C310671   0.898   3.246  13.158 -0.4255  0.0682  1.0449
  722MPD2    C410672   0.969   3.132  13.121  0.5075 -0.5372  0.4893
  722MPD2    C510673   1.074   3.154  13.029  0.7768  0.3814  0.6352
  722MPD2     H10674   0.860   3.462  13.127  0.2751  1.2359 -1.5448
  722MPD2    H110675   0.951   3.036  13.167  3.4534 -0.5874  1.5624
  722MPD2    H210676   1.173   3.275  12.911  0.7950 -0.6209  0.3109
  722MPD2    H310677   1.138   3.073  12.996 -0.7152 -0.5310 -0.0421
  722MPD2     N10678   0.784   3.227  13.241  0.1800 -0.1495  0.2309
  722MPD2    H510679   0.727   3.311  13.252  2.6447  1.6578 -0.7957
  722MPD2    N110680   1.019   3.504  12.921  0.3776 -0.6645 -0.2632
  722MPD2    H710681   1.095   3.499  12.854  0.9262  1.2300  0.2273
  723TMC3    C110682   0.611   3.133  13.376 -0.3987 -0.5554  0.0982
  723TMC3    C210683   0.522   3.030  13.380  0.1117  0.4103  0.1533
  723TMC3    C310684   0.456   3.006  13.500 -0.2678  1.0904  0.8076
  723TMC3    C410685   0.624   3.223  13.478  0.1180 -0.6328  0.0924
  723TMC3    C510686   0.546   3.204  13.592 -0.1830  0.3899 -0.1485
  723TMC3    C610687   0.459   3.098  13.599 -0.2183 -0.2210 -0.3475
  723TMC3     C10688   0.732   3.108  13.304  0.1739 -0.1385 -0.9292
  723TMC3     O10689   0.770   2.992  13.283 -0.1308  0.1304  0.2499
  723TMC3     H10690   0.501   2.963  13.297 -2.2760  0.4835  0.7055
  723TMC3    H110691   0.709   3.290  13.482  0.8780 -1.5119 -1.5148
  723TMC3    H210692   0.411   3.079  13.694  0.3382 -1.0593 -0.2360
  723TMC3    C710693   0.585   3.263  13.716  0.8799 -0.5154  0.2876
  723TMC3    C810694   0.322   2.946  13.479 -0.4907 -0.4358 -0.8243
  723TMC3    O110695   0.555   3.192  13.812  0.0456 -1.0197  0.4489
  723TMC3    O210696   0.226   3.011  13.528 -0.5432  0.2326 -0.0643
  724TMC3    C110697   1.519   2.356   8.300  0.3677  0.2944  0.4127
  724TMC3    C210698   1.471   2.449   8.391 -0.5410  0.1446 -0.2089
  724TMC3    C310699   1.541   2.464   8.508 -0.4616 -0.2476  0.6188
  724TMC3    C410700   1.636   2.289   8.317 -0.5023  0.1907  0.3818
  724TMC3    C510701   1.704   2.314   8.433 -0.4128 -0.4254  0.4680
  724TMC3    C610702   1.660   2.395   8.532 -0.0996 -0.0717 -0.1875
  724TMC3     C10703   1.449   2.344   8.173 -0.1630 -0.3385 -0.0331
  724TMC3     O10704   1.462   2.238   8.111  0.3397 -0.5255 -0.3907
  724TMC3     H10705   1.366   2.479   8.394  0.0630  2.1460  1.2333
  724TMC3    H110706   1.675   2.227   8.236  0.9985  0.6972  0.7196
  724TMC3    H210707   1.724   2.425   8.614  1.2821 -0.6392 -1.0586
  724TMC3    C710708   1.820   2.234   8.459 -0.5449 -0.6127 -0.3647
  724TMC3    C810709   1.502   2.588   8.578  0.1386  0.4974  0.0213
  724TMC3    O110710   1.907   2.279   8.534 -0.4968 -0.1394  0.3062
  724TMC3    O210711   1.430   2.668   8.517 -0.0006  0.1725 -0.2326
  725TMC3    C110712   2.489   0.053  12.990 -0.3616  1.1434 -0.4535
  725TMC3    C210713   2.388   0.082  12.902  0.0055  0.4825 -0.0569
  725TMC3    C310714   2.382   0.011  12.790  0.4177  0.2423 -0.7635
  725TMC3    C410715   2.591   4.688  12.967  0.5886  0.2620 -0.8294
  725TMC3    C510716   2.580   4.619  12.848 -0.2956  0.0519 -0.2101
  725TMC3    C610717   2.473   4.638  12.766 -1.2247  0.4321  0.1044
  725TMC3     C10718   2.502   0.124  13.117 -0.4718 -0.1065  0.0007
  725TMC3     O10719   2.498   0.045  13.212 -0.5652 -0.3946  0.0477
  725TMC3     H10720   2.307   0.152  12.922 -3.1774 -3.3331  0.2355
  725TMC3    H110721   2.671   4.672  13.038 -0.5641  1.2228  0.6872
  725TMC3    H210722   2.463   4.582  12.674  0.6049  1.0475 -0.4737
  725TMC3    C710723   2.694   4.567  12.782 -1.0312 -0.0617  0.3793
  725TMC3    C810724   2.300   0.054  12.674  0.6518 -0.0599  0.6434
  725TMC3    O110725   2.656   4.493  12.686 -0.5710 -0.0492  0.2355
  725TMC3    O210726   2.266   4.692  12.590 -0.0734  0.1672  0.0509
  726MPD2     C10727   1.062   1.287  10.200  0.6969 -0.5804  0.1808
  726MPD2    C110728   0.998   1.404  10.240  0.0536 -0.3081 -0.0605
  726MPD2    C210729   0.864   1.398  10.275  0.0060  0.3148 -1.0017
  726MPD2    C310730   0.800   1.282  10.291  0.0671  0.5182  0.2234
  726MPD2    C410731   0.866   1.164  10.264  0.0520  0.0246 -0.6507
  726MPD2    C510732   0.998   1.172  10.213 -0.2607  0.9427 -0.1967
  726MPD2     H10733   0.815   1.493  10.294 -2.0473 -0.9156 -0.1166
  726MPD2    H110734   0.827   1.064  10.279  3.1195 -1.4825 -2.7814
  726MPD2    H210735   1.164   1.283  10.163  1.2285  2.0169  1.3716
  726MPD2    H310736   1.050   1.080  10.188  1.5640  1.5525  1.3846
  726MPD2     N10737   0.667   1.270  10.342 -0.2621 -0.1964  0.4828
  726MPD2    H510738   0.636   1.173  10.342  1.1000 -0.6303  1.5198
  726MPD2    N110739   1.052   1.534  10.231  0.2543 -0.0935  0.0198
  726MPD2    H710740   0.992   1.615  10.241  0.5812  0.2893 -1.0799
  727TMC3    C110741   1.198   1.700  10.187 -0.1074 -0.4236 -0.6058
  727TMC3    C210742   1.270   1.765  10.276 -0.2652 -0.2592 -0.4731
  727TMC3    C310743   1.275   1.902  10.266 -0.3885 -0.4276 -0.3515
  727TMC3    C410744   1.105   1.759  10.104  0.1161 -0.3864 -0.2343
  727TMC3    C510745   1.114   1.894  10.090  1.0508  0.2759  0.2486
  727TMC3    C610746   1.199   1.966  10.175 -0.2608 -0.6663  1.0988
  727TMC3     C10747   1.183   1.565  10.216  0.0579 -0.6956 -0.0917
  727TMC3     O10748   1.282   1.492  10.241 -0.5245 -0.1259 -0.5885
  727TMC3     H10749   1.346   1.735  10.347 -1.3767 -0.2384  0.7202
  727TMC3    H110750   1.050   1.695  10.037  1.5356 -0.1662 -1.6237
  727TMC3    H210751   1.208   2.072  10.154  0.4446 -0.7873  0.7813
  727TMC3    C710752   1.031   1.948   9.983 -0.2491 -0.7391  0.3269
  727TMC3    C810753   1.363   1.980  10.362  0.4660  0.1961 -0.2573
  727TMC3    O110754   1.011   1.872   9.885 -0.4304 -0.3951  1.0937
  727TMC3    O210755   1.455   1.928  10.416 -0.0089 -0.2679  0.8569
  728TMC3    C110756   4.700   0.142  15.219  0.9548  0.6457  0.2171
  728TMC3    C210757   0.007   0.057  15.327  0.8596 -0.2465  0.3326
  728TMC3    C310758   0.118   0.087  15.400 -0.1222 -0.1746 -0.3889
  728TMC3    C410759   0.052   0.251  15.201 -1.3054  0.4204  0.0894
  728TMC3    C510760   0.166   0.276  15.277 -1.2863 -0.3822  0.8846
  728TMC3    C610761   0.198   0.194  15.379  0.0427 -0.2436 -0.1889
  728TMC3     C10762   4.555   0.174  15.200 -0.0814  0.3003 -0.7413
  728TMC3     O10763   4.504   0.243  15.117  1.0486  0.8598  0.1864
  728TMC3     H10764   4.676   4.686  15.339 -1.1355  1.2836  3.5960
  728TMC3    H110765   0.014   0.328  15.134 -2.8245  0.8297  1.4182
  728TMC3    H210766   0.272   0.212  15.457 -1.7037  0.4412  1.3013
  728TMC3    C710767   0.188   0.419  15.298  0.3387 -0.2253 -0.2308
  728TMC3    C810768   0.159   4.706  15.493 -0.1952  0.5949 -0.2009
  728TMC3    O110769   0.105   0.492  15.243  0.0001  0.2578 -0.2319
  728TMC3    O210770   0.071   4.664  15.572  0.1302  0.4587  0.7085
  729MPD2     C10771   2.547   1.387  17.388 -0.1371  0.1933  0.3747
  729MPD2    C110772   2.655   1.429  17.463 -0.9117 -0.1479  0.3575
  729MPD2    C210773   2.631   1.445  17.597  0.2144 -0.7227  0.5968
  729MPD2    C310774   2.511   1.422  17.651  0.2526 -1.2488 -0.2886
  729MPD2    C410775   2.401   1.388  17.576 -0.3961 -0.5644  0.0595
  729MPD2    C510776   2.418   1.387  17.440  0.7612 -0.3941  1.2214
  729MPD2     H10777   2.714   1.475  17.660 -0.0012  1.6164 -0.2465
  729MPD2    H110778   2.305   1.383  17.627 -0.7929 -1.8591 -0.8113
  729MPD2    H210779   2.562   1.364  17.284  2.1378 -1.9395  1.1700
  729MPD2    H310780   2.341   1.382  17.364  1.1577 -1.4104  0.8804
  729MPD2     N10781   2.483   1.442   0.098 -0.4922  0.2669 -0.3364
  729MPD2    H510782   2.388   1.424   0.130  0.1742 -0.9984  0.9702
  729MPD2    N110783   2.781   1.454  17.393  0.1252 -0.2927 -0.0983
  729MPD2    H710784   2.781   1.423  17.296  2.7573 -0.5603 -0.0090
  730TMC3    C110785   2.497   1.556   0.300  0.7642  0.5461  0.3699
  730TMC3    C210786   2.582   1.596   0.398 -0.1895 -0.2843 -0.1648
  730TMC3    C310787   2.569   1.718   0.454  0.0388  0.3585 -0.3188
  730TMC3    C410788   2.387   1.640   0.266  0.7763  0.0140  0.3087
  730TMC3    C510789   2.384   1.766   0.329  0.2008  0.4912 -0.6678
  730TMC3    C610790   2.466   1.803   0.433  0.6789  0.5566 -0.3497
  730TMC3     C10791   2.570   1.507   0.183 -0.4394 -0.2426 -0.2647
  730TMC3     O10792   2.692   1.501   0.194 -0.4826  1.0083 -0.7476
  730TMC3     H10793   2.662   1.535   0.439  2.5778  1.8864 -2.2877
  730TMC3    H110794   2.315   1.614   0.190  0.9032 -1.8394  0.8398
  730TMC3    H210795   2.477   1.906   0.465  0.8401 -0.0129  1.4142
  730TMC3    C710796   2.310   1.858   0.238 -0.2006  0.1559  0.4578
  730TMC3    C810797   2.688   1.778   0.513 -0.7137 -0.6522 -0.3744
  730TMC3    O110798   2.286   1.824   0.125 -0.1297  0.4936 -0.5691
  730TMC3    O210799   2.669   1.858   0.603  0.6809 -0.4647 -0.2838
  731MPD2     C10800   2.247   4.212  12.526  0.4169  0.4987 -0.1205
  731MPD2    C110801   2.135   4.136  12.532  0.0249  0.3158  0.7564
  731MPD2    C210802   2.059   4.129  12.645 -0.0422  0.2409  0.1036
  731MPD2    C310803   2.092   4.210  12.758  0.3762  0.0198  0.7352
  731MPD2    C410804   2.204   4.290  12.749 -0.2312 -0.0131  0.2881
  731MPD2    C510805   2.275   4.293  12.633  0.7331 -0.1566  0.1889
  731MPD2     H10806   1.959   4.089  12.651 -0.7751  2.0319 -0.0737
  731MPD2    H110807   2.239   4.356  12.828 -1.6449  0.6232  0.3766
  731MPD2    H210808   2.314   4.202  12.441  1.0449 -0.1709  0.4560
  731MPD2    H310809   2.370   4.346  12.640  0.8918 -0.3869 -0.2251
  731MPD2     N10810   2.009   4.214  12.868 -0.5328  0.3853 -0.2615
  731MPD2    H510811   1.929   4.151  12.867 -0.4053  0.1969  2.1522
  731MPD2    N110812   2.107   4.067  12.410  0.1082 -0.3704  0.1535
  731MPD2    H710813   2.164   4.097  12.332  1.8062  0.4959  1.7209
  732TMC3    C110814   2.006   3.937  12.251 -0.6812  0.1040  0.1933
  732TMC3    C210815   1.879   3.915  12.211  0.4730 -0.2215 -0.7196
  732TMC3    C310816   1.862   3.880  12.080 -0.2835 -0.8910  0.2689
  732TMC3    C410817   2.118   3.914  12.179 -0.2479 -0.4191  0.8513
  732TMC3    C510818   2.096   3.874  12.048  0.1810  0.2252 -0.2013
  732TMC3    C610819   1.972   3.869  11.992 -0.0289 -0.2105  0.2528
  732TMC3     C10820   2.015   3.975  12.392 -0.1662 -0.5301 -0.0945
  732TMC3     O10821   1.925   3.941  12.465 -0.3007  0.0403  0.5880
  732TMC3     H10822   1.794   3.922  12.278  1.4871  0.4614  0.4913
  732TMC3    H110823   2.215   3.915  12.227  0.5128  1.7563 -0.7466
  732TMC3    H210824   1.959   3.854  11.886  3.5810  2.1963 -0.5178
  732TMC3    C710825   2.207   3.889  11.955 -0.3143 -0.2746  0.7485
  732TMC3    C810826   1.727   3.870  12.031  0.0630  0.9520 -0.0381
  732TMC3    O110827   2.193   3.872  11.837 -0.1147 -0.3279  0.0481
  732TMC3    O210828   1.709   3.790  11.943 -0.0024 -0.3745 -0.1749
  733TMC3    C110829   3.064   2.250  13.107  0.4349 -0.1511  0.1506
  733TMC3    C210830   3.131   2.182  13.205  0.5815  0.1882  0.3019
  733TMC3    C310831   3.263   2.159  13.185  0.2301  0.5967  0.1609
  733TMC3    C410832   3.122   2.276  12.983 -0.3297  0.2692  0.6345
  733TMC3    C510833   3.255   2.239  12.970  0.5555  0.3779 -0.5602
  733TMC3    C610834   3.328   2.179  13.068  0.3224 -0.3420 -0.2631
  733TMC3     C10835   2.928   2.290  13.117 -0.5377 -0.5211  0.3528
  733TMC3     O10836   2.861   2.319  13.019  0.2323  0.6011 -0.4642
  733TMC3     H10837   3.088   2.174  13.304 -0.6378  0.7742 -0.1742
  733TMC3    H110838   3.063   2.330  12.910  2.1795 -0.8487 -2.2616
  733TMC3    H210839   3.425   2.134  13.051 -0.8143 -1.5658 -3.4189
  733TMC3    C710840   3.329   2.285  12.857  0.0978  0.8407  0.1146
  733TMC3    C810841   3.341   2.109  13.291  0.1897 -0.3559  0.7156
  733TMC3    O110842   3.273   2.330  12.761  0.8558 -0.0344 -0.0639
  733TMC3    O210843   3.293   2.014  13.354 -0.4736 -0.1001 -0.0152
  734MPD2     C10844   0.503   0.931  12.754  0.1199 -0.2042 -0.0323
  734MPD2    C110845   0.396   0.896  12.677  0.0000 -0.4093 -0.8835
  734MPD2    C210846   0.419   0.870  12.541  0.3076 -0.2216 -0.1438
  734MPD2    C310847   0.546   0.869  12.484  0.3729 -0.8207 -0.1357
  734MPD2    C410848   0.654   0.915  12.557  0.2223 -0.3355 -0.5930
  734MPD2    C510849   0.629   0.940  12.692 -0.0400 -1.2852 -0.0271
  734MPD2     H10850   0.340   0.836  12.476 -0.8673  1.3072  0.4764
  734MPD2    H110851   0.755   0.911  12.520  0.3481 -1.1903 -0.1540
  734MPD2    H210852   0.505   0.959  12.859  0.5990  1.0923 -0.3950
  734MPD2    H310853   0.711   0.960  12.760 -0.3131  0.9752 -0.3820
  734MPD2     N10854   0.557   0.836  12.351  0.4243 -0.0332 -0.5267
  734MPD2    H510855   0.469   0.845  12.301 -0.8582  2.0069  2.1282
  734MPD2    N110856   0.276   0.865  12.742  0.0002  0.2335  0.8194
  734MPD2    H710857   0.271   0.884  12.842 -0.0680 -0.9171  1.0279
  735TMC3    C110858   0.066   0.771  12.784 -0.3005  0.0415 -0.3529
  735TMC3    C210859   4.681   0.728  12.711  0.0041  0.0654  0.9748
  735TMC3    C310860   4.644   0.598  12.716  0.0019  0.5706 -0.2442
  735TMC3    C410861   0.122   0.692  12.878 -0.2165  0.3130  0.4907
  735TMC3    C510862   0.083   0.564  12.885 -1.1214  0.6897 -0.4470
  735TMC3    C610863   4.705   0.515  12.803 -0.4329 -0.4882  0.5604
  735TMC3     C10864   0.162   0.815  12.684 -0.4893  0.1734  0.3774
  735TMC3     O10865   0.130   0.799  12.566 -0.3798 -0.1922 -0.0373
  735TMC3     H10866   4.633   0.789  12.635  0.0902  0.1017  0.9507
  735TMC3    H110867   0.207   0.727  12.936 -0.4154  1.0767  0.3299
  735TMC3    H210868   4.699   0.409  12.782 -0.5455 -0.4732  0.5179
  735TMC3    C710869   0.201   0.475  12.915  0.4307 -0.3094  0.7052
  735TMC3    C810870   4.623   0.536  12.588 -0.4853  0.1139  0.1010
  735TMC3    O110871   0.311   0.523  12.904  0.3533  0.1039 -0.0822
  735TMC3    O210872   4.550   0.440  12.585 -0.0922 -0.5106 -0.1670
  736MPD2     C10873   0.225   0.117  12.991 -0.0472  0.4926 -0.3326
  736MPD2    C110874   0.253   0.240  12.930  0.5190  0.2286  0.9264
  736MPD2    C210875   0.357   0.234  12.834 -0.3790 -0.3186 -1.0183
  736MPD2    C310876   0.416   0.112  12.798 -0.2796  0.2870  0.1071
  736MPD2    C410877   0.382   4.722  12.867 -0.3814  0.1890 -0.3964
  736MPD2    C510878   0.293   0.001  12.968  0.0179  0.5370  0.0628
  736MPD2     H10879   0.390   0.330  12.795 -0.4235  0.4890  0.9100
  736MPD2    H110880   0.433   4.631  12.837 -0.2759  0.1240 -0.0251
  736MPD2    H210881   0.142   0.116  13.060 -0.1065  3.2389 -0.3670
  736MPD2    H310882   0.257   4.631  13.012  2.6425 -1.0315 -1.0776
  736MPD2     N10883   0.504   0.105  12.685  0.3521  0.1162  0.0960
  736MPD2    H510884   0.514   0.009  12.653 -0.8714  0.4390 -1.2488
  736MPD2    N110885   0.164   0.347  12.938 -0.7057  0.8598 -0.1928
  736MPD2    H710886   0.067   0.336  12.965 -1.1578 -0.2719 -2.2690
  737TMC3    C110887   0.644   0.193  12.506  0.0592  1.1110 -0.2306
  737TMC3    C210888   0.661   0.290  12.410  0.6161  0.7055  0.3131
  737TMC3    C310889   0.714   0.258  12.289 -0.2617 -0.3900 -0.1365
  737TMC3    C410890   0.688   0.062  12.488 -0.2217 -0.2102  0.2761
  737TMC3    C510891   0.759   0.045  12.375  0.3260  0.4231 -0.1501
  737TMC3    C610892   0.769   0.136  12.270 -0.2235 -0.3243 -0.1005
  737TMC3     C10893   0.569   0.220  12.630 -0.6678  1.3930 -0.1885
  737TMC3     O10894   0.546   0.338  12.654  0.0016 -0.0715  0.0631
  737TMC3     H10895   0.622   0.390  12.426  1.3794  1.2445 -1.2417
  737TMC3    H110896   0.693   4.718  12.574 -0.0304 -0.3328  0.1725
  737TMC3    H210897   0.818   0.115  12.175 -0.3103  1.5207 -0.5546
  737TMC3    C710898   0.814   4.628  12.357  0.0062  0.5458 -0.7984
  737TMC3    C810899   0.767   0.369  12.216  0.5463  0.8817  0.8209
  737TMC3    O110900   0.809   4.563  12.458 -0.3163  0.3013 -0.0998
  737TMC3    O210901   0.815   0.466  12.273 -0.1569  0.0835 -0.2636
  738MPD2     C10902   1.786   3.409  15.470  0.5724 -0.1700  0.0230
  738MPD2    C110903   1.675   3.444  15.399  0.0630  0.9000  0.7743
  738MPD2    C210904   1.687   3.564  15.327 -0.3752  0.0060 -0.0767
  738MPD2    C310905   1.811   3.630  15.311  0.5288 -0.2711 -0.3689
  738MPD2    C410906   1.917   3.580  15.382  0.0326  0.0027 -0.0297
  738MPD2    C510907   1.902   3.474  15.464  0.8454  0.0465  0.0918
  738MPD2     H10908   1.602   3.602  15.272  1.1776  2.6413 -0.6503
  738MPD2    H110909   2.021   3.610  15.390  0.0260  0.0493 -0.1177
  738MPD2    H210910   1.785   3.324  15.537 -1.8284 -1.5355 -1.7433
  738MPD2    H310911   1.983   3.440  15.528  0.9987 -1.8424 -1.1082
  738MPD2     N10912   1.827   3.749  15.233  0.1688 -0.7925  0.8246
  738MPD2    H510913   1.908   3.810  15.239  1.1084 -1.8890 -0.8938
  738MPD2    N110914   1.552   3.369  15.406  0.2306 -0.0303  0.3610
  738MPD2    H710915   1.477   3.404  15.347 -1.3025 -1.1575  1.6373
  739TMC3    C110916   1.772   3.932  15.079 -0.3219  0.6602 -0.6353
  739TMC3    C210917   1.741   3.944  14.950  0.6226 -0.8127  0.8063
  739TMC3    C310918   1.780   4.055  14.877  0.3032 -0.2027 -0.2839
  739TMC3    C410919   1.873   4.003  15.135  0.3020  0.0735 -0.2309
  739TMC3    C510920   1.930   4.100  15.056  0.0702 -0.3260 -0.7331
  739TMC3    C610921   1.871   4.138  14.934 -0.2825  0.2783  0.1357
  739TMC3     C10922   1.736   3.798  15.138 -0.5371 -0.2349  0.3501
  739TMC3     O10923   1.644   3.737  15.080  0.4000  0.6421  0.2640
  739TMC3     H10924   1.669   3.880  14.901 -0.8809  1.2694  0.2467
  739TMC3    H110925   1.927   3.970  15.222  0.2456  2.1295  0.5885
  739TMC3    H210926   1.913   4.211  14.866 -0.1711  1.9555  1.9932
  739TMC3    C710927   2.064   4.154  15.090  0.4508 -0.7248  0.2542
  739TMC3    C810928   1.744   4.065  14.740 -0.5627 -0.1929  0.1706
  739TMC3    O110929   2.107   4.124  15.199  0.3898  0.0054 -0.3595
  739TMC3    O210930   1.643   4.124  14.706 -0.1038  0.1143  0.3351
  740TMC3    C110931   1.843   0.791  14.679 -0.0282 -0.4949 -0.0038
  740TMC3    C210932   1.913   0.811  14.796 -0.0943 -0.3188 -0.5385
  740TMC3    C310933   2.043   0.771  14.808 -0.0729  0.1748 -0.3574
  740TMC3    C410934   1.896   0.717  14.578  0.4427 -0.5440 -0.1001
  740TMC3    C510935   2.026   0.674  14.593 -0.1661 -0.0732 -0.3281
  740TMC3    C610936   2.105   0.707  14.699 -0.5352 -0.0045  0.7161
  740TMC3     C10937   1.708   0.782  14.702 -0.5242 -0.4981 -0.3045
  740TMC3     O10938   1.628   0.859  14.653 -0.1110 -0.0730 -0.0265
  740TMC3     H10939   1.865   0.865  14.877 -0.7424 -1.6457 -0.0393
  740TMC3    H110940   1.841   0.687  14.490  1.2612  0.4974 -0.9603
  740TMC3    H210941   2.210   0.682  14.702 -0.1214  1.6524 -0.0679
  740TMC3    C710942   2.085   0.587  14.491  0.1309  0.1769 -1.5951
  740TMC3    C810943   2.140   0.845  14.894  0.0417  0.0446 -0.0840
  740TMC3    O110944   2.190   0.519  14.516 -0.4658  0.3477  0.1664
  740TMC3    O210945   2.253   0.807  14.896  0.2951  0.1537 -0.0193
  741TMC3    C110946   1.464   4.119  15.111 -0.9583  0.3698 -0.3762
  741TMC3    C210947   1.439   4.121  14.974  0.1191  0.3569 -0.5714
  741TMC3    C310948   1.356   4.022  14.931  0.0723  0.5102 -0.3774
  741TMC3    C410949   1.419   4.019  15.189  0.7036  0.2894 -0.2035
  741TMC3    C510950   1.341   3.920  15.137 -0.5751  0.0558 -0.2159
  741TMC3    C610951   1.304   3.921  15.006  0.1529  0.2062  0.3749
  741TMC3     C10952   1.565   4.196  15.163 -0.8793 -0.0499 -0.3820
  741TMC3     O10953   1.632   4.144  15.253  0.0985  0.0890 -0.1276
  741TMC3     H10954   1.485   4.186  14.900 -3.1591  2.5441 -0.7325
  741TMC3    H110955   1.442   4.020  15.295 -4.1769 -3.2059  0.8619
  741TMC3    H210956   1.249   3.836  14.967  0.1811  0.3531  0.0104
  741TMC3    C710957   1.305   3.818  15.225 -0.5787 -0.1352 -0.5288
  741TMC3    C810958   1.279   4.050  14.812  0.5926 -0.2385 -0.2062
  741TMC3    O110959   1.368   3.810  15.330  0.0669 -0.3180  0.5316
  741TMC3    O210960   1.163   4.010  14.822  0.1859 -0.4757  0.2510
  742TMC3    C110961   1.795   2.896  15.647  1.0139 -0.8569  0.4534
  742TMC3    C210962   1.700   2.915  15.548 -0.3876 -0.4037  0.9192
  742TMC3    C310963   1.726   2.862  15.425  0.0874 -0.5764 -0.2731
  742TMC3    C410964   1.915   2.833  15.626  0.8036  0.3480 -0.2453
  742TMC3    C510965   1.945   2.806  15.495  0.2969 -0.9684 -0.3300
  742TMC3    C610966   1.852   2.826  15.396  0.7884  0.2914  0.0644
  742TMC3     C10967   1.766   2.930  15.781  0.1137  0.1331  0.3731
  742TMC3     O10968   1.840   2.887  15.871 -0.1137 -0.0080  0.4033
  742TMC3     H10969   1.599   2.925  15.587 -0.2254 -2.9622  2.0360
  742TMC3    H110970   1.985   2.817  15.707 -1.7048 -0.6119  1.7481
  742TMC3    H210971   1.879   2.811  15.292 -0.5897  0.6363 -0.3333
  742TMC3    C710972   2.083   2.774  15.466  0.1261  0.5102 -0.0632
  742TMC3    C810973   1.650   2.913  15.313  0.0892 -0.3954  0.0744
  742TMC3    O110974   2.165   2.801  15.552  0.3169  0.3603  0.6211
  742TMC3    O210975   1.545   2.861  15.287  0.7323  0.6922 -0.2724
  743MPD2     C10976   0.172   3.778   2.174  0.0124  0.2760  0.1148
  743MPD2    C110977   0.161   3.754   2.040  0.0465 -0.8932  0.4617
  743MPD2    C210978   0.281   3.743   1.970  0.0820  0.2265 -0.5482
  743MPD2    C310979   0.404   3.759   2.037 -0.0507  0.3149 -0.6071
  743MPD2    C410980   0.405   3.806   2.168  0.3659 -1.2779 -0.3737
  743MPD2    C510981   0.284   3.824   2.229 -0.1642  0.6612 -0.7846
  743MPD2     H10982   0.275   3.717   1.865  2.3436 -0.3725 -0.5162
  743MPD2    H110983   0.496   3.841   2.215  0.2062  0.5300 -1.4133
  743MPD2    H210984   0.088   3.798   2.239 -2.2428 -2.1946 -2.0476
  743MPD2    H310985   0.293   3.849   2.334  1.1461 -3.3342  0.0391
  743MPD2     N10986   0.530   3.744   1.964 -0.0192  0.0652  0.2640
  743MPD2    H510987   0.519   3.724   1.865 -0.0260 -0.5594  0.3888
  743MPD2    N110988   0.030   3.759   1.981  0.0517  0.8842 -0.7299
  743MPD2    H710989   4.676   3.761   2.049  0.3623  0.7709 -0.3758
  744TMC3    C110990   4.585   3.765   1.812  0.1329  0.2305 -0.2835
  744TMC3    C210991   4.514   3.668   1.873 -0.6954  0.1127  0.0222
  744TMC3    C310992   4.392   3.642   1.812 -0.1999  0.0035 -0.1334
  744TMC3    C410993   4.556   3.814   1.690 -0.0647  0.0981 -0.1491
  744TMC3    C510994   4.441   3.773   1.625 -0.0372 -0.0571 -0.6379
  744TMC3    C610995   4.354   3.699   1.695 -0.4465  0.3933 -0.2647
  744TMC3     C10996   0.005   3.770   1.846  0.3642  0.5329 -0.2466
  744TMC3     O10997   0.076   3.808   1.754 -0.2694  0.1787  0.0328
  744TMC3     H10998   4.536   3.633   1.973  2.4602  1.3777 -0.2290
  744TMC3    H110999   4.623   3.882   1.639  1.3178 -0.3471  1.0720
  744TMC3    H211000   4.261   3.682   1.643 -0.5113 -0.6117  0.1969
  744TMC3    C711001   4.436   3.773   1.478  0.3615  0.3715 -0.4040
  744TMC3    C811002   4.303   3.563   1.897  0.1360 -0.0370 -0.4707
  744TMC3    O111003   4.321   3.784   1.430 -0.4941 -0.5793  0.3996
  744TMC3    O211004   4.357   3.487   1.978 -0.1953 -0.1821 -0.2007
  745TMC3    C111005   1.655   2.947  13.847 -0.6455 -0.3665 -0.4343
  745TMC3    C211006   1.610   2.909  13.970 -0.7222 -0.1771  0.5626
  745TMC3    C311007   1.563   2.778  13.983 -1.0653  0.3435 -0.5917
  745TMC3    C411008   1.658   2.866  13.738  0.1107 -0.5150  0.1230
  745TMC3    C511009   1.604   2.742  13.751  0.1388 -0.3110 -0.2012
  745TMC3    C611010   1.551   2.698  13.870 -0.1675 -0.1259  0.6350
  745TMC3     C11011   1.695   3.084  13.829 -0.2026 -0.6067 -0.2959
  745TMC3     O11012   1.671   3.161  13.923 -0.6660  0.5305 -0.1175
  745TMC3     H11013   1.613   2.976  14.055  1.0737  0.2676  0.1342
  745TMC3    H111014   1.677   2.902  13.637  0.1018  0.1206  0.3523
  745TMC3    H211015   1.518   2.596  13.878  1.2495 -0.4529  2.3567
  745TMC3    C711016   1.626   2.639  13.652  0.7091  0.1233  0.6590
  745TMC3    C811017   1.565   2.712  14.112 -0.3046 -0.6736  0.1716
  745TMC3    O111018   1.566   2.531  13.659  0.0985  0.1292  0.1081
  745TMC3    O211019   1.546   2.589  14.129 -0.3559  0.7229 -0.2328
  746TMC3    C111020   4.166   4.212  11.293 -0.5601 -0.6421  0.3076
  746TMC3    C211021   4.260   4.184  11.197  0.3296  0.2612  0.2198
  746TMC3    C311022   4.226   4.074  11.114 -0.3122  0.6287  0.1776
  746TMC3    C411023   4.039   4.167  11.294  0.1744 -1.0053  0.4659
  746TMC3    C511024   4.013   4.067  11.207 -0.5383  0.4488  0.2913
  746TMC3    C611025   4.096   4.020  11.112 -0.1919  0.4018 -0.5713
  746TMC3     C11026   4.181   4.343  11.356 -0.0427 -0.0082  0.7215
  746TMC3     O11027   4.075   4.394  11.394  0.0095 -0.2891 -0.6592
  746TMC3     H11028   4.353   4.239  11.203  0.1846  0.2566  2.5806
  746TMC3    H111029   3.962   4.194  11.365 -1.6429  0.7898 -2.1980
  746TMC3    H211030   4.081   3.928  11.056 -0.1020  0.4046 -0.6001
  746TMC3    C711031   3.883   4.003  11.217 -0.0666 -0.2416 -0.2758
  746TMC3    C811032   4.314   4.039  11.002  0.0852 -0.8591  0.2308
  746TMC3    O111033   3.831   3.959  11.115  0.5281  0.0432 -0.0845
  746TMC3    O211034   4.294   3.927  10.957  0.7205  0.1783  0.5457
  747TMC3    C111035   1.297   4.047  11.585  1.0811 -0.2606 -0.0843
  747TMC3    C211036   1.187   4.058  11.671  0.0268 -0.0087  0.0818
  747TMC3    C311037   1.194   4.145  11.768  0.3310  0.0968  0.7625
  747TMC3    C411038   1.416   4.108  11.614  0.3701  0.2397 -0.4462
  747TMC3    C511039   1.423   4.197  11.722  0.4305 -0.6600  0.4477
  747TMC3    C611040   1.306   4.221  11.796  0.2833  0.5253  0.0071
  747TMC3     C11041   1.260   3.996  11.452 -0.6995  0.5825  0.3546
  747TMC3     O11042   1.142   3.997  11.429  0.3503 -0.0109 -0.3782
  747TMC3     H11043   1.097   4.003  11.651  0.7168 -1.1220  0.0244
  747TMC3    H111044   1.503   4.097  11.550 -0.7864 -1.5238 -1.6947
  747TMC3    H211045   1.303   4.289  11.880  0.3236  0.4203  0.0951
  747TMC3    C711046   1.535   4.269  11.767 -0.1172  0.4918 -0.1025
  747TMC3    C811047   1.081   4.163  11.857  0.4376  0.5545  0.3602
  747TMC3    O111048   1.516   4.380  11.817  0.7629  0.1095 -0.2156
  747TMC3    O211049   1.003   4.070  11.854  0.3937  0.0765 -0.2820
  748MPD2     C11050   2.356   0.779   1.474 -0.0908  0.2292  0.3626
  748MPD2    C111051   2.412   0.693   1.564 -0.0492 -0.5382  0.6302
  748MPD2    C211052   2.540   0.645   1.539 -0.3657 -0.3597  0.1901
  748MPD2    C311053   2.614   0.690   1.432  0.0040  0.0165 -0.3217
  748MPD2    C411054   2.568   0.796   1.355  0.4024  0.5423  0.2548
  748MPD2    C511055   2.433   0.837   1.370 -0.5749  0.3364  0.4625
  748MPD2     H11056   2.577   0.563   1.599  0.9003  0.7855  0.9624
  748MPD2    H111057   2.618   0.834   1.267  0.2809 -0.8118 -0.4075
  748MPD2    H211058   2.257   0.823   1.485 -0.3537  0.3257 -2.3878
  748MPD2    H311059   2.391   0.913   1.304  1.0707 -1.3174 -2.5061
  748MPD2     N11060   2.739   0.630   1.412  0.0608  0.2620  0.3724
  748MPD2    H511061   2.763   0.541   1.453  3.2707 -0.1677 -2.4797
  748MPD2    N111062   2.329   0.653   1.675 -0.3431 -0.7597 -0.4182
  748MPD2    H711063   2.239   0.699   1.685 -0.6870 -1.4010 -0.5533
  749TMC3    C111064   2.972   0.610   1.352  0.6871  0.3406 -0.6616
  749TMC3    C211065   2.985   0.525   1.461 -0.5328  0.4398 -0.3008
  749TMC3    C311066   3.114   0.495   1.494  0.6836 -1.1135  0.4699
  749TMC3    C411067   3.076   0.670   1.286 -0.1544 -0.1406 -0.5666
  749TMC3    C511068   3.202   0.637   1.330  0.8232  0.1162  0.1422
  749TMC3    C611069   3.220   0.552   1.432 -0.7016  0.7102  0.2922
  749TMC3     C11070   2.844   0.687   1.346  0.1835 -0.2947  0.2900
  749TMC3     O11071   2.844   0.794   1.285  0.2145  0.0579  0.0145
  749TMC3     H11072   2.906   0.506   1.532  1.3210 -2.7074  0.8936
  749TMC3    H111073   3.058   0.743   1.207 -0.7977  1.2750  0.8838
  749TMC3    H211074   3.321   0.545   1.472 -0.6935  1.6310  0.4180
  749TMC3    C711075   3.324   0.704   1.276  0.2158  0.1191 -0.4122
  749TMC3    C811076   3.132   0.392   1.595  0.2331 -0.0318  0.2965
  749TMC3    O111077   3.434   0.662   1.320 -0.4227  0.2421  1.1655
  749TMC3    O211078   3.044   0.375   1.677  0.5648 -0.5158  0.1087
  750MPD2     C11079   4.256   1.944  11.166 -0.3519  0.2865  0.2536
  750MPD2    C111080   4.164   1.908  11.267 -0.2827 -0.3019  0.1227
  750MPD2    C211081   4.153   1.775  11.306  0.0097 -0.0328 -0.2418
  750MPD2    C311082   4.225   1.678  11.235 -0.5847 -0.2988 -0.2859
  750MPD2    C411083   4.305   1.711  11.128  0.1984 -0.5218 -0.0268
  750MPD2    C511084   4.312   1.844  11.095 -0.2961 -0.1195 -0.0360
  750MPD2     H11085   4.098   1.743  11.394  0.2775  0.6908  0.1896
  750MPD2    H111086   4.364   1.638  11.074  0.1770  0.0193 -0.7795
  750MPD2    H211087   4.279   2.045  11.133 -0.6202  0.3175  0.1603
  750MPD2    H311088   4.368   1.868  11.005 -1.8045 -3.4619 -1.8204
  750MPD2     N11089   4.235   1.545  11.283  0.2020 -0.4314 -0.3257
  750MPD2    H511090   4.305   1.491  11.233 -0.9051 -2.5501  0.4211
  750MPD2    N111091   4.106   2.009  11.337  0.3566 -0.3103  0.0143
  750MPD2    H711092   4.134   2.104  11.315 -1.5039  0.2683  0.0676
  751TMC3    C111093   4.180   1.331  11.366 -1.2461 -0.3451  0.0533
  751TMC3    C211094   4.082   1.243  11.420 -0.7712  0.1686  0.2361
  751TMC3    C311095   4.122   1.115  11.441  0.3682  0.2573  0.2123
  751TMC3    C411096   4.305   1.291  11.326  0.2788  0.0831  0.2007
  751TMC3    C511097   4.327   1.158  11.334  0.2621 -0.2016  0.1701
  751TMC3    C611098   4.241   1.074  11.398 -0.0408 -0.2000 -0.0096
  751TMC3     C11099   4.148   1.476  11.359  0.9243 -0.2434  0.3253
  751TMC3     O11100   4.043   1.508  11.415 -0.4099  0.5534 -0.0238
  751TMC3     H11101   3.991   1.278  11.469 -0.9807 -2.0475  1.4036
  751TMC3    H111102   4.377   1.359  11.281  0.7432 -0.4133  0.1941
  751TMC3    H211103   4.265   0.968  11.402  0.2593 -0.0603  1.6187
  751TMC3    C711104   4.393   1.081  11.228  0.8570  0.0201  0.1564
  751TMC3    C811105   4.026   1.013  11.413 -0.2633  0.1643 -0.3267
  751TMC3    O111106   4.497   1.127  11.181  0.1748  0.0596  0.1648
  751TMC3    O211107   4.053   0.956  11.308  0.0271 -0.1806  0.4738
  752TMC3    C111108   3.478   1.584   0.556  0.2908 -0.6649  0.0284
  752TMC3    C211109   3.357   1.532   0.582  0.3231 -0.5317  0.0682
  752TMC3    C311110   3.296   1.572   0.702 -0.1076  0.7100  0.0444
  752TMC3    C411111   3.542   1.668   0.639  0.2888 -0.2451  0.0055
  752TMC3    C511112   3.476   1.701   0.757 -0.0703 -0.2618 -0.2703
  752TMC3    C611113   3.352   1.658   0.793  0.1615 -0.5205 -0.7210
  752TMC3     C11114   3.535   1.577   0.422  0.1559 -1.2902 -0.6951
  752TMC3     O11115   3.649   1.618   0.400 -0.5469 -0.0028  0.2153
  752TMC3     H11116   3.316   1.454   0.519  0.5283 -0.8140  0.2805
  752TMC3    H111117   3.638   1.710   0.612  0.2021  1.5009  2.4455
  752TMC3    H211118   3.299   1.685   0.884  1.3532 -1.7901  0.3325
  752TMC3    C711119   3.556   1.770   0.860  0.1437  0.7876  0.1454
  752TMC3    C811120   3.163   1.514   0.741 -0.1997 -0.0001  0.3011
  752TMC3    O111121   3.508   1.771   0.976  0.1857 -0.1891 -0.3553
  752TMC3    O211122   3.139   1.477   0.858  0.0800  0.4255 -0.0289
  753TMC3    C111123   0.377   2.197  14.057  0.0813  0.0641 -0.8039
  753TMC3    C211124   0.365   2.230  14.191 -0.0564  0.2616  0.0821
  753TMC3    C311125   0.401   2.132  14.285 -0.0968 -0.4935  0.0690
  753TMC3    C411126   0.415   2.072  14.015  0.1849  0.2881 -0.0856
  753TMC3    C511127   0.461   1.983  14.108  1.0071 -0.3835 -1.2379
  753TMC3    C611128   0.447   2.010  14.245 -0.8205 -0.1798  0.1490
  753TMC3     C11129   0.320   2.282  13.957  0.0971  0.1200 -0.4112
  753TMC3     O11130   0.264   2.226  13.863  0.5855  0.3493 -0.3875
  753TMC3     H11131   0.330   2.329  14.221 -2.2158 -0.3265 -0.5394
  753TMC3    H111132   0.429   2.052  13.909 -0.2087  0.4750 -0.1728
  753TMC3    H211133   0.480   1.937  14.317 -1.7269 -1.7145 -0.9948
  753TMC3    C711134   0.489   1.847  14.064 -0.0181 -0.1435  0.1055
  753TMC3    C811135   0.435   2.167  14.421 -0.1239  0.4483  0.5568
  753TMC3    O111136   0.514   1.828  13.945 -0.4050  0.5951  0.1815
  753TMC3    O211137   0.464   2.074  14.492  0.4286  0.4086  0.1937
  754MPD2     C11138   3.332   0.732  13.257 -0.7588 -0.5875  0.2459
  754MPD2    C111139   3.305   0.855  13.315  1.2862  0.3389 -0.3272
  754MPD2    C211140   3.185   0.923  13.291  0.0905  0.0790  0.1466
  754MPD2    C311141   3.096   0.865  13.206 -0.2346  0.3278 -0.1021
  754MPD2    C411142   3.128   0.753  13.133  0.0003 -1.6893 -0.2035
  754MPD2    C511143   3.243   0.683  13.165 -0.4308 -0.1149 -0.3570
  754MPD2     H11144   3.164   1.017  13.342  0.1088  0.1859 -0.0417
  754MPD2    H111145   3.054   0.691  13.083  0.6418 -2.9401  0.3796
  754MPD2    H211146   3.428   0.686  13.276 -1.1842 -1.4628  0.2659
  754MPD2    H311147   3.249   0.581  13.128  0.0989  0.6857 -2.4662
  754MPD2     N11148   2.963   0.911  13.188 -0.2535 -0.0641  0.3286
  754MPD2    H511149   2.897   0.850  13.141  0.8793 -1.6211  0.7740
  754MPD2    N111150   3.390   0.882  13.432 -0.4619 -0.7148  0.0280
  754MPD2    H711151   3.455   0.809  13.457 -0.6658 -0.1236  2.2877
  755MPD2     C11152   2.280   1.541  13.699 -0.3036 -0.5077 -0.1271
  755MPD2    C111153   2.366   1.436  13.722 -0.3071 -0.4041  0.1368
  755MPD2    C211154   2.423   1.372  13.621 -0.5137  0.2799  0.4957
  755MPD2    C311155   2.392   1.400  13.490  1.5176 -0.0142 -0.2739
  755MPD2    C411156   2.295   1.491  13.462 -0.0295  1.1060 -0.8937
  755MPD2    C511157   2.235   1.560  13.564 -0.0870  0.6939  0.3858
  755MPD2     H11158   2.489   1.290  13.645  0.5282  1.5774  2.0885
  755MPD2    H111159   2.262   1.512  13.361 -2.5565 -0.5466 -0.4080
  755MPD2    H211160   2.247   1.603  13.781  0.5243  1.0539 -0.9609
  755MPD2    H311161   2.169   1.642  13.538  0.0611  1.0813  1.2197
  755MPD2     N11162   2.436   1.318  13.385 -0.2043  0.4693 -0.2358
  755MPD2    H511163   2.397   1.337  13.293 -0.2869  1.3861 -0.0147
  755MPD2    N111164   2.411   1.388  13.843 -0.8693 -0.3572  0.5416
  755MPD2    H711165   2.470   1.305  13.841 -0.4422  0.0286 -2.1969
  756MPD2     C11166   4.289   0.946   9.614 -0.1545 -0.3897  0.4543
  756MPD2    C111167   4.232   1.050   9.681 -0.4863 -0.0500 -0.1416
  756MPD2    C211168   4.097   1.072   9.680 -0.7552  0.2754  0.0486
  756MPD2    C311169   4.018   0.978   9.610  0.6447  0.5779 -0.3325
  756MPD2    C411170   4.077   0.866   9.548 -1.0365  0.3378 -0.2008
  756MPD2    C511171   4.213   0.855   9.552 -0.3345  0.3387 -0.2938
  756MPD2     H11172   4.044   1.150   9.733 -0.5519  1.6349 -1.7309
  756MPD2    H111173   4.024   0.786   9.498  0.4963 -1.3448  0.8705
  756MPD2    H211174   4.396   0.933   9.605 -0.2941 -1.6088  0.6403
  756MPD2    H311175   4.260   0.765   9.516 -0.6004  0.0171  0.1656
  756MPD2     N11176   3.885   1.013   9.589 -0.2089 -0.7214 -0.1301
  756MPD2    H511177   3.860   1.108   9.614  0.0165 -0.2893 -1.5477
  756MPD2    N111178   4.311   1.142   9.757  0.0238 -0.3629  0.1666
  756MPD2    H711179   4.258   1.216   9.801  1.0100  0.7183 -0.4516
  757MPD2     C11180   3.177   0.385   9.470 -0.6873  0.3169  0.1499
  757MPD2    C111181   3.267   0.416   9.564 -0.1493 -0.6641 -0.1525
  757MPD2    C211182   3.313   0.548   9.566 -0.3511  0.4600  0.6585
  757MPD2    C311183   3.277   0.645   9.474  0.5558 -0.0405  0.1221
  757MPD2    C411184   3.175   0.616   9.382 -0.3351 -0.3980 -0.6355
  757MPD2    C511185   3.132   0.484   9.382  0.4861  0.1982 -0.1429
  757MPD2     H11186   3.396   0.571   9.632  0.8806 -0.9042 -0.4228
  757MPD2    H111187   3.132   0.689   9.314  1.0735 -0.6559 -1.8010
  757MPD2    H211188   3.139   0.284   9.459  0.2387 -0.0583  0.3364
  757MPD2    H311189   3.040   0.466   9.329 -1.0638 -1.0941  2.9852
  757MPD2     N11190   3.348   0.769   9.492 -0.1436  0.4055  0.0829
  757MPD2    H511191   3.407   0.770   9.575 -0.1733 -0.5334  0.1165
  757MPD2    N111192   3.311   0.315   9.656  0.5029  0.0670 -0.6204
  757MPD2    H711193   3.282   0.219   9.639 -0.5971  0.6915 -2.3330
  758MPD2     C11194   4.237   0.584  16.015  0.5924  0.0448 -0.4144
  758MPD2    C111195   4.207   0.513  16.128  0.1931 -0.1244  0.2467
  758MPD2    C211196   4.197   0.585  16.250 -0.4960  0.1890 -0.0352
  758MPD2    C311197   4.200   0.717  16.257  0.2465  0.1639  0.6271
  758MPD2    C411198   4.215   0.784  16.141 -0.0930  0.1381  0.0221
  758MPD2    C511199   4.235   0.721  16.024 -1.3086  0.5015 -0.2699
  758MPD2     H11200   4.185   0.523  16.338 -1.4871  0.9422  0.3653
  758MPD2    H111201   4.191   0.888  16.126 -1.7665  0.2602  3.5314
  758MPD2    H211202   4.244   0.548  15.913 -1.4014  2.0277 -1.2516
  758MPD2    H311203   4.239   0.784  15.936 -0.0973  0.8043  0.0001
  758MPD2     N11204   4.172   0.774  16.382  0.0333  0.1867 -0.6831
  758MPD2    H511205   4.167   0.707  16.458  2.3604 -1.4791 -1.9808
  758MPD2    N111206   4.213   0.370  16.123  0.2745  0.6464 -0.1339
  758MPD2    H711207   4.216   0.320  16.034  0.0998  0.3158  0.0478
  759MPD2     C11208   2.525   4.186  10.984 -0.1613  0.2137  0.5769
  759MPD2    C111209   2.517   4.062  10.923 -0.0744  0.0285 -0.6583
  759MPD2    C211210   2.581   4.028  10.807 -0.3753 -0.6460 -0.3518
  759MPD2    C311211   2.654   4.133  10.742  0.3101  0.0712  0.1767
  759MPD2    C411212   2.662   4.256  10.809 -0.1278  0.6191 -0.0977
  759MPD2    C511213   2.598   4.279  10.926 -0.0592  0.7616 -0.2250
  759MPD2     H11214   2.572   3.933  10.755  2.6058 -0.6222 -0.9335
  759MPD2    H111215   2.721   4.335  10.765 -0.1649  0.0995 -1.0873
  759MPD2    H211216   2.491   4.214  11.083 -1.2983  1.1711 -0.0824
  759MPD2    H311217   2.607   4.378  10.969  0.8829  0.1408  0.9929
  759MPD2     N11218   2.718   4.104  10.619 -0.5608 -0.6160 -0.7926
  759MPD2    H511219   2.706   4.008  10.588  3.9906 -0.7092 -2.1919
  759MPD2    N111220   2.437   3.957  10.985  0.6634  0.4163 -0.0919
  759MPD2    H711221   2.422   3.869  10.939 -2.4847  0.3205  1.0811
  760MPD2     C11222   2.245   1.271  11.809 -0.6967 -0.4338  1.0815
  760MPD2    C111223   2.339   1.304  11.906  0.6204  0.2066 -0.0304
  760MPD2    C211224   2.317   1.262  12.036 -0.0473 -0.0887 -0.2194
  760MPD2    C311225   2.202   1.194  12.065 -0.7587  0.0635 -0.7080
  760MPD2    C411226   2.117   1.152  11.963  0.4336 -0.1397  0.8265
  760MPD2    C511227   2.138   1.195  11.838 -0.5386  0.2486  0.1739
  760MPD2     H11228   2.394   1.284  12.108  0.0516  0.5535 -0.5226
  760MPD2    H111229   2.027   1.095  11.984 -0.2726  0.7723  0.2838
  760MPD2    H211230   2.250   1.313  11.709  0.1289  0.1186  1.3580
  760MPD2    H311231   2.072   1.182  11.754  1.1181  2.8804 -1.5497
  760MPD2     N11232   2.191   1.126  12.187  0.1419  0.3238 -0.2832
  760MPD2    H511233   2.112   1.064  12.177 -0.2469  0.7722  0.0104
  760MPD2    N111234   2.460   1.365  11.882 -0.0201  0.9255 -0.2577
  760MPD2    H711235   2.525   1.386  11.956 -0.2032 -0.5916  0.3377
  761MPD2     C11236   3.675   0.666  11.540  0.1413 -0.7653 -0.5695
  761MPD2    C111237   3.757   0.677  11.435 -0.7193  0.0592  0.4135
  761MPD2    C211238   3.855   0.772  11.434 -0.0201 -0.0819  0.1381
  761MPD2    C311239   3.857   0.868  11.529  0.1777  0.3833  0.1597
  761MPD2    C411240   3.777   0.850  11.644 -0.2981 -0.0057 -0.4606
  761MPD2    C511241   3.679   0.754  11.647 -0.7942 -0.3938  0.6899
  761MPD2     H11242   3.910   0.793  11.343 -0.2176  0.6166  0.1784
  761MPD2    H111243   3.782   0.921  11.725  0.5166 -1.9601  1.2000
  761MPD2    H211244   3.608   0.581  11.546  1.7727 -1.9791  0.5849
  761MPD2    H311245   3.623   0.744  11.739  1.5148  1.2608  2.2808
  761MPD2     N11246   3.938   0.983  11.517 -0.1895  0.3684 -1.3925
  761MPD2    H511247   3.948   1.042  11.599  0.8193 -1.6124 -0.0691
  761MPD2    N111248   3.747   0.587  11.327  0.7698  0.1675  0.0774
  761MPD2    H711249   3.661   0.535  11.314  0.4714  0.5210  0.6148
  762MPD2     C11250   4.428   0.450  11.107 -0.0504  0.4425  0.5478
  762MPD2    C111251   4.354   0.376  11.015 -0.1600 -0.0062  0.2866
  762MPD2    C211252   4.419   0.301  10.921 -0.1046 -0.1474  0.3279
  762MPD2    C311253   4.556   0.288  10.934  0.1956  0.0397 -0.1862
  762MPD2    C411254   4.625   0.353  11.029 -0.3586  0.5112 -0.5120
  762MPD2    C511255   4.564   0.446  11.107 -0.1605  0.1540 -0.0478
  762MPD2     H11256   4.370   0.253  10.837  2.8029  0.5876 -1.7974
  762MPD2    H111257   0.012   0.355  11.025 -0.2705 -2.1932  0.9357
  762MPD2    H211258   4.386   0.531  11.167  1.3979  1.1123  0.6647
  762MPD2    H311259   4.618   0.494  11.188  0.8844  0.0063 -0.6587
  762MPD2     N11260   4.620   0.206  10.839 -0.2633 -0.1553 -0.3458
  762MPD2    H511261   4.568   0.166  10.761 -0.0930 -0.3465 -0.3609
  762MPD2    N111262   4.214   0.389  11.014 -0.5480 -0.1106 -0.4653
  762MPD2    H711263   4.166   0.445  11.083  1.0233 -1.5676  1.8055
  763MPD2     C11264   1.328   0.821  16.496 -0.9024 -0.1287 -0.1322
  763MPD2    C111265   1.192   0.854  16.495 -0.0103  0.2513 -1.2447
  763MPD2    C211266   1.161   0.982  16.531 -0.5193 -0.1198 -0.2268
  763MPD2    C311267   1.269   1.064  16.569  0.1791  0.5062  0.6312
  763MPD2    C411268   1.402   1.029  16.556 -0.2592 -0.4515 -0.2543
  763MPD2    C511269   1.432   0.901  16.523 -0.6359 -0.5512 -0.1102
  763MPD2     H11270   1.060   1.023  16.525  0.7478  2.9947 -0.2914
  763MPD2    H111271   1.480   1.096  16.590  0.0996 -1.4702  0.9213
  763MPD2    H211272   1.365   0.725  16.460 -0.2392  0.7290 -1.7178
  763MPD2    H311273   1.531   0.867  16.494 -0.1060  0.4184  0.5426
  763MPD2     N11274   1.252   1.196  16.595 -0.0979 -0.2212 -0.2336
  763MPD2    H511275   1.332   1.259  16.597 -1.1061  1.0431  0.7731
  763MPD2    N111276   1.081   0.769  16.457 -0.0337 -0.0352  0.3238
  763MPD2    H711277   0.990   0.811  16.468 -0.7495 -1.0340 -1.7282
  764MPD2     C11278   4.084   2.772  17.513 -0.6299 -0.0298  0.2555
  764MPD2    C111279   4.046   2.641  17.493 -0.3380 -0.4593  0.5461
  764MPD2    C211280   4.118   2.548  17.572 -0.4970  0.2312  0.7584
  764MPD2    C311281   4.213   2.581  17.666 -0.3233  0.3555  0.0792
  764MPD2    C411282   4.239   2.712  17.684  0.4616  0.5290 -0.3874
  764MPD2    C511283   4.173   2.802  17.610 -0.3502 -0.2363 -0.4166
  764MPD2     H11284   4.086   2.445  17.566 -0.8718  0.2986  1.6205
  764MPD2    H111285   4.308   2.747   0.070  0.7023  0.6453 -0.6597
  764MPD2    H211286   4.031   2.856  17.470  0.0954  0.5170  0.4404
  764MPD2    H311287   4.184   2.905  17.642  1.2965  0.1232 -2.1313
  764MPD2     N11288   4.271   2.474   0.048 -0.2145  0.1845 -0.4633
  764MPD2    H511289   4.258   2.380   0.014  2.0586 -0.4676  0.4560
  764MPD2    N111290   3.942   2.605  17.400  0.0617  0.2026  0.3736
  764MPD2    H711291   3.937   2.506  17.378 -0.2652  0.2558  0.2119
  765MPD2     C11292   3.287   0.042  16.021  0.0760 -0.4904 -0.2465
  765MPD2    C111293   3.358   0.160  16.013 -0.1181 -0.2321  0.0404
  765MPD2    C211294   3.499   0.158  16.033  0.1669  0.5792 -0.1555
  765MPD2    C311295   3.560   0.032  16.053 -0.1091 -0.3871 -0.3666
  765MPD2    C411296   3.483   4.639  16.064  0.6909 -0.7744 -0.1565
  765MPD2    C511297   3.344   4.646  16.052  0.1794  0.2316  0.4613
  765MPD2     H11298   3.558   0.249  16.031 -1.8161  1.8633  0.0751
  765MPD2    H111299   3.528   4.542  16.081 -0.0742 -1.1059 -0.0210
  765MPD2    H211300   3.179   0.044  16.011  0.1107 -1.2110 -0.6975
  765MPD2    H311301   3.287   4.554  16.045  2.7284 -1.3347  0.3086
  765MPD2     N11302   3.699   0.043  16.073  0.6278 -0.5833  0.2128
  765MPD2    H511303   3.742   0.135  16.081  1.4400 -0.8676 -0.9345
  765MPD2    N111304   3.283   0.280  16.010  0.0043  0.3613  0.3024
  765MPD2    H711305   3.183   0.264  16.019  0.2252 -1.4333 -0.5417
  766MPD2     C11306   2.753   0.398  15.628  0.0146 -0.9438 -0.2714
  766MPD2    C111307   2.883   0.359  15.649  0.4100  0.5377  0.2023
  766MPD2    C211308   2.933   0.263  15.573 -0.2312 -0.2290 -0.6759
  766MPD2    C311309   2.860   0.215  15.466 -0.0476 -0.3539  0.2145
  766MPD2    C411310   2.723   0.235  15.463 -0.7878 -0.4872  0.2223
  766MPD2    C511311   2.672   0.331  15.539 -0.0719 -0.1865  0.1852
  766MPD2     H11312   3.041   0.254  15.577 -0.1448  0.4644 -1.3613
  766MPD2    H111313   2.656   0.196  15.388  0.5173  0.5443 -1.4690
  766MPD2    H211314   2.705   0.468  15.695  1.2508 -0.4657  0.1024
  766MPD2    H311315   2.568   0.357  15.528 -0.3506 -0.2750  2.4622
  766MPD2     N11316   2.921   0.155  15.354  0.2087  0.3482 -0.1302
  766MPD2    H511317   2.867   0.139  15.270 -0.9083 -0.3841  0.7324
  766MPD2    N111318   2.968   0.417  15.746 -0.1014  0.1744  0.9170
  766MPD2    H711319   3.043   0.361  15.786 -0.3128  0.3078  1.4978
  767MPD2     C11320   2.617   0.500  15.280  0.3084  0.0122  0.0862
  767MPD2    C111321   2.739   0.495  15.221  0.1289  0.1646  0.1219
  767MPD2    C211322   2.745   0.460  15.090 -0.4285 -0.5961  0.3089
  767MPD2    C311323   2.635   0.417  15.020  0.5143 -0.3727  0.3183
  767MPD2    C411324   2.516   0.413  15.084  0.0031  0.0153  0.8427
  767MPD2    C511325   2.498   0.462  15.216 -0.4954  0.2466 -1.3603
  767MPD2     H11326   2.839   0.457  15.036 -0.1602 -0.9060  0.8012
  767MPD2    H111327   2.431   0.363  15.040  0.5373  0.3224 -0.5418
  767MPD2    H211328   2.609   0.522  15.386 -4.4570  1.4657 -0.5746
  767MPD2    H311329   2.401   0.456  15.265 -0.4721  1.7164 -1.1071
  767MPD2     N11330   2.648   0.370  14.890 -0.6655  0.0975 -0.3803
  767MPD2    H511331   2.739   0.354  14.850 -1.5459 -1.6114 -1.7102
  767MPD2    N111332   2.846   0.546  15.295  0.4348  0.0382 -0.5843
  767MPD2    H711333   2.838   0.540  15.396 -0.4243  1.5343 -0.5701
  768MPD2     C11334   3.844   3.570  10.937  0.2166  0.3733  0.9178
  768MPD2    C111335   3.797   3.516  11.052  0.3355 -0.0020 -0.3727
  768MPD2    C211336   3.863   3.536  11.167  0.0903  0.0236 -0.1332
  768MPD2    C311337   3.979   3.611  11.174  0.0674 -0.0026  0.9560
  768MPD2    C411338   4.027   3.671  11.058 -0.2285  0.4283 -0.1065
  768MPD2    C511339   3.957   3.649  10.938  0.0662  0.3357 -0.0204
  768MPD2     H11340   3.824   3.505  11.264 -0.0838 -1.7316 -0.7632
  768MPD2    H111341   4.120   3.726  11.045 -0.1206  0.5023  1.0138
  768MPD2    H211342   3.806   3.550  10.838  0.3894  1.6045  0.6057
  768MPD2    H311343   3.998   3.686  10.845 -0.6422 -0.3713 -0.6170
  768MPD2     N11344   4.047   3.637  11.297 -0.8591 -0.3331 -0.2365
  768MPD2    H511345   4.118   3.710  11.294 -1.6787  0.4756  0.1366
  768MPD2    N111346   3.667   3.454  11.056  0.2254  0.5254 -0.2953
  768MPD2    H711347   3.631   3.423  11.146 -2.4069  0.4351 -1.3731
  769MPD2     C11348   4.557   2.049  15.359  0.1681 -0.0204 -0.5815
  769MPD2    C111349   4.522   1.928  15.415  0.5266  0.1753 -0.4693
  769MPD2    C211350   4.593   1.867  15.517  0.4466 -0.8505 -0.0935
  769MPD2    C311351   4.709   1.931  15.564  0.2833 -0.5221 -0.1077
  769MPD2    C411352   0.029   2.049  15.510  0.6244  0.0270 -0.0871
  769MPD2    C511353   4.680   2.103  15.404  0.5412 -1.0035 -0.1806
  769MPD2     H11354   4.570   1.770  15.558  2.7756 -1.0999  0.5989
  769MPD2    H111355   0.130   2.084  15.530  0.3819  1.7230 -1.8608
  769MPD2    H211356   4.503   2.094  15.277 -0.5885  0.3171  0.0989
  769MPD2    H311357   4.721   2.193  15.360  1.5868 -1.0863  0.6433
  769MPD2     N11358   0.059   1.882  15.680 -0.2548 -0.3564 -0.1050
  769MPD2    H511359   0.132   1.946  15.711 -1.2893  0.0333  1.5441
  769MPD2    N111360   4.399   1.873  15.362  0.5627 -0.7771 -0.3294
  769MPD2    H711361   4.357   1.925  15.286  2.8715 -0.2208 -1.2207
  770MPD2     C11362   4.010   1.021  15.665  0.0574  0.4114  0.1588
  770MPD2    C111363   4.082   1.027  15.547  0.8030 -0.3250  0.5166
  770MPD2    C211364   4.074   1.140  15.473 -0.5834 -0.0415 -0.0889
  770MPD2    C311365   4.013   1.253  15.522 -0.1779 -0.4303 -0.7822
  770MPD2    C411366   3.951   1.256  15.646 -0.6778 -0.2663 -0.6578
  770MPD2    C511367   3.948   1.133  15.713  0.4259 -0.3706  0.2329
  770MPD2     H11368   4.108   1.138  15.370 -1.0584 -1.1008 -0.2258
  770MPD2    H111369   3.900   1.344  15.685 -0.9145  0.2144 -2.0728
  770MPD2    H211370   4.000   0.926  15.714 -2.7332  0.0931 -1.0418
  770MPD2    H311371   3.898   1.123  15.809 -0.5961 -0.2664 -0.2972
  770MPD2     N11372   4.024   1.368  15.437 -0.3027 -0.1171  0.0786
  770MPD2    H511373   4.072   1.356  15.348  2.5092  1.0491  1.4704
  770MPD2    N111374   4.116   0.902  15.494 -0.1279 -0.8079  0.2972
  770MPD2    H711375   4.113   0.828  15.564 -0.5861 -1.8518 -0.8310
  771MPD2     C11376   0.840   0.094  14.372  0.0305 -0.0797 -0.7043
  771MPD2    C111377   0.806   0.131  14.246 -0.7997  0.6906  0.4278
  771MPD2    C211378   0.792   0.037  14.146 -0.2103  0.4953 -0.4265
  771MPD2    C311379   0.811   4.623  14.175 -0.0565 -0.3994 -0.1712
  771MPD2    C411380   0.845   4.590  14.305 -0.9307 -0.0790 -0.0582
  771MPD2    C511381   0.859   4.687  14.402  0.1460  0.6811  0.9090
  771MPD2     H11382   0.757   0.066  14.047  1.1012  1.7399 -0.5085
  771MPD2    H111383   0.865   4.493  14.349  2.1868 -0.6979 -2.7981
  771MPD2    H211384   0.862   0.162  14.453 -0.6988 -0.7970  0.0990
  771MPD2    H311385   0.881   4.664  14.505  1.6832 -3.3004 -0.3081
  771MPD2     N11386   0.792   4.524  14.073  0.1801 -0.3043 -0.0084
  771MPD2    H511387   0.761   4.559  13.982 -1.2386 -0.4156  0.4290
  771MPD2    N111388   0.774   0.264  14.215 -0.1897  0.0102  0.2290
  771MPD2    H711389   0.749   0.279  14.118 -0.8344 -4.8644 -0.3806
  772MPD2     C11390   0.307   0.514  13.790 -0.6304  0.0278  0.4606
  772MPD2    C111391   0.321   0.487  13.922  0.0226 -0.4235 -0.1934
  772MPD2    C211392   0.222   0.407  13.977  0.3779  0.5257 -0.1951
  772MPD2    C311393   0.102   0.376  13.908 -0.1845  0.6945  0.1171
  772MPD2    C411394   0.097   0.407  13.773  0.0738  0.3319  0.3845
  772MPD2    C511395   0.201   0.479  13.715  0.1655 -0.1665  0.2741
  772MPD2     H11396   0.230   0.385  14.083 -1.6076  0.6491 -0.0207
  772MPD2    H111397   0.011   0.392  13.708  0.0316  0.4838  0.4059
  772MPD2    H211398   0.375   0.577  13.734  0.0360 -0.5159  0.6526
  772MPD2    H311399   0.202   0.498  13.609  1.7224  0.5327  0.4239
  772MPD2     N11400   4.715   0.314  13.972 -0.4868 -0.2176 -0.0917
  772MPD2    H511401   0.005   0.294  14.070 -0.5940 -0.1434 -0.0632
  772MPD2    N111402   0.439   0.529  13.999  0.1632 -0.2744 -0.1199
  772MPD2    H711403   0.431   0.514  14.099  0.6334 -0.4125 -0.1062
  773MPD2     C11404   4.624   1.185   0.868 -0.0190  0.9216  0.4218
  773MPD2    C111405   4.560   1.091   0.786  0.7179 -0.1975 -0.4546
  773MPD2    C211406   4.599   0.958   0.798 -0.7327  0.1731 -0.0650
  773MPD2    C311407   4.684   0.910   0.891  0.0302 -0.5659 -0.3088
  773MPD2    C411408   0.025   1.004   0.970  0.1264 -0.0180  0.3633
  773MPD2    C511409   4.715   1.137   0.958  0.3219 -0.8941  0.0481
  773MPD2     H11410   4.553   0.887   0.731  1.8463 -0.1197 -1.5297
  773MPD2    H111411   0.108   0.975   1.033  0.1165  1.0833  0.8993
  773MPD2    H211412   4.610   1.293   0.861  0.0214  1.0520  2.2746
  773MPD2    H311413   0.042   1.204   1.028 -0.7117 -0.8009  0.6783
  773MPD2     N11414   4.720   0.772   0.884  0.1708  0.3736  0.2511
  773MPD2    H511415   4.671   0.722   0.812 -0.1963 -0.7612  1.2844
  773MPD2    N111416   4.483   1.126   0.676  0.5460 -0.8194 -0.3245
  773MPD2    H711417   4.448   1.044   0.628  3.3508 -2.3835  0.3236
  774MPD2     C11418   3.067   0.391  14.058 -0.4191 -1.2794  0.3685
  774MPD2    C111419   3.203   0.372  14.066  0.6541  0.2982 -1.0285
  774MPD2    C211420   3.284   0.469  14.013  0.0124 -0.5021 -0.5187
  774MPD2    C311421   3.238   0.595  13.972 -0.4956  0.2743  0.4037
  774MPD2    C411422   3.102   0.617  13.984 -0.2115  0.2066  0.3995
  774MPD2    C511423   3.015   0.513  14.017 -0.0101 -0.6573 -0.8770
  774MPD2     H11424   3.391   0.456  14.020  0.0062  0.9347  2.0820
  774MPD2    H111425   3.056   0.713  13.965 -0.0554 -0.0990 -1.4931
  774MPD2    H211426   2.993   0.316  14.085 -1.2588 -0.9195 -0.9468
  774MPD2    H311427   2.908   0.527  14.006  0.0369  0.6995  0.4303
  774MPD2     N11428   3.330   0.698  13.929 -0.0285 -0.1966  0.0065
  774MPD2    H511429   3.428   0.675  13.931  0.0117  0.1210  1.2719
  774MPD2    N111430   3.248   0.247  14.116 -0.2298  0.0563  0.4041
  774MPD2    H711431   3.185   0.186  14.167  0.7725 -0.6598  0.7972
  775MPD2     C11432   0.578   1.559  16.259 -0.3276  0.5632  0.0701
  775MPD2    C111433   0.541   1.683  16.310  0.1623  0.4564 -0.3329
  775MPD2    C211434   0.576   1.801  16.243  0.4437 -0.0117  0.4601
  775MPD2    C311435   0.656   1.786  16.131  0.7719 -0.6098  0.3551
  775MPD2    C411436   0.687   1.663  16.079 -0.1652 -0.2945 -0.8910
  775MPD2    C511437   0.640   1.547  16.138  0.3551  0.1789 -0.0386
  775MPD2     H11438   0.546   1.900  16.276  1.1416  0.5046 -0.4516
  775MPD2    H111439   0.744   1.646  15.989 -0.3320 -0.0513 -1.0412
  775MPD2    H211440   0.540   1.462  16.289  0.4848  0.7027  1.5033
  775MPD2    H311441   0.669   1.453  16.091 -0.2714 -0.1319  0.1915
  775MPD2     N11442   0.709   1.895  16.060  0.0125  0.3595  0.4575
  775MPD2    H511443   0.767   1.874  15.980 -2.1757  0.1308 -1.0447
  775MPD2    N111444   0.463   1.689  16.424 -0.0271 -0.4156 -0.0170
  775MPD2    H711445   0.450   1.600  16.471 -0.4745 -0.3156  0.0522
  776MPD2     C11446   4.192   2.572  11.987 -0.4554 -0.1151 -0.0365
  776MPD2    C111447   4.202   2.536  11.856  0.3823  0.1124 -0.6717
  776MPD2    C211448   4.274   2.620  11.779 -0.1635 -0.8065  0.1690
  776MPD2    C311449   4.350   2.722  11.829 -0.1790  0.1842  0.3074
  776MPD2    C411450   4.352   2.750  11.957 -0.2305 -0.5066  0.3657
  776MPD2    C511451   4.272   2.674  12.036 -0.8639 -0.7261 -0.3707
  776MPD2     H11452   4.263   2.617  11.672  0.3522 -0.8542  0.1168
  776MPD2    H111453   4.393   2.842  11.997 -0.6231  0.5570 -1.6896
  776MPD2    H211454   4.132   2.509  12.052  0.8060 -1.7642 -0.4738
  776MPD2    H311455   4.276   2.706  12.140 -0.8307  0.1904 -0.6462
  776MPD2     N11456   4.437   2.797  11.748 -0.6720  0.1198  0.2737
  776MPD2    H511457   4.486   2.866  11.803 -0.5643 -0.6245  1.1173
  776MPD2    N111458   4.133   2.423  11.805  0.4411  0.5214 -0.0803
  776MPD2    H711459   4.068   2.374  11.866  1.1381 -1.6547 -1.1108
  777MPD2     C11460   3.752   4.464   0.887 -0.5240  1.1664  0.1024
  777MPD2    C111461   3.861   4.442   0.967 -0.6799  0.5504  0.6083
  777MPD2    C211462   3.953   4.340   0.934 -0.1449  0.3596  0.2518
  777MPD2    C311463   3.937   4.274   0.819  0.7496  0.1205 -0.3654
  777MPD2    C411464   3.831   4.297   0.737 -0.1751  0.1810  0.0817
  777MPD2    C511465   3.732   4.394   0.768 -1.2159  0.1902 -0.3553
  777MPD2     H11466   4.043   4.322   0.991  1.4925 -1.3909 -2.9179
  777MPD2    H111467   3.816   4.247   0.642  2.0181 -0.3152 -0.0144
  777MPD2    H211468   3.678   4.542   0.907 -1.6188 -0.1299  1.1157
  777MPD2    H311469   3.652   4.416   0.698 -1.9089 -1.4815 -0.0851
  777MPD2     N11470   4.038   4.171   0.800  0.2493  0.0202 -0.6045
  777MPD2    H511471   4.102   4.158   0.878 -0.5343 -0.0949  0.0274
  777MPD2    N111472   3.883   4.520   1.079 -0.1460 -0.0642  0.6487
  777MPD2    H711473   3.808   4.588   1.089 -1.3534 -0.8565 -2.8615
  778MPD2     C11474   0.641   3.940  15.847 -0.4625  0.2889  0.6521
  778MPD2    C111475   0.621   3.960  15.712 -0.4103 -0.5044 -0.2521
  778MPD2    C211476   0.691   4.058  15.640  0.9612  0.1238  0.0365
  778MPD2    C311477   0.779   4.137  15.711  0.7721 -0.6974  0.5354
  778MPD2    C411478   0.812   4.103  15.839  0.2045 -0.0303  0.4436
  778MPD2    C511479   0.745   3.999  15.908 -0.4501 -0.6582  0.0482
  778MPD2     H11480   0.672   4.085  15.537 -0.4754  1.9939  0.7998
  778MPD2    H111481   0.896   4.146  15.892  0.9891 -0.4110 -0.4953
  778MPD2    H211482   0.600   3.856  15.903 -0.4938 -0.6514 -0.7751
  778MPD2    H311483   0.769   3.971  16.010 -0.5536 -1.3739 -0.1280
  778MPD2     N11484   0.837   4.243  15.642  0.2733 -0.2807 -0.4478
  778MPD2    H511485   0.800   4.254  15.548  0.8453 -1.3537 -0.8046
  778MPD2    N111486   0.511   3.901  15.646 -0.4436  0.0339 -0.2754
  778MPD2    H711487   0.495   3.920  15.548  1.2511  1.4992 -0.2713
  779MPD2     C11488   0.313   3.462  14.260  0.0420  0.0513 -0.2891
  779MPD2    C111489   0.386   3.484  14.374  0.0792 -0.5872  0.2837
  779MPD2    C211490   0.427   3.614  14.407 -0.5395 -0.1202 -0.0935
  779MPD2    C311491   0.420   3.718  14.315 -0.2609  0.0530 -0.7458
  779MPD2    C411492   0.353   3.693  14.196  0.2959  0.2270 -0.4991
  779MPD2    C511493   0.299   3.568  14.174 -0.1687  0.0114 -0.2137
  779MPD2     H11494   0.466   3.632  14.507 -1.1072  0.8664 -0.0510
  779MPD2    H111495   0.331   3.760  14.114 -0.7020 -1.2081 -1.4162
  779MPD2    H211496   0.263   3.367  14.242 -0.3120  0.7072 -2.6691
  779MPD2    H311497   0.233   3.549  14.090 -1.2498  2.8186 -0.0028
  779MPD2     N11498   0.474   3.845  14.347 -0.5979  0.5396 -0.2146
  779MPD2    H511499   0.511   3.850  14.441  0.4126 -2.5942 -0.4283
  779MPD2    N111500   0.423   3.387  14.475  0.1346 -0.0848 -0.5758
  779MPD2    H711501   0.481   3.427  14.548  1.3297 -0.7749 -1.1443
  780MPD2     C11502   0.835   3.351   0.811  0.5950  0.4219  0.3598
  780MPD2    C111503   0.724   3.420   0.832  0.4371 -0.7768  0.0681
  780MPD2    C211504   0.632   3.442   0.727 -0.2797  0.3058  0.1715
  780MPD2    C311505   0.646   3.377   0.610 -0.4678  0.1666 -0.5081
  780MPD2    C411506   0.754   3.289   0.597  0.5694  0.2889  0.0247
  780MPD2    C511507   0.851   3.295   0.689  0.3833 -0.3419  0.1766
  780MPD2     H11508   0.548   3.509   0.742 -1.5862 -1.1247 -0.7619
  780MPD2    H111509   0.781   3.234   0.508 -3.0347 -0.1710 -0.7392
  780MPD2    H211510   0.907   3.343   0.892  3.2311  2.5129 -1.7510
  780MPD2    H311511   0.938   3.233   0.672 -0.9146 -1.1923 -3.2389
  780MPD2     N11512   0.546   3.380   0.508  0.3934 -0.1670  0.9512
  780MPD2    H511513   0.541   3.303   0.442 -0.6635 -0.3193  1.2006
  780MPD2    N111514   0.690   3.460   0.961  0.5036 -0.2622 -0.0536
  780MPD2    H711515   0.752   3.424   1.032 -0.8461  2.1282  2.3359
  781MPD2     C11516   1.687   0.671  12.240  0.3783 -0.1316  0.2719
  781MPD2    C111517   1.703   0.535  12.276 -0.1132  0.2745  0.1373
  781MPD2    C211518   1.757   0.448  12.185 -0.4488 -0.5948  0.6447
  781MPD2    C311519   1.810   0.501  12.067  0.3001 -0.8496  0.0746
  781MPD2    C411520   1.802   0.632  12.033 -0.2417  0.1148  0.2484
  781MPD2    C511521   1.733   0.713  12.123 -0.2358  0.3222 -0.4275
  781MPD2     H11522   1.764   0.343  12.209  0.3962 -1.2484 -2.4539
  781MPD2    H111523   1.851   0.668  11.944  0.1008  1.0398  0.8090
  781MPD2    H211524   1.646   0.744  12.308  1.6479  0.7635  0.0643
  781MPD2    H311525   1.733   0.820  12.105  2.4087  0.0175 -2.1389
  781MPD2     N11526   1.867   0.415  11.967 -0.0499  0.1085 -0.0688
  781MPD2    H511527   1.925   0.459  11.897 -0.6179  2.2026  0.7748
  781MPD2    N111528   1.681   0.479  12.410  0.3291 -0.2558  0.4414
  781MPD2    H711529   1.692   0.379  12.425 -1.8396 -0.5253  0.3344
  782MPD2     C11530   0.198   0.543  10.356 -0.0791  1.0474  0.4283
  782MPD2    C111531   0.252   0.573  10.476  0.7167 -0.1465  0.5519
  782MPD2    C211532   0.257   0.706  10.509  0.8073 -0.2026  0.1530
  782MPD2    C311533   0.232   0.798  10.414  0.1009  0.6538 -0.7638
  782MPD2    C411534   0.163   0.765  10.304  0.2564  0.5252 -0.2588
  782MPD2    C511535   0.153   0.637  10.269 -0.7249 -0.7207 -0.0858
  782MPD2     H11536   0.310   0.740  10.597  0.9170  1.6251 -0.6351
  782MPD2    H111537   0.128   0.839  10.232 -1.6007  2.3711  2.5390
  782MPD2    H211538   0.193   0.440  10.321 -0.1870  1.5199 -0.9407
  782MPD2    H311539   0.122   0.616  10.168 -0.1537  1.4957 -0.7281
  782MPD2     N11540   0.263   0.932  10.455  0.3881  0.8071  0.1725
  782MPD2    H511541   0.298   0.952  10.548 -0.1200  2.4101  0.0168
  782MPD2    N111542   0.309   0.469  10.554  0.2932 -0.4465  0.1330
  782MPD2    H711543   0.322   0.376  10.514 -1.5080 -0.4999 -0.3081
  783MPD2     C11544   4.219   0.837  11.016 -0.4828  0.2016 -0.5247
  783MPD2    C111545   4.321   0.898  11.080  0.3583 -0.4195 -0.7944
  783MPD2    C211546   4.451   0.868  11.041  0.8819 -0.1043  0.4079
  783MPD2    C311547   4.468   0.767  10.954 -0.8160 -0.0917  0.2960
  783MPD2    C411548   4.361   0.701  10.887 -0.1440  0.1302  0.1280
  783MPD2    C511549   4.237   0.737  10.923  0.5670 -0.6371 -0.3741
  783MPD2     H11550   4.539   0.910  11.090  0.1017 -0.6785  2.3003
  783MPD2    H111551   4.374   0.617  10.820 -0.5250  0.2667 -0.1182
  783MPD2    H211552   4.116   0.859  11.042 -1.3640 -1.6540 -2.4232
  783MPD2    H311553   4.156   0.679  10.881 -1.0889  0.3087  1.4757
  783MPD2     N11554   4.605   0.726  10.934 -0.1060 -0.1341 -0.6197
  783MPD2    H511555   4.673   0.774  10.992 -0.1924 -1.9218  0.9504
  783MPD2    N111556   4.299   0.996  11.176 -0.3306  0.0918 -0.2240
  783MPD2    H711557   4.208   0.997  11.221  0.5966  0.6204  1.6161
  784MPD2     C11558   2.149   1.621   0.686 -0.2257 -0.0646 -0.2072
  784MPD2    C111559   2.120   1.738   0.757  0.0860  0.3639  0.6610
  784MPD2    C211560   2.021   1.822   0.702 -0.4023 -0.3587 -0.2108
  784MPD2    C311561   1.949   1.787   0.589  1.1147 -0.5531 -0.2144
  784MPD2    C411562   1.996   1.681   0.512  0.3092  0.3954  0.1636
  784MPD2    C511563   2.098   1.601   0.555 -0.0272  0.0888  0.4840
  784MPD2     H11564   1.978   1.905   0.756  1.3518  0.2325  0.2784
  784MPD2    H111565   1.955   1.655   0.415 -2.5803  3.9931  0.4351
  784MPD2    H211566   2.223   1.546   0.714 -0.5545  0.1120  1.1626
  784MPD2    H311567   2.121   1.512   0.497 -0.4546  0.9953 -1.0655
  784MPD2     N11568   1.839   1.871   0.551 -0.9122 -0.1836  0.3666
  784MPD2    H511569   1.825   1.946   0.617 -1.3026 -0.2931  0.4031
  784MPD2    N111570   2.172   1.761   0.895  1.2442 -0.9329 -0.1920
  784MPD2    H711571   2.141   1.842   0.946 -0.2477 -0.1425 -2.3247
  785MPD2     C11572   2.569   4.520  11.635 -0.3044  0.0489  0.0982
  785MPD2    C111573   2.476   4.593  11.571 -0.0552 -0.5145 -0.2094
  785MPD2    C211574   2.356   4.529  11.554  0.6312 -0.1888  0.8338
  785MPD2    C311575   2.340   4.397  11.584 -0.1050  1.1979  0.6055
  785MPD2    C411576   2.435   4.326  11.649 -0.4427  0.3822  0.0212
  785MPD2    C511577   2.551   4.388  11.675 -0.0203 -0.2345 -0.2731
  785MPD2     H11578   2.271   4.580  11.510  0.4691 -0.1199  1.2318
  785MPD2    H111579   2.417   4.224  11.680  0.7708  0.9098  2.4213
  785MPD2    H211580   2.669   4.557  11.658 -0.7854  1.5897 -0.2676
  785MPD2    H311581   2.633   4.336  11.722  1.1276  1.4676 -0.4039
  785MPD2     N11582   2.215   4.346  11.540 -0.2581 -0.4221 -0.1834
  785MPD2    H511583   2.150   4.413  11.501  0.1950 -0.2906 -0.7116
  785MPD2    N111584   2.504   0.002  11.523 -0.4986 -0.3647 -0.2738
  785MPD2    H711585   2.598   0.038  11.516 -0.0178 -1.9787 -2.1328
  786MPD2     C11586   1.548   3.248  14.950  0.5842  0.1918 -0.4579
  786MPD2    C111587   1.496   3.122  14.968  0.0728 -0.5459  0.2205
  786MPD2    C211588   1.546   3.051  15.077  0.0107 -0.1706 -0.5188
  786MPD2    C311589   1.643   3.106  15.161 -0.1773 -0.3001 -0.4652
  786MPD2    C411590   1.692   3.235  15.139  0.5108  0.1905 -0.5542
  786MPD2    C511591   1.641   3.303  15.029  0.4263  0.8217 -0.6152
  786MPD2     H11592   1.508   2.954  15.105  0.3437 -0.2055 -0.1878
  786MPD2    H111593   1.761   3.274  15.212 -0.3035  0.5886  0.0044
  786MPD2    H211594   1.518   3.316  14.871 -1.4931 -0.5301 -0.2935
  786MPD2    H311595   1.677   3.404  15.009 -0.0347  1.2769  0.9016
  786MPD2     N11596   1.704   3.031  15.261  0.8708  0.3921  0.0183
  786MPD2    H511597   1.793   3.059  15.301  0.2081  0.3352  1.5282
  786MPD2    N111598   1.414   3.053  14.871 -0.0798  0.3063 -0.3719
  786MPD2    H711599   1.387   2.957  14.890 -0.9934  0.5578 -0.4331
  787MPD2     C11600   0.933   2.582  14.949  0.0420 -0.7495 -0.5322
  787MPD2    C111601   1.066   2.626  14.949  0.3829 -0.1160 -0.1467
  787MPD2    C211602   1.150   2.594  15.059  0.2492  0.2532 -0.0830
  787MPD2    C311603   1.103   2.509  15.159 -0.5316 -0.0505  0.0684
  787MPD2    C411604   0.970   2.463  15.159  0.3021  0.2370 -0.4262
  787MPD2    C511605   0.887   2.503  15.056  0.5579 -0.4602 -0.4378
  787MPD2     H11606   1.254   2.623  15.058  0.0099  1.1210  0.3590
  787MPD2    H111607   0.936   2.403  15.242 -0.3029  2.3615  0.8550
  787MPD2    H211608   0.867   2.621  14.872  1.9862  1.5273 -1.0285
  787MPD2    H311609   0.783   2.474  15.066  0.3203  0.5464 -0.0353
  787MPD2     N11610   1.195   2.465  15.258 -0.2586 -0.4091  0.3554
  787MPD2    H511611   1.284   2.515  15.255 -1.7210  2.0867 -1.4270
  787MPD2    N111612   1.117   2.714  14.847 -0.9336  0.8839  0.2671
  787MPD2    H711613   1.215   2.736  14.862 -0.0037 -1.5519 -2.1421
  788MPD2     C11614   3.118   0.976   0.723  0.1493 -0.2559 -0.1087
  788MPD2    C111615   3.183   0.863   0.686  0.6650  0.1221  0.3053
  788MPD2    C211616   3.213   0.838   0.553 -0.6418  0.2787 -0.1129
  788MPD2    C311617   3.171   0.921   0.452 -0.2586  0.5218 -0.3440
  788MPD2    C411618   3.107   1.042   0.494  0.4676  0.1017  0.0652
  788MPD2    C511619   3.085   1.064   0.632  0.2151 -0.2206 -1.2203
  788MPD2     H11620   3.262   0.748   0.518  2.1286  1.6438  0.2867
  788MPD2    H111621   3.089   1.118   0.419 -1.7790 -0.9693 -0.4749
  788MPD2    H211622   3.091   0.999   0.825 -1.8050  0.8911 -0.8908
  788MPD2    H311623   3.035   1.159   0.652 -1.9831 -1.3077 -1.5230
  788MPD2     N11624   3.164   0.863   0.320  0.0492 -0.3429  0.0752
  788MPD2    H511625   3.189   0.765   0.307 -0.1954 -0.6399  1.7832
  788MPD2    N111626   3.211   0.756   0.777  0.0551 -0.2656 -0.0709
  788MPD2    H711627   3.274   0.684   0.744 -1.6540 -1.4801 -0.6547
  789MPD2     C11628   3.794   0.869  16.477 -0.2607  0.1987  0.5056
  789MPD2    C111629   3.751   0.837  16.606 -0.1638 -0.1899 -0.1043
  789MPD2    C211630   3.645   0.906  16.668  0.0014 -0.1222  0.0688
  789MPD2    C311631   3.576   1.008  16.607  0.2607  0.0937  0.3085
  789MPD2    C411632   3.615   1.031  16.476 -0.1719  0.4345 -0.2145
  789MPD2    C511633   3.720   0.965  16.414  0.2875  0.3508 -0.1847
  789MPD2     H11634   3.616   0.867  16.764 -1.2359  1.0149  0.1495
  789MPD2    H111635   3.559   1.104  16.418 -2.3133  0.6223  2.0831
  789MPD2    H211636   3.887   0.827  16.439  1.0051  2.6064  0.9126
  789MPD2    H311637   3.731   0.992  16.309  0.1032 -2.3070 -0.8922
  789MPD2     N11638   3.476   1.076  16.674  0.7296 -0.1302  0.1524
  789MPD2    H511639   3.443   1.159  16.626 -1.9206 -0.0169  2.1585
  789MPD2    N111640   3.795   0.720  16.685  0.0880  0.6050  0.0539
  789MPD2    H711641   3.746   0.706  16.773  1.6248 -1.0368  0.6510
  790MPD2     C11642   4.419   1.664  13.729  0.3829 -0.5708 -0.2276
  790MPD2    C111643   4.409   1.801  13.734  0.1261  0.1117  0.0468
  790MPD2    C211644   4.326   1.863  13.642 -0.2667  0.4222  0.2163
  790MPD2    C311645   4.245   1.800  13.555 -0.1763 -0.2180 -0.9982
  790MPD2    C411646   4.254   1.661  13.558 -0.0750 -0.1237 -0.8381
  790MPD2    C511647   4.331   1.595  13.645 -0.4567 -1.0460 -0.1333
  790MPD2     H11648   4.327   1.971  13.650  1.4286  0.4558 -0.4164
  790MPD2    H111649   4.204   1.600  13.484  0.7571  1.8237 -2.9989
  790MPD2    H211650   4.486   1.604  13.789 -0.2242 -1.9538 -0.9360
  790MPD2    H311651   4.336   1.487  13.652 -0.8023 -1.1058 -0.8151
  790MPD2     N11652   4.167   1.874  13.459  0.1042  0.8125  0.5306
  790MPD2    H511653   4.199   1.968  13.437 -3.5198  1.1989 -3.1298
  790MPD2    N111654   4.470   1.861  13.841  0.4692  0.3640 -0.6482
  790MPD2    H711655   4.514   1.793  13.902 -0.5851 -0.0543 -0.3557
  791MPD2     C11656   3.580   2.038  12.779  0.3306  0.1822 -0.1717
  791MPD2    C111657   3.583   1.956  12.889  0.2647 -0.7058 -0.8205
  791MPD2    C211658   3.468   1.893  12.931  0.3167 -0.1427 -0.3107
  791MPD2    C311659   3.354   1.917  12.862 -0.6118 -0.2344 -0.4498
  791MPD2    C411660   3.359   1.981  12.739 -0.0380 -1.2338 -0.1260
  791MPD2    C511661   3.472   2.040  12.700 -0.3056  0.2483 -0.1525
  791MPD2     H11662   3.456   1.823  13.013  1.3942  0.3050  0.2310
  791MPD2    H111663   3.274   1.986  12.672 -0.2168  0.6949  0.2613
  791MPD2    H211664   3.668   2.087  12.740  0.5282  0.0536  0.1144
  791MPD2    H311665   3.481   2.091  12.605 -1.5331  0.8575  0.0646
  791MPD2     N11666   3.237   1.844  12.896  0.1479 -0.8734 -0.0827
  791MPD2    H511667   3.228   1.798  12.986 -1.3594 -3.2170 -1.4364
  791MPD2    N111668   3.701   1.945  12.958 -0.1617 -0.0456 -0.0045
  791MPD2    H711669   3.770   2.004  12.912  0.5826 -1.8631 -1.2330
  792MPD2     C11670   4.496   2.216  11.487 -0.0984 -0.2463  0.0516
  792MPD2    C111671   4.497   2.303  11.381  0.2265  0.4816  0.1836
  792MPD2    C211672   4.511   2.245  11.261  0.8531 -0.2714 -0.4771
  792MPD2    C311673   4.541   2.111  11.247  0.2779  0.1436  0.8542
  792MPD2    C411674   4.535   2.027  11.352  0.1242 -0.0519  0.0962
  792MPD2    C511675   4.511   2.080  11.473 -0.2160 -0.1153 -0.2946
  792MPD2     H11676   4.512   2.295  11.165 -1.7619 -2.5164 -1.6754
  792MPD2    H111677   4.534   1.919  11.340  0.8242 -0.0128 -0.3265
  792MPD2    H211678   4.477   2.254  11.587  1.5879 -0.4109  0.4361
  792MPD2    H311679   4.485   2.013  11.555 -0.0077  1.3496  0.9847
  792MPD2     N11680   4.591   2.072  11.117  0.5534  0.5372  0.3296
  792MPD2    H511681   4.585   2.141  11.043 -1.0318 -0.2070 -0.2493
  792MPD2    N111682   4.490   2.444  11.393 -0.2360 -0.1415  0.8004
  792MPD2    H711683   4.509   2.477  11.487 -2.4834 -1.5489  1.7533
  793MPD2     C11684   4.226   1.633  10.331 -0.5131 -0.0478  0.1026
  793MPD2    C111685   4.356   1.658  10.289  0.5158 -0.4252  0.0895
  793MPD2    C211686   4.437   1.736  10.359  0.0862  0.1309  0.1038
  793MPD2    C311687   4.399   1.787  10.482 -0.1138 -0.3076  0.0236
  793MPD2    C411688   4.273   1.766  10.528 -0.6831  0.1999 -0.1485
  793MPD2    C511689   4.187   1.692  10.453 -0.1040  0.0017 -0.1040
  793MPD2     H11690   4.537   1.752  10.320  0.0087 -0.7423 -0.4314
  793MPD2    H111691   4.224   1.806  10.617 -0.9084  0.8454 -0.5597
  793MPD2    H211692   4.165   1.568  10.269  0.1254  0.5116 -1.1245
  793MPD2    H311693   4.081   1.692  10.476 -0.2147 -0.1915 -0.6129
  793MPD2     N11694   4.494   1.848  10.567  0.0651 -0.1157 -0.1279
  793MPD2    H511695   4.585   1.851  10.522 -0.0770  1.4415 -0.2955
  793MPD2    N111696   4.407   1.594  10.171 -0.0992 -0.5952 -0.5128
  793MPD2    H711697   4.504   1.605  10.144 -0.8405 -1.3045 -3.4595
  794MPD2     C11698   4.424   1.690  17.675  0.8517  0.3562 -0.5060
  794MPD2    C111699   4.352   1.574  17.667 -0.8321  0.6225 -0.1566
  794MPD2    C211700   4.280   1.553  17.551 -0.6025  0.0445 -0.5753
  794MPD2    C311701   4.284   1.640  17.446 -0.7304 -0.0807  0.0718
  794MPD2    C411702   4.344   1.763  17.471 -0.8494  0.4617 -0.0027
  794MPD2    C511703   4.412   1.784  17.586  0.4204 -0.5093 -0.2535
  794MPD2     H11704   4.215   1.466  17.552  0.9008 -1.0663  0.4485
  794MPD2    H111705   4.344   1.841  17.396  0.6194  0.1612 -0.3236
  794MPD2    H211706   4.481   1.715   0.074  2.2819 -2.0659 -0.7288
  794MPD2    H311707   4.464   1.876  17.612  1.6616 -2.0348  2.6940
  794MPD2     N11708   4.217   1.620  17.324  0.2507 -0.3184  0.7505
  794MPD2    H511709   4.215   1.705  17.268  1.7274 -0.5599  0.3395
  794MPD2    N111710   4.337   1.487   0.086 -0.7209  0.1978  0.6381
  794MPD2    H711711   4.265   1.416   0.075  1.9658 -1.8543 -3.5108
  795MPD2     C11712   1.520   3.779  12.503 -0.5030  0.7145 -0.4708
  795MPD2    C111713   1.469   3.737  12.624 -0.2557 -0.4653 -0.9047
  795MPD2    C211714   1.556   3.655  12.707  0.2054 -0.3266 -0.6081
  795MPD2    C311715   1.688   3.645  12.676 -0.3774 -0.9498  0.3621
  795MPD2    C411716   1.741   3.699  12.559  0.2113  0.2411  0.7474
  795MPD2    C511717   1.655   3.762  12.477  0.4827  0.0414 -0.0375
  795MPD2     H11718   1.521   3.604  12.796 -0.0006  0.8953  0.0116
  795MPD2    H111719   1.843   3.696  12.522 -0.0018 -0.7510  0.2107
  795MPD2    H211720   1.453   3.834  12.437 -0.9178 -0.4714 -1.0514
  795MPD2    H311721   1.698   3.808  12.388 -0.1667 -0.9092 -0.8397
  795MPD2     N11722   1.761   3.580  12.775 -0.1934 -0.0821  0.4631
  795MPD2    H511723   1.705   3.547  12.853 -1.2786 -1.9151 -1.0851
  795MPD2    N111724   1.334   3.730  12.652 -0.1679  0.3174  0.2893
  795MPD2    H711725   1.312   3.667  12.728  1.2462  1.0649  1.3209
  796MPD2     C11726   1.473   0.144  16.158 -0.1921  0.3791  0.3397
  796MPD2    C111727   1.447   0.217  16.277  0.1972 -0.0651  0.1866
  796MPD2    C211728   1.420   0.348  16.266 -0.0752  0.0767 -0.8776
  796MPD2    C311729   1.402   0.405  16.143 -0.1739 -0.4973  0.1756
  796MPD2    C411730   1.420   0.336  16.025  0.1717  0.8377  0.2627
  796MPD2    C511731   1.464   0.211  16.038  0.0724  0.3079  0.7813
  796MPD2     H11732   1.413   0.410  16.354  0.8195 -1.2755  0.1472
  796MPD2    H111733   1.402   0.383  15.929  0.8601  1.9918  0.6987
  796MPD2    H211734   1.501   0.039  16.163 -1.2625  0.1435  1.4000
  796MPD2    H311735   1.494   0.157  15.949 -0.3109 -0.6921  1.2594
  796MPD2     N11736   1.366   0.539  16.139 -0.4434 -0.5670 -0.0705
  796MPD2    H511737   1.377   0.586  16.228 -1.2164  0.9992 -0.7973
  796MPD2    N111738   1.443   0.144  16.401  0.0684 -0.0382  1.0226
  796MPD2    H711739   1.474   0.048  16.403 -1.2352 -0.4728  0.2434
  797MPD2     C11740   2.197   4.542   0.259  0.5646  0.8197 -0.2267
  797MPD2    C111741   2.296   4.602   0.186  0.5398  0.3965  0.3210
  797MPD2    C211742   2.269   4.656   0.064 -0.1140 -0.6510  0.1592
  797MPD2    C311743   2.143   4.639   0.007 -0.0480  0.6815  0.0093
  797MPD2    C411744   2.042   4.579   0.080  1.1560  0.0933 -0.6854
  797MPD2    C511745   2.071   4.528   0.204  0.3742 -0.2079  0.0504
  797MPD2     H11746   2.337   4.719   0.008 -0.7055 -1.2364 -1.2072
  797MPD2    H111747   1.938   4.569   0.053  1.6783 -0.4559 -2.5611
  797MPD2    H211748   2.223   4.492   0.352  0.4771 -0.2633 -0.7798
  797MPD2    H311749   1.992   4.475   0.255  0.1309 -1.2583 -1.3997
  797MPD2     N11750   2.109   4.708  17.574  0.4126  0.5212  0.5971
  797MPD2    H511751   2.011   4.701  17.547  0.3511  2.3545  0.3668
  797MPD2    N111752   2.430   4.612   0.233 -0.3580 -0.5838 -0.6098
  797MPD2    H711753   2.481   4.686   0.185 -0.8433 -0.6707 -1.2659
  798MPD2     C11754   2.723   0.317  17.434 -0.4518  0.2247 -0.0815
  798MPD2    C111755   2.643   0.204  17.434 -0.7412 -0.1729  1.2553
  798MPD2    C211756   2.690   0.092  17.496 -0.6148  0.2711 -0.1782
  798MPD2    C311757   2.802   0.087  17.571  0.0255 -0.2517  0.0369
  798MPD2    C411758   2.883   0.198  17.572 -0.5013  0.3295  0.5149
  798MPD2    C511759   2.843   0.310  17.498  0.1247  0.7417  0.1216
  798MPD2     H11760   2.627   0.004  17.504 -0.6510  0.1213 -2.1606
  798MPD2    H111761   2.955   0.214  17.652 -0.4063 -0.7996  0.6463
  798MPD2    H211762   2.698   0.410  17.383 -1.7645  1.6964  3.2767
  798MPD2    H311763   2.909   0.397  17.496  1.3883 -0.2503 -1.0906
  798MPD2     N11764   2.808   4.706  17.663  0.2850 -0.0737  0.4628
  798MPD2    H511765   2.741   4.630  17.661 -0.7670  0.8434  0.3913
  798MPD2    N111766   2.515   0.200  17.376  0.4010 -0.1500 -0.0333
  798MPD2    H711767   2.469   0.110  17.392  2.6570 -1.5888 -1.6799
  799MPD2     C11768   1.171   1.741  15.569  0.0448  0.2459 -0.0735
  799MPD2    C111769   1.100   1.682  15.471  0.1505  0.1222  0.0042
  799MPD2    C211770   1.040   1.760  15.373  0.4762 -0.7634 -0.5873
  799MPD2    C311771   1.046   1.899  15.383 -0.3304  0.1764  0.5478
  799MPD2    C411772   1.099   1.960  15.495  0.1705  0.1459 -0.2407
  799MPD2    C511773   1.167   1.878  15.582  0.2811  0.1668  0.7227
  799MPD2     H11774   0.991   1.724  15.283 -2.0503 -1.3352  0.9983
  799MPD2    H111775   1.090   2.068  15.497 -0.2106  0.0959  0.9671
  799MPD2    H211776   1.220   1.691  15.652  0.0904  0.0906 -0.1964
  799MPD2    H311777   1.215   1.921  15.670  0.6044  0.5163  0.3758
  799MPD2     N11778   1.012   1.993  15.282  0.7101 -0.0733  0.3308
  799MPD2    H511779   1.043   2.087  15.303  0.7426 -0.2518  1.0869
  799MPD2    N111780   1.105   1.546  15.450 -0.4462 -0.2763  0.5065
  799MPD2    H711781   1.042   1.509  15.379 -3.0529 -0.2063  2.7991
  800MPD2     C11782   1.613   2.733  14.621 -0.4627 -0.5435  0.8718
  800MPD2    C111783   1.658   2.853  14.572  0.5727 -0.6260  0.5007
  800MPD2    C211784   1.643   2.875  14.438 -0.0109 -0.1101  0.3097
  800MPD2    C311785   1.592   2.780  14.356 -0.4843  0.1060  0.8217
  800MPD2    C411786   1.534   2.669  14.407 -0.4343  0.4702 -0.2213
  800MPD2    C511787   1.556   2.642  14.538  0.1441 -0.6658  0.0343
  800MPD2     H11788   1.690   2.963  14.394 -0.5722 -0.4446 -0.9583
  800MPD2    H111789   1.479   2.596  14.349 -0.7887 -0.4669  1.2835
  800MPD2    H211790   1.610   2.733  14.729  2.1668 -1.0136  0.9319
  800MPD2    H311791   1.493   2.568  14.587 -0.1592  0.2724  1.0608
  800MPD2     N11792   1.606   2.797  14.213 -0.9244  1.0005  0.4021
  800MPD2    H511793   1.643   2.887  14.184  3.3728 -1.1604 -0.8979
  800MPD2    N111794   1.714   2.962  14.652 -0.0015  0.3633  0.3977
  800MPD2    H711795   1.728   3.053  14.609 -0.2959  0.9821  1.6138
  801MPD2     C11796   1.628   3.659  14.685  0.5856 -0.5088 -0.1200
  801MPD2    C111797   1.600   3.531  14.644  0.7014 -0.3088 -0.1581
  801MPD2    C211798   1.483   3.505  14.584  0.6389 -0.1307 -1.1062
  801MPD2    C311799   1.390   3.603  14.555 -0.1310  0.1801 -0.1448
  801MPD2    C411800   1.419   3.731  14.594  0.0315  0.2960 -0.4738
  801MPD2    C511801   1.537   3.756  14.668 -0.4653 -0.1165 -0.3859
  801MPD2     H11802   1.465   3.403  14.551 -2.0837  0.0953 -0.3409
  801MPD2    H111803   1.353   3.815  14.578  0.5074  0.6965 -0.3398
  801MPD2    H211804   1.723   3.687  14.729  0.6581 -0.8085 -0.0905
  801MPD2    H311805   1.555   3.858  14.701  1.7958  0.1960 -2.6357
  801MPD2     N11806   1.270   3.580  14.482  0.0900 -0.1657 -0.7608
  801MPD2    H511807   1.207   3.657  14.463 -1.4476 -1.0117  0.9213
  801MPD2    N111808   1.689   3.425  14.671 -0.5992 -0.6042 -0.2565
  801MPD2    H711809   1.666   3.335  14.632 -1.0964 -2.1467  3.6173
  802MPD2     C11810   0.605   3.937   0.154 -0.3189 -0.1186 -1.1813
  802MPD2    C111811   0.562   3.955   0.287  1.2544 -0.3438 -0.1683
  802MPD2    C211812   0.643   3.873   0.383 -0.2606  0.2008  0.2095
  802MPD2    C311813   0.720   3.769   0.343 -0.4307 -0.0162  0.3057
  802MPD2    C411814   0.727   3.738   0.206  0.0701  0.1652  0.5804
  802MPD2    C511815   0.669   3.821   0.116  0.1810 -0.6247 -0.6237
  802MPD2     H11816   0.633   3.900   0.487  1.8858  0.2776  0.3960
  802MPD2    H111817   0.788   3.658   0.167 -0.9610  0.1300 -0.9724
  802MPD2    H211818   0.547   3.981   0.074 -1.5501  1.3039  0.5042
  802MPD2    H311819   0.695   3.797   0.014  1.0629  1.5131 -0.8946
  802MPD2     N11820   0.793   3.689   0.435  0.6222  0.1336  0.1958
  802MPD2    H511821   0.804   3.723   0.530  1.6958 -1.4531  0.6393
  802MPD2    N111822   0.471   4.050   0.332  0.0098  0.3929 -0.2311
  802MPD2    H711823   0.459   4.059   0.432  3.3609  1.0379  0.1097
  803MPD2     C11824   2.561   1.817  11.801  0.1464 -0.7632  0.3345
  803MPD2    C111825   2.582   1.886  11.920 -0.3303 -0.0988 -0.0532
  803MPD2    C211826   2.482   1.891  12.012 -0.5016 -0.0256  0.3428
  803MPD2    C311827   2.356   1.826  11.987 -0.2787  0.2684 -0.4954
  803MPD2    C411828   2.343   1.752  11.876  0.7016  0.3852  0.4012
  803MPD2    C511829   2.447   1.745  11.784  0.1915 -0.5854  0.1756
  803MPD2     H11830   2.496   1.952  12.100  1.4517 -0.9055  0.6232
  803MPD2    H111831   2.258   1.685  11.870 -0.2723  1.6023  0.6266
  803MPD2    H211832   2.642   1.802  11.731  0.7570  2.9794  0.2366
  803MPD2    H311833   2.438   1.672  11.704  0.6258  1.0948 -1.4059
  803MPD2     N11834   2.253   1.830  12.080 -0.4215  0.2836 -0.2395
  803MPD2    H511835   2.166   1.790  12.046 -0.1632 -0.7937  0.3428
  803MPD2    N111836   2.705   1.945  11.954 -0.8754 -0.3478 -0.4728
  803MPD2    H711837   2.716   1.992  12.043 -0.5920 -0.0393 -0.6714
  804MPD2     C11838   2.198   3.428  16.838 -0.3871  0.4211 -0.2085
  804MPD2    C111839   2.090   3.391  16.919  0.5348 -0.0674  0.1235
  804MPD2    C211840   2.098   3.425  17.053  0.6233  0.0060  0.1784
  804MPD2    C311841   2.205   3.495  17.107  0.1773  0.6304 -0.7921
  804MPD2    C411842   2.304   3.526  17.018 -0.0402  0.0809 -0.2588
  804MPD2    C511843   2.306   3.492  16.881  0.1052 -0.2720 -0.1048
  804MPD2     H11844   2.021   3.391  17.122 -0.5510 -0.7816 -1.5293
  804MPD2    H111845   2.395   3.575  17.053  0.4711 -1.5131  0.6589
  804MPD2    H211846   2.191   3.415  16.731  0.9855  0.1847 -0.2593
  804MPD2    H311847   2.384   3.524  16.814  0.1342 -1.3690 -0.5828
  804MPD2     N11848   2.216   3.519  17.248 -0.0144  0.6027  0.7467
  804MPD2    H511849   2.146   3.490  17.315 -1.4848 -0.8984 -1.4367
  804MPD2    N111850   1.978   3.321  16.872 -0.4362 -0.3706 -0.5207
  804MPD2    H711851   1.894   3.328  16.929  1.7183 -0.7926  2.6989
  805MPD2     C11852   1.152   1.911  16.127 -0.5827 -0.3284  0.6993
  805MPD2    C111853   1.206   1.818  16.048  0.6637 -0.4725 -0.0900
  805MPD2    C211854   1.340   1.780  16.070 -0.1405 -0.5955  0.0070
  805MPD2    C311855   1.409   1.833  16.174  0.1907  0.1550  0.3913
  805MPD2    C411856   1.353   1.926  16.254  0.3214 -0.2613 -0.6905
  805MPD2    C511857   1.224   1.969  16.226 -0.2009  0.3278  0.1896
  805MPD2     H11858   1.385   1.704  16.007  0.3138 -0.6438  0.3842
  805MPD2    H111859   1.405   1.974  16.336 -0.3160 -0.5248 -0.1367
  805MPD2    H211860   1.052   1.946  16.106 -0.2714 -0.1432 -0.4741
  805MPD2    H311861   1.187   2.043  16.296  0.3182  0.6393  0.1343
  805MPD2     N11862   1.541   1.779  16.193 -0.0471  0.2765 -0.5384
  805MPD2    H511863   1.570   1.716  16.120 -1.3145 -1.1982  0.2273
  805MPD2    N111864   1.139   1.756  15.943 -0.4560  0.4422  0.3561
  805MPD2    H711865   1.185   1.671  15.910 -4.2770 -1.2994 -0.4856
  806MPD2     C11866   1.761   0.045   1.615  0.0493  0.3020 -0.4439
  806MPD2    C111867   1.776   0.080   1.482  0.2624 -0.5807  0.1052
  806MPD2    C211868   1.895   0.142   1.448  0.1033 -0.1212 -0.0842
  806MPD2    C311869   2.002   0.172   1.537  0.7752 -0.1949 -0.8334
  806MPD2    C411870   1.988   0.114   1.661  0.2236 -0.0624  0.5340
  806MPD2    C511871   1.870   0.059   1.694 -0.0346  0.0727 -0.8054
  806MPD2     H11872   1.901   0.185   1.348  0.6545  0.9449  0.4009
  806MPD2    H111873   2.072   0.117   1.729  1.4322 -1.1246 -0.9186
  806MPD2    H211874   1.668   0.008   1.658  1.7018 -0.6042  2.3134
  806MPD2    H311875   1.851   0.022   1.794 -0.6022 -0.0665 -0.9659
  806MPD2     N11876   2.121   0.237   1.499 -0.3116  0.0652 -0.1262
  806MPD2    H511877   2.196   0.226   1.567 -1.3135  0.4479  1.0497
  806MPD2    N111878   1.676   0.052   1.386 -0.7827 -0.4197 -0.7552
  806MPD2    H711879   1.583   0.031   1.419  0.5029 -2.7663  1.3859
  807MPD2     C11880   0.947   0.140   1.317  0.0283  0.3387  0.4240
  807MPD2    C111881   1.067   0.118   1.390 -0.1854 -0.4502  0.6704
  807MPD2    C211882   1.069   0.130   1.529  0.2252  0.2294  0.5878
  807MPD2    C311883   0.955   0.146   1.601  0.0252 -0.0192 -0.5579
  807MPD2    C411884   0.837   0.159   1.529  0.1412 -0.8239 -0.0174
  807MPD2    C511885   0.837   0.165   1.389  0.2087  0.2772  0.4295
  807MPD2     H11886   1.163   0.111   1.580  0.7189 -2.1146 -1.2147
  807MPD2    H111887   0.750   0.189   1.587  0.1128 -1.3969  0.2349
  807MPD2    H211888   0.933   0.138   1.210  0.4030 -1.9011  0.4163
  807MPD2    H311889   0.751   0.204   1.335 -0.0088 -0.6906  0.0936
  807MPD2     N11890   0.969   0.134   1.739 -0.2053 -0.0986  0.2045
  807MPD2    H511891   1.061   0.115   1.777 -1.1709 -1.3631  1.9304
  807MPD2    N111892   1.187   0.090   1.319 -0.0158 -0.1859 -0.0234
  807MPD2    H711893   1.272   0.077   1.373 -0.1090 -3.1366 -0.5632
  808MPD2     C11894   2.075   3.238   9.690  0.7374  0.1063 -0.2611
  808MPD2    C111895   2.038   3.116   9.744 -0.2206  0.1372  0.2306
  808MPD2    C211896   2.051   3.096   9.875  0.6320 -0.8124 -0.2131
  808MPD2    C311897   2.097   3.194   9.961 -0.3084 -0.1232  0.1044
  808MPD2    C411898   2.128   3.317   9.909 -0.0834 -0.9091  0.3703
  808MPD2    C511899   2.115   3.336   9.774  0.4404  0.5168 -0.5870
  808MPD2     H11900   2.032   2.996   9.912 -2.9250 -0.7340 -1.7511
  808MPD2    H111901   2.175   3.391   9.973  0.7446  0.0294 -1.3202
  808MPD2    H211902   2.070   3.258   9.583 -0.8202 -3.2552 -0.8167
  808MPD2    H311903   2.134   3.432   9.727  0.2895  1.7781  1.9319
  808MPD2     N11904   2.147   3.161  10.091 -0.1628 -0.1907 -0.9074
  808MPD2    H511905   2.183   3.235  10.150 -0.5010  0.8748 -2.0599
  808MPD2    N111906   1.991   3.009   9.668 -0.4888 -0.7127  0.5898
  808MPD2    H711907   1.989   2.918   9.713  3.7324 -0.9541  0.2505
  809MPD2     C11908   3.100   3.150  10.351  0.3530 -0.7293  0.2401
  809MPD2    C111909   3.043   3.020  10.350 -0.7023  0.4514 -0.2122
  809MPD2    C211910   2.909   3.007  10.327  0.0626 -0.1553  0.2279
  809MPD2    C311911   2.824   3.116  10.337 -0.2909  0.1697 -0.4386
  809MPD2    C411912   2.878   3.244  10.349 -0.3385 -0.1313  0.3532
  809MPD2    C511913   3.016   3.257  10.341  0.1369 -0.0820 -0.6177
  809MPD2     H11914   2.861   2.912  10.343  1.8377 -1.1564 -0.3464
  809MPD2    H111915   2.823   3.337  10.360  0.7748  0.8931 -2.6209
  809MPD2    H211916   3.207   3.164  10.348  0.1175  1.1948  0.7441
  809MPD2    H311917   3.059   3.356  10.349  0.3257 -0.1515 -0.7844
  809MPD2     N11918   2.680   3.112  10.347  1.4014  0.4963  0.0135
  809MPD2    H511919   2.638   3.203  10.360  0.6422  0.2401 -0.6380
  809MPD2    N111920   3.112   2.893  10.376 -0.9169  0.1501 -0.3894
  809MPD2    H711921   3.056   2.808  10.378 -0.3736 -0.2247 -1.3875
  810MPD2     C11922   2.252   1.758  10.435 -0.4998 -0.4850  0.0753
  810MPD2    C111923   2.115   1.765  10.460 -0.3261  0.1611  1.2208
  810MPD2    C211924   2.070   1.868  10.542  0.0753 -0.4932  0.3847
  810MPD2    C311925   2.156   1.969  10.588 -0.4743 -0.1535 -0.0727
  810MPD2    C411926   2.292   1.968  10.554  0.0728  0.2636  0.2388
  810MPD2    C511927   2.340   1.860  10.482  0.4529  0.4273  0.0727
  810MPD2     H11928   1.964   1.876  10.564 -0.3787  1.0917 -2.4000
  810MPD2    H111929   2.368   2.040  10.581 -0.4215  1.1596 -0.7668
  810MPD2    H211930   2.294   1.677  10.377  0.8133 -0.3368  0.8212
  810MPD2    H311931   2.443   1.844  10.452  0.3853 -0.1586  0.1489
  810MPD2     N11932   2.119   2.080  10.663 -0.3114  0.1760 -0.4288
  810MPD2    H511933   2.195   2.141  10.691 -1.7333  1.1941  1.1653
  810MPD2    N111934   2.031   1.659  10.422 -0.4333  0.0925 -0.0566
  810MPD2    H711935   2.066   1.598  10.349 -2.1472 -0.7466 -0.1925
  811MPD2     C11936   1.353   1.577   9.909  0.0298  0.3451  0.2359
  811MPD2    C111937   1.454   1.648   9.968  0.1752 -0.2136  0.2905
  811MPD2    C211938   1.462   1.783   9.943 -0.3075  0.0727 -0.6263
  811MPD2    C311939   1.381   1.850   9.854 -0.4894 -0.3057  0.3100
  811MPD2    C411940   1.297   1.769   9.782  0.0831  0.1832  0.3924
  811MPD2    C511941   1.268   1.639   9.820  0.0235  0.4461 -0.9886
  811MPD2     H11942   1.530   1.842  10.005 -1.1768 -1.9238  2.2362
  811MPD2    H111943   1.242   1.811   9.699 -0.5258 -0.9317  0.2387
  811MPD2    H211944   1.335   1.473   9.936 -1.4246  0.4650 -0.2791
  811MPD2    H311945   1.203   1.575   9.761  0.7711  0.5601 -1.9167
  811MPD2     N11946   1.390   1.994   9.836 -0.8209  0.0360  0.3095
  811MPD2    H511947   1.447   2.037   9.908  0.4090 -0.8647 -0.1232
  811MPD2    N111948   1.519   1.581  10.079 -0.4617  0.1167 -0.3412
  811MPD2    H711949   1.460   1.511  10.122 -0.3640 -1.1240 -2.2538
  812MPD2     C11950   0.756   2.596  12.530  0.6329 -0.3914 -0.6301
  812MPD2    C111951   0.645   2.536  12.584  0.6802 -0.1175  0.0855
  812MPD2    C211952   0.659   2.444  12.682  0.1542  0.7100  0.1301
  812MPD2    C311953   0.787   2.393  12.709 -0.4705 -0.1845  0.1840
  812MPD2    C411954   0.897   2.441  12.639  0.6349 -0.6838 -0.1952
  812MPD2    C511955   0.882   2.552  12.562  0.2507  0.3044  0.5780
  812MPD2     H11956   0.572   2.403  12.733  0.2109 -0.8817 -1.0313
  812MPD2    H111957   0.997   2.401  12.653  1.1785  0.9780  0.6270
  812MPD2    H211958   0.752   2.673  12.454 -0.5205  0.6959  0.5218
  812MPD2    H311959   0.964   2.612  12.525  0.2051  0.4288  0.6761
  812MPD2     N11960   0.796   2.268  12.790  0.3094 -0.0194 -0.4588
  812MPD2    H511961   0.715   2.248  12.847 -0.5617  0.5930 -1.4953
  812MPD2    N111962   0.519   2.588  12.532 -0.0655 -0.0899 -0.1989
  812MPD2    H711963   0.522   2.650  12.452 -1.2657  0.3449  0.0914
  813MPD2     C11964   3.758   3.934  12.914  0.4166 -0.0966  0.0794
  813MPD2    C111965   3.678   4.049  12.921  0.2090  0.4130 -0.1350
  813MPD2    C211966   3.692   4.119  13.040 -0.1366  0.9764  0.2147
  813MPD2    C311967   3.777   4.082  13.144 -0.3192 -0.5551  0.2264
  813MPD2    C411968   3.844   3.964  13.136  0.6986 -0.3532 -0.5413
  813MPD2    C511969   3.827   3.892  13.022 -0.9714  0.3356 -0.6078
  813MPD2     H11970   3.641   4.214  13.046  0.2584  1.2317 -0.5421
  813MPD2    H111971   3.922   3.925  13.201  1.1261 -2.5463 -2.3624
  813MPD2    H211972   3.753   3.877  12.822 -0.5877 -1.2413  0.8300
  813MPD2    H311973   3.891   3.805  13.011 -2.8379 -1.0923 -0.2897
  813MPD2     N11974   3.792   4.162  13.261  0.4695  0.5218 -0.5000
  813MPD2    H511975   3.744   4.251  13.260  1.0367  0.8278 -0.5340
  813MPD2    N111976   3.602   4.089  12.805  0.1261 -0.0262 -0.3565
  813MPD2    H711977   3.632   4.047  12.717 -0.5658 -0.6947 -0.2644
  814MPD2     C11978   4.392   0.970  12.446  0.6506  0.0990 -0.2959
  814MPD2    C111979   4.504   0.920  12.382  0.6428  0.8537  0.0947
  814MPD2    C211980   4.625   0.976  12.417  0.2170 -0.3844 -1.1796
  814MPD2    C311981   4.640   1.067  12.511  0.1854 -0.2745 -0.3514
  814MPD2    C411982   4.535   1.106  12.589 -0.0512 -0.1583  0.0627
  814MPD2    C511983   4.407   1.071  12.540 -0.2150 -0.7218 -0.2600
  814MPD2     H11984   4.716   0.929  12.380  1.0801 -0.4681  1.0698
  814MPD2    H111985   4.553   1.186  12.660 -2.5304 -0.4590  1.0366
  814MPD2    H211986   4.293   0.937  12.419  0.6818 -0.7380  0.5942
  814MPD2    H311987   4.325   1.111  12.599  1.8028  1.8505  0.7830
  814MPD2     N11988   0.046   1.106  12.557 -0.0384  0.9194  0.1353
  814MPD2    H511989   0.054   1.160  12.642 -0.7557 -0.0171  0.7997
  814MPD2    N111990   4.491   0.814  12.288 -0.0243  0.3452  0.1216
  814MPD2    H711991   4.577   0.804  12.234 -0.4922 -2.9574 -0.0145
  815MPD2     C11992   0.473   3.196  12.413 -0.0324  0.6428  0.4060
  815MPD2    C111993   0.387   3.210  12.304  0.0526 -0.1374  0.2032
  815MPD2    C211994   0.255   3.233  12.332 -0.2644 -0.8010  0.4956
  815MPD2    C311995   0.201   3.233  12.459  0.0737  0.0949 -0.2146
  815MPD2    C411996   0.288   3.201  12.562 -0.5841 -0.5734 -0.5210
  815MPD2    C511997   0.421   3.181  12.534 -0.9735  0.6042 -0.3851
  815MPD2     H11998   0.185   3.240  12.250 -0.2153  1.9040  0.6680
  815MPD2    H111999   0.257   3.200  12.666  2.5473 -2.1429  0.4039
  815MPD2    H212000   0.580   3.203  12.398 -0.0289  0.4623  0.3513
  815MPD2    H312001   0.491   3.175  12.617  1.2457 -2.6050 -2.5274
  815MPD2     N12002   0.063   3.252  12.477 -0.2628  0.5798 -0.3949
  815MPD2    H512003   0.005   3.268  12.396 -1.5583  3.4764  1.1135
  815MPD2    N112004   0.444   3.202  12.175  0.3266  0.1647 -0.0711
  815MPD2    H712005   0.545   3.196  12.170  0.4589 -0.9495  3.6387
  816MPD2     C12006   0.382   2.382  17.421  0.4405 -0.3867  0.5335
  816MPD2    C112007   0.341   2.487  17.335  0.1047  0.1729  0.4001
  816MPD2    C212008   0.404   2.520  17.213  0.3463 -0.2456  0.2788
  816MPD2    C312009   0.507   2.433  17.166 -1.3214  0.0886  0.1126
  816MPD2    C412010   0.555   2.340  17.258 -0.2752 -0.0197 -0.0594
  816MPD2    C512011   0.494   2.305  17.376 -0.7511  0.6634  0.0255
  816MPD2     H12012   0.367   2.602  17.153 -0.6627 -2.3396 -1.9531
  816MPD2    H112013   0.637   2.274  17.230 -1.4879 -2.1754  1.4841
  816MPD2    H212014   0.336   2.362  17.517  2.9826 -2.9015  1.2357
  816MPD2    H312015   0.535   2.222  17.432 -0.4426  1.4387  0.9425
  816MPD2     N12016   0.578   2.459  17.044  0.6193  0.5039 -0.2691
  816MPD2    H512017   0.534   2.519  16.976 -2.7222 -1.9158 -0.2478
  816MPD2    N112018   0.223   2.555  17.387  0.1535  0.2553  0.1303
  816MPD2    H712019   0.178   2.515  17.468 -0.3162 -0.6120 -0.5525
  817MPD2     C12020   4.658   4.032  10.016  0.3410 -0.1590 -0.3747
  817MPD2    C112021   4.592   3.913   9.985  0.2192 -0.0365 -0.0774
  817MPD2    C212022   4.474   3.926   9.906  0.2663 -0.2817  0.1936
  817MPD2    C312023   4.420   4.048   9.862  1.0373  0.8185 -0.7174
  817MPD2    C412024   4.488   4.156   9.902 -0.4385 -0.1661  0.2865
  817MPD2    C512025   4.610   4.147   9.968 -0.3516 -0.1249  0.4122
  817MPD2     H12026   4.429   3.832   9.876  2.9397 -1.7985  0.9526
  817MPD2    H112027   4.459   4.254   9.867  0.0878 -1.1491 -2.9192
  817MPD2    H212028   0.026   4.034  10.077  0.0142 -0.2402  0.1044
  817MPD2    H312029   4.680   4.229   9.981  0.2082 -0.5759  0.1955
  817MPD2     N12030   4.301   4.048   9.789  0.0528  0.4397  0.2718
  817MPD2    H512031   4.247   3.963   9.776  0.9874 -0.2054  0.6740
  817MPD2    N112032   4.656   3.784   9.996 -0.1343  0.0820  0.1921
  817MPD2    H712033   4.616   3.702   9.952  0.7939 -0.7637  0.9288
  818MPD2     C12034   3.893   4.095  10.497 -0.2989  0.1715  0.7107
  818MPD2    C112035   3.764   4.072  10.538 -0.0558 -0.3194  0.2305
  818MPD2    C212036   3.722   3.943  10.537 -0.7098  0.7953  1.0699
  818MPD2    C312037   3.802   3.837  10.488 -0.0790  0.4303  0.0653
  818MPD2    C412038   3.932   3.863  10.441 -0.0861 -0.4648 -0.3361
  818MPD2    C512039   3.976   3.995  10.452  0.4025  0.4341  0.7085
  818MPD2     H12040   3.621   3.922  10.570 -0.9085  0.1448  0.0415
  818MPD2    H112041   3.996   3.790  10.392  1.9942  0.9529  0.2681
  818MPD2    H212042   3.932   4.196  10.493 -0.9320  0.4622  1.9126
  818MPD2    H312043   4.069   4.033  10.412  0.5627  0.0095  0.6724
  818MPD2     N12044   3.753   3.696  10.483  0.3583 -0.1468  0.3783
  818MPD2    H512045   3.666   3.688  10.533 -1.1461 -0.9272 -2.3365
  818MPD2    N112046   3.668   4.168  10.584  0.3097  0.3509  0.2430
  818MPD2    H712047   3.579   4.144  10.627  0.0421 -0.6281 -0.8438
  819MPD2     C12048   1.730   1.219  15.985  0.0208  0.1896 -0.2802
  819MPD2    C112049   1.780   1.094  15.955 -0.0153  0.8787 -0.0382
  819MPD2    C212050   1.904   1.058  16.006 -0.1577  0.1126  0.3222
  819MPD2    C312051   1.966   1.142  16.099 -0.1222  0.3787  0.3954
  819MPD2    C412052   1.902   1.258  16.142 -0.3763 -0.4078 -0.6417
  819MPD2    C512053   1.785   1.291  16.084  0.0883 -0.0463 -0.4053
  819MPD2     H12054   1.948   0.962  15.979  0.7000  0.3169  0.9911
  819MPD2    H112055   1.935   1.325  16.221 -0.9593 -1.4859  0.5097
  819MPD2    H212056   1.634   1.252  15.948 -0.2445  0.2614  0.4762
  819MPD2    H312057   1.738   1.385  16.111  1.7852  0.5896  0.3421
  819MPD2     N12058   2.085   1.096  16.157  0.1581 -0.2146  0.0869
  819MPD2    H512059   2.119   1.009  16.117 -4.0040 -1.9352  0.2907
  819MPD2    N112060   1.707   1.014  15.869 -0.5057  0.2531  0.5715
  819MPD2    H712061   1.627   1.053  15.821 -0.2485 -0.1844 -0.2030
  820MPD2     C12062   0.775   0.994  15.707  0.6176  0.0856  0.2724
  820MPD2    C112063   0.881   1.076  15.739  0.6029 -0.1418 -0.1493
  820MPD2    C212064   1.009   1.023  15.737  0.0330 -0.0975 -0.2862
  820MPD2    C312065   1.034   0.887  15.710  0.2176 -0.1453  0.4425
  820MPD2    C412066   0.924   0.799  15.688 -0.9731  0.3106 -0.3280
  820MPD2    C512067   0.801   0.861  15.688 -0.1917 -0.5783  0.0365
  820MPD2     H12068   1.094   1.085  15.765 -0.9516  1.9880 -1.9896
  820MPD2    H112069   0.922   0.692  15.670 -0.0455  0.3288 -0.5220
  820MPD2    H212070   0.672   1.021  15.691  0.3590 -0.3838  1.1681
  820MPD2    H312071   0.722   0.789  15.671 -0.9412  0.4564 -0.8242
  820MPD2     N12072   1.167   0.830  15.703 -0.0086 -0.5539  0.2654
  820MPD2    H512073   1.181   0.733  15.676 -1.0855  0.4229 -3.8582
  820MPD2    N112074   0.854   1.213  15.761  0.1159 -0.0750  0.0469
  820MPD2    H712075   0.758   1.247  15.763  0.7628  1.6461  1.8359
  821MPD2     C12076   1.675   2.492  13.402  0.2593  0.6223 -0.5789
  821MPD2    C112077   1.752   2.598  13.445 -0.4749  0.4845 -0.1823
  821MPD2    C212078   1.858   2.648  13.371  0.2807 -0.2105 -0.3915
  821MPD2    C312079   1.886   2.588  13.255 -0.4437  0.0804  0.3029
  821MPD2    C412080   1.823   2.472  13.219  0.1112 -0.1832  0.6931
  821MPD2    C512081   1.707   2.430  13.282  0.2779 -0.3037  0.1597
  821MPD2     H12082   1.919   2.728  13.411 -1.5537  0.5726  0.8425
  821MPD2    H112083   1.855   2.421  13.130 -0.7290  0.8602 -0.2062
  821MPD2    H212084   1.585   2.464  13.455  0.5236  0.2354 -0.3351
  821MPD2    H312085   1.649   2.346  13.244  1.3661 -1.5391  1.1937
  821MPD2     N12086   1.992   2.634  13.182 -0.2383  0.4765 -0.3729
  821MPD2    H512087   2.033   2.577  13.109  1.8392  1.9641 -0.3677
  821MPD2    N112088   1.717   2.677  13.556  0.3176  0.0680 -0.5869
  821MPD2    H712089   1.756   2.771  13.556 -1.0953  0.6497  1.8696
  822MPD2     C12090   2.843   2.692  16.017  0.1770  0.1678  0.2553
  822MPD2    C112091   2.866   2.683  16.153  0.7199 -0.0264 -0.1407
  822MPD2    C212092   2.778   2.754  16.239  0.3771 -0.9026  0.3755
  822MPD2    C312093   2.671   2.827  16.186  0.7564 -0.2407  1.0732
  822MPD2    C412094   2.650   2.842  16.051  0.1048  0.0002 -0.6674
  822MPD2    C512095   2.738   2.771  15.970  0.1471 -0.1631  0.3998
  822MPD2     H12096   2.777   2.724  16.344  0.4557 -0.2770  0.5531
  822MPD2    H112097   2.565   2.894  16.008 -0.1295 -0.0417 -0.2487
  822MPD2    H212098   2.913   2.654  15.943 -0.5523 -1.4530  0.3777
  822MPD2    H312099   2.739   2.787  15.863 -3.4287  2.8098  0.8273
  822MPD2     N12100   2.605   2.903  16.285 -0.5268 -0.3657 -0.0089
  822MPD2    H512101   2.616   2.868  16.379 -1.0097 -0.4668  0.0097
  822MPD2    N112102   2.953   2.592  16.208 -0.1567  0.0489 -0.1906
  822MPD2    H712103   2.981   2.611  16.304 -1.8581  1.4522  0.0236
  823MPD2     C12104   2.093   2.936  16.936 -0.7425 -0.3008  0.1299
  823MPD2    C112105   2.203   2.879  16.871  0.0183  0.4202 -0.8272
  823MPD2    C212106   2.258   2.762  16.915 -0.2199  0.0372 -0.1127
  823MPD2    C312107   2.193   2.686  17.010 -0.1159  0.1630  0.1947
  823MPD2    C412108   2.072   2.736  17.056 -0.2033  0.3676 -0.0690
  823MPD2    C512109   2.027   2.863  17.028  1.0563  0.0121  0.5676
  823MPD2     H12110   2.350   2.732  16.867 -0.3004  0.1480 -0.3374
  823MPD2    H112111   2.009   2.690  17.130 -0.9955 -1.3490 -1.8036
  823MPD2    H212112   2.056   3.034  16.910 -0.2210  0.2119  1.3572
  823MPD2    H312113   1.931   2.887  17.071  0.4094  0.2023 -0.9813
  823MPD2     N12114   2.231   2.567  17.062  0.4119  0.1306  0.1963
  823MPD2    H512115   2.175   2.531  17.139  0.5359  0.1439  0.2927
  823MPD2    N112116   2.257   2.957  16.765 -0.5009  0.5737 -0.2771
  823MPD2    H712117   2.229   3.054  16.753  0.8043  1.1961  1.6955
  824MPD2     C12118   3.678   2.075  16.135 -0.1915 -0.1575 -0.2046
  824MPD2    C112119   3.561   2.102  16.065 -0.5759  0.6006 -0.1305
  824MPD2    C212120   3.539   2.032  15.944  0.2606  0.0490 -0.4878
  824MPD2    C312121   3.619   1.919  15.912  0.8839  0.2684  0.6493
  824MPD2    C412122   3.737   1.897  15.986  0.8437  0.6255  0.3742
  824MPD2    C512123   3.771   1.976  16.093 -0.4505 -0.8717  0.5135
  824MPD2     H12124   3.446   2.052  15.891  0.1402 -0.8648 -0.6291
  824MPD2    H112125   3.809   1.820  15.961  0.2026 -0.1237  0.8256
  824MPD2    H212126   3.709   2.127  16.225 -0.0429 -0.8471  0.1444
  824MPD2    H312127   3.860   1.966  16.153 -0.4395 -0.5603  0.5499
  824MPD2     N12128   3.592   1.837  15.799  0.6664  0.5312 -0.4640
  824MPD2    H512129   3.519   1.861  15.732  0.7422  0.1123 -0.6964
  824MPD2    N112130   3.458   2.195  16.109  0.2048  0.3521 -0.0243
  824MPD2    H712131   3.373   2.201  16.055  0.9718 -1.0117 -1.3833
  825MPD2     C12132   3.670   1.630  14.959  0.4648 -0.0466  0.2012
  825MPD2    C112133   3.686   1.725  15.061 -0.1922 -0.2005  0.5240
  825MPD2    C212134   3.708   1.857  15.035  0.0543 -0.4174  0.0908
  825MPD2    C312135   3.693   1.899  14.907  0.1478 -0.1233  0.1424
  825MPD2    C412136   3.692   1.811  14.804 -1.1837  0.2408  0.1423
  825MPD2    C512137   3.676   1.673  14.831 -0.4481  0.3399 -0.4478
  825MPD2     H12138   3.714   1.930  15.115  1.7398  0.5536 -0.9196
  825MPD2    H112139   3.684   1.850  14.703 -0.1897 -0.0189 -0.0435
  825MPD2    H212140   3.651   1.525  14.979 -1.5977  0.8354  3.0108
  825MPD2    H312141   3.666   1.605  14.747 -0.2175 -0.4508  0.1640
  825MPD2     N12142   3.706   2.028  14.859 -0.3184 -0.4462 -0.4645
  825MPD2    H512143   3.709   2.035  14.758 -0.1093 -2.3254 -0.5832
  825MPD2    N112144   3.685   1.674  15.197  0.7039 -0.5991  0.1666
  825MPD2    H712145   3.688   1.573  15.205  1.1565 -0.5949  0.0257
  826MPD2     C12146   2.645   1.807  14.148  0.8200 -0.6208  0.3438
  826MPD2    C112147   2.588   1.844  14.028 -0.2307 -0.1590 -0.2067
  826MPD2    C212148   2.508   1.960  14.025 -0.1927  0.4325 -0.2557
  826MPD2    C312149   2.481   2.033  14.142  0.6372  0.0224 -0.2573
  826MPD2    C412150   2.546   1.995  14.256  0.5246  0.4269  0.8337
  826MPD2    C512151   2.628   1.888  14.261 -0.8645  0.4127  0.0366
  826MPD2     H12152   2.462   1.985  13.930  2.5053  0.2634 -1.5977
  826MPD2    H112153   2.522   2.051  14.346  1.4172  2.4373 -0.1891
  826MPD2    H212154   2.716   1.725  14.150 -0.8341 -2.1045 -1.6198
  826MPD2    H312155   2.682   1.872  14.354 -2.2200  1.4780  0.9865
  826MPD2     N12156   2.398   2.149  14.145 -0.4318  0.4352 -0.1216
  826MPD2    H512157   2.399   2.188  14.238  3.8938  0.0206 -0.0092
  826MPD2    N112158   2.617   1.767  13.915 -0.0695  0.3537 -0.4983
  826MPD2    H712159   2.678   1.687  13.927  0.6281  0.9473 -0.0810
  827MPD2     C12160   3.728   2.479  10.572 -0.2440  0.0756 -0.1817
  827MPD2    C112161   3.862   2.450  10.554  0.2466 -0.1017  0.4918
  827MPD2    C212162   3.892   2.340  10.467 -0.1560 -0.4054  0.5649
  827MPD2    C312163   3.790   2.271  10.399  0.1615 -0.0998  0.7778
  827MPD2    C412164   3.655   2.305  10.418  0.0656 -0.2087  0.2442
  827MPD2    C512165   3.629   2.412  10.497  0.5820 -0.4119  0.1558
  827MPD2     H12166   3.996   2.310  10.464  0.2039  0.6512  1.8608
  827MPD2    H112167   3.576   2.246  10.374 -1.7715  2.9777 -0.7164
  827MPD2    H212168   3.690   2.556  10.639 -0.9570 -0.5356  0.1233
  827MPD2    H312169   3.526   2.443  10.509  0.9308  0.7388  0.2392
  827MPD2     N12170   3.834   2.157  10.314 -0.3453 -0.5741  0.7556
  827MPD2    H512171   3.933   2.136  10.316  0.4368  2.9674 -1.5825
  827MPD2    N112172   3.951   2.531  10.621 -0.6013 -0.0324  0.1988
  827MPD2    H712173   3.908   2.599  10.682 -1.3717 -1.0390  0.7874
  828MPD2     C12174   2.570   3.106  12.547 -0.0938  0.4481  0.0275
  828MPD2    C112175   2.581   3.048  12.419 -0.5250 -0.8556 -0.5372
  828MPD2    C212176   2.689   2.959  12.403  0.3985 -0.5218  0.5422
  828MPD2    C312177   2.759   2.900  12.502  0.3873  0.3331 -0.1703
  828MPD2    C412178   2.736   2.943  12.633  0.5341  0.1394 -0.7157
  828MPD2    C512179   2.648   3.048  12.644  0.1552 -0.7610 -0.7233
  828MPD2     H12180   2.703   2.915  12.305  0.8400  2.8176 -0.8622
  828MPD2    H112181   2.781   2.899  12.721 -2.1113 -1.6556 -0.2702
  828MPD2    H212182   2.499   3.187  12.564 -1.1195 -0.0230 -1.9664
  828MPD2    H312183   2.634   3.083  12.746  0.0433 -4.3138  0.5115
  828MPD2     N12184   2.852   2.791  12.479  0.1519 -0.9081  0.2034
  828MPD2    H512185   2.891   2.744  12.561  0.2880 -0.0588  0.6190
  828MPD2    N112186   2.497   3.070  12.311  0.0383 -0.3266  0.0419
  828MPD2    H712187   2.521   3.020  12.226 -3.5620 -1.2548 -0.4176
  829MPD2     C12188   2.549   2.585  11.605 -0.4696 -0.2863 -0.0632
  829MPD2    C112189   2.430   2.645  11.593 -0.0487  0.0453 -0.0127
  829MPD2    C212190   2.389   2.741  11.681 -0.6962 -0.0673  0.4922
  829MPD2    C312191   2.464   2.771  11.794 -0.4810 -0.9836  0.4275
  829MPD2    C412192   2.583   2.706  11.805  0.4077 -0.2893  0.6066
  829MPD2    C512193   2.624   2.615  11.714  0.5152 -0.7351  0.7099
  829MPD2     H12194   2.291   2.779  11.657 -1.0008 -1.2219 -0.1038
  829MPD2    H112195   2.643   2.723  11.895  1.4795 -0.8984  0.0112
  829MPD2    H212196   2.589   2.510  11.537  0.5065  0.1349  0.0443
  829MPD2    H312197   2.720   2.564  11.716  0.9350  0.1007  1.2215
  829MPD2     N12198   2.423   2.877  11.884  0.6986  0.1919 -0.6718
  829MPD2    H512199   2.474   2.880  11.972 -0.9741  0.8346  0.2824
  829MPD2    N112200   2.340   2.602  11.486 -0.5400 -0.2064 -0.0156
  829MPD2    H712201   2.380   2.532  11.424 -0.9288 -0.8863  0.4932
  830MPD2     C12202   2.929   0.947  16.105  0.6344  0.0547  0.0815
  830MPD2    C112203   2.801   0.981  16.060  0.1137 -1.2588 -0.7673
  830MPD2    C212204   2.789   1.063  15.943 -0.5291  0.0900 -0.1470
  830MPD2    C312205   2.903   1.110  15.879  0.1064  0.1353  0.1429
  830MPD2    C412206   3.025   1.072  15.928  0.9141  0.0889  0.2659
  830MPD2    C512207   3.039   0.999  16.041 -0.0510 -0.0018  0.4774
  830MPD2     H12208   2.693   1.105  15.918 -0.7964 -0.6083 -0.2960
  830MPD2    H112209   3.113   1.123  15.890 -0.7019  2.4126 -0.3972
  830MPD2    H212210   2.939   0.888  16.195  0.7955  0.3115  0.2309
  830MPD2    H312211   3.136   0.971  16.079  0.4498 -0.6877 -1.2956
  830MPD2     N12212   2.889   1.204  15.771 -0.3121  0.6025 -0.3767
  830MPD2    H512213   2.971   1.242  15.725  0.6106  0.0848  0.8469
  830MPD2    N112214   2.693   0.947  16.142 -0.0239 -0.7819  0.3175
  830MPD2    H712215   2.723   0.904  16.228  3.4631 -0.3816 -0.7094
  831MPD2     C12216   2.817   3.157  16.554  0.5745 -0.3117 -0.6270
  831MPD2    C112217   2.855   3.051  16.476 -0.7842 -0.4861  0.0441
  831MPD2    C212218   2.837   2.921  16.522  0.0065  0.0652 -0.3344
  831MPD2    C312219   2.779   2.890  16.640  0.1013  0.1608  0.3077
  831MPD2    C412220   2.738   2.997  16.722 -0.2373  0.9025 -0.0075
  831MPD2    C512221   2.751   3.125  16.669 -0.4097  0.1060 -0.6969
  831MPD2     H12222   2.870   2.846  16.451  0.7818 -1.0717  1.2178
  831MPD2    H112223   2.675   2.984  16.810  0.3892  0.5962  0.3965
  831MPD2    H212224   2.832   3.261  16.530 -0.9428 -0.1937 -1.1118
  831MPD2    H312225   2.714   3.204  16.733  0.3215 -0.5535  0.5335
  831MPD2     N12226   2.761   2.758  16.684 -0.2749 -0.0636 -1.0040
  831MPD2    H512227   2.707   2.737  16.768  0.3864 -1.4190 -0.9047
  831MPD2    N112228   2.911   3.084  16.353 -0.2802 -0.6017 -0.2814
  831MPD2    H712229   2.867   3.165  16.311  1.0497  0.9648  1.3639
  832MPD2     C12230   1.007   3.852  17.648  1.0381 -1.0566  0.8771
  832MPD2    C112231   0.913   3.944  17.607  0.5022  0.1073 -0.1088
  832MPD2    C212232   0.822   3.906  17.506 -0.1275 -0.3290  0.4529
  832MPD2    C312233   0.813   3.768  17.472 -0.2414 -1.3971 -0.1496
  832MPD2    C412234   0.900   3.680  17.532  0.2079 -0.4501 -0.3676
  832MPD2    C512235   0.998   3.721  17.614 -0.0882  0.9300 -0.1694
  832MPD2     H12236   0.739   3.969  17.476 -0.0347 -2.0621 -3.4738
  832MPD2    H112237   0.896   3.574  17.512 -0.4327 -0.6768  0.9722
  832MPD2    H212238   1.070   3.871   0.045  1.9630 -0.7011  0.1278
  832MPD2    H312239   1.063   3.648  17.661 -0.8852  0.0607 -0.4279
  832MPD2     N12240   0.712   3.707  17.387 -0.0181 -0.5928  0.1824
  832MPD2    H512241   0.712   3.606  17.382  3.6790 -0.6349  0.6059
  832MPD2    N112242   0.911   4.064  17.679  0.1376 -0.4656 -0.0042
  832MPD2    H712243   0.970   4.078   0.070 -2.3192 -1.8860  2.0343
  833MPD2     C12244   2.773   0.711  12.873 -0.5896 -0.2271 -0.0354
  833MPD2    C112245   2.859   0.818  12.856 -0.1725  0.1119  0.0007
  833MPD2    C212246   2.992   0.798  12.816 -0.5356  0.3648  0.2987
  833MPD2    C312247   3.041   0.671  12.805 -0.1616  0.3157  0.1636
  833MPD2    C412248   2.954   0.562  12.819  0.6480  0.2376  0.1041
  833MPD2    C512249   2.821   0.584  12.855  0.1685  0.2497 -0.6826
  833MPD2     H12250   3.060   0.878  12.791 -1.1240  0.9450  0.5470
  833MPD2    H112251   2.983   0.458  12.811  1.2294  0.5386 -1.7200
  833MPD2    H212252   2.667   0.725  12.894 -0.6160  0.4384 -0.6212
  833MPD2    H312253   2.750   0.504  12.873 -1.0837  1.1811 -1.4637
  833MPD2     N12254   3.172   0.643  12.754  0.4934  0.2360 -0.3583
  833MPD2    H512255   3.185   0.545  12.732  2.2661  0.3284  0.3297
  833MPD2    N112256   2.797   0.945  12.858  0.5179 -0.7890  0.1360
  833MPD2    H712257   2.703   0.955  12.822  0.4967 -0.3971  0.3028
  834MPD2     C12258   2.814   0.406  11.947 -0.1328  0.2885  0.4531
  834MPD2    C112259   2.931   0.453  11.889 -0.3757 -0.5735  0.0120
  834MPD2    C212260   3.029   0.516  11.967 -0.0746 -0.0794 -0.0949
  834MPD2    C312261   3.004   0.538  12.104  0.1565 -0.0148 -0.7637
  834MPD2    C412262   2.881   0.504  12.151  0.2458  0.4499 -0.6501
  834MPD2    C512263   2.788   0.436  12.075  0.0366  0.4724  0.0599
  834MPD2     H12264   3.111   0.569  11.920  0.5472 -3.1496 -2.4585
  834MPD2    H112265   2.851   0.509  12.255  1.5732 -0.1874 -0.2370
  834MPD2    H212266   2.739   0.351  11.893  1.0930 -0.6458 -0.2802
  834MPD2    H312267   2.695   0.400  12.119  1.0593 -3.8871 -1.4381
  834MPD2     N12268   3.101   0.609  12.181 -0.3192  0.1076 -0.0189
  834MPD2    H512269   3.178   0.649  12.130  0.0325 -1.2711 -0.5695
  834MPD2    N112270   2.950   0.413  11.756 -0.2516  0.2039  0.0446
  834MPD2    H712271   2.877   0.353  11.720  0.1952  0.7089 -1.7312
  835MPD2     C12272   3.317   2.533  11.831 -0.6287 -0.3009  0.2056
  835MPD2    C112273   3.253   2.648  11.845  0.2205 -0.3210  0.0517
  835MPD2    C212274   3.287   2.739  11.950 -0.3777  0.0476  0.2223
  835MPD2    C312275   3.408   2.716  12.023  0.7002  0.4313 -0.3550
  835MPD2    C412276   3.474   2.598  12.002 -0.1658 -0.3953 -0.3249
  835MPD2    C512277   3.423   2.500  11.914 -0.2937 -0.2324  0.4479
  835MPD2     H12278   3.227   2.827  11.970  3.0960  2.6983 -0.9616
  835MPD2    H112279   3.565   2.574  12.055  0.7309 -0.1486 -1.7385
  835MPD2    H212280   3.285   2.460  11.758 -4.3007  0.7924  0.7437
  835MPD2    H312281   3.467   2.402  11.899 -1.0676 -0.4657 -0.2850
  835MPD2     N12282   3.471   2.807  12.106  0.1444 -0.3828 -0.1859
  835MPD2    H512283   3.561   2.787  12.149  0.3732  1.4935  0.2258
  835MPD2    N112284   3.146   2.690  11.764  0.5451  0.0577 -0.9278
  835MPD2    H712285   3.111   2.782  11.790 -0.8968 -0.9539  0.6819
  836MPD2     C12286   3.173   3.510  12.238 -0.7706 -0.4881  0.3226
  836MPD2    C112287   3.247   3.465  12.340  0.6379  1.0330  0.0107
  836MPD2    C212288   3.224   3.520  12.467  0.1906  0.5247 -0.3781
  836MPD2    C312289   3.124   3.612  12.496 -0.4250  0.0271  0.1384
  836MPD2    C412290   3.052   3.655  12.391 -0.7198 -0.2396 -0.0935
  836MPD2    C512291   3.073   3.600  12.267 -0.0852  0.1035 -0.3739
  836MPD2     H12292   3.296   3.498  12.546  0.0888  0.5698 -0.2734
  836MPD2    H112293   2.967   3.721  12.407  0.2962  0.9856  0.2406
  836MPD2    H212294   3.176   3.469  12.138  1.0857  3.4583 -1.2509
  836MPD2    H312295   2.999   3.628  12.193 -1.6335 -2.6332  0.1400
  836MPD2     N12296   3.077   3.642  12.627 -0.2592  0.3645 -0.0792
  836MPD2    H512297   2.992   3.697  12.635  0.3044  1.0669  1.0178
  836MPD2    N112298   3.342   3.371  12.315 -0.3047  0.1953 -0.3860
  836MPD2    H712299   3.330   3.326  12.225  0.3546 -0.8412  0.0360
  837MPD2     C12300   1.194   2.599  10.312 -0.9616  0.1054  1.0882
  837MPD2    C112301   1.228   2.647  10.186 -0.7133 -0.0944 -1.2821
  837MPD2    C212302   1.223   2.779  10.161 -0.9868  0.0224 -0.4353
  837MPD2    C312303   1.177   2.869  10.258 -0.2152  0.3926  0.0918
  837MPD2    C412304   1.155   2.827  10.384  0.2731  0.4946 -1.1679
  837MPD2    C512305   1.172   2.693  10.410  0.0158  0.1118  0.2076
  837MPD2     H12306   1.235   2.803  10.056  1.2959  1.7817  0.2575
  837MPD2    H112307   1.109   2.891  10.459  1.9359  0.1341  0.1590
  837MPD2    H212308   1.208   2.495  10.338  1.6245  0.2753  0.3311
  837MPD2    H312309   1.160   2.645  10.507  1.1597 -1.0593 -0.2227
  837MPD2     N12310   1.152   3.002  10.218  0.3293 -0.2375 -0.1023
  837MPD2    H512311   1.176   3.018  10.120  1.8159 -1.2793  0.0955
  837MPD2    N112312   1.282   2.568  10.081 -0.4082 -0.2427 -0.1429
  837MPD2    H712313   1.308   2.622  10.000  0.7254 -1.8696 -0.8669
  838MPD2     C12314   0.029   1.653  12.000 -0.5581  0.3608  0.9254
  838MPD2    C112315   4.650   1.588  11.935 -0.1053  0.1459 -0.1312
  838MPD2    C212316   4.538   1.553  12.002 -0.0526 -0.3700 -0.1450
  838MPD2    C312317   4.521   1.578  12.133  0.1597  0.1869 -0.0970
  838MPD2    C412318   4.623   1.637  12.207  0.5546 -0.3433  0.4995
  838MPD2    C512319   0.012   1.671  12.133 -0.5803  0.6221 -0.7288
  838MPD2     H12320   4.466   1.488  11.952 -0.0119  1.4941 -2.6441
  838MPD2    H112321   4.612   1.659  12.312 -0.3800 -1.4724  0.6460
  838MPD2    H212322   0.120   1.692  11.956  0.4333  0.2154  2.8304
  838MPD2    H312323   0.097   1.719  12.180 -1.0773 -0.0363  0.8485
  838MPD2     N12324   4.393   1.550  12.183  0.1636 -0.3283 -0.5620
  838MPD2    H512325   4.325   1.510  12.119  0.5090 -0.0125 -1.1201
  838MPD2    N112326   4.662   1.527  11.808 -0.1119  0.0259 -0.2113
  838MPD2    H712327   4.595   1.458  11.777  1.4947 -1.2951 -0.7297
  839MPD2     C12328   4.301   0.853  11.879 -0.1206  0.2310 -0.3583
  839MPD2    C112329   4.351   0.827  11.747  0.9071  0.0415 -0.8692
  839MPD2    C212330   4.466   0.894  11.702 -0.0807 -0.3226  0.3460
  839MPD2    C312331   4.531   0.973  11.795 -0.1946  0.4580  0.5950
  839MPD2    C412332   4.477   0.995  11.920  0.1255  0.0362 -0.0153
  839MPD2    C512333   4.362   0.942  11.957 -0.2061  0.2893  0.0793
  839MPD2     H12334   4.512   0.858  11.611  1.0843 -1.0112  1.2067
  839MPD2    H112335   4.524   1.067  11.985 -1.8151 -0.1346  1.5748
  839MPD2    H212336   4.225   0.788  11.919  0.0697 -0.8806 -1.7751
  839MPD2    H312337   4.314   0.953  12.053 -0.7528 -2.6058  0.1281
  839MPD2     N12338   4.632   1.063  11.751 -0.0479 -0.4740 -0.5073
  839MPD2    H512339   4.679   1.111  11.827 -0.1111 -2.2501  0.6467
  839MPD2    N112340   4.294   0.727  11.662 -0.3580 -0.4158  0.4405
  839MPD2    H712341   4.349   0.703  11.580 -0.3270  1.1085  0.0203
  840MPD2     C12342   4.719   2.730  10.659  0.8287  0.3143 -0.1193
  840MPD2    C112343   4.634   2.801  10.729  0.4186  0.2581 -0.2186
  840MPD2    C212344   4.655   2.936  10.748  0.3107 -0.1412  0.3077
  840MPD2    C312345   0.047   3.002  10.695 -0.0169 -0.2623  0.1436
  840MPD2    C412346   0.137   2.924  10.629  0.3945 -0.2964 -0.2508
  840MPD2    C512347   0.114   2.788  10.621 -1.6535 -0.9717  0.2996
  840MPD2     H12348   4.573   2.996  10.788 -0.9093 -0.7820 -1.2252
  840MPD2    H112349   0.224   2.970  10.583  0.5307 -0.7293 -0.4266
  840MPD2    H212350   4.699   2.626  10.639 -1.3445  1.2447 -2.6518
  840MPD2    H312351   0.186   2.735  10.560 -0.9409  0.8121 -0.4002
  840MPD2     N12352   0.094   3.137  10.721 -0.7809 -0.1040 -0.3631
  840MPD2    H512353   0.184   3.158  10.680  0.1207 -1.4213  0.9655
  840MPD2    N112354   4.515   2.739  10.772 -0.6201  0.3314 -0.3280
  840MPD2    H712355   4.508   2.641  10.744  0.7224 -0.5059  2.1787
  841MPD2     C12356   3.928   2.979  14.824 -0.1032  0.2045  0.0786
  841MPD2    C112357   3.947   3.003  14.688  0.0161 -0.0212  0.3346
  841MPD2    C212358   3.992   3.135  14.647  0.1009 -0.2701  0.3089
  841MPD2    C312359   4.000   3.237  14.743  0.3924 -0.7823  0.0111
  841MPD2    C412360   3.967   3.215  14.871 -0.9703 -0.5395 -0.5529
  841MPD2    C512361   3.938   3.084  14.909  0.2085 -0.1976  0.2433
  841MPD2     H12362   4.033   3.139  14.547  1.7170 -0.4964  0.9497
  841MPD2    H112363   3.973   3.286  14.953 -2.6427 -0.6319 -0.3480
  841MPD2    H212364   3.912   2.881  14.869  1.8319  0.6782  1.8103
  841MPD2    H312365   3.921   3.063  15.014 -2.5315  4.9515  0.8287
  841MPD2     N12366   4.055   3.358  14.693  0.2672 -0.8766 -0.4582
  841MPD2    H512367   4.041   3.372  14.593  0.9600  0.3133 -0.3734
  841MPD2    N112368   3.937   2.895  14.595 -0.4750 -0.0238 -0.8210
  841MPD2    H712369   3.929   2.923  14.498  0.2992  0.8750 -0.6268
  842MPD2     C12370   4.580   3.940  16.594 -0.4495 -0.2796  0.4292
  842MPD2    C112371   4.450   3.927  16.634  0.1128 -0.4872  0.4769
  842MPD2    C212372   4.424   3.874  16.763  0.5539  0.3143 -0.4969
  842MPD2    C312373   4.529   3.842  16.843  0.0838 -0.1506  0.4602
  842MPD2    C412374   4.656   3.872  16.801  0.7328 -0.3447  0.5366
  842MPD2    C512375   4.683   3.921  16.678  0.3746 -0.3489  0.1086
  842MPD2     H12376   4.323   3.863  16.803  1.4971 -0.8620  1.5792
  842MPD2    H112377   0.022   3.839  16.857  0.8232  1.9842  1.7619
  842MPD2    H212378   4.607   3.973  16.495  2.9678 -0.1765  1.4047
  842MPD2    H312379   0.064   3.944  16.652  0.6136 -0.7792  0.6826
  842MPD2     N12380   4.508   3.778  16.964 -0.1654  0.6339  0.1812
  842MPD2    H512381   4.592   3.748  17.013 -1.3587 -0.7757  1.3415
  842MPD2    N112382   4.362   3.969  16.536 -0.7455  0.1880 -0.1610
  842MPD2    H712383   4.397   4.014  16.452  2.5414 -1.4968  0.3319
  843MPD2     C12384   2.064   4.434   1.058 -0.0079  0.2798  0.1725
  843MPD2    C112385   2.188   4.386   1.090 -0.5500 -0.1273  0.1083
  843MPD2    C212386   2.304   4.435   1.029 -0.8551 -0.4760 -0.2785
  843MPD2    C312387   2.298   4.537   0.935  0.1396 -0.5007 -0.1950
  843MPD2    C412388   2.170   4.581   0.900  0.4462 -0.1565  0.3267
  843MPD2    C512389   2.060   4.526   0.955 -0.1391 -0.6775  0.2775
  843MPD2     H12390   2.398   4.409   1.077 -0.3495  0.6044 -0.6778
  843MPD2    H112391   2.154   4.642   0.812 -3.5400 -0.2840  0.9345
  843MPD2    H212392   1.972   4.395   1.100  0.1428  0.4697  0.6752
  843MPD2    H312393   1.963   4.566   0.929 -0.7395 -0.4176  2.9223
  843MPD2     N12394   2.411   4.600   0.885  0.2458 -0.0458 -0.1917
  843MPD2    H512395   2.392   4.680   0.825  0.2815  0.3030  0.2611
  843MPD2    N112396   2.203   4.291   1.196  0.2877 -0.7318  0.7101
  843MPD2    H712397   2.114   4.283   1.244 -1.3564  1.0923 -2.0205
  844MPD2     C12398   0.768   3.437  16.985  0.8461  0.4196 -0.1977
  844MPD2    C112399   0.760   3.568  16.924  0.0262  0.1235 -0.3182
  844MPD2    C212400   0.817   3.669  16.998 -1.0429 -0.1936  0.2972
  844MPD2    C312401   0.900   3.645  17.103 -0.0374 -0.0171  0.7580
  844MPD2    C412402   0.899   3.519  17.161  1.0517  0.5310 -0.9067
  844MPD2    C512403   0.833   3.418  17.103  0.3059  0.1167  0.3656
  844MPD2     H12404   0.805   3.766  16.951  1.7128 -0.4993 -1.0839
  844MPD2    H112405   0.940   3.498  17.259 -1.5111  1.2717  0.3259
  844MPD2    H212406   0.718   3.348  16.950 -1.5812  0.5250  2.9919
  844MPD2    H312407   0.830   3.317  17.141  2.3596  0.0354  0.2847
  844MPD2     N12408   0.967   3.746  17.176 -0.4877  0.3316  0.1545
  844MPD2    H512409   1.017   3.723  17.261 -2.1105 -0.1508  0.9924
  844MPD2    N112410   0.690   3.591  16.800  0.0230 -0.2543 -0.3982
  844MPD2    H712411   0.703   3.672  16.741 -1.4679  0.1527 -0.1738
  845MPD2     C12412   0.936   4.641  17.578  0.0802 -0.1749  0.3526
  845MPD2    C112413   0.847   4.545  17.540  0.1421  0.9367  0.4435
  845MPD2    C212414   0.893   4.434  17.473 -0.7265 -0.0534  0.5788
  845MPD2    C312415   1.024   4.412  17.451 -0.5990  0.1696  0.4719
  845MPD2    C412416   1.116   4.516  17.485 -0.1454  0.1500  0.2269
  845MPD2    C512417   1.069   4.627  17.552 -0.2696  0.5215  0.6013
  845MPD2     H12418   0.830   4.352  17.441  0.6165 -0.7957 -0.1609
  845MPD2    H112419   1.223   4.516  17.474 -0.0672  0.6126  0.9632
  845MPD2    H212420   0.892   0.010  17.618 -1.2998  0.1178 -1.8288
  845MPD2    H312421   1.127   4.712  17.587  0.8344  0.7351 -1.7639
  845MPD2     N12422   1.067   4.293  17.392  0.1805  0.4941  0.3260
  845MPD2    H512423   0.992   4.233  17.361 -0.1661  2.0582 -1.8476
  845MPD2    N112424   0.710   4.562  17.559 -0.0965  0.1960 -0.1889
  845MPD2    H712425   0.695   4.643  17.619  0.5680 -0.1402  0.4265
  846MPD2     C12426   2.226   0.526  14.011 -0.4168  0.4230 -0.6183
  846MPD2    C112427   2.133   0.629  14.021 -0.0466  0.3919  0.2134
  846MPD2    C212428   2.065   0.654  14.137 -0.0132  0.6115  0.5618
  846MPD2    C312429   2.091   0.582  14.249 -0.5342  0.0445 -0.1641
  846MPD2    C412430   2.172   0.475  14.236  1.3685 -0.2305  0.0514
  846MPD2    C512431   2.242   0.444  14.118 -0.1911 -0.2644 -0.8052
  846MPD2     H12432   2.001   0.741  14.131  2.2613  2.3156  1.0018
  846MPD2    H112433   2.199   0.414  14.322  1.5876  1.0355  0.9010
  846MPD2    H212434   2.290   0.515  13.925 -0.7855  0.3123 -0.8787
  846MPD2    H312435   2.316   0.366  14.129 -0.4634 -0.5333 -0.8869
  846MPD2     N12436   2.036   0.623  14.367 -0.2823 -0.1423 -0.2878
  846MPD2    H512437   1.977   0.703  14.348 -0.1692 -0.3220 -1.4037
  846MPD2    N112438   2.119   0.721  13.912 -0.1940 -0.6328  0.4452
  846MPD2    H712439   2.066   0.803  13.937  1.0943 -0.3475  2.2580
  847MPD2     C12440   2.631   1.790  14.644 -0.8887  0.6770  0.4063
  847MPD2    C112441   2.707   1.862  14.729 -0.6136 -0.1038 -0.6747
  847MPD2    C212442   2.817   1.808  14.799  0.2761  0.0459  0.2354
  847MPD2    C312443   2.851   1.673  14.782  0.0573  0.1384  0.2256
  847MPD2    C412444   2.778   1.600  14.691 -0.6227 -0.1698  0.6352
  847MPD2    C512445   2.679   1.663  14.621  0.0783 -0.4246  1.4217
  847MPD2     H12446   2.865   1.867  14.876  0.6659 -1.2044  0.9467
  847MPD2    H112447   2.803   1.500  14.660  2.0716  0.3867  1.0802
  847MPD2    H212448   2.556   1.826  14.575 -1.9841  0.5512  1.5348
  847MPD2    H312449   2.616   1.603  14.555  0.2429  0.6444  0.2934
  847MPD2     N12450   2.946   1.612  14.865 -0.6636 -0.4418  0.9219
  847MPD2    H512451   2.994   1.672  14.932  2.6429 -0.7927 -1.1735
  847MPD2    N112452   2.669   1.993  14.781  0.1089  0.8464 -0.0471
  847MPD2    H712453   2.714   2.023  14.867 -0.7681  1.5604  0.1647
  848MPD2     C12454   0.281   3.781  16.648  0.4342 -0.0670 -0.4009
  848MPD2    C112455   0.332   3.861  16.744  0.0260 -0.4813 -0.5297
  848MPD2    C212456   0.371   3.990  16.704 -0.4679 -0.1447  0.3500
  848MPD2    C312457   0.348   4.033  16.573 -0.0671 -0.1465  0.4041
  848MPD2    C412458   0.303   3.947  16.479  0.4377 -0.1862 -0.6931
  848MPD2    C512459   0.269   3.819  16.512  0.4652 -0.1481 -0.0322
  848MPD2     H12460   0.430   4.050  16.772 -0.6699 -1.0936  1.3693
  848MPD2    H112461   0.275   3.985  16.382 -1.0338 -0.9691 -0.5734
  848MPD2    H212462   0.245   3.683  16.679  0.0500  0.7435  1.7295
  848MPD2    H312463   0.220   3.754  16.440 -0.1304  1.4979 -1.0839
  848MPD2     N12464   0.381   4.162  16.526  0.4514  0.4842 -0.3103
  848MPD2    H512465   0.355   4.173  16.429  0.0182 -1.9994 -0.4831
  848MPD2    N112466   0.357   3.824  16.877  0.0483 -0.6173  0.6263
  848MPD2    H712467   0.406   3.889  16.938  1.2801  0.5887 -1.6237
  849MPD2     C12468   4.045   3.793  13.634 -0.2861  0.2432  0.3855
  849MPD2    C112469   4.169   3.826  13.580 -0.9354 -0.0100  0.1822
  849MPD2    C212470   4.279   3.777  13.650 -0.2918  0.0540 -0.1232
  849MPD2    C312471   4.268   3.711  13.769  0.7255 -0.2322  0.1379
  849MPD2    C412472   4.148   3.689  13.820  0.2313 -0.0319  0.0342
  849MPD2    C512473   4.033   3.719  13.746 -0.3386 -0.3475  0.0115
  849MPD2     H12474   4.381   3.783  13.615  0.4979  0.0970  2.1403
  849MPD2    H112475   4.138   3.639  13.916 -0.7034  0.3957  0.1598
  849MPD2    H212476   3.953   3.830  13.592  0.6031  0.5891 -1.2397
  849MPD2    H312477   3.936   3.692  13.785 -0.8281  0.8193 -0.4103
  849MPD2     N12478   4.391   3.664  13.824 -0.7444 -0.6406  0.1503
  849MPD2    H512479   4.475   3.676  13.768 -1.9770 -1.8163 -1.9261
  849MPD2    N112480   4.176   3.909  13.459 -0.7835  0.4490 -0.6090
  849MPD2    H712481   4.089   3.949  13.427  0.0258  1.9338 -0.9358
  850MPD2     C12482   3.174   2.176  15.251 -0.5517  0.1625  0.8255
  850MPD2    C112483   3.207   2.271  15.345  0.4938 -0.2933 -0.3734
  850MPD2    C212484   3.341   2.263  15.400  0.2037 -0.7861  0.0291
  850MPD2    C312485   3.433   2.165  15.354 -1.5078 -0.4630 -0.0384
  850MPD2    C412486   3.381   2.062  15.275 -0.1396  0.6614  0.1107
  850MPD2    C512487   3.254   2.070  15.218  0.2348 -0.3293 -0.1960
  850MPD2     H12488   3.371   2.336  15.475  0.2580 -0.5209 -0.2516
  850MPD2    H112489   3.444   1.983  15.236 -1.5878 -0.9676  1.1012
  850MPD2    H212490   3.075   2.181  15.206  1.5448 -0.0979 -3.8911
  850MPD2    H312491   3.218   1.991  15.153 -0.0495  0.2153 -0.7026
  850MPD2     N12492   3.566   2.158  15.405  0.1191  0.7389  0.5428
  850MPD2    H512493   3.598   2.061  15.403 -2.0351  0.0360  0.6578
  850MPD2    N112494   3.114   2.370  15.387 -0.0619 -0.1198  0.0802
  850MPD2    H712495   3.023   2.380  15.344  0.5550 -2.5365 -1.7896
  851MPD2     C12496   3.043   2.144  15.964  0.3877 -0.3976  0.0747
  851MPD2    C112497   2.956   2.169  15.862  0.1244  0.4085 -0.4233
  851MPD2    C212498   2.906   2.053  15.802  0.1743 -0.8091  0.0302
  851MPD2    C312499   2.962   1.923  15.808 -1.1977 -0.1360 -0.3201
  851MPD2    C412500   3.067   1.913  15.898  0.3264 -0.1206 -0.3579
  851MPD2    C512501   3.094   2.021  15.985 -0.5498 -0.5708  0.8836
  851MPD2     H12502   2.814   2.059  15.744 -0.6304 -2.3064  1.1338
  851MPD2    H112503   3.124   1.823  15.918 -1.6111 -1.1438  0.6172
  851MPD2    H212504   3.077   2.231  16.019  0.2913 -0.3890  0.1201
  851MPD2    H312505   3.168   2.012  16.064 -1.8815 -0.8157  2.1090
  851MPD2     N12506   2.913   1.814  15.729 -0.4124 -0.1748 -0.4104
  851MPD2    H512507   2.826   1.831  15.679  0.1556 -3.6593 -2.6064
  851MPD2    N112508   2.909   2.301  15.831  0.2582 -0.3514  0.1291
  851MPD2    H712509   2.963   2.373  15.878  0.0257 -2.0615  2.9977
  852MPD2     C12510   2.074   4.001  10.810 -0.2714  0.6905  0.2828
  852MPD2    C112511   2.132   4.109  10.867 -0.4888  0.5944  0.2163
  852MPD2    C212512   2.216   4.188  10.795 -0.8503  0.5721  0.0201
  852MPD2    C312513   2.264   4.143  10.671 -0.3975  0.8506  0.4309
  852MPD2    C412514   2.204   4.032  10.612  0.5395 -0.8904  0.1104
  852MPD2    C512515   2.102   3.971  10.680 -0.3549 -0.1322 -0.3874
  852MPD2     H12516   2.245   4.284  10.837  3.7409  0.0499 -1.8832
  852MPD2    H112517   2.220   3.992  10.513 -1.8673  0.9456 -1.0190
  852MPD2    H212518   2.014   3.933  10.869 -1.9474  0.0781 -2.1395
  852MPD2    H312519   2.049   3.889  10.632 -0.4732  0.0817 -0.6227
  852MPD2     N12520   2.349   4.235  10.607  0.0743  0.6964  0.3977
  852MPD2    H512521   2.382   4.316  10.657 -2.1827  0.7356  1.8315
  852MPD2    N112522   2.094   4.151  10.990  0.1608  0.2422  0.2375
  852MPD2    H712523   2.118   4.248  11.008  1.0390 -0.1125  0.9816
  853MPD2     C12524   3.207   4.603  12.531 -0.4012 -0.6508 -0.0982
  853MPD2    C112525   3.318   4.680  12.532 -0.0079  0.1191 -0.5736
  853MPD2    C212526   3.400   4.674  12.420  0.5284  0.0955 -0.7798
  853MPD2    C312527   3.378   4.596  12.312  0.5466  0.0424  0.6763
  853MPD2    C412528   3.268   4.515  12.316 -0.0198  0.0674 -0.2863
  853MPD2    C512529   3.184   4.519  12.421 -0.0647 -0.0085  0.2482
  853MPD2     H12530   3.485   0.019  12.417  0.9595 -0.4913 -1.7516
  853MPD2    H112531   3.251   4.443  12.236 -1.9518  1.3019 -1.0105
  853MPD2    H212532   3.130   4.605  12.607 -0.2331 -0.4352  0.0638
  853MPD2    H312533   3.095   4.457  12.418 -0.5262  0.5250  3.4582
  853MPD2     N12534   3.472   4.585  12.206  1.0733 -0.3405 -1.0574
  853MPD2    H512535   3.462   4.505  12.144  0.8928 -1.0872 -0.0644
  853MPD2    N112536   3.344   0.037  12.649 -0.1674 -0.3208 -0.4628
  853MPD2    H712537   3.267   0.029  12.715 -0.7328  0.0248 -1.0794
  854MPD2     C12538   0.056   0.475  13.264  0.2670 -0.2488  0.7580
  854MPD2    C112539   0.194   0.485  13.289  0.0858  0.3520 -0.0792
  854MPD2    C212540   0.262   0.377  13.342  0.6796 -0.1278 -0.3013
  854MPD2    C312541   0.191   0.267  13.386  0.1536  0.1508  0.6305
  854MPD2    C412542   0.056   0.254  13.362  0.3529  0.1227 -0.1449
  854MPD2    C512543   4.713   0.357  13.298 -0.1937 -0.4327 -1.4029
  854MPD2     H12544   0.369   0.393  13.351  0.7234 -1.3016  1.4677
  854MPD2    H112545   4.716   0.169  13.387 -0.7336  0.5030 -1.5237
  854MPD2    H212546   4.715   0.551  13.219 -0.1022 -2.0277 -1.7265
  854MPD2    H312547   4.604   0.353  13.299 -0.2987  2.3323 -1.7446
  854MPD2     N12548   0.254   0.157  13.453 -0.6473 -0.0865  0.3598
  854MPD2    H512549   0.203   0.070  13.464 -0.3498 -0.6869 -3.0546
  854MPD2    N112550   0.256   0.611  13.260 -0.0195 -0.5670 -0.9547
  854MPD2    H712551   0.189   0.685  13.240  1.1249  1.0986  1.3843
  855MPD2     C12552   1.114   0.007  13.953 -0.0102 -0.1707  1.2459
  855MPD2    C112553   1.104   4.614  13.880 -0.1684  0.8588  0.4783
  855MPD2    C212554   0.996   4.596  13.792 -0.1829 -0.2624  0.3179
  855MPD2    C312555   0.915   4.701  13.761  0.3157  0.6057  0.7286
  855MPD2    C412556   0.935   0.101  13.829  0.2353  0.2886 -0.5995
  855MPD2    C512557   1.027   0.109  13.928  0.1776  0.6735 -0.3789
  855MPD2     H12558   0.986   4.503  13.737  0.8047  0.0293 -0.3485
  855MPD2    H112559   0.878   0.193  13.816  0.7958  1.0082  1.9644
  855MPD2    H212560   1.181   0.024  14.037 -0.3024  2.6748  0.8918
  855MPD2    H312561   1.032   0.202  13.984 -1.1530  0.4580  0.0961
  855MPD2     N12562   0.822   4.698  13.656 -0.4415  0.2814  0.7649
  855MPD2    H512563   0.786   0.070  13.640  0.6718  0.3480 -1.2956
  855MPD2    N112564   1.190   4.505  13.903  0.0161 -0.0079  0.2913
  855MPD2    H712565   1.168   4.421  13.850  0.5420 -0.1567  0.3121
  856MPD2     C12566   3.311   0.494  14.383  0.3580  0.3703  0.0283
  856MPD2    C112567   3.405   0.589  14.368 -0.0761 -0.6614 -0.2462
  856MPD2    C212568   3.370   0.717  14.319 -0.1202 -0.5565 -0.2451
  856MPD2    C312569   3.240   0.739  14.302  0.4366 -0.2947 -0.3740
  856MPD2    C412570   3.144   0.635  14.309  0.3441  0.5344 -0.1969
  856MPD2    C512571   3.179   0.517  14.356 -0.4273 -0.0172 -0.2103
  856MPD2     H12572   3.445   0.792  14.299  0.4452 -0.6414  1.5900
  856MPD2    H112573   3.039   0.650  14.286  0.3507 -0.1080 -0.6565
  856MPD2    H212574   3.337   0.396  14.421  0.9851  0.5729  0.1284
  856MPD2    H312575   3.103   0.445  14.385  0.6671 -1.4508 -0.9138
  856MPD2     N12576   3.191   0.865  14.258  0.4526  0.4678 -0.2951
  856MPD2    H512577   3.090   0.869  14.251  0.3301  0.5210  1.5058
  856MPD2    N112578   3.537   0.554  14.389  0.1546 -0.3721  0.6810
  856MPD2    H712579   3.558   0.455  14.389 -3.0304 -1.0575 -3.0188
  857MPD2     C12580   0.007   2.586  13.346  0.6815  0.0476 -0.2606
  857MPD2    C112581   0.137   2.541  13.333 -0.5591  0.2237 -0.1583
  857MPD2    C212582   0.240   2.625  13.355 -0.1042 -0.1345  0.0895
  857MPD2    C312583   0.207   2.761  13.387  0.0415  0.2444 -0.1598
  857MPD2    C412584   0.076   2.802  13.397 -0.5181 -0.4120  0.3840
  857MPD2    C512585   4.699   2.711  13.377  0.1314 -0.3594  0.5695
  857MPD2     H12586   0.343   2.595  13.337 -0.1532 -1.0750  1.4352
  857MPD2    H112587   0.045   2.904  13.414  3.1378  0.6330  0.7875
  857MPD2    H212588   4.648   2.515  13.334  1.5241 -0.9615 -0.0072
  857MPD2    H312589   4.594   2.730  13.394 -0.1840  0.5841 -2.3531
  857MPD2     N12590   0.321   2.842  13.395  0.5702 -0.2265  0.0260
  857MPD2    H512591   0.413   2.815  13.364  2.2655  2.1230  3.0006
  857MPD2    N112592   0.152   2.408  13.287  0.0400 -0.0461 -0.1138
  857MPD2    H712593   0.073   2.344  13.288 -0.4842  0.5929 -0.7809
  858MPD2     C12594   1.024   1.949  16.854  1.0672 -0.4313 -0.2172
  858MPD2    C112595   1.109   1.859  16.910 -0.3137  0.1939  0.3847
  858MPD2    C212596   1.113   1.864  17.052  0.1875  0.3769  0.3246
  858MPD2    C312597   1.030   1.948  17.122 -0.3478  0.2148  0.3867
  858MPD2    C412598   0.929   2.020  17.055 -0.2327  0.1940  0.1687
  858MPD2    C512599   0.934   2.022  16.920  0.0325 -0.7728 -0.2979
  858MPD2     H12600   1.183   1.797  17.102 -1.4284 -1.0381  0.6850
  858MPD2    H112601   0.865   2.090  17.107 -0.7292 -0.0921 -0.0533
  858MPD2    H212602   1.015   1.951  16.746  1.3561  1.4674 -0.1989
  858MPD2    H312603   0.877   2.100  16.870  2.1032  0.5733 -0.5607
  858MPD2     N12604   1.042   1.970  17.262  0.3516 -0.0586 -0.0026
  858MPD2    H512605   0.988   2.042  17.309 -0.4446 -0.5887 -0.1001
  858MPD2    N112606   1.176   1.767  16.819  0.0579  0.3073  0.2004
  858MPD2    H712607   1.164   1.774  16.719 -2.2885  1.0005  0.5084
  859MPD2     C12608   4.039   3.400  15.364  0.1730  0.6429 -0.1132
  859MPD2    C112609   4.145   3.429  15.291 -0.5675  0.0664 -0.1812
  859MPD2    C212610   4.192   3.341  15.199  0.5948 -0.1867 -0.1877
  859MPD2    C312611   4.131   3.218  15.175 -0.4263 -0.2253  0.2444
  859MPD2    C412612   4.016   3.192  15.245  0.4147  0.5593 -0.1213
  859MPD2    C512613   3.976   3.281  15.335 -1.4007 -0.7174 -0.2991
  859MPD2     H12614   4.278   3.371  15.141  1.0828  0.7058  0.9951
  859MPD2    H112615   3.960   3.101  15.227  0.4817  0.4609  0.1657
  859MPD2    H212616   3.997   3.466  15.439  0.2952 -0.6338  1.0701
  859MPD2    H312617   3.889   3.264  15.397 -1.2037  1.4302  0.5757
  859MPD2     N12618   4.189   3.115  15.098 -0.4355 -0.5649  0.5848
  859MPD2    H512619   4.143   3.025  15.090  0.6600 -1.1177  0.4578
  859MPD2    N112620   4.207   3.555  15.313 -0.1558 -0.2203 -0.6415
  859MPD2    H712621   4.146   3.615  15.368 -0.8942 -1.5246 -0.0212
  860MPD2     C12622   1.434   3.871  12.002 -0.1962 -0.3415 -0.1727
  860MPD2    C112623   1.506   3.956  12.095 -0.0214  0.5661 -0.4975
  860MPD2    C212624   1.447   4.040  12.188  0.2877 -0.4222 -0.2649
  860MPD2    C312625   1.309   4.052  12.188  0.3372  0.0021  0.4399
  860MPD2    C412626   1.241   3.969  12.104  0.1389 -0.2276  0.3280
  860MPD2    C512627   1.295   3.880  12.014 -0.7790 -0.2788 -0.2135
  860MPD2     H12628   1.509   4.109  12.246 -0.9759 -0.6581  1.3608
  860MPD2    H112629   1.134   3.950  12.109 -0.1199  1.5046  1.3414
  860MPD2    H212630   1.486   3.802  11.937  0.8182 -2.0947  2.5068
  860MPD2    H312631   1.235   3.812  11.954  0.6199 -0.8095 -1.0281
  860MPD2     N12632   1.247   4.133  12.291 -0.7073 -0.1689  0.0209
  860MPD2    H512633   1.305   4.203  12.336 -1.1570  0.3620 -0.2236
  860MPD2    N112634   1.645   3.953  12.100 -0.2250  1.1403 -0.1177
  860MPD2    H712635   1.689   4.031  12.147  1.7881  1.9443 -3.3262
  861MPD2     C12636   0.824   2.139  11.125 -0.9233  0.0446  0.1586
  861MPD2    C112637   0.853   2.266  11.175  0.1214  0.3475 -0.5513
  861MPD2    C212638   0.792   2.379  11.116  0.9854  0.1990 -0.3808
  861MPD2    C312639   0.704   2.359  11.010 -0.2186  0.3099 -0.2638
  861MPD2    C412640   0.678   2.226  10.969  0.1682 -0.5134  0.1059
  861MPD2    C512641   0.748   2.119  11.018 -0.0573 -0.3028 -0.7475
  861MPD2     H12642   0.807   2.475  11.165 -1.8998 -0.4237  1.7291
  861MPD2    H112643   0.606   2.203  10.891  1.3300  0.3402 -1.2220
  861MPD2    H212644   0.871   2.054  11.172 -1.0429 -0.1832 -0.1369
  861MPD2    H312645   0.728   2.018  10.986 -0.7551 -0.4296  0.0724
  861MPD2     N12646   0.628   2.470  10.950 -0.4467 -0.5935 -0.2326
  861MPD2    H512647   0.558   2.449  10.879  0.4359 -1.8789 -0.7243
  861MPD2    N112648   0.950   2.281  11.285  0.7674 -0.3043  0.3890
  861MPD2    H712649   0.967   2.376  11.317  0.3934 -0.2475  0.4149
  862MPD2     C12650   0.487   2.656  10.248 -0.2990  0.1233  0.0990
  862MPD2    C112651   0.514   2.576  10.363  0.0499  0.2810 -0.5357
  862MPD2    C212652   0.558   2.445  10.342 -0.2608 -0.3316 -0.2351
  862MPD2    C312653   0.568   2.387  10.216 -0.3749 -0.4779  0.2005
  862MPD2    C412654   0.539   2.468  10.108  0.3212  0.1009 -0.1582
  862MPD2    C512655   0.507   2.599  10.121  0.2096 -0.1143  0.9995
  862MPD2     H12656   0.584   2.377  10.423 -0.6813 -3.6981 -2.9231
  862MPD2    H112657   0.550   2.435  10.005  0.3712  1.6271 -0.6371
  862MPD2    H212658   0.444   2.755  10.258  0.1740  0.3096  0.3010
  862MPD2    H312659   0.481   2.666  10.040  0.5548  0.1432  1.1014
  862MPD2     N12660   0.598   2.251  10.197  0.0777  0.2823  0.8072
  862MPD2    H512661   0.625   2.200  10.280 -0.4604  0.2617  0.9673
  862MPD2    N112662   0.508   2.620  10.500  1.2066  0.0198 -0.3532
  862MPD2    H712663   0.517   2.547  10.570  1.8800 -0.1700 -0.6300
  863MPD2     C12664   4.387   0.483  16.850 -0.1014 -0.6639 -0.0038
  863MPD2    C112665   4.332   0.590  16.910 -0.0176  0.2543  0.4249
  863MPD2    C212666   4.351   0.609  17.046  0.1532  0.3946  0.3377
  863MPD2    C312667   4.421   0.521  17.122  0.8815 -0.8127  0.0826
  863MPD2    C412668   4.478   0.413  17.060 -0.2454 -0.4918 -0.3550
  863MPD2    C512669   4.453   0.388  16.928  0.8888 -0.1024  0.3760
  863MPD2     H12670   4.319   0.701  17.094  1.1551  0.5348  0.7542
  863MPD2    H112671   4.528   0.332  17.113  0.7771  2.0398  2.5190
  863MPD2    H212672   4.378   0.455  16.746  1.5664 -0.9330 -0.0703
  863MPD2    H312673   4.492   0.296  16.885 -0.1942 -0.3175 -0.1564
  863MPD2     N12674   4.436   0.550  17.264  0.1293  0.6601  0.4118
  863MPD2    H512675   4.410   0.640  17.303 -2.7184 -0.2159  0.5725
  863MPD2    N112676   4.272   0.685  16.828  0.1277  0.4321  0.1650
  863MPD2    H712677   4.268   0.665  16.728 -2.8375  0.0305  0.3692
  864MPD2     C12678   0.016   1.940   0.194 -0.6211 -0.2607  0.8481
  864MPD2    C112679   0.073   1.851   0.101 -0.5979 -0.1236 -0.0563
  864MPD2    C212680   0.138   1.907  17.682 -0.3295 -0.2282 -0.4425
  864MPD2    C312681   0.135   2.042  17.659  0.3782 -0.2554 -0.0597
  864MPD2    C412682   0.075   2.127   0.063 -0.1409  0.3873  0.5420
  864MPD2    C512683   0.017   2.072   0.170 -0.2464 -0.2221 -0.3846
  864MPD2     H12684   0.190   1.836  17.619  3.9216  0.5436  2.2104
  864MPD2    H112685   0.077   2.235   0.051 -1.8153  0.3719  0.1636
  864MPD2    H212686   4.680   1.907   0.279 -2.9207 -0.7827 -0.9206
  864MPD2    H312687   4.710   2.140   0.249 -1.0694 -0.9435 -0.0700
  864MPD2     N12688   0.182   2.094  17.540  0.0122 -0.6736  0.1056
  864MPD2    H512689   0.174   2.195  17.542  1.0155 -0.5698 -0.6958
  864MPD2    N112690   0.055   1.715   0.115 -0.5223  0.1207 -0.0286
  864MPD2    H712691   0.011   1.685   0.202 -0.7768  0.5448 -0.0064
  865MPD2     C12692   4.594   2.172  16.696  0.2540  0.3651 -0.5757
  865MPD2    C112693   4.660   2.108  16.801  0.4377  0.0593  0.1639
  865MPD2    C212694   4.670   2.166  16.926  0.7852  0.6674 -0.0483
  865MPD2    C312695   4.612   2.286  16.953  0.4415 -0.4057 -0.0224
  865MPD2    C412696   4.546   2.357  16.845 -0.3072  0.1496 -0.8481
  865MPD2    C512697   4.538   2.297  16.724 -0.2990  0.3443 -0.1404
  865MPD2     H12698   4.706   2.113  17.013  1.5711 -0.0452 -0.8013
  865MPD2    H112699   4.496   2.452  16.860  0.1741  0.5100 -1.5674
  865MPD2    H212700   4.588   2.120  16.601  1.8093 -1.6985  0.4435
  865MPD2    H312701   4.496   2.350  16.640 -0.4091 -1.8870 -1.4850
  865MPD2     N12702   4.624   2.363  17.071  0.4335 -0.4986 -0.5585
  865MPD2    H512703   4.577   2.453  17.067 -0.7611 -1.1111 -0.2929
  865MPD2    N112704   0.007   1.990  16.764 -0.0679  0.1204  0.1373
  865MPD2    H712705   0.007   1.956  16.668  0.9853  1.7644 -0.4447
  866MPD2     C12706   1.745   2.372  11.479  0.2531 -0.3013 -0.3781
  866MPD2    C112707   1.716   2.369  11.344 -0.2778 -0.1024  0.4802
  866MPD2    C212708   1.588   2.417  11.307  0.7157  0.4969  0.0164
  866MPD2    C312709   1.501   2.479  11.393 -0.4115  0.9029 -0.1400
  866MPD2    C412710   1.550   2.503  11.518  0.2078 -0.1166 -0.3102
  866MPD2    C512711   1.663   2.441  11.568 -0.1061  0.2180 -0.6960
  866MPD2     H12712   1.567   2.385  11.206 -0.3100  0.1679  0.3355
  866MPD2    H112713   1.488   2.562  11.585  0.2257 -0.9090  0.3922
  866MPD2    H212714   1.834   2.330  11.523  2.2337  1.5325 -2.6507
  866MPD2    H312715   1.685   2.445  11.674  2.3005 -0.6131 -1.1507
  866MPD2     N12716   1.380   2.533  11.358 -0.1631  0.6344  0.1101
  866MPD2    H512717   1.332   2.586  11.430 -1.3134 -0.5742  0.2202
  866MPD2    N112718   1.815   2.308  11.262 -0.1848 -0.8460  0.2092
  866MPD2    H712719   1.898   2.284  11.315  1.1675  2.2010 -0.5077
  867MPD2     C12720   3.786   1.953  16.678 -0.3740 -1.0403  0.4054
  867MPD2    C112721   3.814   1.954  16.817 -0.1024  0.3156  0.0542
  867MPD2    C212722   3.803   2.075  16.892  0.7792 -0.4582 -0.3480
  867MPD2    C312723   3.754   2.190  16.826 -0.1385  0.1707  0.4188
  867MPD2    C412724   3.736   2.188  16.686 -0.9792 -0.8730 -0.2711
  867MPD2    C512725   3.737   2.071  16.621  0.1580  0.3158  0.8242
  867MPD2     H12726   3.818   2.068  16.999 -0.4933 -0.2589 -0.1593
  867MPD2    H112727   3.715   2.279  16.632  0.6578 -0.8870 -0.9112
  867MPD2    H212728   3.781   1.857  16.629  2.6579 -1.7645  1.5326
  867MPD2    H312729   3.700   2.071  16.519 -0.4920 -0.3106  1.0597
  867MPD2     N12730   3.734   2.315  16.882  0.2282 -0.0388  0.0901
  867MPD2    H512731   3.714   2.396  16.823 -0.3112 -0.9258 -0.9442
  867MPD2    N112732   3.869   1.830  16.863  0.3972  0.5738 -0.9534
  867MPD2    H712733   3.882   1.759  16.792 -1.1652  0.3719 -1.0350
  868MPD2     C12734   0.908   0.603  13.193  0.4158  0.2275 -0.1080
  868MPD2    C112735   0.951   0.723  13.247 -0.3196  0.0332 -0.0823
  868MPD2    C212736   0.869   0.787  13.334 -0.9194  0.1782 -0.2815
  868MPD2    C312737   0.756   0.734  13.391  0.5141  0.0639  0.0115
  868MPD2    C412738   0.714   0.611  13.342 -0.2903 -0.1058 -0.2165
  868MPD2    C512739   0.789   0.548  13.240  0.0986  0.3310  0.4056
  868MPD2     H12740   0.906   0.878  13.378  0.8455  0.0193 -1.4744
  868MPD2    H112741   0.630   0.553  13.379  0.8181 -0.9249  1.0202
  868MPD2    H212742   0.971   0.543  13.129 -0.4008 -0.4561 -0.2703
  868MPD2    H312743   0.746   0.452  13.214  0.4577  0.1063  0.6406
  868MPD2     N12744   0.678   0.808  13.490  0.6359  0.3662 -0.8282
  868MPD2    H512745   0.714   0.902  13.506 -1.1800  1.2331 -1.8861
  868MPD2    N112746   1.082   0.758  13.218 -0.5383 -0.2338  0.0381
  868MPD2    H712747   1.134   0.721  13.139  0.8662 -1.9829  1.7674
  869MPD2     C12748   1.703   3.407   2.663 -0.0501 -0.1697  0.1261
  869MPD2    C112749   1.772   3.442   2.545  0.5396 -0.5062 -0.1491
  869MPD2    C212750   1.750   3.559   2.481  0.0683 -0.0532  0.4475
  869MPD2    C312751   1.649   3.649   2.518 -0.0313  0.5598 -0.4575
  869MPD2    C412752   1.584   3.617   2.633 -0.3356  0.3924 -0.0878
  869MPD2    C512753   1.617   3.503   2.701 -0.1297  0.6864 -0.0200
  869MPD2     H12754   1.780   3.569   2.377 -2.0802  1.5750 -0.0130
  869MPD2    H112755   1.522   3.692   2.681 -1.3911 -0.7203  0.2750
  869MPD2    H212756   1.725   3.325   2.730 -0.6230 -0.0080  0.5150
  869MPD2    H312757   1.564   3.488   2.795 -2.7250 -0.6866 -1.7331
  869MPD2     N12758   1.623   3.760   2.436 -0.2527  0.4316 -0.1217
  869MPD2    H512759   1.661   3.765   2.342 -0.6484 -0.4482 -0.3255
  869MPD2    N112760   1.883   3.360   2.516 -0.6815  0.4034 -0.2492
  869MPD2    H712761   1.885   3.269   2.560 -1.6133  0.0750 -0.8745
  870MPD2     C12762   1.439   3.568   1.595  0.0517 -0.9593 -0.3603
  870MPD2    C112763   1.487   3.465   1.523  0.6651 -0.2334  0.0777
  870MPD2    C212764   1.537   3.492   1.401 -0.1403  0.1114  0.4382
  870MPD2    C312765   1.514   3.610   1.334 -0.0851  0.0392  0.0581
  870MPD2    C412766   1.454   3.714   1.408  0.0326 -0.8230 -0.2345
  870MPD2    C512767   1.407   3.693   1.541 -0.0973  0.1812  0.1134
  870MPD2     H12768   1.591   3.412   1.351  1.3952  0.6480  1.2287
  870MPD2    H112769   1.439   3.809   1.359  1.4983 -0.3369  0.2494
  870MPD2    H212770   1.409   3.551   1.698 -0.0711  2.3745  0.1529
  870MPD2    H312771   1.361   3.766   1.607  2.5145  1.5626  0.4136
  870MPD2     N12772   1.543   3.618   1.198 -0.2662 -0.7447 -0.5850
  870MPD2    H512773   1.572   3.540   1.141 -1.2869 -0.9151 -0.8679
  870MPD2    N112774   1.499   3.334   1.587  0.5105  0.3386 -0.1651
  870MPD2    H712775   1.478   3.325   1.686 -0.0758  2.7380 -0.0572
  871MPD2     C12776   2.729   1.975  16.843  0.0156  0.0655 -0.2020
  871MPD2    C112777   2.749   2.009  16.972 -0.4982 -0.3171 -0.1252
  871MPD2    C212778   2.853   1.943  17.036  0.2665  0.0813 -0.4527
  871MPD2    C312779   2.923   1.843  16.977 -0.6555  0.3899 -0.5544
  871MPD2    C412780   2.913   1.819  16.847  0.4198 -0.6824  0.2193
  871MPD2    C512781   2.812   1.890  16.779  0.2522 -0.7428  0.6898
  871MPD2     H12782   2.870   1.953  17.142 -0.9720 -3.0641  0.0328
  871MPD2    H112783   2.974   1.748  16.794 -0.6365 -0.9507 -0.6408
  871MPD2    H212784   2.647   2.020  16.790 -1.0554 -0.9522  0.5869
  871MPD2    H312785   2.785   1.872  16.675 -2.7413 -0.7717  1.4784
  871MPD2     N12786   2.995   1.758  17.065 -0.2767  0.1536 -0.0669
  871MPD2    H512787   2.997   1.787  17.162 -0.0123  0.1003 -0.0571
  871MPD2    N112788   2.647   2.094  17.024  0.1023 -0.3073 -0.7562
  871MPD2    H712789   2.567   2.117  16.965 -0.1648 -0.2790 -0.3818
  872MPD2     C12790   2.956   4.315  14.217 -0.2181  0.1862  0.9572
  872MPD2    C112791   2.959   4.452  14.242  0.4627 -0.1797  0.3619
  872MPD2    C212792   2.844   4.518  14.285 -0.6562  0.3623 -0.0307
  872MPD2    C312793   2.730   4.441  14.308  0.8184 -0.6763  0.0798
  872MPD2    C412794   2.736   4.306  14.273  0.0578 -0.0584  0.3961
  872MPD2    C512795   2.846   4.242  14.227 -0.0098 -0.6402  0.2172
  872MPD2     H12796   2.850   4.622  14.313  0.1150 -0.1744  1.8402
  872MPD2    H112797   2.645   4.250  14.286 -1.6460  2.9410  1.3195
  872MPD2    H212798   3.044   4.264  14.180 -0.5440  1.6767 -1.8379
  872MPD2    H312799   2.835   4.139  14.196  2.2606 -0.6199 -0.6219
  872MPD2     N12800   2.613   4.493  14.375  0.3122  0.5207 -0.1127
  872MPD2    H512801   2.535   4.432  14.397 -0.3251  1.1466 -0.6182
  872MPD2    N112802   3.075   4.531  14.219 -0.2830  0.5164 -0.3078
  872MPD2    H712803   3.054   4.629  14.202 -2.1047  0.4679  1.6921
  873MPD2     C12804   4.400   4.338   0.881 -0.6676  0.0352 -0.6007
  873MPD2    C112805   4.472   4.352   0.995 -0.1691 -1.0705  0.0701
  873MPD2    C212806   4.572   4.260   1.023  0.5274 -1.2557  0.7544
  873MPD2    C312807   4.601   4.158   0.941  0.1961 -0.5442 -0.3722
  873MPD2    C412808   4.526   4.141   0.825 -0.6370 -0.6439  0.0359
  873MPD2    C512809   4.432   4.235   0.790 -0.0440 -0.6493 -0.0478
  873MPD2     H12810   4.634   4.275   1.110 -1.1496 -0.2689  1.7896
  873MPD2    H112811   4.553   4.066   0.752 -0.8015 -0.4743 -0.1972
  873MPD2    H212812   4.336   4.416   0.843 -0.2348  1.1755  1.0410
  873MPD2    H312813   4.385   4.229   0.692  0.1587  0.4179 -0.2055
  873MPD2     N12814   4.712   4.075   0.952  0.4281  0.6460 -0.2869
  873MPD2    H512815   0.004   4.010   0.875  4.2533  1.4485 -0.2935
  873MPD2    N112816   4.442   4.465   1.078  0.0592  0.3698  0.1303
  873MPD2    H712817   4.375   4.531   1.038 -0.0209  0.4602  0.4145
  874MPD2     C12818   4.564   4.405  15.965  0.1192 -0.0612  0.3383
  874MPD2    C112819   4.550   4.372  16.100 -0.0984  0.9183  0.6414
  874MPD2    C212820   4.651   4.402  16.188  0.4375 -0.1556 -0.4425
  874MPD2    C312821   0.042   4.467  16.155  0.5324 -1.1469 -1.0055
  874MPD2    C412822   0.055   4.500  16.019  0.2609 -0.4870 -0.5222
  874MPD2    C512823   4.689   4.455  15.925 -0.2724 -0.4665 -0.5833
  874MPD2     H12824   4.646   4.373  16.292  0.0765  2.3695  0.2375
  874MPD2    H112825   0.148   4.543  15.985 -0.0434  0.0754 -0.6372
  874MPD2    H212826   4.496   4.381  15.883  1.9997 -0.5409 -1.0808
  874MPD2    H312827   4.711   4.468  15.820  0.2822 -2.3268 -0.7028
  874MPD2     N12828   0.131   4.492  16.259  0.1136 -0.3483 -0.2314
  874MPD2    H512829   0.107   4.456  16.350  1.0500 -0.4308 -0.0188
  874MPD2    N112830   4.426   4.305  16.132  0.8785 -0.2850  0.4060
  874MPD2    H712831   4.347   4.318  16.070  1.2358 -0.8564 -0.1627
  875MPD2     C12832   1.073   3.306  14.720  0.1516  0.6062 -0.8530
  875MPD2    C112833   0.998   3.228  14.806 -0.5380 -0.0049  0.3770
  875MPD2    C212834   1.047   3.200  14.936 -0.2204 -0.5115 -0.2945
  875MPD2    C312835   1.162   3.259  14.985 -0.4286  0.3413 -0.0783
  875MPD2    C412836   1.216   3.359  14.903 -0.5883  0.2748 -0.3221
  875MPD2    C512837   1.182   3.371  14.776  0.8590 -0.1344 -0.4994
  875MPD2     H12838   0.990   3.128  14.993 -0.2055  1.1609  1.8262
  875MPD2    H112839   1.305   3.415  14.930 -0.3517 -0.2824  0.0786
  875MPD2    H212840   1.053   3.317  14.614 -0.3895 -0.7080 -0.8769
  875MPD2    H312841   1.246   3.421  14.704  1.6470 -0.0909  0.2417
  875MPD2     N12842   1.209   3.231  15.116 -0.2243  0.2243 -0.7131
  875MPD2    H512843   1.279   3.295  15.150  0.9914 -1.4385 -0.1157
  875MPD2    N112844   0.882   3.164  14.765 -0.6222 -0.9128 -0.6272
  875MPD2    H712845   0.837   3.114  14.841 -0.2744 -1.1751 -0.5958
  876MPD2     C12846   4.447   4.051  15.898  0.1738 -0.4562  0.3508
  876MPD2    C112847   4.589   4.049  15.890  0.6432 -0.3344 -0.4469
  876MPD2    C212848   4.668   3.973  15.975 -0.1380  0.1057  0.0039
  876MPD2    C312849   4.605   3.900  16.074  0.1239  0.1455  1.3603
  876MPD2    C412850   4.468   3.898  16.080  0.3035 -0.3976  1.1624
  876MPD2    C512851   4.393   3.967  15.994 -0.7595 -0.9232  0.3574
  876MPD2     H12852   0.054   3.961  15.971 -0.1591 -0.3650  0.8521
  876MPD2    H112853   4.420   3.838  16.157 -0.9089 -0.2630  0.4902
  876MPD2    H212854   4.388   4.105  15.825  0.2103  1.2652  1.5918
  876MPD2    H312855   4.286   3.969  16.010 -0.8148  1.6093 -0.2723
  876MPD2     N12856   4.685   3.819  16.157  0.0302 -0.1691  0.0736
  876MPD2    H512857   0.061   3.812  16.129  0.0081  1.7343 -0.4349
  876MPD2    N112858   4.647   4.127  15.783  0.1620  0.6058  0.3420
  876MPD2    H712859   4.580   4.180  15.728 -1.1259 -0.7483  0.6242
  877MPD2     C12860   4.483   4.528  15.172 -0.1135 -0.0907  0.2033
  877MPD2    C112861   4.615   4.502  15.141 -0.2845 -0.2212 -0.4166
  877MPD2    C212862   4.658   4.528  15.011  0.1466 -0.0235 -0.5911
  877MPD2    C312863   4.583   4.601  14.922  0.9134  0.6452  0.4171
  877MPD2    C412864   4.460   4.647  14.962 -0.9514  0.1545 -0.4888
  877MPD2    C512865   4.410   4.602  15.088 -0.3538  0.2328 -0.0834
  877MPD2     H12866   0.032   4.493  14.975 -0.4629  0.4681 -2.7265
  877MPD2    H112867   4.384   4.695  14.901  0.2097  1.9977 -0.4983
  877MPD2    H212868   4.438   4.513  15.269  0.7384 -1.2814  0.4116
  877MPD2    H312869   4.311   4.636  15.117 -0.5407 -0.9498  0.6319
  877MPD2     N12870   4.609   4.619  14.785 -0.9311 -0.6887 -0.2162
  877MPD2    H512871   4.555   4.688  14.733  0.8055 -0.6056 -1.9039
  877MPD2    N112872   4.704   4.441  15.236  0.2483 -0.2851  0.2432
  877MPD2    H712873   0.081   4.441  15.212  0.6165  1.3641  1.7342
  878MPD2     C12874   3.929   3.842  12.584 -0.5220  0.5478 -0.2080
  878MPD2    C112875   3.920   3.974  12.625 -0.3411 -0.1036  0.4512
  878MPD2    C212876   3.996   4.019  12.734 -0.2732 -0.7286 -0.3701
  878MPD2    C312877   4.098   3.938  12.783  0.3896 -0.0243  0.3000
  878MPD2    C412878   4.122   3.813  12.729 -0.5803 -0.1118  0.3814
  878MPD2    C512879   4.025   3.765  12.636 -0.3196 -0.2727 -0.1195
  878MPD2     H12880   3.981   4.115  12.783 -2.7076 -1.1907 -0.2031
  878MPD2    H112881   4.202   3.752  12.769 -0.0836  0.4442  0.2457
  878MPD2    H212882   3.855   3.807  12.513 -2.2436  2.3597  0.6959
  878MPD2    H312883   4.044   3.670  12.587 -0.7995  0.0300 -0.8819
  878MPD2     N12884   4.167   3.990  12.896 -0.0135 -0.5943 -0.3000
  878MPD2    H512885   4.143   4.070  12.953 -2.8737 -1.1896 -0.6307
  878MPD2    N112886   3.829   4.059  12.558 -0.1320  0.5080 -0.0441
  878MPD2    H712887   3.769   4.019  12.487 -0.8576  0.5027  0.5739
  879MPD2     C12888   0.259   0.826  17.335  0.3811 -0.6733  0.7525
  879MPD2    C112889   0.312   0.713  17.391 -0.0192 -0.3410  0.1007
  879MPD2    C212890   0.269   0.593  17.346 -0.2268  0.4440 -0.2319
  879MPD2    C312891   0.166   0.579  17.254  0.3356  0.3235  0.1313
  879MPD2    C412892   0.118   0.694  17.196  0.1500  0.7316 -0.3675
  879MPD2    C512893   0.168   0.815  17.231 -0.2849  0.3591  0.3259
  879MPD2     H12894   0.324   0.507  17.382  0.7738  0.4895 -1.6420
  879MPD2    H112895   0.032   0.693  17.130  0.5823 -0.3383 -0.9176
  879MPD2    H212896   0.301   0.925  17.352  0.6909 -0.7679  0.5477
  879MPD2    H312897   0.126   0.904  17.186 -3.1951 -1.7868 -1.1453
  879MPD2     N12898   0.109   0.458  17.217 -0.2434 -0.2450 -0.5914
  879MPD2    H512899   0.036   0.463  17.148 -0.1622  0.3539 -0.6344
  879MPD2    N112900   0.421   0.733  17.475  0.0763 -0.1256 -0.3950
  879MPD2    H712901   0.446   0.826  17.508  1.5879 -0.4024 -0.7307
  880MPD2     C12902   1.534   2.544  17.506 -0.2319  0.4244  0.5457
  880MPD2    C112903   1.582   2.588  17.629 -1.0067 -0.0207  0.1760
  880MPD2    C212904   1.596   2.499   0.044  0.2553  0.1546 -0.5694
  880MPD2    C312905   1.571   2.367   0.026  0.0479 -0.2354 -0.4168
  880MPD2    C412906   1.544   2.322  17.589  0.6044  0.2049 -0.0010
  880MPD2    C512907   1.526   2.407  17.483 -0.0551  0.8509  0.0823
  880MPD2     H12908   1.623   2.539   0.141  1.4743 -1.1258 -0.3768
  880MPD2    H112909   1.521   2.218  17.567 -0.6493  0.0660  1.8587
  880MPD2    H212910   1.536   2.601  17.414 -0.9215 -2.1894 -1.0999
  880MPD2    H312911   1.507   2.359  17.388  0.6033  1.5956 -0.4234
  880MPD2     N12912   1.565   2.283   0.130 -0.7167  0.0989  0.6325
  880MPD2    H512913   1.588   2.314   0.224 -1.5114  1.2256  0.4574
  880MPD2    N112914   1.592   2.727  17.650 -0.1375 -0.0574 -0.4252
  880MPD2    H712915   1.574   2.778  17.563 -0.7370  0.9677  0.2930
  881MPD2     C12916   1.342   3.369  17.078 -0.4273  0.3757 -0.0410
  881MPD2    C112917   1.431   3.263  17.084 -0.4034 -0.2689 -0.4207
  881MPD2    C212918   1.477   3.234  17.211  0.5620 -0.0479  1.0782
  881MPD2    C312919   1.429   3.297  17.330  0.7697 -0.0872  0.2791
  881MPD2    C412920   1.326   3.389  17.310 -0.7284  0.4692  0.2523
  881MPD2    C512921   1.283   3.423  17.184  0.5673  0.4096  0.0679
  881MPD2     H12922   1.555   3.159  17.215  0.6426 -0.1735 -2.3491
  881MPD2    H112923   1.282   3.433  17.398 -0.5356 -0.0857  0.6238
  881MPD2    H212924   1.293   3.389  16.983 -1.1283  0.2160  0.2894
  881MPD2    H312925   1.199   3.490  17.169  1.6160  2.0157  1.2986
  881MPD2     N12926   1.484   3.263  17.458 -0.0855  0.0635 -0.0418
  881MPD2    H512927   1.442   3.306  17.540  2.4245  0.5167  1.0376
  881MPD2    N112928   1.505   3.221  16.973  0.2269  0.0816 -0.4093
  881MPD2    H712929   1.488   3.276  16.889  4.3900  0.6845 -0.8611
  882MPD2     C12930   4.446   4.219  14.187  0.0202  0.6440 -0.6389
  882MPD2    C112931   4.408   4.331  14.262 -0.2010  1.1309  0.7369
  882MPD2    C212932   4.282   4.340  14.310 -0.4236 -0.0149  0.5635
  882MPD2    C312933   4.196   4.228  14.291  0.0659  0.1315 -0.0580
  882MPD2    C412934   4.234   4.113  14.225  0.0068  0.0931 -0.4018
  882MPD2    C512935   4.360   4.111  14.168  0.2246 -0.2348  0.1178
  882MPD2     H12936   4.232   4.427  14.351 -1.4551 -0.4691  0.2742
  882MPD2    H112937   4.159   4.038  14.205 -0.7620  0.6552  0.4000
  882MPD2    H212938   4.544   4.212  14.140  2.2087  1.3363  3.8317
  882MPD2    H312939   4.389   4.031  14.102 -2.0939 -1.4418  0.5382
  882MPD2     N12940   4.060   4.227  14.348  0.1920 -0.1512  0.0263
  882MPD2    H512941   3.997   4.152  14.323 -0.4004 -0.4511  2.4503
  882MPD2    N112942   4.499   4.441  14.273 -0.7890  0.1961 -0.5482
  882MPD2    H712943   4.592   4.436  14.232 -1.8699 -1.6226 -2.7821
  883MPD2     C12944   2.110   0.467  17.021 -0.7297 -0.9614  0.7861
  883MPD2    C112945   2.187   0.408  16.932  0.1237  0.5299  0.5765
  883MPD2    C212946   2.314   0.462  16.912  0.1217 -0.2126  0.6795
  883MPD2    C312947   2.352   0.574  16.983 -0.3969  0.4669  1.0703
  883MPD2    C412948   2.261   0.639  17.066  0.9877 -0.0248 -0.2444
  883MPD2    C512949   2.139   0.579  17.081 -0.4540  0.0652 -0.2290
  883MPD2     H12950   2.379   0.418  16.838 -0.4870 -1.3882  0.8475
  883MPD2    H112951   2.272   0.740  17.103 -0.8988 -0.9074  2.7709
  883MPD2    H212952   2.013   0.426  17.047 -1.5493  0.2059 -0.3804
  883MPD2    H312953   2.065   0.618  17.150 -1.3719 -1.3669 -0.4072
  883MPD2     N12954   2.475   0.624  16.952  0.3381  0.1792  0.1208
  883MPD2    H512955   2.528   0.582  16.877 -0.8376 -2.9313  1.0322
  883MPD2    N112956   2.154   0.294  16.860  0.2080 -0.3255 -0.6093
  883MPD2    H712957   2.197   0.270  16.771  2.6603  0.0683  0.4812
  884MPD2     C12958   3.752   0.389  15.665 -0.0283 -0.5229  0.1216
  884MPD2    C112959   3.758   0.464  15.549 -0.5969  0.2254 -0.1904
  884MPD2    C212960   3.641   0.505  15.496 -0.3824 -0.2363 -0.0617
  884MPD2    C312961   3.522   0.486  15.560 -0.4831 -0.0170  0.8852
  884MPD2    C412962   3.516   0.416  15.682 -0.1035 -0.0725 -0.8460
  884MPD2    C512963   3.634   0.367  15.733  0.1294  0.1184 -0.0880
  884MPD2     H12964   3.643   0.556  15.400  0.7497  3.2822  1.8550
  884MPD2    H112965   3.429   0.414  15.746 -0.0515  2.3715 -0.6738
  884MPD2    H212966   3.843   0.343  15.702 -0.3693  0.3061  2.0104
  884MPD2    H312967   3.629   0.306  15.823 -2.3207  0.5752  0.0983
  884MPD2     N12968   3.408   0.553  15.514  0.5061 -0.4205  0.4963
  884MPD2    H512969   3.415   0.625  15.442  0.3952 -2.2637 -1.3536
  884MPD2    N112970   3.878   0.498  15.479  0.1187 -0.4804  0.7489
  884MPD2    H712971   3.867   0.548  15.391  1.1262 -0.7620  0.4652
  885MPD2     C12972   2.181   0.845   0.472  0.1647 -0.0481  0.5273
  885MPD2    C112973   2.221   0.740   0.385 -0.2644 -0.1221  0.0203
  885MPD2    C212974   2.253   0.776   0.256 -0.3904 -0.8471  0.3750
  885MPD2    C312975   2.242   0.914   0.216  0.0936  0.2954 -0.7151
  885MPD2    C412976   2.210   1.011   0.307  0.9031 -0.4546 -0.2835
  885MPD2    C512977   2.170   0.973   0.431 -0.0830 -0.2750 -0.1801
  885MPD2     H12978   2.294   0.707   0.184 -2.0807  2.2585 -3.5828
  885MPD2    H112979   2.200   1.117   0.285 -0.2715 -0.4179  0.3838
  885MPD2    H212980   2.144   0.819   0.571 -0.1902 -2.4301 -0.2299
  885MPD2    H312981   2.145   1.057   0.494 -0.7511  0.0727 -0.9080
  885MPD2     N12982   2.255   0.946   0.082 -0.1792  0.4150  0.4756
  885MPD2    H512983   2.296   0.877   0.019  0.8577  0.4253  1.1517
  885MPD2    N112984   2.228   0.609   0.437  0.0172  0.1750 -0.1236
  885MPD2    H712985   2.212   0.603   0.537  0.9650  1.4101  0.1012
  886MPD2     C12986   2.984   4.151  15.743 -0.2830  0.2828  0.6210
  886MPD2    C112987   3.113   4.125  15.714 -0.4218 -0.9461 -0.0086
  886MPD2    C212988   3.169   4.181  15.600  0.1487 -1.0114  0.5673
  886MPD2    C312989   3.088   4.230  15.500  0.6371  0.7513 -0.4731
  886MPD2    C412990   2.953   4.235  15.524  0.1275 -0.6377  0.2430
  886MPD2    C512991   2.900   4.200  15.645 -0.6218  0.6335 -0.3083
  886MPD2     H12992   3.274   4.192  15.575 -0.3823 -0.8834 -1.6555
  886MPD2    H112993   2.881   4.264  15.449  0.4650  1.2998  0.6820
  886MPD2    H212994   2.941   4.129  15.840  2.6042 -0.0054  1.8260
  886MPD2    H312995   2.798   4.228  15.666 -1.0398  0.5303 -2.1866
  886MPD2     N12996   3.138   4.258  15.363 -0.4939 -0.3112 -0.1835
  886MPD2    H512997   3.083   4.290  15.284 -0.7773 -1.7688 -0.5744
  886MPD2    N112998   3.189   4.065  15.815  0.2419  0.2347 -0.3119
  886MPD2    H712999   3.289   4.078  15.804  0.1171  1.1540 -0.3873
  887MPD2     C13000   3.890   3.953  16.103 -0.3935  0.3612  0.4390
  887MPD2    C113001   3.790   4.046  16.117 -0.0567 -0.6232  0.3910
  887MPD2    C213002   3.820   4.180  16.088 -0.5165 -0.3706 -1.0670
  887MPD2    C313003   3.946   4.211  16.047 -0.0216  0.4194 -0.2540
  887MPD2    C413004   4.041   4.115  16.013  0.3928 -0.1380  0.2162
  887MPD2    C513005   4.010   3.984  16.044 -1.1015 -0.4018 -0.3512
  887MPD2     H13006   3.755   4.265  16.099  1.3088  0.9012 -0.1244
  887MPD2    H113007   4.138   4.144  15.977  0.3753  1.0809  1.1513
  887MPD2    H213008   3.860   3.853  16.131  0.4061 -0.3164 -1.1270
  887MPD2    H313009   4.085   3.907  16.030 -0.7188 -0.0042 -0.5234
  887MPD2     N13010   3.974   4.346  16.026 -0.5332  0.3980  0.1797
  887MPD2    H513011   3.897   4.412  16.031  0.4677  1.6601 -1.2007
  887MPD2    N113012   3.663   3.993  16.158  0.5550 -0.3090 -0.1695
  887MPD2    H713013   3.660   3.893  16.174 -0.6708 -0.2860 -0.2187
  888MPD2     C13014   1.063   4.210  15.175 -0.2642  0.1294  0.6946
  888MPD2    C113015   1.122   4.206  15.302  0.4477  0.0109 -0.3106
  888MPD2    C213016   1.221   4.298  15.333 -0.3426 -0.4521  0.0857
  888MPD2    C313017   1.245   4.404  15.249  0.1244 -0.3210 -0.7505
  888MPD2    C413018   1.176   4.421  15.125 -0.3019  0.6140 -1.4479
  888MPD2    C513019   1.085   4.323  15.095 -0.0073 -0.5366 -0.5277
  888MPD2     H13020   1.275   4.290  15.426 -0.4367  0.8916  0.2579
  888MPD2    H113021   1.195   4.502  15.054  1.2245  0.3474 -1.3426
  888MPD2    H213022   0.985   4.142  15.145 -0.5965  1.1824 -0.8350
  888MPD2    H313023   1.032   4.326  15.001  0.6356 -0.4110 -0.8822
  888MPD2     N13024   1.346   4.495  15.276  0.0563 -0.0468 -0.0573
  888MPD2    H513025   1.387   4.497  15.369 -0.7057 -0.1173  0.2820
  888MPD2    N113026   1.091   4.100  15.397  0.1904 -0.1432  0.4225
  888MPD2    H713027   1.151   4.095  15.478  1.3568 -1.4961 -0.5198
  889MPD2     C13028   0.623   3.441  13.956 -0.5030  0.5285 -0.9792
  889MPD2    C113029   0.656   3.480  13.825  0.7328 -0.2249  0.2927
  889MPD2    C213030   0.678   3.611  13.804 -0.5369 -0.5406  0.6203
  889MPD2    C313031   0.685   3.705  13.910  0.7056 -1.2535  0.9325
  889MPD2    C413032   0.671   3.655  14.040 -0.6417  0.5512 -0.5851
  889MPD2    C513033   0.636   3.528  14.061  0.3677 -0.2524 -0.4084
  889MPD2     H13034   0.684   3.638  13.699  1.9425  0.8624  1.1292
  889MPD2    H113035   0.677   3.712  14.132 -0.2323  0.4124 -0.5263
  889MPD2    H213036   0.612   3.335  13.977  0.2344  0.8158  0.8454
  889MPD2    H313037   0.613   3.486  14.159  0.6236 -0.2152 -0.3323
  889MPD2     N13038   0.707   3.841  13.882  0.8149  0.3746 -0.6338
  889MPD2    H513039   0.702   3.860  13.782 -0.8265 -1.4329 -0.9038
  889MPD2    N113040   0.624   3.397  13.717 -0.0409 -0.0999  0.6278
  889MPD2    H713041   0.622   3.445  13.628  0.6734  0.4463  0.9124
  890MPD2     C13042   0.416   0.817  15.499  0.2198 -0.6293  0.0273
  890MPD2    C113043   0.294   0.806  15.438 -0.6288 -0.7117  0.0164
  890MPD2    C213044   0.250   0.690  15.402  0.3677 -0.2227  0.1599
  890MPD2    C313045   0.330   0.576  15.416 -0.1811 -0.3124 -0.0240
  890MPD2    C413046   0.458   0.593  15.462  0.3951  0.1582 -0.2866
  890MPD2    C513047   0.504   0.708  15.510 -0.2948  0.0858 -0.2204
  890MPD2     H13048   0.147   0.686  15.368  0.1584  2.0043  0.5103
  890MPD2    H113049   0.531   0.513  15.467 -1.5690 -1.6182  0.0969
  890MPD2    H213050   0.448   0.918  15.522  2.9893 -1.6275  0.5508
  890MPD2    H313051   0.608   0.718  15.537 -0.4973 -0.9262  0.9421
  890MPD2     N13052   0.288   0.446  15.382 -0.1270  0.0164 -0.3285
  890MPD2    H513053   0.348   0.368  15.405  1.6633  0.7383 -2.5819
  890MPD2    N113054   0.216   0.919  15.413 -0.2438 -0.4521 -0.0070
  890MPD2    H713055   0.129   0.911  15.360 -0.0312  2.0741 -0.7576
  891MPD2     C13056   3.135   4.315  17.308 -0.6192 -0.6518 -0.9317
  891MPD2    C113057   3.050   4.220  17.363 -0.4881 -0.1624  0.5635
  891MPD2    C213058   3.103   4.137  17.457  0.8794 -0.1566  0.1242
  891MPD2    C313059   3.242   4.143  17.490 -0.1147 -0.4265 -0.0000
  891MPD2    C413060   3.321   4.243  17.437 -0.1461  0.3935 -0.5555
  891MPD2    C513061   3.268   4.328  17.342 -0.5128  0.2790  0.3464
  891MPD2     H13062   3.045   4.062  17.510 -1.3674  2.3062  1.1244
  891MPD2    H113063   3.425   4.252  17.465 -1.5342  0.9725  4.4008
  891MPD2    H213064   3.102   4.378  17.226  1.5928 -1.1010 -2.1576
  891MPD2    H313065   3.324   4.398  17.281 -0.4106 -0.0034  0.1185
  891MPD2     N13066   3.285   4.055  17.592  0.1271  0.1670  0.0096
  891MPD2    H513067   3.206   4.000  17.624 -0.1718 -0.2233 -1.3812
  891MPD2    N113068   2.919   4.219  17.319  0.1674 -0.6493  0.7165
  891MPD2    H713069   2.892   4.304  17.270  0.1495 -0.4511  1.0722
  892MPD2     C13070   3.636   4.523  15.233  1.2753  0.3065  0.6205
  892MPD2    C113071   3.575   4.580  15.125 -0.4378 -0.8802  1.2898
  892MPD2    C213072   3.625   4.540  15.001 -0.9389 -0.0090 -0.3838
  892MPD2    C313073   3.716   4.438  14.984 -0.2434 -0.4634  0.4008
  892MPD2    C413074   3.785   4.396  15.096 -0.0278  0.7363  0.9221
  892MPD2    C513075   3.745   4.443  15.213 -0.3555  0.5093  1.2251
  892MPD2     H13076   3.576   4.577  14.911 -1.4971 -1.7274 -0.7866
  892MPD2    H113077   3.856   4.314  15.088 -0.1869  0.5901  1.0238
  892MPD2    H213078   3.612   4.552  15.334 -1.8386  1.4544 -0.4412
  892MPD2    H313079   3.793   4.398  15.299  0.0527 -1.5048 -0.0561
  892MPD2     N13080   3.738   4.375  14.858 -0.1166  0.1050 -0.1467
  892MPD2    H513081   3.812   4.307  14.849 -0.4516 -0.2767 -0.0304
  892MPD2    N113082   3.466   4.668  15.148  0.1118  0.1859  0.3496
  892MPD2    H713083   3.438   4.685  15.244  1.4502  0.7555  0.6398
  893MPD2     C13084   1.215   4.111   1.373 -0.7429  0.1044 -0.0216
  893MPD2    C113085   1.249   4.103   1.509  0.1283 -0.0216 -0.3037
  893MPD2    C213086   1.151   4.119   1.606 -0.1538  0.7321  0.4665
  893MPD2    C313087   1.017   4.126   1.575  0.0071  0.2932  0.1677
  893MPD2    C413088   0.983   4.132   1.443 -0.1908  0.3486  0.1598
  893MPD2    C513089   1.082   4.132   1.345  0.0576 -0.9320  0.0928
  893MPD2     H13090   1.189   4.115   1.707 -1.1111 -1.5760  0.7459
  893MPD2    H113091   0.880   4.141   1.410 -1.4777 -1.1925  3.7706
  893MPD2    H213092   1.283   4.097   1.290  1.0705  0.5934  1.4097
  893MPD2    H313093   1.054   4.141   1.240  2.3757 -1.2529 -0.5703
  893MPD2     N13094   0.909   4.133   1.668 -0.1028  0.7016  0.4948
  893MPD2    H513095   0.814   4.127   1.632 -0.9340  1.1670  2.6448
  893MPD2    N113096   1.386   4.083   1.537  0.3212  0.0349  0.7306
  893MPD2    H713097   1.450   4.099   1.459 -3.1111  1.0280 -1.8826
  894MPD2     C13098   3.568   1.386   0.955  0.6016  0.8239  0.2845
  894MPD2    C113099   3.607   1.397   1.091  0.0249  0.4852  0.0532
  894MPD2    C213100   3.737   1.444   1.118  0.1785 -1.0586 -1.0029
  894MPD2    C313101   3.821   1.475   1.020  0.5511  0.2851  0.7296
  894MPD2    C413102   3.784   1.459   0.891  0.8703  0.0086 -0.0864
  894MPD2    C513103   3.660   1.417   0.860  0.8109 -0.2077 -0.4265
  894MPD2     H13104   3.774   1.450   1.220  1.7056 -1.3411 -1.5398
  894MPD2    H113105   3.851   1.484   0.809  0.9632 -2.6305 -0.7920
  894MPD2    H213106   3.468   1.358   0.925  1.2424  0.7731 -1.8033
  894MPD2    H313107   3.634   1.402   0.756 -2.0614 -1.5779  0.4933
  894MPD2     N13108   3.944   1.526   1.065  0.5309  0.5586  0.3048
  894MPD2    H513109   3.943   1.540   1.165  1.2927 -0.3903  0.4443
  894MPD2    N113110   3.526   1.357   1.203  0.3105  0.0934 -0.1518
  894MPD2    H713111   3.573   1.346   1.292  0.2949 -0.4515 -0.2124
  895MPD2     C13112   2.636   4.000  14.044 -0.5901 -0.6300  0.0046
  895MPD2    C113113   2.556   4.072  13.957 -0.5781  0.3592 -0.5828
  895MPD2    C213114   2.586   4.090  13.824  0.0584 -0.2737 -0.4225
  895MPD2    C313115   2.709   4.049  13.782  0.2392  0.1667 -0.2840
  895MPD2    C413116   2.793   3.984  13.874  0.0565 -0.5055 -0.0749
  895MPD2    C513117   2.756   3.954  14.003  0.6521 -0.1535  0.4681
  895MPD2     H13118   2.517   4.151  13.767  1.5674  1.3145 -0.5582
  895MPD2    H113119   2.892   3.949  13.847  1.3720  1.5756  2.1115
  895MPD2    H213120   2.620   3.985  14.150  1.0798 -2.1990  0.0238
  895MPD2    H313121   2.823   3.894  14.063  1.7874  0.4317 -0.1932
  895MPD2     N13122   2.739   4.074  13.645 -0.2917  0.5172 -0.3328
  895MPD2    H513123   2.658   4.108  13.594 -1.0499  1.6831  1.6638
  895MPD2    N113124   2.432   4.140  13.995 -0.6875 -0.1698 -0.2596
  895MPD2    H713125   2.395   4.211  13.933  0.3399 -0.1726 -0.8888
  896MPD2     C13126   0.882   1.959   1.569 -0.9381  0.2726 -0.1281
  896MPD2    C113127   0.874   1.958   1.431 -0.8879 -0.2925  0.0999
  896MPD2    C213128   0.774   1.885   1.370  0.3392 -0.6552  0.2650
  896MPD2    C313129   0.691   1.804   1.446 -0.1003  0.4732  0.2010
  896MPD2    C413130   0.702   1.805   1.582  1.0641 -0.4358 -0.3327
  896MPD2    C513131   0.795   1.879   1.640 -0.7419 -1.0767 -0.0988
  896MPD2     H13132   0.760   1.870   1.263  1.7432  0.8196 -0.1285
  896MPD2    H113133   0.629   1.757   1.647  1.2694  0.0556  0.2656
  896MPD2    H213134   0.955   2.022   1.618 -0.5575 -1.3943  1.4506
  896MPD2    H313135   0.799   1.872   1.748 -0.6882  1.0333  0.0268
  896MPD2     N13136   0.583   1.735   1.378 -0.5964  0.2434  0.2027
  896MPD2    H513137   0.572   1.740   1.277  0.6981 -1.6075 -0.0359
  896MPD2    N113138   0.971   2.043   1.369 -0.3457 -0.8581  0.4785
  896MPD2    H713139   1.028   2.101   1.430  0.3482  1.9432 -2.8476
  897MPD2     C13140   1.742   3.214  10.503 -0.3323 -0.5330 -0.2305
  897MPD2    C113141   1.681   3.303  10.594  0.0468 -0.4734 -0.3829
  897MPD2    C213142   1.558   3.266  10.639  0.2518 -0.2257  0.2435
  897MPD2    C313143   1.490   3.149  10.604 -0.3582 -0.3270 -0.0800
  897MPD2    C413144   1.558   3.063  10.521  0.8473 -0.2483 -0.0841
  897MPD2    C513145   1.678   3.096  10.469 -0.1655 -0.4380 -0.7309
  897MPD2     H13146   1.503   3.338  10.699 -0.2909 -1.8484  1.6753
  897MPD2    H113147   1.520   2.967  10.489  1.5770 -0.2657 -0.9048
  897MPD2    H213148   1.835   3.225  10.449 -0.6961  1.2502 -0.4938
  897MPD2    H313149   1.717   3.046  10.381  2.1931  2.6908 -1.4835
  897MPD2     N13150   1.365   3.121  10.665 -0.2287  0.3021 -0.3515
  897MPD2    H513151   1.324   3.184  10.733  1.9566 -0.5839  1.7633
  897MPD2    N113152   1.739   3.429  10.622 -0.2367  0.2628  0.3149
  897MPD2    H713153   1.813   3.458  10.559 -0.0266 -0.2351  0.3299
  898MPD2     C13154   3.328   4.504   0.248 -0.2441  0.2496  0.1972
  898MPD2    C113155   3.401   4.436   0.163 -0.2952  0.2115  0.3733
  898MPD2    C213156   3.395   4.468   0.032  0.1192 -0.3508 -0.0098
  898MPD2    C313157   3.321   4.581  17.675  0.2247 -0.3811  0.1495
  898MPD2    C413158   3.240   4.648   0.084 -0.9437 -1.0683  0.0662
  898MPD2    C513159   3.246   4.609   0.212 -0.4625  0.1529  0.2493
  898MPD2     H13160   3.452   4.414  17.647 -1.2164 -3.3243  1.0823
  898MPD2    H113161   3.179   0.012   0.061  1.1852 -0.1136 -1.9540
  898MPD2    H213162   3.332   4.483   0.354  0.1076 -2.4087 -0.3350
  898MPD2    H313163   3.194   4.663   0.290 -0.4633 -0.5939  0.7631
  898MPD2     N13164   3.330   4.617  17.540  0.4854  1.0857 -0.3373
  898MPD2    H513165   3.395   4.565  17.481 -0.9248 -1.0574  0.0031
  898MPD2    N113166   3.491   4.334   0.197  0.6746  0.2256 -0.2917
  898MPD2    H713167   3.557   4.306   0.125 -0.2284 -0.4947 -0.8405
  899MPD2     C13168   4.271   0.019   0.148  0.5903 -0.1869 -0.5931
  899MPD2    C113169   4.296   0.153   0.194  0.0153  0.0116  0.5041
  899MPD2    C213170   4.259   0.179   0.322  0.0409 -0.3230 -0.1728
  899MPD2    C313171   4.175   0.086   0.389  0.7343 -0.2132 -0.3267
  899MPD2    C413172   4.156   4.686   0.342  0.0744 -0.0429 -0.4492
  899MPD2    C513173   4.204   4.647   0.218 -0.4574  0.1562 -0.3377
  899MPD2     H13174   4.267   0.281   0.356  3.5221 -0.8227  0.4840
  899MPD2    H113175   4.102   4.608   0.394 -0.0599  1.1895  1.2272
  899MPD2    H213176   4.301   4.716   0.047  1.6408  0.5698 -0.4705
  899MPD2    H313177   4.195   4.548   0.174 -1.9895  1.1604 -2.2502
  899MPD2     N13178   4.127   0.118   0.514  0.5379  0.5683  0.0396
  899MPD2    H513179   4.052   0.062   0.553  0.6045 -1.5160 -2.7685
  899MPD2    N113180   4.368   0.243   0.110  0.5468 -0.1429  0.1579
  899MPD2    H713181   4.390   0.202   0.019  0.9515 -0.2005  0.2830
  900MPD2     C13182   4.173   1.689  12.639  0.0942  0.4106  0.2028
  900MPD2    C113183   4.105   1.643  12.748  0.1128 -0.3758 -0.2294
  900MPD2    C213184   3.965   1.633  12.739  0.4002  0.6095 -0.4519
  900MPD2    C313185   3.884   1.668  12.629  0.4404 -0.1519 -0.3270
  900MPD2    C413186   3.955   1.718  12.522 -0.1894  0.6536 -0.1529
  900MPD2    C513187   4.095   1.728  12.533 -0.6670  0.4101 -0.5039
  900MPD2     H13188   3.900   1.607  12.822  0.2384  2.2130 -0.0704
  900MPD2    H113189   3.907   1.754  12.432 -0.6128  0.0703 -0.1593
  900MPD2    H213190   4.281   1.695  12.635  0.0429 -0.7965 -2.7994
  900MPD2    H313191   4.141   1.775  12.447 -0.8561  1.0596 -0.2525
  900MPD2     N13192   3.750   1.647  12.626  0.1883 -0.1010 -0.5734
  900MPD2    H513193   3.713   1.599  12.708  0.5011  1.2377  0.3531
  900MPD2    N113194   4.178   1.618  12.864 -0.9385 -0.2549  0.2485
  900MPD2    H713195   4.279   1.627  12.863 -0.9204 -0.5197 -0.6808
  901MPD2     C13196   4.051   0.837  13.453 -0.2129  0.0739 -0.2524
  901MPD2    C113197   4.078   0.856  13.315 -0.2219 -0.2313  0.3289
  901MPD2    C213198   4.108   0.985  13.282  0.0669 -0.0782 -0.5657
  901MPD2    C313199   4.134   1.090  13.373  0.1422 -0.3809  0.0244
  901MPD2    C413200   4.113   1.067  13.507  0.0045 -0.4764 -0.5006
  901MPD2    C513201   4.070   0.941  13.542  0.6241  0.2954 -0.2273
  901MPD2     H13202   4.112   1.009  13.176  0.1933 -1.3671 -0.8593
  901MPD2    H113203   4.110   1.144  13.583 -1.8491 -0.3266 -0.7248
  901MPD2    H213204   4.005   0.746  13.491 -0.0948  0.8588  1.7643
  901MPD2    H313205   4.044   0.928  13.647  1.0828 -1.0664 -0.2923
  901MPD2     N13206   4.164   1.219  13.313 -0.5968 -0.3158 -0.1472
  901MPD2    H513207   4.165   1.229  13.212  1.2659  1.8714  0.0917
  901MPD2    N113208   4.066   0.751  13.224  0.3098  0.2483 -0.6420
  901MPD2    H713209   4.014   0.669  13.253 -0.8929  1.0455 -0.5628
  902MPD2     C13210   3.045   4.563  12.902  0.2485 -0.3818 -0.0274
  902MPD2    C113211   2.933   4.527  12.830 -0.7647  0.1372 -0.4916
  902MPD2    C213212   2.950   4.426  12.732 -0.1532 -0.1548 -0.0002
  902MPD2    C313213   3.063   4.350  12.724  0.3073 -0.6464  0.5441
  902MPD2    C413214   3.168   4.382  12.804 -0.3298 -0.5930 -0.4491
  902MPD2    C513215   3.157   4.488  12.892 -0.6808  1.1508 -0.2941
  902MPD2     H13216   2.862   4.386  12.682 -0.4690 -0.4577  0.7940
  902MPD2    H113217   3.263   4.329  12.795 -0.6373 -1.1507 -0.3694
  902MPD2    H213218   3.049   4.643  12.975 -0.7835  0.4560 -0.8991
  902MPD2    H313219   3.246   4.515  12.947 -0.3306  0.4845 -0.5340
  902MPD2     N13220   3.085   4.241  12.638  0.8955 -0.9688 -0.2498
  902MPD2    H513221   3.155   4.173  12.666  0.3107 -1.5309 -0.1417
  902MPD2    N113222   2.816   4.598  12.842  0.3670 -0.8793  0.9604
  902MPD2    H713223   2.811   4.668  12.916 -0.3521 -0.5976  0.6440
  903MPD2     C13224   2.721   3.987  11.876  0.4186  0.1144  0.2038
  903MPD2    C113225   2.695   3.946  12.006 -0.1198  0.2543  0.4792
  903MPD2    C213226   2.571   3.907  12.055 -0.4532  0.4584  0.2054
  903MPD2    C313227   2.459   3.919  11.970 -0.3052  0.1907  0.3561
  903MPD2    C413228   2.487   3.956  11.839 -0.2617 -0.7018 -0.3635
  903MPD2    C513229   2.612   3.989  11.797 -0.2383 -0.3141 -0.1011
  903MPD2     H13230   2.560   3.883  12.160  1.9887  3.1623  1.0704
  903MPD2    H113231   2.409   3.975  11.766 -0.0161  1.3877 -0.1019
  903MPD2    H213232   2.813   4.017  11.827  1.3475  1.8459  2.9818
  903MPD2    H313233   2.630   4.006  11.692 -0.7749  1.8425  0.1645
  903MPD2     N13234   2.329   3.900  12.019  0.5400  0.2155  0.4623
  903MPD2    H513235   2.320   3.868  12.115 -1.0218 -3.4611 -0.8833
  903MPD2    N113236   2.803   3.955  12.101  0.2794 -0.5356  0.3010
  903MPD2    H713237   2.885   4.002  12.065  0.7388 -0.7084  1.1410
  904MPD2     C13238   2.902   3.676  13.678  0.0384  0.0407  0.3220
  904MPD2    C113239   2.841   3.651  13.802 -0.1645 -0.2527 -0.6013
  904MPD2    C213240   2.929   3.630  13.909  0.6480  0.2366  0.0296
  904MPD2    C313241   3.066   3.642  13.895 -0.6127 -0.1596 -0.0526
  904MPD2    C413242   3.118   3.664  13.770  0.2200 -0.1827 -0.0034
  904MPD2    C513243   3.034   3.679  13.663  0.2861  0.2136  0.3560
  904MPD2     H13244   2.880   3.605  14.002 -0.8563  1.8680 -0.3208
  904MPD2    H113245   3.223   3.689  13.768  0.7670 -2.4436 -0.0844
  904MPD2    H213246   2.843   3.678  13.587  1.1956 -1.5689 -0.4650
  904MPD2    H313247   3.080   3.692  13.565 -2.2739 -1.6709 -1.0762
  904MPD2     N13248   3.158   3.618  13.999 -0.3571 -0.3142 -0.6056
  904MPD2    H513249   3.250   3.604  13.959 -0.0167  2.0031 -0.6001
  904MPD2    N113250   2.697   3.638  13.819  0.0159 -0.5848  0.8095
  904MPD2    H713251   2.632   3.631  13.742  0.4703  1.6118  0.2153
  905MPD2     C13252   2.220   4.112  13.720  0.1436  0.3877 -0.1303
  905MPD2    C113253   2.258   3.999  13.657  0.0598 -0.0487 -0.3213
  905MPD2    C213254   2.333   4.010  13.543 -0.2038 -0.1168 -0.1007
  905MPD2    C313255   2.360   4.129  13.480 -0.1034 -0.2138  0.6647
  905MPD2    C413256   2.314   4.242  13.544 -0.2485  0.1603 -0.0193
  905MPD2    C513257   2.249   4.232  13.662  0.2116  0.0992 -0.1022
  905MPD2     H13258   2.367   3.919  13.494 -0.2330  1.5096 -3.1758
  905MPD2    H113259   2.338   4.343  13.514  0.3814 -0.0634 -0.2722
  905MPD2    H213260   2.167   4.104  13.814  2.1216 -0.5900  0.8979
  905MPD2    H313261   2.220   4.314  13.727  0.3201 -1.0613  1.4089
  905MPD2     N13262   2.449   4.134  13.369  0.6467 -0.4199 -0.0327
  905MPD2    H513263   2.482   4.229  13.352  0.9074 -0.4014  0.5703
  905MPD2    N113264   2.227   3.879  13.723 -0.3723 -0.0021 -0.5889
  905MPD2    H713265   2.190   3.889  13.817  0.9472 -1.6249  0.1198
  906MPD2     C13266   4.655   3.696  11.352  0.5240  0.1904  0.0168
  906MPD2    C113267   4.638   3.563  11.307 -0.5621  0.0329  0.1174
  906MPD2    C213268   4.556   3.479  11.376 -0.4031  0.5725  0.3653
  906MPD2    C313269   4.510   3.513  11.500  0.4667 -0.1324 -0.2599
  906MPD2    C413270   4.530   3.639  11.550 -0.2999  0.1266  0.1113
  906MPD2    C513271   4.600   3.727  11.474 -0.3142  0.1404 -0.0458
  906MPD2     H13272   4.545   3.379  11.335 -0.2537  0.3198  0.9545
  906MPD2    H113273   4.496   3.682  11.643 -2.4938  0.7247 -0.9580
  906MPD2    H213274   4.706   3.779  11.305  0.9047  0.8735  1.6058
  906MPD2    H313275   4.605   3.833  11.498  1.2871  0.1374 -0.3429
  906MPD2     N13276   4.433   3.419  11.576  0.3767 -0.0673 -0.4574
  906MPD2    H513277   4.399   3.340  11.521 -1.1675  0.5960 -0.4574
  906MPD2    N113278   4.704   3.512  11.194  0.4559 -0.1367 -0.2957
  906MPD2    H713279   4.670   3.419  11.172 -1.1866  0.4567 -0.2849
  907MPD2     C13280   3.819   2.782  15.232  0.2241  0.7015  0.5779
  907MPD2    C113281   3.903   2.683  15.176 -0.4140  0.5072 -0.1856
  907MPD2    C213282   4.031   2.672  15.218 -0.2134 -0.5863 -0.0735
  907MPD2    C313283   4.079   2.757  15.318 -0.5295  0.5698  0.0872
  907MPD2    C413284   3.992   2.842  15.384  0.0421  0.0884  0.0944
  907MPD2    C513285   3.865   2.857  15.335 -0.4907  0.1145  0.4678
  907MPD2     H13286   4.095   2.596  15.174 -1.2215 -1.6391  0.2829
  907MPD2    H113287   4.026   2.922  15.449  0.9187 -0.8804  0.8250
  907MPD2    H213288   3.716   2.803  15.208  0.1795  0.0146  0.1678
  907MPD2    H313289   3.804   2.934  15.382 -0.8023 -1.4842  2.6618
  907MPD2     N13290   4.217   2.753  15.343 -0.7370 -0.5081 -0.1318
  907MPD2    H513291   4.273   2.680  15.300 -0.5515  0.0171 -0.7847
  907MPD2    N113292   3.864   2.598  15.070 -0.1906  0.3213 -0.7063
  907MPD2    H713293   3.929   2.530  15.030  0.9626  1.6530 -1.0721
  908MPD2     C13294   1.951   3.757   9.930 -0.7264  0.3028  0.2178
  908MPD2    C113295   1.863   3.659   9.979  0.6414  0.2790 -0.7477
  908MPD2    C213296   1.809   3.676  10.106 -0.1484  0.3731 -0.4593
  908MPD2    C313297   1.843   3.774  10.182 -0.4765  0.2774  0.4496
  908MPD2    C413298   1.912   3.878  10.126  0.7598 -0.1641 -0.6114
  908MPD2    C513299   1.966   3.871  10.001 -0.0839  0.7104  0.0303
  908MPD2     H13300   1.736   3.608  10.146  0.4480  0.4231  0.7364
  908MPD2    H113301   1.930   3.966  10.187  0.4502  1.2861 -2.6306
  908MPD2    H213302   2.001   3.748   9.834 -0.7125 -0.8072  0.3197
  908MPD2    H313303   2.030   3.956   9.980 -0.0539  0.4324 -1.0421
  908MPD2     N13304   1.789   3.773  10.312  0.5431  0.2462 -0.0235
  908MPD2    H513305   1.732   3.692  10.331 -2.4343  2.3827  0.2324
  908MPD2    N113306   1.819   3.556   9.895 -0.0326 -0.1060  0.0528
  908MPD2    H713307   1.863   3.568   9.805 -0.7126  0.7964 -0.1632
  909MPD2     C13308   2.076   0.864  11.560 -0.2589  0.0135 -0.1077
  909MPD2    C113309   2.019   0.963  11.478 -1.5025  0.0229 -0.4514
  909MPD2    C213310   1.918   1.043  11.527 -0.0726 -0.5948 -0.0249
  909MPD2    C313311   1.888   1.046  11.655  0.1379  0.1271  0.3081
  909MPD2    C413312   1.945   0.960  11.743 -0.4432  0.3267  0.4804
  909MPD2    C513313   2.040   0.872  11.694  0.1984 -0.5749  0.2603
  909MPD2     H13314   1.881   1.118  11.457 -1.1377 -0.2862  0.8674
  909MPD2    H113315   1.917   0.957  11.848 -0.4977 -1.4195  0.4201
  909MPD2    H213316   2.157   0.794  11.541 -1.0156 -0.8881 -0.0014
  909MPD2    H313317   2.079   0.800  11.765  2.4756 -1.7792 -2.2034
  909MPD2     N13318   1.800   1.152  11.688  0.2820  0.3294  0.2026
  909MPD2    H513319   1.772   1.204  11.605 -0.8787  0.4863  0.6852
  909MPD2    N113320   2.051   0.977  11.344  0.2157  0.5320 -0.6424
  909MPD2    H713321   2.004   1.047  11.289  0.5255  1.2129 -0.0364
  910MPD2     C13322   3.053   3.529  16.548  0.1746 -0.1326  0.4702
  910MPD2    C113323   3.093   3.439  16.453  0.5342  0.0340  0.5956
  910MPD2    C213324   3.059   3.477  16.327  0.4349  0.0103 -0.3304
  910MPD2    C313325   2.980   3.587  16.297 -0.2659  0.0473  0.9204
  910MPD2    C413326   2.939   3.670  16.398  0.0360 -0.4796 -0.3963
  910MPD2    C513327   2.977   3.642  16.528 -0.8403 -0.1190 -0.0460
  910MPD2     H13328   3.101   3.423  16.243  0.7787  0.7103 -0.6079
  910MPD2    H113329   2.871   3.754  16.386 -0.3436 -0.5191  1.4183
  910MPD2    H213330   3.081   3.523  16.653  1.7879 -2.6598 -0.1175
  910MPD2    H313331   2.956   3.709  16.610  1.9110  0.7456 -0.0641
  910MPD2     N13332   2.922   3.611  16.170  0.0782 -0.1121 -0.4113
  910MPD2    H513333   2.869   3.697  16.166 -0.5119 -0.4757 -0.2999
  910MPD2    N113334   3.162   3.323  16.476  0.1791  0.4551  0.1701
  910MPD2    H713335   3.204   3.276  16.398 -2.1212  3.0275 -2.6322
  911MPD2     C13336   1.159   3.696  16.844 -0.5411  0.4464  0.7206
  911MPD2    C113337   1.235   3.779  16.923  0.0464 -0.9277  0.0917
  911MPD2    C213338   1.205   3.913  16.928 -0.4020 -0.7222  0.0647
  911MPD2    C313339   1.096   3.963  16.853 -0.4185 -0.2029  0.0919
  911MPD2    C413340   1.023   3.872  16.780  0.4015 -0.7874  0.3195
  911MPD2    C513341   1.053   3.739  16.780 -0.1541  0.1323  0.3481
  911MPD2     H13342   1.264   3.986  16.982 -0.4814 -1.2884  0.9054
  911MPD2    H113343   0.945   3.902  16.711  1.7301 -1.1196 -1.3289
  911MPD2    H213344   1.181   3.590  16.840 -1.4533  0.3618 -1.9068
  911MPD2    H313345   0.993   3.665  16.729  0.0660  0.0518  0.2073
  911MPD2     N13346   1.064   4.102  16.827 -0.1699  0.2290  0.0142
  911MPD2    H513347   1.001   4.107  16.747  1.5620  0.5944 -1.3190
  911MPD2    N113348   1.341   3.726  17.002  0.0274 -0.2592  0.3938
  911MPD2    H713349   1.362   3.627  16.987 -1.5423 -0.9777  3.0168
  912MPD2     C13350   0.632   4.241  16.264 -0.6218 -0.0218 -0.5316
  912MPD2    C113351   0.703   4.184  16.368  0.1255 -0.1025 -0.2761
  912MPD2    C213352   0.707   4.048  16.390 -0.0172 -0.0878  0.8247
  912MPD2    C313353   0.610   3.969  16.334 -0.1808 -0.3015  0.3307
  912MPD2    C413354   0.522   4.024  16.244 -0.7180 -0.1190  0.0223
  912MPD2    C513355   0.537   4.153  16.214  0.5981  0.4015  0.2995
  912MPD2     H13356   0.790   4.004  16.446  2.1894  3.2911  0.2249
  912MPD2    H113357   0.446   3.972  16.186 -0.0329  0.7665 -1.6512
  912MPD2    H213358   0.626   4.345  16.234 -0.5293 -0.3138 -1.5677
  912MPD2    H313359   0.465   4.189  16.143 -0.3314 -2.7502 -0.3632
  912MPD2     N13360   0.603   3.836  16.375 -0.3369  0.7205  0.2212
  912MPD2    H513361   0.680   3.801  16.431 -1.1855 -3.5949 -1.3314
  912MPD2    N113362   0.787   4.269  16.440  0.1659 -0.2706  0.1664
  912MPD2    H713363   0.779   4.366  16.412  1.7002 -0.1346  0.2014
  913MPD2     C13364   1.850   0.384  10.714  0.0626  0.3514 -0.1353
  913MPD2    C113365   1.765   0.446  10.802  0.1354  0.0757 -0.6862
  913MPD2    C213366   1.696   0.553  10.759  0.4142 -0.8703  0.5421
  913MPD2    C313367   1.710   0.603  10.629  0.4333  0.3245 -0.2488
  913MPD2    C413368   1.809   0.545  10.549  0.1310  0.0623  0.0309
  913MPD2    C513369   1.876   0.437  10.593 -0.0853  0.4494  0.0596
  913MPD2     H13370   1.631   0.610  10.825  0.8012 -0.0999  0.2480
  913MPD2    H113371   1.835   0.588  10.453 -0.4508  0.0934 -0.1182
  913MPD2    H213372   1.913   0.300  10.742  0.4613  1.0184  0.9754
  913MPD2    H313373   1.957   0.395  10.534 -0.4531 -2.2699  1.5094
  913MPD2     N13374   1.628   0.708  10.580  0.2433  0.3724  0.5192
  913MPD2    H513375   1.636   0.725  10.480  0.5992 -0.3565  0.4239
  913MPD2    N113376   1.748   0.380  10.923 -0.1194 -0.4262  0.6967
  913MPD2    H713377   1.799   0.292  10.933 -0.4546 -0.6095  0.7783
  914MPD2     C13378   3.802   1.001  12.350  0.0893  0.2963  0.8666
  914MPD2    C113379   3.888   1.050  12.442  0.1107  0.0689 -0.1887
  914MPD2    C213380   3.935   0.972  12.551 -0.0922 -0.4778  0.2044
  914MPD2    C313381   3.914   0.839  12.549  0.7050  0.0739  0.1551
  914MPD2    C413382   3.826   0.794  12.457 -0.3108 -0.2976  0.3095
  914MPD2    C513383   3.767   0.872  12.362  0.1958  0.0337 -0.0624
  914MPD2     H13384   4.002   1.021  12.621  0.0292  0.3524 -0.4809
  914MPD2    H113385   3.782   0.695  12.459 -0.5589 -0.1690  1.1893
  914MPD2    H213386   3.753   1.059  12.272  1.6120  0.2182 -0.1564
  914MPD2    H313387   3.698   0.822  12.294 -1.0719  1.5872  0.0728
  914MPD2     N13388   3.955   0.766  12.663  0.0345 -0.2102  0.4663
  914MPD2    H513389   4.010   0.808  12.737  0.9180  1.2772 -1.0236
  914MPD2    N113390   3.924   1.183  12.427  0.1050  0.3325 -0.4572
  914MPD2    H713391   3.874   1.230  12.352  0.5421  0.8901 -0.3971
  915MPD2     C13392   2.567   0.580  15.951  0.2351  0.5864  0.3730
  915MPD2    C113393   2.442   0.645  15.963  0.0477  0.1330  0.8510
  915MPD2    C213394   2.378   0.656  16.085  0.1437  0.6004  0.8727
  915MPD2    C313395   2.453   0.624  16.198 -0.0182 -0.2744  0.0630
  915MPD2    C413396   2.580   0.572  16.187 -0.1911  0.0729  0.0885
  915MPD2    C513397   2.637   0.545  16.061  0.2039 -0.3577 -0.7791
  915MPD2     H13398   2.283   0.704  16.100 -0.6250 -0.1633 -1.5310
  915MPD2    H113399   2.639   0.547  16.275  0.8984  1.0541 -0.3672
  915MPD2    H213400   2.611   0.576  15.853  1.4973 -0.7739  1.0148
  915MPD2    H313401   2.736   0.503  16.052 -0.1014 -1.0983 -0.7130
  915MPD2     N13402   2.389   0.650  16.328  0.5402 -0.4867  0.3602
  915MPD2    H513403   2.288   0.663  16.320  0.4700  0.0301  2.0982
  915MPD2    N113404   2.379   0.698  15.844 -0.7575  0.2041  0.2333
  915MPD2    H713405   2.432   0.676  15.760  0.8145 -1.1769  1.5583
  916MPD2     C13406   0.435   3.512  15.956  0.1240  0.2803  0.3109
  916MPD2    C113407   0.374   3.417  16.039 -0.0749 -0.8492  0.5502
  916MPD2    C213408   0.389   3.283  16.018  0.7515 -0.0754  0.3923
  916MPD2    C313409   0.452   3.242  15.907  0.4802  0.1693  0.5747
  916MPD2    C413410   0.509   3.337  15.817 -1.2234  0.5521  0.1137
  916MPD2    C513411   0.505   3.469  15.855  0.1118  0.1326  1.0668
  916MPD2     H13412   0.342   3.210  16.083  0.0821  2.3119  2.5830
  916MPD2    H113413   0.563   3.313  15.727 -0.6547  0.4388  0.4829
  916MPD2    H213414   0.432   3.618  15.980  1.2012  0.5540 -0.7687
  916MPD2    H313415   0.556   3.546  15.798  0.6906 -0.8592  0.2341
  916MPD2     N13416   0.464   3.100  15.891 -0.4977 -0.1831 -0.1221
  916MPD2    H513417   0.417   3.044  15.962  0.5703 -0.7419  0.1461
  916MPD2    N113418   0.297   3.466  16.151  0.0954  0.7066  0.2127
  916MPD2    H713419   0.264   3.562  16.154 -1.0410  0.2499  2.3406
  917MPD2     C13420   0.708   0.988  11.346  0.1276  0.4207 -0.8280
  917MPD2    C113421   0.759   1.091  11.425  0.0985 -0.4484 -0.0843
  917MPD2    C213422   0.847   1.174  11.362 -0.0362 -0.3966 -0.1553
  917MPD2    C313423   0.884   1.164  11.227 -0.7881  0.9193  0.8177
  917MPD2    C413424   0.839   1.048  11.162  0.7119  0.1870 -0.6758
  917MPD2    C513425   0.756   0.962  11.223  0.1350  0.0371 -0.5017
  917MPD2     H13426   0.887   1.257  11.420 -0.3527  1.8802 -3.1820
  917MPD2    H113427   0.875   1.011  11.067 -1.9143  0.4619 -1.7985
  917MPD2    H213428   0.648   0.909  11.390  1.1239  1.4237  2.3228
  917MPD2    H313429   0.718   0.880  11.164  0.1178 -1.7359  1.9860
  917MPD2     N13430   0.971   1.257  11.164 -0.4539 -0.0196  0.2545
  917MPD2    H513431   1.012   1.329  11.223 -0.2432  2.0888 -2.5030
  917MPD2    N113432   0.691   1.109  11.548 -0.2641 -0.1716 -0.0680
  917MPD2    H713433   0.609   1.054  11.570 -0.7507  0.6299  0.1148
  918MPD2     C13434   0.585   1.583  12.479 -0.1125 -0.1668  0.5309
  918MPD2    C113435   0.702   1.563  12.409  0.7228 -0.7125 -0.0965
  918MPD2    C213436   0.702   1.524  12.277  0.1690  0.1952  0.3435
  918MPD2    C313437   0.587   1.517  12.202 -0.4028 -0.3169  0.9043
  918MPD2    C413438   0.471   1.554  12.265  0.1163  0.0835 -0.1424
  918MPD2    C513439   0.472   1.587  12.402 -0.7443 -0.3565 -0.1181
  918MPD2     H13440   0.789   1.483  12.227 -0.2108  0.0535 -0.2048
  918MPD2    H113441   0.375   1.537  12.217  1.0295  1.0508 -2.2982
  918MPD2    H213442   0.573   1.594  12.587 -0.7086 -0.3378  0.4838
  918MPD2    H313443   0.377   1.609  12.450 -0.3178  1.6591 -0.2086
  918MPD2     N13444   0.595   1.474  12.068  0.5706  1.2703  0.0132
  918MPD2    H513445   0.685   1.435  12.040  0.0541 -0.9106  1.4074
  918MPD2    N113446   0.825   1.565  12.473  1.0452  0.1322 -0.1414
  918MPD2    H713447   0.905   1.570  12.411  1.6134  1.7274  0.7206
  919MPD2     C13448   0.902   0.527  12.007 -0.1560 -0.3372  0.0964
  919MPD2    C113449   0.834   0.410  11.981  0.4167  0.5955  0.1694
  919MPD2    C213450   0.816   0.366  11.853 -0.9387  0.0204 -0.9142
  919MPD2    C313451   0.873   0.427  11.745 -0.5799 -0.9103  0.3927
  919MPD2    C413452   0.944   0.541  11.768 -0.2309  0.0996  0.2404
  919MPD2    C513453   0.961   0.588  11.896 -0.1861  0.0796  0.1509
  919MPD2     H13454   0.769   0.271  11.827 -1.4489 -0.0702  0.3794
  919MPD2    H113455   1.012   0.585  11.696  0.2658 -0.8890  0.1119
  919MPD2    H213456   0.916   0.570  12.105 -1.2927  0.0496  0.0857
  919MPD2    H313457   1.028   0.672  11.908 -3.0305  2.1927  1.4308
  919MPD2     N13458   0.852   0.383  11.611  0.0021  0.6234  0.1179
  919MPD2    H513459   0.906   0.419  11.534  0.9378  0.9403  0.9245
  919MPD2    N113460   0.769   0.336  12.083  0.3943  0.7525  0.6098
  919MPD2    H713461   0.725   0.251  12.051  1.0118  0.0890  1.5410
  920MPD2     C13462   1.272   0.478  10.771 -0.2628 -0.1582 -0.2219
  920MPD2    C113463   1.143   0.456  10.727 -0.4016 -0.0553  0.4509
  920MPD2    C213464   1.050   0.400  10.822  0.1777 -0.6262  0.3929
  920MPD2    C313465   1.086   0.371  10.954 -0.4400  0.1763 -0.5604
  920MPD2    C413466   1.219   0.383  10.988  0.1795 -0.0180  0.0257
  920MPD2    C513467   1.305   0.435  10.896  0.0602 -0.2733  0.3573
  920MPD2     H13468   0.946   0.399  10.793  0.2830 -0.9112  0.0172
  920MPD2    H113469   1.245   0.373  11.093  0.0772 -0.2766  0.0250
  920MPD2    H213470   1.337   0.519  10.695  0.2364  1.3685  1.0400
  920MPD2    H313471   1.404   0.456  10.934  0.2500 -0.9614  0.2457
  920MPD2     N13472   0.979   0.342  11.048  0.1204 -0.6164 -0.5221
  920MPD2    H513473   0.886   0.346  11.008  0.5113  0.0580 -1.3660
  920MPD2    N113474   1.096   0.461  10.595  0.2183 -0.1885  0.4104
  920MPD2    H713475   1.004   0.425  10.574 -0.2031  1.7670 -1.1712
  921MPD2     C13476   2.205   3.947  17.603 -0.8101 -0.5524  0.3654
  921MPD2    C113477   2.231   3.916  17.472  0.2618  0.2115 -0.2807
  921MPD2    C213478   2.128   3.853  17.395 -0.2542 -0.6247  0.0634
  921MPD2    C313479   2.009   3.825  17.446  0.2973  0.2878  0.1976
  921MPD2    C413480   1.989   3.850  17.583 -0.4461  0.7819  0.0969
  921MPD2    C513481   2.082   3.918  17.657 -0.3394  0.2015  0.2701
  921MPD2     H13482   2.150   3.826  17.292  2.3769  1.1649  0.1535
  921MPD2    H113483   1.894   3.830  17.633 -1.4154  0.7128 -1.7663
  921MPD2    H213484   2.280   3.990  17.667 -1.1208  1.5140 -0.6708
  921MPD2    H313485   2.050   3.947   0.067 -0.8281 -0.2107  0.2285
  921MPD2     N13486   1.921   3.783  17.354 -0.3024 -0.3813  0.1253
  921MPD2    H513487   1.956   3.773  17.259  0.6068 -0.9521  0.5152
  921MPD2    N113488   2.352   3.967  17.425  0.6674 -0.1824  0.7573
  921MPD2    H713489   2.418   4.007  17.491  1.2832  0.5961 -0.3433
  922MPD2     C13490   3.202   1.840   0.511 -0.3107 -0.8474 -0.2363
  922MPD2    C113491   3.161   1.817   0.378 -0.1974 -0.6705 -0.7143
  922MPD2    C213492   3.025   1.798   0.357 -0.1074  0.3302  0.7189
  922MPD2    C313493   2.935   1.789   0.465  0.6757 -0.2432 -0.1657
  922MPD2    C413494   2.975   1.800   0.600  0.0501  0.4918 -0.7789
  922MPD2    C513495   3.106   1.827   0.614  0.5261  0.0070 -0.4110
  922MPD2     H13496   2.986   1.798   0.255  2.2384 -3.6350 -0.1761
  922MPD2    H113497   2.915   1.816   0.689  0.6244  0.0377 -0.3064
  922MPD2    H213498   3.305   1.863   0.535 -0.5086 -2.6343  2.2983
  922MPD2    H313499   3.144   1.842   0.714 -1.4183 -0.2509  0.3473
  922MPD2     N13500   2.798   1.758   0.435 -0.0927  0.2919 -0.2138
  922MPD2    H513501   2.773   1.743   0.338 -0.7427  1.6096 -0.2526
  922MPD2    N113502   3.241   1.834   0.266 -0.7950 -0.4175 -0.2762
  922MPD2    H713503   3.197   1.839   0.175 -2.1121  0.8943  0.4309
  923MPD2     C13504   3.775   2.942  10.359  0.3104 -0.2366  0.6242
  923MPD2    C113505   3.842   3.062  10.329  0.0416 -0.0660  0.1547
  923MPD2    C213506   3.974   3.078  10.363  0.2224 -0.2008  0.6959
  923MPD2    C313507   4.044   2.979  10.420 -0.0731 -0.5610  0.4415
  923MPD2    C413508   3.977   2.863  10.455 -0.5583  0.0741  0.4469
  923MPD2    C513509   3.842   2.848  10.424 -0.0068  0.5646 -0.4590
  923MPD2     H13510   4.020   3.173  10.338  0.0976  0.3697  2.6482
  923MPD2    H113511   4.027   2.782  10.508 -2.2070 -0.3371  1.3966
  923MPD2    H213512   3.671   2.919  10.342 -0.1785  0.9942  1.8883
  923MPD2    H313513   3.796   2.756  10.461  2.3434 -0.4373 -0.0056
  923MPD2     N13514   4.189   2.983  10.415 -0.6111 -0.6228 -0.1839
  923MPD2    H513515   4.233   3.063  10.369  1.8921 -2.2867 -0.6556
  923MPD2    N113516   3.764   3.148  10.242  0.3726  0.0228 -0.0005
  923MPD2    H713517   3.672   3.113  10.219  0.9723 -0.3624 -1.7752
  924MPD2     C13518   4.005   2.262  15.315 -0.3826 -0.7400 -0.0527
  924MPD2    C113519   4.076   2.296  15.431 -0.0020 -0.0856 -0.9835
  924MPD2    C213520   4.203   2.356  15.424  0.1554 -0.2959  0.3497
  924MPD2    C313521   4.257   2.377  15.295  0.1382  1.0510  0.9790
  924MPD2    C413522   4.185   2.338  15.181 -0.5617 -0.6181 -0.3168
  924MPD2    C513523   4.063   2.281  15.195  0.3961  0.4710 -0.2619
  924MPD2     H13524   4.263   2.397  15.504  0.9288 -1.7487  0.5050
  924MPD2    H113525   4.226   2.362  15.084 -1.9988 -2.7063 -1.4286
  924MPD2    H213526   3.900   2.234  15.315 -1.1468  2.1450  1.0198
  924MPD2    H313527   4.003   2.254  15.109  0.4752  0.5245 -0.3339
  924MPD2     N13528   4.375   2.450  15.284 -0.1875 -0.1773 -0.2149
  924MPD2    H513529   4.377   2.508  15.200  0.4250  1.1479  0.7205
  924MPD2    N113530   4.007   2.281  15.556  0.2623  0.6226 -0.8284
  924MPD2    H713531   3.909   2.254  15.548  1.0202 -1.7792 -2.1614
  925MPD2     C13532   2.434   4.698  15.134  0.1323 -0.8139  0.1765
  925MPD2    C113533   2.321   0.028  15.066  0.2334  0.3818  0.2999
  925MPD2    C213534   2.216   0.075  15.142  0.1047  0.3259 -0.7732
  925MPD2    C313535   2.218   0.075  15.279 -0.7112  0.0279  0.2945
  925MPD2    C413536   2.335   0.036  15.342 -0.2871 -0.0939  0.4499
  925MPD2    C513537   2.439   4.716  15.270 -0.8597 -0.0448 -0.8684
  925MPD2     H13538   2.128   0.111  15.092  0.1011  0.7299 -0.4733
  925MPD2    H113539   2.355   0.049  15.448 -3.0519 -0.6898  1.0297
  925MPD2    H213540   2.518   4.651  15.084  0.5193  0.3454 -0.2587
  925MPD2    H313541   2.527   4.678  15.320 -2.6909 -2.1780  0.7302
  925MPD2     N13542   2.100   0.106  15.349 -0.6093  0.3177 -0.4406
  925MPD2    H513543   2.009   0.111  15.304 -0.5150 -1.6069 -0.8754
  925MPD2    N113544   2.306   0.026  14.919  0.4479  0.2686 -0.0005
  925MPD2    H713545   2.217   0.051  14.879  0.6574  1.3918  0.2285
  926MPD2     C13546   1.640   3.223  13.007 -0.6815  0.0871 -0.0068
  926MPD2    C113547   1.531   3.294  12.963 -0.2756 -0.5158  0.6389
  926MPD2    C213548   1.520   3.326  12.834 -0.0533 -0.4950 -0.2473
  926MPD2    C313549   1.617   3.287  12.742  0.1625  0.1067  0.4454
  926MPD2    C413550   1.722   3.210  12.789  0.0057 -0.0368 -0.5928
  926MPD2    C513551   1.735   3.186  12.921  0.0992 -0.1201 -0.0158
  926MPD2     H13552   1.434   3.377  12.792 -0.1588 -1.1310 -0.8077
  926MPD2    H113553   1.795   3.164  12.722  0.5715 -1.3803  0.9566
  926MPD2    H213554   1.661   3.196  13.110  0.2201 -1.1988 -0.5217
  926MPD2    H313555   1.815   3.122  12.957  0.0155  0.0930  0.5453
  926MPD2     N13556   1.619   3.309  12.602  0.1841  0.3554  0.1098
  926MPD2    H513557   1.703   3.275  12.557  0.3926 -1.2149  1.6817
  926MPD2    N113558   1.436   3.347  13.051  0.4320  0.2695 -0.1578
  926MPD2    H713559   1.370   3.414  13.012  0.6970  0.5153 -0.1807
  927MPD2     C13560   1.357   0.291   0.938 -0.1788  0.0482  0.2432
  927MPD2    C113561   1.303   0.233   0.819 -0.2127  0.3021  0.5181
  927MPD2    C213562   1.372   0.237   0.702 -0.1163 -0.2810 -0.8736
  927MPD2    C313563   1.494   0.297   0.685 -0.0810  0.5381  0.3883
  927MPD2    C413564   1.549   0.347   0.805  0.4460 -0.2853 -0.8236
  927MPD2    C513565   1.482   0.345   0.928  0.2469 -0.1851 -0.3652
  927MPD2     H13566   1.331   0.194   0.612 -1.5757  0.7338 -0.6925
  927MPD2    H113567   1.643   0.399   0.812  0.3982 -0.1149 -1.4304
  927MPD2    H213568   1.291   0.289   1.024  0.3977  1.3163  0.7020
  927MPD2    H313569   1.528   0.388   1.016  0.7285 -1.3825 -0.0388
  927MPD2     N13570   1.559   0.297   0.560  0.1288  0.5085 -0.0561
  927MPD2    H513571   1.511   0.258   0.479  0.5304 -1.0842  0.4727
  927MPD2    N113572   1.169   0.188   0.825 -0.2714 -0.9910 -0.1426
  927MPD2    H713573   1.117   0.207   0.910  0.2601 -2.1507  0.4444
  928MPD2     C13574   4.689   3.627   1.252 -0.3405 -0.1191  0.4622
  928MPD2    C113575   4.569   3.685   1.294  0.2722  0.0593 -0.8788
  928MPD2    C213576   4.475   3.715   1.194  0.1297  0.0333  0.9188
  928MPD2    C313577   4.481   3.659   1.065 -0.1114  0.1587 -0.4402
  928MPD2    C413578   4.591   3.573   1.045  0.0407  0.1307  0.1399
  928MPD2    C513579   4.695   3.567   1.130 -0.0931 -0.0920  0.1860
  928MPD2     H13580   4.400   3.787   1.223 -0.9317 -0.9588  0.5986
  928MPD2    H113581   4.600   3.521   0.950  0.4109  2.6979 -1.2306
  928MPD2    H213582   0.042   3.606   1.328  1.5960 -0.7071 -1.5994
  928MPD2    H313583   0.057   3.503   1.109 -1.1356 -1.6874  0.8947
  928MPD2     N13584   4.385   3.692   0.960 -0.2647 -0.8671  0.4107
  928MPD2    H513585   4.399   3.659   0.865 -0.8124  0.3794 -0.0996
  928MPD2    N113586   4.553   3.720   1.430  0.1514  0.7504  0.3503
  928MPD2    H713587   4.632   3.716   1.493  0.5117  1.6532 -0.0407
  929MPD2     C13588   4.024   3.255  11.165  1.0428  0.4347 -0.3624
  929MPD2    C113589   3.936   3.162  11.125 -0.9395  0.3538 -0.6835
  929MPD2    C213590   3.893   3.156  10.995  0.1646  1.0277 -0.5414
  929MPD2    C313591   3.964   3.228  10.898  0.0826 -0.8524  0.3265
  929MPD2    C413592   4.079   3.305  10.943 -0.0309  0.2635  0.4005
  929MPD2    C513593   4.103   3.319  11.079 -0.7509 -0.5433  0.3266
  929MPD2     H13594   3.819   3.084  10.965  1.5321 -0.7149  0.2528
  929MPD2    H113595   4.139   3.369  10.880 -0.7035  0.5395  0.0403
  929MPD2    H213596   4.038   3.275  11.270 -1.0656 -3.1509  0.6093
  929MPD2    H313597   4.169   3.396  11.118 -1.3055 -0.5754  1.3408
  929MPD2     N13598   3.917   3.241  10.762  0.1919 -0.0660  0.0827
  929MPD2    H513599   3.968   3.312  10.711  1.0067 -0.7710 -0.0751
  929MPD2    N113600   3.868   3.099  11.230  0.5043  0.4667 -0.0425
  929MPD2    H713601   3.888   3.134  11.323  1.8756 -2.1118  0.6525
  930MPD2     C13602   0.707   1.617  14.893 -0.5173  0.4725 -0.2247
  930MPD2    C113603   0.829   1.617  14.840  0.0741 -0.1425 -0.0387
  930MPD2    C213604   0.848   1.555  14.720 -0.1863  1.0049  0.0987
  930MPD2    C313605   0.747   1.492  14.654  0.0645 -0.0839  0.2695
  930MPD2    C413606   0.628   1.474  14.715 -0.3327 -0.1462  0.0199
  930MPD2    C513607   0.604   1.549  14.831 -0.1473 -0.1289 -0.2555
  930MPD2     H13608   0.944   1.566  14.672 -0.2751 -0.4798 -0.4275
  930MPD2    H113609   0.546   1.415  14.674 -0.7742 -0.8680  1.9381
  930MPD2    H213610   0.678   1.671  14.982  1.7398 -0.7599  1.2438
  930MPD2    H313611   0.509   1.539  14.881  1.0719  2.0946  2.5111
  930MPD2     N13612   0.758   1.443  14.521 -0.8112  0.7761 -0.4350
  930MPD2    H513613   0.675   1.413  14.472 -0.4568  0.8340 -1.0736
  930MPD2    N113614   0.928   1.681  14.914 -0.1330  0.1217 -0.2713
  930MPD2    H713615   0.908   1.749  14.987 -4.2096 -1.6185  0.1697
  931MPD2     C13616   1.141   4.461   1.165  0.3399  0.3239  0.2884
  931MPD2    C113617   1.003   4.479   1.135  0.7836  0.0296  0.4302
  931MPD2    C213618   0.918   4.478   1.250 -0.6091 -0.1374  0.9995
  931MPD2    C313619   0.974   4.480   1.377 -0.2538 -0.3055  0.0565
  931MPD2    C413620   1.108   4.470   1.393  0.4073  0.0075  0.0923
  931MPD2    C513621   1.194   4.461   1.292 -0.0888  0.0430 -0.3971
  931MPD2     H13622   0.811   4.493   1.236 -0.0591  0.8661 -2.1666
  931MPD2    H113623   1.150   4.461   1.493  1.8789 -2.4153 -0.7267
  931MPD2    H213624   1.212   4.453   1.083  0.7627 -0.7882  0.7570
  931MPD2    H313625   1.299   4.440   1.305  0.3245  1.5076 -1.2614
  931MPD2     N13626   0.900   4.481   1.497 -0.1544 -0.6136  0.0756
  931MPD2    H513627   0.959   4.475   1.579  0.8571 -1.5396 -0.7187
  931MPD2    N113628   0.968   4.528   1.006 -1.1100  0.6183 -0.4258
  931MPD2    H713629   1.036   4.561   0.940  0.6636 -1.7370  0.2224
  932MPD2     C13630   2.753   4.543  11.343  0.0664  0.4052 -0.1364
  932MPD2    C113631   2.880   4.576  11.302  0.0116  0.0174 -0.8091
  932MPD2    C213632   2.957   4.471  11.250 -0.1612 -0.5630 -0.2469
  932MPD2    C313633   2.916   4.338  11.256 -0.5275  0.0926  0.0781
  932MPD2    C413634   2.785   4.312  11.280  0.4632 -0.4569 -0.0045
  932MPD2    C513635   2.707   4.415  11.316  0.3271  0.6502  0.2821
  932MPD2     H13636   3.058   4.493  11.216  0.5369 -2.2169  0.7619
  932MPD2    H113637   2.730   4.221  11.262  0.1987 -0.3644  0.3434
  932MPD2    H213638   2.682   4.615  11.383 -0.3257 -0.0999  0.0774
  932MPD2    H313639   2.602   4.401  11.340  0.2595  0.2734 -0.2185
  932MPD2     N13640   3.013   4.242  11.209 -0.5131 -0.6562  0.0462
  932MPD2    H513641   3.099   4.281  11.173 -0.5640  0.4209  1.0441
  932MPD2    N113642   2.935   4.711  11.319  0.3031 -0.4761  0.4560
  932MPD2    H713643   3.025   0.011  11.278 -1.2033  1.8120 -1.6688
  933MPD2     C13644   4.088   3.429   2.031 -0.4063 -0.3066  0.3450
  933MPD2    C113645   4.073   3.555   1.973  0.3424  0.0885 -0.6097
  933MPD2    C213646   3.971   3.630   2.002  0.4353 -0.5032  0.2583
  933MPD2    C313647   3.877   3.600   2.098  0.1631  0.6906 -0.1072
  933MPD2    C413648   3.889   3.475   2.165 -0.1892 -0.2871  0.0979
  933MPD2    C513649   3.995   3.396   2.125 -0.1157  0.3985  0.4601
  933MPD2     H13650   3.952   3.727   1.958  1.3711 -0.5719 -0.3077
  933MPD2    H113651   3.823   3.439   2.244 -0.3597 -0.9455 -0.3491
  933MPD2    H213652   4.172   3.363   2.011  0.0459 -0.2233  2.0049
  933MPD2    H313653   4.000   3.297   2.167 -2.7700  0.2234  0.4176
  933MPD2     N13654   3.772   3.691   2.115 -0.6432  0.1703 -0.4841
  933MPD2    H513655   3.781   3.776   2.061 -0.4516 -0.3292 -1.2312
  933MPD2    N113656   4.175   3.614   1.894 -0.7663  0.0460  0.2819
  933MPD2    H713657   4.163   3.701   1.843  1.4410  0.3677  0.3121
  934MPD2     C13658   0.769   1.759   1.977  0.4964  0.0354 -0.2725
  934MPD2    C113659   0.844   1.654   1.911 -0.0692 -0.1070 -0.3422
  934MPD2    C213660   0.778   1.541   1.870 -0.0035  0.9591 -0.5538
  934MPD2    C313661   0.641   1.539   1.882 -0.9210 -0.1100  0.3232
  934MPD2    C413662   0.564   1.634   1.941  0.0928 -0.1731 -1.2569
  934MPD2    C513663   0.627   1.748   1.991  0.6670  0.3967  0.0545
  934MPD2     H13664   0.824   1.454   1.824  1.5334  1.7837 -0.5636
  934MPD2    H113665   0.456   1.632   1.953  0.3111  2.6423  1.0957
  934MPD2    H213666   0.807   1.854   2.012  0.7330 -0.2336  0.1997
  934MPD2    H313667   0.569   1.820   2.048  1.1119  0.3164  0.6169
  934MPD2     N13668   0.564   1.423   1.838 -0.1876  0.2851  0.0118
  934MPD2    H513669   0.468   1.435   1.867 -0.0385 -0.9589  1.0195
  934MPD2    N113670   0.980   1.659   1.882  0.1327 -0.2086  0.0910
  934MPD2    H713671   1.019   1.581   1.831  1.0659  0.4392 -0.1949
  935MPD2     C13672   0.634   0.488   1.465 -0.4308 -0.7538  0.5641
  935MPD2    C113673   0.499   0.509   1.475 -0.3933 -0.3476  0.5750
  935MPD2    C213674   0.452   0.634   1.517  0.0190 -0.2112  0.0967
  935MPD2    C313675   0.542   0.730   1.558  0.3099  0.7562 -0.4046
  935MPD2    C413676   0.675   0.701   1.553 -0.2004  0.6882 -0.0082
  935MPD2    C513677   0.724   0.587   1.500  0.0252  0.5284 -0.4110
  935MPD2     H13678   0.345   0.644   1.529  0.2634  0.3292  1.9137
  935MPD2    H113679   0.747   0.781   1.569  0.5627 -0.2151  1.0124
  935MPD2    H213680   0.666   0.399   1.414 -3.0525 -0.5540 -1.4484
  935MPD2    H313681   0.828   0.573   1.472  0.0856 -0.3866  0.2550
  935MPD2     N13682   0.508   0.863   1.590 -0.2281  0.5626 -0.7357
  935MPD2    H513683   0.579   0.935   1.594  0.5580 -0.3414  2.1556
  935MPD2    N113684   0.400   0.421   1.428  0.0664  0.4137 -0.1508
  935MPD2    H713685   0.301   0.439   1.440  0.0830  0.2591  0.2244
  936MPD2     C13686   3.557   2.404  12.688 -0.5303 -0.2482 -0.0620
  936MPD2    C113687   3.562   2.358  12.819  0.1700 -0.1962 -0.1185
  936MPD2    C213688   3.688   2.346  12.876  0.8593 -0.5033 -0.5745
  936MPD2    C313689   3.802   2.376  12.806  0.5136  1.1724  0.5854
  936MPD2    C413690   3.795   2.418  12.677  0.0548 -0.2140  1.1397
  936MPD2    C513691   3.672   2.426  12.617 -0.0526 -0.4457  0.1242
  936MPD2     H13692   3.695   2.325  12.982 -0.5088  2.1707  0.0669
  936MPD2    H113693   3.883   2.439  12.618  0.0588  3.0450  2.3049
  936MPD2    H213694   3.462   2.417  12.637 -0.6394 -0.8021  0.0025
  936MPD2    H313695   3.670   2.444  12.510  1.7649  1.1422  0.3582
  936MPD2     N13696   3.927   2.374  12.873  0.2652 -0.2249 -0.6471
  936MPD2    H513697   4.006   2.421  12.830 -0.5923  1.4336 -0.4297
  936MPD2    N113698   3.457   2.317  12.896 -0.4193  0.2180 -0.0306
  936MPD2    H713699   3.475   2.289  12.992  1.1225 -2.3289 -1.0499
  937MPD2     C13700   0.828   4.370  12.239  0.5458  0.7042  0.1626
  937MPD2    C113701   0.912   4.474  12.194 -0.1008 -0.4203 -0.5937
  937MPD2    C213702   0.978   4.451  12.074  0.4536  0.0905  0.1170
  937MPD2    C313703   0.982   4.325  12.015 -0.4599 -0.6460 -0.2698
  937MPD2    C413704   0.902   4.226  12.074  0.0444 -0.2403  0.5445
  937MPD2    C513705   0.824   4.251  12.175  0.0355  0.3439 -0.2627
  937MPD2     H13706   1.041   4.530  12.036 -1.4875  1.4555 -0.2959
  937MPD2    H113707   0.890   4.124  12.040  1.1473 -0.1135 -0.2302
  937MPD2    H213708   0.768   4.375  12.329 -0.9555  2.7936 -0.9586
  937MPD2    H313709   0.761   4.173  12.218  1.4595 -1.0133 -0.6416
  937MPD2     N13710   1.074   4.287  11.909 -0.5442 -0.3386 -0.0537
  937MPD2    H513711   1.149   4.352  11.888 -0.9644 -0.2896 -1.4110
  937MPD2    N113712   0.896   4.604  12.244 -0.2869 -0.3497  0.5685
  937MPD2    H713713   0.934   4.680  12.189 -1.1494 -0.2343  0.1321
  938MPD2     C13714   3.592   1.059   1.027  0.4085 -0.5330 -0.4413
  938MPD2    C113715   3.625   0.991   1.142 -0.4090  0.1713 -0.0144
  938MPD2    C213716   3.530   0.904   1.193  0.3433 -0.1774 -0.2264
  938MPD2    C313717   3.402   0.897   1.140 -0.5297  0.0452 -0.2423
  938MPD2    C413718   3.372   0.976   1.029 -0.0665 -0.8714  0.5701
  938MPD2    C513719   3.466   1.053   0.967 -0.5192 -0.3745  0.3122
  938MPD2     H13720   3.565   0.848   1.279 -0.5408 -0.7512 -0.2418
  938MPD2    H113721   3.272   0.966   0.989 -0.6854 -0.3128  1.9689
  938MPD2    H213722   3.660   1.134   0.987 -0.6195  1.9467  2.3790
  938MPD2    H313723   3.444   1.106   0.875  1.8468  0.8285  0.4185
  938MPD2     N13724   3.298   0.811   1.193  0.5660  0.0355  0.4010
  938MPD2    H513725   3.207   0.836   1.156  1.0925 -1.3155 -1.7974
  938MPD2    N113726   3.734   1.030   1.220  0.4247 -0.5100 -0.4864
  938MPD2    H713727   3.733   0.999   1.316  1.4137  0.1556 -0.2602
  939MPD2     C13728   0.972   2.442   1.622  0.1062  0.8301  0.3782
  939MPD2    C113729   1.030   2.533   1.539  1.1173  0.4350 -0.0125
  939MPD2    C213730   1.002   2.521   1.405  0.0207 -0.8098  1.0006
  939MPD2    C313731   0.917   2.424   1.355  0.3991 -0.2451  0.6276
  939MPD2    C413732   0.862   2.333   1.437 -0.5020 -0.0185  0.0931
  939MPD2    C513733   0.890   2.344   1.569  0.4480 -0.4579  0.4347
  939MPD2     H13734   1.050   2.587   1.333  1.8615 -0.5985  2.4246
  939MPD2    H113735   0.785   2.272   1.392  0.2113 -2.9852  2.8369
  939MPD2    H213736   0.972   2.454   1.730  0.2410 -0.3072  0.5051
  939MPD2    H313737   0.842   2.271   1.634 -3.4981  1.0887 -0.6943
  939MPD2     N13738   0.892   2.416   1.214  0.2241 -0.2879  0.1128
  939MPD2    H513739   0.938   2.483   1.154  0.4520 -0.0980  0.4970
  939MPD2    N113740   1.111   2.631   1.598  0.3186 -0.1396 -0.4768
  939MPD2    H713741   1.098   2.637   1.698  1.4668  1.2456 -0.4073
  940MPD2     C13742   4.453   3.239  13.132  0.3574  0.7944  0.6816
  940MPD2    C113743   4.409   3.123  13.195  0.3498  0.3982 -0.2441
  940MPD2    C213744   4.492   3.009  13.177 -0.1287  0.2597 -0.1596
  940MPD2    C313745   4.599   3.015  13.086 -0.8229  0.5405 -0.1070
  940MPD2    C413746   4.645   3.135  13.038  0.6342 -0.0016 -0.5403
  940MPD2    C513747   4.573   3.248  13.066 -0.3030  0.4660  0.3054
  940MPD2     H13748   4.455   2.914  13.215  0.0937  0.0014 -0.5955
  940MPD2    H113749   0.005   3.159  12.972  0.6282  0.4337 -0.3901
  940MPD2    H213750   4.413   3.339  13.147 -0.4495  0.2227  2.2638
  940MPD2    H313751   4.595   3.343  13.018 -2.5171  0.8784  0.0964
  940MPD2     N13752   4.675   2.903  13.046  0.9672 -0.0587  0.8825
  940MPD2    H513753   0.037   2.915  12.990  0.7327  3.3440  1.2508
  940MPD2    N113754   4.299   3.113  13.277 -0.2290  0.2998 -0.7695
  940MPD2    H713755   4.272   3.020  13.306  0.4840  0.3191 -0.0672
  941MPD2     C13756   3.216   1.080   9.721  0.6888 -0.3463 -0.2595
  941MPD2    C113757   3.331   1.051   9.789 -0.1957  0.1251 -0.4305
  941MPD2    C213758   3.345   0.926   9.838 -0.4234 -0.3045 -0.4111
  941MPD2    C313759   3.250   0.830   9.839  0.1606 -0.5547  0.2112
  941MPD2    C413760   3.129   0.859   9.771  0.5511  0.1798  0.9405
  941MPD2    C513761   3.118   0.988   9.719 -0.0898 -0.1850 -0.8039
  941MPD2     H13762   3.431   0.903   9.901  1.3179  3.4690 -1.4347
  941MPD2    H113763   3.044   0.796   9.749  0.3256  0.8926 -0.2406
  941MPD2    H213764   3.193   1.178   9.681  1.5716 -0.1764 -0.3634
  941MPD2    H313765   3.019   1.010   9.681 -0.7700  2.0287  2.2659
  941MPD2     N13766   3.258   0.704   9.907  0.3271  0.3268  0.1655
  941MPD2    H513767   3.191   0.634   9.877 -0.4728  0.8479  0.7299
  941MPD2    N113768   3.436   1.143   9.801  0.2096 -0.1246  0.1648
  941MPD2    H713769   3.521   1.099   9.835 -0.8003 -1.5890  0.8005
  942MPD2     C13770   2.175   2.840   9.165  0.6477 -0.1901 -0.0526
  942MPD2    C113771   2.173   2.966   9.224 -0.3549 -0.2890  0.0644
  942MPD2    C213772   2.242   2.984   9.342 -0.5764 -0.6210  0.2765
  942MPD2    C313773   2.299   2.877   9.414 -0.9913  0.1746  0.4523
  942MPD2    C413774   2.280   2.753   9.355 -0.0246 -0.5948 -0.2202
  942MPD2    C513775   2.228   2.733   9.231 -0.4360 -0.4982 -0.1708
  942MPD2     H13776   2.249   3.081   9.390 -0.0302 -0.1052 -0.8251
  942MPD2    H113777   2.321   2.666   9.405 -2.5137  0.1824  3.1771
  942MPD2    H213778   2.121   2.824   9.072  1.6939  1.0294 -0.8832
  942MPD2    H313779   2.226   2.637   9.182  1.0045 -0.4684 -0.2830
  942MPD2     N13780   2.336   2.892   9.553 -0.4715  0.4909  0.1221
  942MPD2    H513781   2.338   2.810   9.612  1.1528 -0.3453 -1.0802
  942MPD2    N113782   2.118   3.075   9.159 -0.4971  0.3929  0.0536
  942MPD2    H713783   2.137   3.165   9.203 -0.1159  1.2338 -1.8017
  943MPD2     C13784   2.129   1.675   9.587  0.2499 -0.3479 -0.1218
  943MPD2    C113785   2.045   1.649   9.482 -0.2116  0.2443 -0.4138
  943MPD2    C213786   2.089   1.676   9.354 -0.4020 -0.5100 -0.0178
  943MPD2    C313787   2.218   1.715   9.324  0.6467 -0.4544  0.1803
  943MPD2    C413788   2.307   1.718   9.430  0.0728 -0.1254 -0.1376
  943MPD2    C513789   2.259   1.713   9.563  0.5942 -0.9113 -0.1616
  943MPD2     H13790   2.027   1.677   9.265  0.1560  0.7033 -0.3965
  943MPD2    H113791   2.411   1.746   9.418  0.0862 -0.7800 -1.4805
  943MPD2    H213792   2.099   1.647   9.687  2.8404 -0.7575  0.5463
  943MPD2    H313793   2.327   1.710   9.647 -0.2494 -0.3915  0.5377
  943MPD2     N13794   2.274   1.737   9.200  0.3614 -0.9306 -0.5729
  943MPD2    H513795   2.375   1.746   9.206  0.1244  0.4265  1.4780
  943MPD2    N113796   1.914   1.618   9.519 -0.5034 -0.1739 -0.3406
  943MPD2    H713797   1.895   1.609   9.618  2.0879 -2.3086 -0.0201
  944MPD2     C13798   1.503   0.939  11.837  0.4026 -0.1593  0.2056
  944MPD2    C113799   1.522   0.954  11.701 -0.1402 -0.4499 -0.2978
  944MPD2    C213800   1.485   1.076  11.643 -0.0357  0.5400  0.1446
  944MPD2    C313801   1.421   1.177  11.710 -0.0030 -0.0194 -0.6240
  944MPD2    C413802   1.399   1.157  11.846 -0.7117  0.0430  0.2631
  944MPD2    C513803   1.452   1.045  11.909 -0.4718 -0.1457 -0.0816
  944MPD2     H13804   1.523   1.098  11.544 -0.7276 -1.3344 -0.5145
  944MPD2    H113805   1.351   1.229  11.912 -4.6960  0.1571 -2.7360
  944MPD2    H213806   1.543   0.857  11.897  0.7405  0.2056  0.4759
  944MPD2    H313807   1.448   1.053  12.017 -2.8994  1.3912 -0.2778
  944MPD2     N13808   1.404   1.306  11.654  0.1255  0.0813 -0.1212
  944MPD2    H513809   1.414   1.308  11.553  1.8468  3.2208  0.1311
  944MPD2    N113810   1.594   0.850  11.637 -0.7169  0.0917 -0.0455
  944MPD2    H713811   1.634   0.772  11.687  2.4364  1.1882 -0.8259
    1TCq1    O113812   0.231   2.067  15.102 -0.3383  0.1319 -0.2493
    1TCq1    C113813   0.108   2.021  15.070  0.5621  0.1143 -0.4962
    1TCq1    O213814   0.068   1.908  15.091 -0.4039  0.2051 -0.5955
    1TCq1    C213815   0.033   2.128  15.012  0.2731  0.9549  0.3615
    1TCq1    C313816   4.681   2.093  14.907 -0.0209 -0.2378  0.1079
    1TCq1    C413817   4.598   2.188  14.848  0.2565 -0.3954  0.1432
    1TCq1    C513818   4.592   2.318  14.897  0.9194  0.5366  0.3470
    1TCq1    C613819   4.675   2.348  15.002 -0.1347  0.2642 -0.5311
    1TCq1    C713820   0.035   2.257  15.061  0.1811 -0.3758  0.4583
    1TCq1    C813821   4.688   2.484  15.043 -0.4695  0.2042 -0.1843
    1TCq1    O413822   0.025   2.512  15.148 -0.1593  0.5495 -0.3551
    1TCq1    C913823   4.518   2.134  14.744  0.5747  0.2323 -0.3155
    1TCq1    O513824   4.419   2.211  14.716 -0.3192  0.0856  0.3677
    1TCq1    O613825   4.547   2.020  14.697  0.1422 -0.1879  0.0759
    1TCq1    H113826   0.254   2.145  15.046 -1.1550 -0.6896 -1.7194
    1TCq1    H213827   4.665   1.990  14.877  1.3104  0.2694 -2.4021
    1TCq1    H313828   4.512   2.386  14.871  1.2709  0.8665  0.1309
    1TCq1    H413829   0.101   2.292  15.139  0.3213 -0.7100  0.4897
    2MPD2     C13830   4.708   2.990  14.927  0.4336 -0.4807  0.5317
    2MPD2    C113831   4.684   2.917  14.811 -0.5617  0.0614 -0.2262
    2MPD2    C213832   4.669   2.779  14.819  0.8054 -0.2205 -0.6018
    2MPD2    C313833   4.670   2.711  14.937 -0.1557 -0.1557 -0.2537
    2MPD2    C413834   4.680   2.786  15.049 -0.9744  0.2565  0.6906
    2MPD2    C513835   4.687   2.923  15.044  0.5497  0.4109 -0.5014
    2MPD2     H13836   4.661   2.718  14.730  0.2422  0.8114 -1.2632
    2MPD2    H113837   4.677   2.741  15.148 -1.0075 -1.3559 -0.0461
    2MPD2    H213838   4.718   3.097  14.921 -0.6106 -0.5666 -2.3016
    2MPD2    H313839   4.687   2.977  15.138 -1.7057 -2.1265  0.9458
    2MPD2     N13840   4.653   2.568  14.932  0.3149 -0.1335  0.3005
    2MPD2    H513841   4.619   2.530  14.845 -0.9514 -0.5690  0.9822
    2MPD2    N113842   4.671   2.997  14.693 -0.2467 -0.5717 -0.2616
    2MPD2    H713843   4.677   3.097  14.711 -2.9726 -0.5527  0.5657
    3TMC2    C113844   4.680   3.048  14.459 -0.4495  0.2605  0.1802
    3TMC2    C213845   4.694   3.187  14.487  0.7201  0.0844 -1.3528
    3TMC2    C313846   4.699   3.272  14.379  0.1580 -0.5427 -0.0350
    3TMC2    C413847   4.657   3.004  14.334  0.3975  0.5666  0.4080
    3TMC2    C513848   4.669   3.090  14.231  0.5708 -0.1724  0.4200
    3TMC2    C613849   4.686   3.222  14.250 -0.4280 -0.0423 -0.1854
    3TMC2     C13850   4.675   2.942  14.565 -0.6415  0.0532 -0.3062
    3TMC2     O13851   4.656   2.827  14.527 -0.0099  0.4446  0.6881
    3TMC2     H13852   0.000   3.215  14.587 -0.2746  1.0154 -1.3280
    3TMC2    H113853   4.662   2.896  14.323 -0.3725  0.7577 -1.7742
    3TMC2    H213854   4.679   3.290  14.166  2.7122 -0.4043 -0.7520
    3TMC2    C713855   4.624   3.046  14.101  0.8287 -0.3295 -0.6951
    3TMC2    C813856   4.699   3.415  14.406 -0.6075  0.0931 -0.4790
    3TMC2    O113857   4.546   2.951  14.104 -0.6094  0.3219 -0.2578
    3TMC2    O213858   4.709   3.456  14.518 -0.4431 -0.0518  0.6661
    3TMC2    O513859   4.715   3.474  14.288  0.9791  0.1009  0.9749
    3TMC2    H513860   4.715   3.571  14.300  0.4519  0.4890 -2.1802
    4MPD2     C13861   4.465   3.560  12.864  0.1871 -0.7215  0.3525
    4MPD2    C113862   4.407   3.607  12.980  0.4769 -0.5581 -0.2457
    4MPD2    C213863   4.490   3.645  13.086  0.7916 -0.1196 -0.2406
    4MPD2    C313864   4.628   3.627  13.072  0.2129  0.3678 -0.5306
    4MPD2    C413865   4.684   3.584  12.951  1.0506 -0.5961  0.6110
    4MPD2    C513866   4.603   3.552  12.847 -0.3938 -0.3638  0.3363
    4MPD2     H13867   4.450   3.676  13.182 -1.4780  0.9281 -1.5186
    4MPD2    H113868   0.070   3.571  12.939  1.3368  0.7902  1.6947
    4MPD2    H213869   4.404   3.525  12.782 -0.8701  0.5267  0.6087
    4MPD2    H313870   4.656   3.514  12.760  0.8505 -2.0064  1.8145
    4MPD2     N13871   4.710   3.658  13.182  0.1599  0.0373 -0.1254
    4MPD2    H513872   4.665   3.663  13.273  0.8142 -1.6849  0.2765
    4MPD2    N113873   4.270   3.588  12.992 -0.4163 -0.3635  0.7334
    4MPD2    H713874   4.223   3.538  12.917 -0.2999  0.8702 -0.1704
    5TCq2    C113875   0.117   3.671  13.179 -0.0348  0.1259  0.0419
    5TCq2    O213876   0.193   3.676  13.086 -0.1592 -0.4680  0.0897
    5TCq2    C213877   0.172   3.650  13.312  0.2289 -0.1326  0.2258
    5TCq2    C313878   0.306   3.682  13.323  0.2848 -0.0816  0.1964
    5TCq2    C413879   0.385   3.627  13.420 -0.1721 -0.2326  0.4980
    5TCq2    C513880   0.334   3.548  13.514 -0.1382 -0.1197  0.4744
    5TCq2    C613881   0.197   3.520  13.507 -0.1977 -0.3722 -0.2845
    5TCq2    C713882   0.115   3.564  13.401  0.4606  0.4152 -0.3651
    5TCq2    C813883   0.139   3.430  13.598  0.1478 -0.1125  0.3576
    5TCq2    O413884   0.040   3.363  13.570 -0.1550 -0.2665  0.2062
    5TCq2    C913885   0.529   3.656  13.436 -0.1261  0.6677  0.2087
    5TCq2    O513886   0.592   3.551  13.470 -0.0654  0.0054 -0.4726
    5TCq2    O613887   0.575   3.757  13.374 -1.0079 -0.0555  0.2306
    5TCq2    H213888   0.357   3.747  13.254 -1.7638  0.2705 -1.0053
    5TCq2    H313889   0.405   3.519  13.590  0.0077  1.6978  1.0380
    5TCq2    H413890   0.018   3.520  13.381  0.4179  0.0741  0.5946
    6MPD1     C13891   2.482   4.321  13.037 -0.3829  0.5249 -0.1257
    6MPD1    C113892   2.548   4.379  13.141 -0.0752  0.3546  0.1426
    6MPD1    C213893   2.683   4.356  13.151  0.5738 -0.1045 -0.5393
    6MPD1    C313894   2.747   4.288  13.049  0.0314  0.0639  0.3706
    6MPD1    C413895   2.676   4.243  12.947 -1.1078  0.0884 -0.8910
    6MPD1    C513896   2.541   4.254  12.935 -0.2851 -0.3685  0.6195
    6MPD1     H13897   2.736   4.402  13.233 -0.4322  1.5910 -0.8342
    6MPD1    H113898   2.724   4.198  12.860  0.0635  1.0425 -0.7373
    6MPD1    H213899   2.373   4.318  13.036 -0.4087  2.1966 -1.9998
    6MPD1    H313900   2.477   4.215  12.857  0.6204 -0.8957  0.1319
    6MPD1     N13901   2.883   4.252  13.059 -0.1364  0.4001  0.2619
    6MPD1    H513902   2.920   4.196  12.984 -0.1053  0.2446  0.3948
    6MPD1    N113903   2.468   4.418  13.249 -0.2024 -0.1569  0.0228
    6MPD1    H613904   2.501   4.498  13.303  0.4770 -0.0757 -0.5029
    6MPD1    H713905   2.374   4.449  13.227 -0.3239 -0.4037  0.1887
    7MPD2     C13906   3.547   3.938  13.563  0.2068 -0.2273 -0.7535
    7MPD2    C113907   3.559   3.942  13.423  0.1417 -0.3526  0.4763
    7MPD2    C213908   3.646   3.848  13.360  0.8624  0.5979  0.4339
    7MPD2    C313909   3.697   3.743  13.435 -0.1477 -0.5925  0.3823
    7MPD2    C413910   3.690   3.751  13.567  0.4858 -0.0160 -0.1905
    7MPD2    C513911   3.624   3.850  13.634 -0.2721  0.1052  0.7969
    7MPD2     H13912   3.655   3.850  13.252 -2.2489  3.1770  0.1990
    7MPD2    H113913   3.739   3.674  13.625  0.5843 -1.1551 -1.8012
    7MPD2    H213914   3.484   4.007  13.617 -0.4842 -0.0527 -1.7952
    7MPD2    H313915   3.595   3.835  13.737 -0.3797 -1.1944  0.5822
    7MPD2     N13916   3.771   3.633  13.377 -0.5459  0.5590  0.7470
    7MPD2    H513917   3.820   3.566  13.436 -2.8107 -0.6064  1.2866
    7MPD2    N113918   3.488   4.031  13.336 -0.0073  1.1652 -0.4502
    7MPD2    H713919   3.522   4.026  13.241 -0.5400 -0.6042 -0.5366
    8TMC3    C113920   3.863   3.507  13.198  0.2567  1.3806  0.2862
    8TMC3    C213921   3.993   3.562  13.209  0.7631 -0.2395 -0.1942
    8TMC3    C313922   4.061   3.578  13.091 -0.5324 -0.1365  0.0527
    8TMC3    C413923   3.819   3.470  13.078 -0.7317  0.3555  0.1553
    8TMC3    C513924   3.891   3.490  12.967  0.6620 -0.2519  0.2991
    8TMC3    C613925   4.009   3.551  12.968  0.8346  0.1451  0.0891
    8TMC3     C13926   3.762   3.603  13.242  0.8768 -0.1568 -0.2552
    8TMC3     O13927   3.682   3.649  13.162  1.1230 -0.2186 -0.2592
    8TMC3     H13928   4.043   3.578  13.303  0.2240  0.5659 -0.0468
    8TMC3    H113929   3.722   3.423  13.085 -0.2849 -0.3511  1.6687
    8TMC3    H213930   4.064   3.575  12.878  0.2355 -1.7478 -0.7683
    8TMC3    C713931   3.813   3.519  12.852  0.4493  0.0485  0.2249
    8TMC3    C813932   4.198   3.611  13.103  0.0231  0.0271  0.3118
    8TMC3    O113933   3.872   3.522  12.748 -0.0800  0.3273 -0.3246
    8TMC3    O213934   4.238   3.665  13.209 -0.2230  0.5216 -0.0472
    9TMC3    C113935   3.098   4.204  13.139  0.8478  0.1876  0.0647
    9TMC3    C213936   3.124   4.140  13.021  0.1993 -0.8585 -0.0029
    9TMC3    C313937   3.234   4.059  13.015  0.6927  0.2538  0.2807
    9TMC3    C413938   3.162   4.167  13.255 -0.0809 -0.5025 -0.1245
    9TMC3    C513939   3.286   4.104  13.239  0.3608  0.1589  0.2431
    9TMC3    C613940   3.322   4.043  13.121 -0.4358 -0.0209 -0.5804
    9TMC3     C13941   2.973   4.277  13.156 -0.5402 -0.5420  0.4716
    9TMC3     O13942   2.951   4.329  13.265 -0.1648 -0.0375  0.1493
    9TMC3     H13943   3.066   4.151  12.930  1.7384  1.4640 -0.6935
    9TMC3    H113944   3.132   4.207  13.351  0.4923 -1.8387  0.6232
    9TMC3    H213945   3.412   3.984  13.105  0.3194  1.2223 -1.0186
    9TMC3    C713946   3.364   4.086  13.362 -0.3043  0.7178 -0.1913
    9TMC3    C813947   3.255   3.982  12.893 -0.4906 -0.0451  0.2254
    9TMC3    O113948   3.318   4.105  13.474  0.0981  0.0920 -0.8537
    9TMC3    O213949   3.259   4.048  12.791  0.1245  0.0329 -0.1065
   10MPD2     C13950   3.595   3.663  12.676  0.0757 -0.0487 -0.0883
   10MPD2    C113951   3.602   3.652  12.814 -1.1721  0.1175  0.3655
   10MPD2    C213952   3.498   3.716  12.880  0.6031 -0.0853 -0.7666
   10MPD2    C313953   3.411   3.803  12.826  0.2066 -0.3179  0.4316
   10MPD2    C413954   3.408   3.822  12.692  0.2168 -0.3751 -0.3950
   10MPD2    C513955   3.489   3.741  12.617  0.0180  0.2378 -0.3168
   10MPD2     H13956   3.499   3.697  12.987  1.3462  3.3270 -0.1757
   10MPD2    H113957   3.337   3.884  12.638  0.2014 -0.1851 -0.1553
   10MPD2    H213958   3.672   3.627  12.609 -0.1306 -0.8572  0.1075
   10MPD2    H313959   3.489   3.763  12.511 -1.3288  0.1448 -0.3420
   10MPD2     N13960   3.325   3.872  12.915  0.0441 -0.3583  0.5193
   10MPD2    H513961   3.327   3.837  13.010 -2.2025 -2.1540 -0.0687
   10MPD2    N113962   3.699   3.583  12.890  0.2220  0.3991  0.7880
   10MPD2    H713963   3.686   3.583  12.991 -0.2984 -2.5043  0.7108
   11MPD2     C13964   0.181   3.136  14.018  0.3750 -0.8348 -0.0588
   11MPD2    C113965   0.063   3.171  13.953  0.3233 -0.1421 -0.3320
   11MPD2    C213966   0.071   3.255  13.850  0.0891  0.2587 -0.5647
   11MPD2    C313967   0.183   3.337  13.827  0.4683 -1.1087 -0.0991
   11MPD2    C413968   0.292   3.319  13.917 -0.2634 -0.7034  0.4567
   11MPD2    C513969   0.288   3.222  14.008 -0.1534 -0.4710  0.2523
   11MPD2     H13970   4.701   3.283  13.799  0.7493 -0.8910 -2.3878
   11MPD2    H113971   0.384   3.366  13.885 -0.6490  0.1890  0.6512
   11MPD2    H213972   0.186   3.057  14.092  0.0990 -0.2135  0.6203
   11MPD2    H313973   0.384   3.220  14.057  0.1601 -0.4298 -0.3617
   11MPD2     N13974   0.209   3.413  13.709  0.5554  0.5134  0.2764
   11MPD2    H513975   0.299   3.460  13.715 -0.8097  2.8129  2.8155
   11MPD2    N113976   4.660   3.110  13.983  0.7483 -0.2789 -0.0409
   11MPD2    H713977   4.581   3.126  13.921  0.0964  2.5649  1.4821
    1MPD1     C13978   1.727   4.164   0.277  0.4406  0.1600  0.3235
    1MPD1    C113979   1.853   4.158   0.330 -0.3581 -0.5146 -0.5093
    1MPD1    C213980   1.955   4.206   0.248 -0.2333  0.9366 -0.0779
    1MPD1    C313981   1.935   4.231   0.117 -0.7237 -0.1933  0.3230
    1MPD1    C413982   1.808   4.230   0.065  0.4726  1.2454  0.2724
    1MPD1    C513983   1.703   4.209   0.151 -0.1604  0.0735  0.4016
    1MPD1     H13984   2.050   4.188   0.296 -1.0804 -1.8192  0.5661
    1MPD1    H113985   1.782   4.266  17.656 -2.3163 -2.0361 -0.1721
    1MPD1    H213986   1.641   4.130   0.333  0.1494  1.7693  0.8591
    1MPD1    H313987   1.599   4.215   0.124 -0.2541 -0.6243  0.6073
    1MPD1     N13988   2.037   4.254   0.021 -0.4114  0.3281  0.2817
    1MPD1    H513989   2.006   4.291  17.621  1.9796 -0.4951 -0.8956
    1MPD1    N113990   1.873   4.148   0.468 -0.0028 -0.6394 -0.0072
    1MPD1    H613991   1.810   4.088   0.522 -0.6909  0.9923  0.9970
    1MPD1    H713992   1.965   4.107   0.482 -0.1277 -1.0594 -0.4099
    2MPD1     C13993   3.041   4.252   0.146  0.4213 -0.3248 -0.2168
    2MPD1    C113994   2.930   4.184   0.197  0.3702 -0.1813  0.2451
    2MPD1    C213995   2.812   4.192   0.128  0.3222  0.2783  0.6050
    2MPD1    C313996   2.793   4.290   0.037 -0.1559  0.0468 -0.0328
    2MPD1    C413997   2.895   4.370  17.687  0.4751 -0.0502  0.2132
    2MPD1    C513998   3.018   4.342   0.041 -0.0188  0.1578 -0.4218
    2MPD1     H13999   2.729   4.129   0.158 -0.9665  0.5413 -2.4002
    2MPD1    H114000   2.881   4.441  17.606 -0.3183 -1.4018 -0.8150
    2MPD1    H214001   3.142   4.234   0.182  0.5180  2.7185  1.0700
    2MPD1    H314002   3.100   4.394  17.682 -0.2760  2.0501  1.1607
    2MPD1     N14003   2.654   4.299  17.676 -0.0493 -0.1350 -0.0695
    2MPD1    H514004   2.591   4.224   0.013 -0.1981 -0.2067 -0.6137
    2MPD1    N114005   2.956   4.070   0.281  0.6095  0.1918 -0.4053
    2MPD1    H614006   2.883   4.017   0.328 -1.3543  0.8151 -2.7397
    2MPD1    H714007   3.033   4.085   0.346  1.0533 -1.3019 -0.6005
    3TMC3    C114008   2.463   4.395  17.581 -0.1723 -0.0014  0.4422
    3TMC3    C214009   2.426   4.400  17.448  0.4517  0.0053 -0.1934
    3TMC3    C314010   2.299   4.359  17.424 -0.2276 -0.5915 -0.3685
    3TMC3    C414011   2.393   4.316  17.669 -0.3287  0.3756  0.1765
    3TMC3    C514012   2.274   4.268  17.634 -0.2273  0.1563 -0.4258
    3TMC3    C614013   2.221   4.284  17.510  0.1409 -0.1410 -0.0225
    3TMC3     C14014   2.608   4.400  17.595  0.1511  0.1248  0.4410
    3TMC3     O14015   2.667   4.499  17.563 -0.1594  0.0890 -0.5465
    3TMC3     H14016   2.496   4.440  17.376  0.9164 -1.9712 -0.8535
    3TMC3    H114017   2.429   4.298   0.080  1.2949 -2.0497 -0.8567
    3TMC3    H214018   2.128   4.237  17.479  0.1373 -0.0117 -0.2081
    3TMC3    C714019   2.173   4.251   0.049 -0.3958 -0.0851 -0.1709
    3TMC3    C814020   2.247   4.371  17.291 -0.1396 -0.3838 -0.9080
    3TMC3    O114021   2.226   4.214   0.154  0.0689 -0.5646  0.1618
    3TMC3    O214022   2.158   4.295  17.276  0.2164 -0.7311  0.2047
    4MPD1     C14023   2.255   4.510  16.794 -0.0722 -0.1775  0.5180
    4MPD1    C114024   2.343   4.595  16.860  1.0880 -0.0460 -0.5106
    4MPD1    C214025   2.357   4.574  16.999  0.0103  0.3265  0.1889
    4MPD1    C314026   2.297   4.474  17.069 -0.4740  0.1723  0.2173
    4MPD1    C414027   2.224   4.381  16.997 -0.5482  0.2200  0.0077
    4MPD1    C514028   2.207   4.406  16.865 -0.4014  0.1536 -0.2034
    4MPD1     H14029   2.420   4.642  17.055  0.5139  2.0171 -2.4077
    4MPD1    H114030   2.187   4.285  17.033 -1.5788 -0.1898 -2.1272
    4MPD1    H214031   2.241   4.508  16.686 -1.5760  0.6096  0.6888
    4MPD1    H314032   2.152   4.327  16.815  0.6426 -0.0660 -1.0036
    4MPD1     N14033   2.303   4.466  17.213  0.3754 -0.6750  0.1808
    4MPD1    H514034   2.380   4.522  17.247  0.9303 -1.3564  0.0569
    4MPD1    N114035   2.405   4.704  16.795  0.4160 -0.4134  0.0724
    4MPD1    H614036   2.501   4.708  16.827  0.4306  0.1185 -0.0472
    4MPD1    H714037   2.406   4.691  16.694 -0.3783  1.8290 -0.2208
    1TCq1    O114038   3.636   0.323  12.253  0.4954  0.1191 -0.1800
    1TCq1    C114039   3.537   0.407  12.277  0.9483 -0.1755 -0.1771
    1TCq1    O214040   3.531   0.485  12.368  0.4632 -0.0742 -0.3402
    1TCq1    C214041   3.419   0.334  12.234 -0.1020 -0.0404 -0.4018
    1TCq1    C314042   3.316   0.308  12.319  0.0989 -0.1125 -0.2423
    1TCq1    C414043   3.189   0.271  12.280 -0.3805 -0.0368  0.2415
    1TCq1    C514044   3.177   0.234  12.149 -0.4825 -0.3891 -0.3827
    1TCq1    C614045   3.275   0.269  12.064 -0.2080 -0.3715 -0.6087
    1TCq1    C714046   3.398   0.329  12.099 -0.5503  0.6700 -0.2560
    1TCq1    C814047   3.255   0.229  11.924 -0.7664  0.5308  0.1673
    1TCq1    O414048   3.330   0.273  11.839 -0.2157 -0.1321 -0.0345
    1TCq1    C914049   3.085   0.222  12.375 -0.3391 -0.0397 -0.1891
    1TCq1    O514050   3.091   0.278  12.487 -0.1965 -0.1877 -0.3024
    1TCq1    O614051   2.988   0.157  12.327  0.3210  0.2701  0.5321
    1TCq1    H114052   3.612   0.240  12.207 -0.0757  0.9789 -1.4240
    1TCq1    H214053   3.321   0.332  12.424  0.5409  1.7286 -0.6930
    1TCq1    H314054   3.077   0.210  12.113 -1.4825  0.9672  1.5037
    1TCq1    H414055   3.470   0.357  12.023 -0.7945 -0.1788 -0.8029
    2MPD1     C14056   3.065   4.602  11.597  0.2857  0.6384  0.0371
    2MPD1    C114057   3.008   4.585  11.719  0.8211  0.5055 -0.7328
    2MPD1    C214058   3.043   4.664  11.822  0.9842 -0.2836 -0.5102
    2MPD1    C314059   3.139   0.039  11.802  0.2006  0.1202 -0.5837
    2MPD1    C414060   3.193   0.067  11.679 -0.7133 -0.0840  0.7523
    2MPD1    C514061   3.159   4.702  11.579  0.8001 -0.3936 -0.5808
    2MPD1     H14062   2.999   4.652  11.920 -0.7448  1.2323 -1.0944
    2MPD1    H114063   3.255   0.152  11.654  0.6253 -0.5448  2.4820
    2MPD1    H214064   3.029   4.541  11.515  0.0409 -0.0295  0.6447
    2MPD1    H314065   3.206   4.714  11.482 -0.9600 -1.5498 -1.5750
    2MPD1     N14066   3.171   0.117  11.912 -0.6225  0.0569  0.3869
    2MPD1    H514067   3.130   0.087  11.999 -0.3060  0.8437  0.8121
    2MPD1    N114068   2.913   4.485  11.743  0.8363  0.6771  0.2201
    2MPD1    H614069   2.894   4.487  11.843 -2.5822  0.0980 -0.4085
    2MPD1    H714070   2.951   4.394  11.719  3.4910  1.6119  0.8842
    1TCq1    O114071   3.786   2.964  17.584 -0.0293 -0.0404 -0.5812
    1TCq1    C114072   3.834   2.912   0.009 -0.5593 -0.0060  0.3268
    1TCq1    O214073   3.884   2.967   0.107 -0.9515 -0.0426 -0.1348
    1TCq1    C214074   3.806   2.776   0.013 -0.3996 -0.2588 -0.0599
    1TCq1    C314075   3.685   2.731  17.672  0.2482 -0.4294 -0.2871
    1TCq1    C414076   3.650   2.602   0.009  0.1918 -0.6260 -0.4295
    1TCq1    C514077   3.729   2.533   0.090 -0.5362 -0.2489 -0.0554
    1TCq1    C614078   3.847   2.594   0.137  0.1504  0.4017 -0.6787
    1TCq1    C714079   3.883   2.720   0.108  0.8243 -0.3643  0.2196
    1TCq1    C814080   3.935   2.532   0.239  0.2758 -0.2675  0.3564
    1TCq1    O414081   3.961   2.602   0.334 -0.1135 -0.1739  0.4183
    1TCq1    C914082   3.510   2.553  17.686  0.3133  0.1149 -0.0359
    1TCq1    O514083   3.479   2.440   0.033  0.4096  0.4051  0.5288
    1TCq1    O614084   3.439   2.623  17.610 -0.0946 -0.4581  0.3263
    1TCq1    H114085   3.763   2.900  17.513 -2.5319 -1.5024  1.5538
    1TCq1    H214086   3.625   2.790  17.604 -1.3504 -3.5075 -1.5489
    1TCq1    H314087   3.707   2.431   0.119 -1.9632  0.1286  0.2180
    1TCq1    H414088   3.980   2.754   0.144 -0.9029  2.2284  2.4491
    2MPD1     C14089   4.064   2.117   0.521  0.3774 -0.5298 -0.6872
    2MPD1    C114090   3.978   2.078   0.416  0.6712 -0.5702 -0.5899
    2MPD1    C214091   3.937   2.169   0.331  0.5215 -0.2561 -0.4059
    2MPD1    C314092   3.984   2.300   0.332  0.5268 -0.4432  0.1540
    2MPD1    C414093   4.065   2.339   0.436 -0.3465  0.3484  0.4702
    2MPD1    C514094   4.107   2.245   0.529 -0.5472 -0.3411 -0.2803
    2MPD1     H14095   3.863   2.144   0.256 -1.7196  2.3093  0.9262
    2MPD1    H114096   4.097   2.442   0.442  1.1918 -0.2882  3.2873
    2MPD1    H214097   4.098   2.051   0.600 -0.1655  0.4244  0.3455
    2MPD1    H314098   4.171   2.285   0.607 -2.6306  0.1132  1.2025
    2MPD1     N14099   3.931   2.394   0.235 -0.0164  0.3091  0.4706
    2MPD1    H514100   3.879   2.352   0.159 -0.1117  0.6018  0.3716
    2MPD1    N114101   3.916   1.953   0.422 -0.0492  0.3559 -0.5023
    2MPD1    H614102   3.900   1.920   0.327  0.3745  0.8786 -0.7551
    2MPD1    H714103   3.967   1.880   0.470  1.5236  1.3401 -0.6692
    1MPD1     C14104   4.037   0.305  12.327  0.1069 -0.5830 -0.0141
    1MPD1    C114105   4.122   0.396  12.393  0.3846  0.6340  0.5939
    1MPD1    C214106   4.246   0.357  12.443 -0.2689  0.9706  0.5012
    1MPD1    C314107   4.286   0.220  12.426  0.2766  0.1874  0.5822
    1MPD1    C414108   4.204   0.139  12.348  1.4946  0.3010  0.5017
    1MPD1    C514109   4.078   0.175  12.300 -0.4770 -0.1014 -0.7857
    1MPD1     H14110   4.297   0.432  12.501  2.6504 -0.2728 -0.4752
    1MPD1    H114111   4.221   0.036  12.321 -1.0683  0.4141 -1.5248
    1MPD1    H214112   3.941   0.328  12.281  0.6332  0.7338 -0.4556
    1MPD1    H314113   4.019   0.104  12.243  1.0281 -2.8289  1.0217
    1MPD1     N14114   4.408   0.183  12.479  0.1176 -0.0727  0.4301
    1MPD1    H514115   4.469   0.252  12.522  0.2219  1.1075 -1.6019
    1MPD1    N114116   4.074   0.530  12.405 -0.6942  0.1154 -0.0146
    1MPD1    H614117   3.974   0.542  12.418 -0.6984  0.9779 -0.8823
    1MPD1    H714118   4.129   0.570  12.481 -0.0121  2.8642 -1.9817
    2MPD1     C14119   4.475   3.561  10.838  0.1058 -0.0263  1.1404
    2MPD1    C114120   4.453   3.629  10.962 -0.7624  0.1718  0.0237
    2MPD1    C214121   4.538   3.740  10.989  0.2971  0.5709  0.6972
    2MPD1    C314122   4.625   3.783  10.882  0.3826 -0.2497 -0.2632
    2MPD1    C414123   4.626   3.722  10.759 -0.2364 -0.0929  0.7597
    2MPD1    C514124   4.554   3.613  10.739  0.3203 -0.3914  0.2447
    2MPD1     H14125   4.530   3.795  11.082  2.4713  1.4158  0.4000
    2MPD1    H114126   4.690   3.757  10.679 -3.3661  0.0159 -1.6721
    2MPD1    H214127   4.414   3.475  10.814 -0.3740  0.0030  2.2629
    2MPD1    H314128   4.556   3.559  10.645  0.6493  0.6367 -0.3420
    2MPD1     N14129   0.005   3.885  10.888 -0.3467 -0.2178  0.4028
    2MPD1    H514130   0.072   3.893  10.812 -1.6758  0.5865 -0.6841
    2MPD1    N114131   4.371   3.579  11.064 -0.9561  0.1381 -0.6370
    2MPD1    H614132   4.274   3.558  11.043 -0.4865 -2.6747 -0.0166
    2MPD1    H714133   4.379   3.643  11.143 -0.9494 -0.4849 -0.1321
    3MPD1     C14134   0.394   4.507  10.250 -0.1579  1.0776 -0.7039
    3MPD1    C114135   0.492   4.533  10.351  0.5258 -0.1370  0.0295
    3MPD1    C214136   0.463   4.471  10.473 -0.6249 -0.1877  0.0291
    3MPD1    C314137   0.350   4.391  10.482  0.0431  0.0352  0.6760
    3MPD1    C414138   0.261   4.371  10.383 -0.0649  0.3563  0.4115
    3MPD1    C514139   0.280   4.433  10.264  1.0945  0.0667  0.6954
    3MPD1     H14140   0.527   4.492  10.558  0.6148 -1.3518 -0.6163
    3MPD1    H114141   0.174   4.306  10.386  0.2493 -0.0419  0.8615
    3MPD1    H214142   0.409   4.545  10.150 -1.1851  0.6566 -1.0162
    3MPD1    H314143   0.217   4.414  10.178  3.2393  1.8215 -1.2588
    3MPD1     N14144   0.322   4.344  10.611 -0.1758 -0.1923 -0.5494
    3MPD1    H514145   0.375   4.372  10.693 -1.5413 -0.1200  0.3165
    3MPD1    N114146   0.608   4.602  10.327  0.0428  0.0740  0.3321
    3MPD1    H614147   0.641   4.643  10.413 -2.6440  2.8342  0.0539
    3MPD1    H714148   0.601   4.688  10.272 -0.8306 -1.1297 -1.4730
    4MPD2     C14149   0.340   0.266  12.309 -0.7653  0.0018 -0.2358
    4MPD2    C114150   0.318   0.138  12.344  0.2535 -0.5496  0.3689
    4MPD2    C214151   0.380   0.041  12.262 -0.0915 -0.0787  0.7651
    4MPD2    C314152   0.449   0.083  12.143 -0.3350 -0.2236  0.4228
    4MPD2    C414153   0.460   0.216  12.107  0.1191 -0.4805 -0.9042
    4MPD2    C514154   0.406   0.306  12.198 -0.3602 -0.3147 -0.7135
    4MPD2     H14155   0.370   4.658  12.287  0.3543 -0.1307  0.7183
    4MPD2    H114156   0.507   0.261  12.020  0.4179 -0.8819 -0.9492
    4MPD2    H214157   0.309   0.343  12.379 -1.2138 -1.4906  1.1931
    4MPD2    H314158   0.441   0.409  12.195  0.0192 -0.4205  0.4072
    4MPD2     N14159   0.511   4.702  12.071 -0.0773 -0.8283  0.1833
    4MPD2    H514160   0.492   4.607  12.102 -1.5356 -1.1279 -1.6588
    4MPD2    N114161   0.231   0.090  12.446  0.0265 -0.6739 -0.2146
    4MPD2    H714162   0.219   4.712  12.462 -1.4076 -0.4724 -0.0237
    5TMC3    C114163   0.071   0.085  12.614  0.4937 -0.3984 -0.5736
    5TMC3    C214164   4.662   0.117  12.585 -0.0865  0.0352  0.1841
    5TMC3    C314165   4.578   0.017  12.551  0.0267  0.1294  0.6801
    5TMC3    C414166   0.113   4.680  12.620  0.1483  0.1023  0.2722
    5TMC3    C514167   0.027   4.580  12.582 -0.3803 -0.6027  0.5474
    5TMC3    C614168   4.616   4.605  12.559 -0.9933 -0.2187  0.5293
    5TMC3     C14169   0.161   0.169  12.544 -0.2616  0.3266  0.0992
    5TMC3     O14170   0.166   0.291  12.560 -0.2011 -0.3727  0.1889
    5TMC3     H14171   4.643   0.218  12.551  0.3243  0.0007 -0.1356
    5TMC3    H114172   0.209   4.659  12.665  0.7077 -0.6920 -1.2983
    5TMC3    H214173   4.542   4.531  12.531  0.9386 -2.7209  1.9850
    5TMC3    C714174   0.088   4.501  12.479 -0.2904  0.5940 -0.8296
    5TMC3    C814175   4.454   0.049  12.486 -0.3194  0.0779 -0.8457
    5TMC3    O114176   0.209   4.520  12.469  0.5515 -0.3956  0.1458
    5TMC3    O214177   4.395   4.666  12.454  0.7210  0.1453 -0.3670
    6TMC3    C114178   0.130   4.073  10.941 -0.9317 -0.6964  0.3331
    6TMC3    C214179   0.150   4.101  10.808 -0.2745 -0.4765  0.1256
    6TMC3    C314180   0.215   4.217  10.782  0.5728  0.3044 -0.2808
    6TMC3    C414181   0.171   4.160  11.041  0.3072  0.2844  1.3153
    6TMC3    C514182   0.254   4.261  11.004 -0.7380 -0.2126  0.1412
    6TMC3    C614183   0.283   4.294  10.878  0.2639  0.7252 -0.2739
    6TMC3     C14184   0.027   3.983  10.983 -0.0804  0.0344 -0.0320
    6TMC3     O14185   4.695   4.004  11.091 -0.3401 -0.2547  0.0217
    6TMC3     H14186   0.090   4.053  10.732  1.5712 -0.5816 -1.2552
    6TMC3    H114187   0.138   4.145  11.143  0.5042 -0.2863  1.2928
    6TMC3    H214188   0.321   4.394  10.862  0.1930  0.9833  1.2111
    6TMC3    C714189   0.323   4.328  11.116  0.6882  0.1856  0.2751
    6TMC3    C814190   0.226   4.250  10.640 -0.6529 -0.3902  0.3917
    6TMC3    O114191   0.269   4.322  11.226  0.3344  0.5375  0.5546
    6TMC3    O214192   0.165   4.180  10.559 -0.2737  0.1006  0.1731
    7MPD2     C14193   0.101   4.239  12.034 -0.3179  0.6862 -0.3167
    7MPD2    C114194   0.204   4.295  12.105  0.3783  0.5487  0.7112
    7MPD2    C214195   0.168   4.359  12.225  0.1813 -0.2004  0.3696
    7MPD2    C314196   0.040   4.360  12.277 -0.1819  0.5820 -0.6269
    7MPD2    C414197   4.666   4.302  12.201 -0.2971 -0.1857  0.0498
    7MPD2    C514198   4.696   4.239  12.084 -0.0286 -0.5513  0.0271
    7MPD2     H14199   0.251   4.406  12.275 -2.0620  1.8182  2.1970
    7MPD2    H114200   4.564   4.319  12.232  1.6659  2.6523  4.9351
    7MPD2    H214201   0.121   4.195  11.938 -0.8539  2.7786 -1.3859
    7MPD2    H314202   4.615   4.193  12.029  1.6138 -1.0233 -2.0184
    7MPD2     N14203   0.008   4.423  12.402 -0.2579 -0.1754  0.4447
    7MPD2    H514204   4.640   4.395  12.440 -1.2929  1.3414 -0.9386
    7MPD2    N114205   0.327   4.303  12.041 -0.1063  0.2853  0.3632
    7MPD2    H714206   0.340   4.250  11.955  1.8736 -0.4579  1.1158
    8TMC3    C114207   0.532   4.405  11.983  0.3037 -0.4536  0.2889
    8TMC3    C214208   0.492   4.389  11.850  0.3933  0.3925 -0.2143
    8TMC3    C314209   0.551   4.476  11.762  0.5088 -0.6719 -0.0797
    8TMC3    C414210   0.631   4.491  12.026  0.0878 -0.2148  0.2836
    8TMC3    C514211   0.664   4.588  11.932 -0.3229  0.1916  0.2481
    8TMC3    C614212   0.633   4.577  11.802  0.4425 -0.5023  0.1723
    8TMC3     C14213   0.436   4.374  12.086  0.1728 -0.1084 -0.0598
    8TMC3     O14214   0.455   4.423  12.196  0.4348  0.2370  0.2214
    8TMC3     H14215   0.426   4.314  11.808 -0.1398 -0.3660  1.9453
    8TMC3    H114216   0.655   4.502  12.131  0.8404  1.7598 -0.1046
    8TMC3    H214217   0.674   4.653  11.737  0.2333  0.0107  0.6419
    8TMC3    C714218   0.616   4.714  11.986 -0.5757  0.3392 -0.5713
    8TMC3    C814219   0.526   4.462  11.622 -0.3046 -0.9131 -0.5383
    8TMC3    O114220   0.690   0.088  11.959 -0.2855  0.9617  0.3135
    8TMC3    O214221   0.423   4.401  11.594  0.7775 -0.4522 -0.4129
    9MPD2     C14222   0.740   4.557  11.332  0.1023  0.0696  0.6790
    9MPD2    C114223   0.620   4.514  11.392 -0.1644 -0.0543 -0.3836
    9MPD2    C214224   0.513   4.475  11.312 -0.3963  0.5040 -0.6563
    9MPD2    C314225   0.529   4.469  11.172  0.3094  0.1793 -0.0034
    9MPD2    C414226   0.643   4.521  11.116  0.6904 -0.2266  0.5817
    9MPD2    C514227   0.747   4.567  11.199 -0.4434 -0.2741  0.3623
    9MPD2     H14228   0.423   4.437  11.358  0.4347  0.6115  1.0545
    9MPD2    H114229   0.673   4.505  11.012  2.9744 -1.1254  1.3734
    9MPD2    H214230   0.819   4.583  11.402 -0.8408  3.0329  0.6257
    9MPD2    H314231   0.841   4.594  11.153 -0.8815 -0.3735 -0.5912
    9MPD2     N14232   0.435   4.403  11.085 -0.2915 -0.2263  0.3581
    9MPD2    H514233   0.462   4.386  10.988  0.0239 -0.7238  0.5297
    9MPD2    N114234   0.622   4.521  11.540  0.1494 -0.0640 -0.5591
    9MPD2    H714235   0.700   4.560  11.593  2.3839 -2.5769 -2.0292
    1MPD1     C14236   4.075   2.622  17.044 -0.4861 -0.4090 -0.2905
    1MPD1    C114237   4.157   2.718  17.097  0.7354  0.2227 -0.2450
    1MPD1    C214238   4.197   2.827  17.013  0.1479  0.0976 -0.4686
    1MPD1    C314239   4.135   2.846  16.891 -0.8943  0.3025 -0.4447
    1MPD1    C414240   4.040   2.753  16.851  0.3422 -0.3815  0.5678
    1MPD1    C514241   4.022   2.639  16.921 -0.8092  0.3542  0.1471
    1MPD1     H14242   4.260   2.904  17.055 -1.3496  0.3445  1.3401
    1MPD1    H114243   3.981   2.770  16.762  4.0551 -0.4206 -1.8922
    1MPD1    H214244   4.055   2.528  17.094  1.3219 -0.2294  0.7329
    1MPD1    H314245   3.952   2.565  16.886 -1.3747  1.5099 -1.1727
    1MPD1     N14246   4.159   2.955  16.812 -0.0357  0.9928 -0.1778
    1MPD1    H514247   4.100   2.975  16.732 -1.9387 -0.6627  0.8012
    1MPD1    N114248   4.228   2.701  17.216 -0.0565  0.7080  0.2517
    1MPD1    H614249   4.170   2.649  17.282  2.7773 -2.1412  0.5097
    1MPD1    H714250   4.255   2.783  17.270  1.2061  1.2458 -1.2305
    2MPD1     C14251   4.635   3.363  15.965 -0.1284 -0.1060  0.0136
    2MPD1    C114252   4.570   3.475  16.026  0.1835  0.4714 -0.0695
    2MPD1    C214253   4.528   3.453  16.153  0.4337  0.2876 -0.2715
    2MPD1    C314254   4.548   3.341  16.229  0.0826  0.1916  0.4127
    2MPD1    C414255   4.627   3.239  16.177 -0.5765 -0.4549  0.4950
    2MPD1    C514256   4.659   3.247  16.039 -0.4837 -0.2891  0.2757
    2MPD1     H14257   4.470   3.532  16.200  0.3197  0.4267 -0.6466
    2MPD1    H114258   4.647   3.142  16.223 -0.8340 -0.2167  1.1085
    2MPD1    H214259   4.652   3.355  15.859 -0.1678 -0.6739  0.0525
    2MPD1    H314260   4.708   3.167  15.985 -0.5285  1.0673 -1.7669
    2MPD1     N14261   4.480   3.336  16.350  0.1384  0.4466  0.5612
    2MPD1    H514262   4.415   3.413  16.355  1.4672  1.5941  0.3023
    2MPD1    N114263   4.525   3.583  15.953 -0.7440  0.3947  0.1513
    2MPD1    H614264   4.518   3.664  16.015  0.9005 -0.8917  2.0121
    2MPD1    H714265   4.588   3.604  15.876  1.1721 -0.0238  1.6142
    3TCq2    C114266   4.488   3.234  16.448 -0.4472  0.3608  0.0631
    3TCq2    O214267   4.586   3.164  16.476 -0.2146  0.1613 -0.2554
    3TCq2    C214268   4.373   3.219  16.531 -0.5455  0.3615 -0.7002
    3TCq2    C314269   4.255   3.266  16.486  0.0942  0.4377 -0.1498
    3TCq2    C414270   4.142   3.248  16.561 -0.0161 -0.5110 -0.4409
    3TCq2    C514271   4.154   3.180  16.686  0.1670  0.0148 -0.5923
    3TCq2    C614272   4.275   3.138  16.728  0.6351 -0.1652 -0.0329
    3TCq2    C714273   4.385   3.159  16.651 -0.7218  0.0169  0.2677
    3TCq2    C814274   4.274   3.031  16.826  0.3598 -0.5700 -0.1599
    3TCq2    O414275   4.381   2.999  16.879 -0.1559 -0.1892 -0.1945
    3TCq2    C914276   4.015   3.284  16.513  0.3675  0.1802  0.2601
    3TCq2    O514277   3.997   3.365  16.420 -0.3439 -0.0213 -0.1952
    3TCq2    O614278   3.919   3.224  16.564 -0.0108 -0.2306  0.6088
    3TCq2    H214279   4.241   3.307  16.387  0.2656 -1.7909 -1.0880
    3TCq2    H314280   4.061   3.166  16.739  0.7697  2.1387  1.0173
    3TCq2    H414281   4.482   3.123  16.683 -1.7050 -3.1090 -0.2303
    1TCq1    O114282   2.537   2.014  12.618 -0.1547  0.2711 -0.5101
    1TCq1    C114283   2.501   2.139  12.664 -0.0707 -0.5281 -0.0325
    1TCq1    O214284   2.435   2.219  12.599 -0.1748 -0.1205 -0.8066
    1TCq1    C214285   2.493   2.114  12.814 -0.4382 -0.3015 -0.3228
    1TCq1    C314286   2.364   2.097  12.864 -0.3024  0.0056  0.7055
    1TCq1    C414287   2.351   2.049  12.986 -0.1968  0.1439  0.0820
    1TCq1    C514288   2.461   2.026  13.065 -0.1634  0.0732  0.5057
    1TCq1    C614289   2.588   2.044  13.019 -0.7258  0.3122 -0.1496
    1TCq1    C714290   2.601   2.081  12.888 -0.6436 -0.2011 -0.3235
    1TCq1    C814291   2.701   2.000  13.102  0.1045  0.6424  0.3522
    1TCq1    O414292   2.804   1.968  13.043  0.0017  0.0344  0.0782
    1TCq1    C914293   2.217   2.049  13.039  0.0306 -0.7517  0.3238
    1TCq1    O514294   2.198   2.008  13.157 -0.0705  0.3282 -0.1242
    1TCq1    O614295   2.130   2.117  12.980 -0.1300 -0.1424  0.0843
    1TCq1    H114296   2.592   1.961  12.680 -0.6339  1.5112  0.9892
    1TCq1    H214297   2.275   2.113  12.804 -0.3517 -2.0919  0.2295
    1TCq1    H314298   2.434   1.979  13.159  2.1074  0.1271  1.1888
    1TCq1    H414299   2.706   2.083  12.862 -0.7320  1.4600 -0.5522
    2MPD2     C14300   2.902   1.921  13.300 -0.7914 -0.3624  0.3893
    2MPD2    C114301   2.773   1.964  13.329 -0.1572 -0.0858  0.1020
    2MPD2    C214302   2.740   1.979  13.464 -0.4515  1.0200  0.1631
    2MPD2    C314303   2.842   1.971  13.564 -0.2144 -0.0385 -0.2860
    2MPD2    C414304   2.960   1.919  13.535 -0.3208 -0.2021 -0.5973
    2MPD2    C514305   2.989   1.883  13.403  0.0619  0.4675 -0.0013
    2MPD2     H14306   2.648   2.027  13.497 -0.1865  1.9273 -0.4134
    2MPD2    H114307   3.036   1.910  13.611 -0.9259 -1.2406 -0.1126
    2MPD2    H214308   2.934   1.885  13.203 -1.2235  0.0159  0.1016
    2MPD2    H314309   3.081   1.832  13.380  0.8321  1.9563 -0.2375
    2MPD2     N14310   2.800   2.012  13.699 -0.1288 -0.5099  0.2335
    2MPD2    H514311   2.711   2.059  13.714  0.1236  0.1942 -0.4625
    2MPD2    N114312   2.670   1.988  13.236 -0.5015 -0.2894  0.5076
    2MPD2    H714313   2.582   2.022  13.271 -1.1795 -0.0459 -1.4074
    3TCq1    O114314   2.642   2.439  14.122 -0.3404 -0.4632  0.1908
    3TCq1    C114315   2.688   2.393  14.007  0.4827 -0.0449 -0.0197
    3TCq1    O214316   2.658   2.438  13.896 -0.5393  0.2838  0.4832
    3TCq1    C214317   2.754   2.266  14.028  0.4173  0.1108  0.8772
    3TCq1    C314318   2.797   2.224  14.149 -0.0747 -0.3715 -0.0615
    3TCq1    C414319   2.870   2.111  14.155  0.3175 -0.1454  0.1978
    3TCq1    C514320   2.876   2.029  14.051 -0.0672 -0.6774  0.2054
    3TCq1    C614321   2.828   2.062  13.926  0.2204  0.0008 -0.4578
    3TCq1    C714322   2.777   2.196  13.912  0.1950  0.4797  0.3959
    3TCq1    C814323   2.875   1.986  13.813 -1.2771  0.2137  0.0230
    3TCq1    O414324   2.961   1.898  13.833  0.4664  0.4667 -0.6739
    3TCq1    C914325   2.944   2.063  14.273 -0.5744  0.0076 -0.2266
    3TCq1    O514326   3.005   1.956  14.262  0.1359 -0.9335 -0.0309
    3TCq1    O614327   2.946   2.135  14.371 -0.4604  0.2363 -0.3851
    3TCq1    H114328   2.646   2.376  14.198 -0.0499 -1.1151 -0.3647
    3TCq1    H214329   2.787   2.284  14.239 -1.2352 -0.1299 -0.3555
    3TCq1    H314330   2.933   1.937  14.055 -1.0870 -1.3738 -1.0544
    3TCq1    H414331   2.741   2.227  13.814  3.6117  1.2882 -0.5852
    1MPD2     C14332   2.853   3.318  14.830 -0.1520 -0.4487 -0.5008
    1MPD2    C114333   2.840   3.220  14.926 -0.0484  0.1899 -0.0772
    1MPD2    C214334   2.952   3.143  14.960 -0.1836  0.0768 -0.3184
    1MPD2    C314335   3.081   3.177  14.917  0.1311  0.2598  0.0426
    1MPD2    C414336   3.092   3.282  14.827  0.4385 -0.3450 -0.0204
    1MPD2    C514337   2.977   3.344  14.777 -0.0054 -0.7419  1.1960
    1MPD2     H14338   2.949   3.058  15.027 -0.4927  0.5571  0.2748
    1MPD2    H114339   3.184   3.318  14.783  0.1074 -0.9819 -1.2469
    1MPD2    H214340   2.768   3.368  14.785  0.9182  0.0803 -1.9485
    1MPD2    H314341   2.977   3.398  14.683  0.2313 -1.1092  0.9825
    1MPD2     N14342   3.196   3.111  14.971 -0.1611  0.1545  0.7239
    1MPD2    H514343   3.188   3.055  15.055 -1.6194 -1.7450 -0.7069
    1MPD2    N114344   2.711   3.198  14.976 -0.5646  0.1914 -0.0039
    1MPD2    H714345   2.638   3.255  14.933  0.7369  2.3899  0.6831
    2TMC3    C114346   2.545   3.093  15.111  0.2017 -0.0403 -0.2763
    2TMC3    C214347   2.534   2.982  15.198  0.3478  0.3103 -0.1251
    2TMC3    C314348   2.470   2.999  15.319  0.5054 -0.4538  0.2522
    2TMC3    C414349   2.485   3.215  15.138 -0.0502 -0.7410 -0.1523
    2TMC3    C514350   2.407   3.221  15.253  0.0831  0.4753 -0.0355
    2TMC3    C614351   2.396   3.112  15.338 -0.1778  0.4792 -0.1909
    2TMC3     C14352   2.683   3.102  15.069  1.1609  0.2479  0.5732
    2TMC3     O14353   2.752   3.016  15.123 -0.1102  0.6599  0.2253
    2TMC3     H14354   2.585   2.889  15.178  1.5733  0.3730  2.7349
    2TMC3    H114355   2.527   3.304  15.094 -1.0931 -0.6600 -0.9814
    2TMC3    H214356   2.326   3.116  15.421 -1.4163  1.4686 -1.2805
    2TMC3    C714357   2.292   3.299  15.245  0.5506  0.1665  0.3864
    2TMC3    C814358   2.565   2.971  15.426  0.4142 -0.6332 -0.1294
    2TMC3    O114359   2.191   3.252  15.294  0.1501 -0.2453 -0.1287
    2TMC3    O214360   2.526   2.952  15.540  0.5931 -0.4629  0.3840
    3TCq1    O114361   2.424   4.195  14.416  0.8892 -0.2708 -0.1845
    3TCq1    C114362   2.310   4.140  14.464  0.1949 -0.4886  0.1233
    3TCq1    O214363   2.201   4.194  14.463  0.4954 -0.4075  0.2452
    3TCq1    C214364   2.347   4.066  14.582  0.6986  0.1840 -0.7112
    3TCq1    C314365   2.468   4.094  14.641  0.0087  0.4912 -1.0707
    3TCq1    C414366   2.490   4.039  14.765 -0.2443  0.3572  0.0604
    3TCq1    C514367   2.401   3.965  14.829  0.0531  0.8499 -0.0599
    3TCq1    C614368   2.274   3.966  14.776  0.3434 -0.3743  0.2292
    3TCq1    C714369   2.243   4.010  14.650  0.3089 -0.2458 -0.1496
    3TCq1    C814370   2.168   3.884  14.844 -0.0352  0.4266  1.1737
    3TCq1    O414371   2.048   3.891  14.811  0.1213  0.5851  0.0403
    3TCq1    C914372   2.624   4.055  14.822 -0.1372  0.1261  0.0260
    3TCq1    O514373   2.704   4.121  14.754 -0.4762 -0.1558  0.0234
    3TCq1    O614374   2.653   3.994  14.929 -0.1370 -0.4055 -0.0246
    3TCq1    H114375   2.497   4.129  14.413  0.9168 -0.2670  0.3182
    3TCq1    H214376   2.551   4.143  14.592  0.7983 -1.4226 -1.6524
    3TCq1    H314377   2.424   3.937  14.931 -1.3737 -0.0601  0.0176
    3TCq1    H414378   2.145   4.006  14.603  0.8595  2.2496 -1.4880
    4MPD2     C14379   2.032   3.664  14.996  0.6207  0.0034  0.1373
    4MPD2    C114380   2.161   3.713  15.016 -0.0422 -0.1397 -0.1986
    4MPD2    C214381   2.244   3.633  15.088 -0.0550  0.0672  0.4451
    4MPD2    C314382   2.209   3.507  15.138  0.4550 -0.1346 -0.1653
    4MPD2    C414383   2.079   3.467  15.129 -0.0221  0.3554  0.3560
    4MPD2    C514384   1.990   3.546  15.054 -0.1957  0.5020  0.0033
    4MPD2     H14385   2.352   3.646  15.084  0.2850 -2.5021  1.1937
    4MPD2    H114386   2.042   3.368  15.154  1.8801 -0.3478  0.3614
    4MPD2    H214387   1.961   3.712  14.930 -0.9638 -1.9967  0.3710
    4MPD2    H314388   1.895   3.502  15.026  0.9465 -0.2152 -2.7486
    4MPD2     N14389   2.311   3.418  15.176 -0.0126  0.0925 -0.4155
    4MPD2    H514390   2.405   3.456  15.179 -0.0010 -0.0335  0.6652
    4MPD2    N114391   2.226   3.813  14.940 -0.3884  0.0725  0.0346
    4MPD2    H714392   2.327   3.812  14.945 -0.3240  0.1476 -1.2075
    5TMC2    C114393   3.332   2.906  15.214 -0.1003  0.2047  0.1496
    5TMC2    C214394   3.419   2.977  15.290 -0.4252 -0.1040  0.3105
    5TMC2    C314395   3.500   3.070  15.231 -0.1944  0.2046  0.1187
    5TMC2    C414396   3.326   2.926  15.077  0.3497 -0.6007 -0.1632
    5TMC2    C514397   3.404   3.030  15.020  0.5403 -0.3343 -0.1853
    5TMC2    C614398   3.491   3.102  15.103  0.3199 -0.5725  0.7531
    5TMC2     C14399   3.195   2.891  15.258 -0.2268  0.4707  0.4381
    5TMC2     O14400   3.120   2.919  15.164  0.9894  0.5764  0.4975
    5TMC2     H14401   3.424   2.949  15.395 -0.6034  0.6951  0.5266
    5TMC2    H114402   3.255   2.876  15.012 -0.4776  0.4584 -0.0793
    5TMC2    H214403   3.556   3.176  15.057 -0.5668 -1.1795 -1.5169
    5TMC2    C714404   3.330   3.131  14.939  0.1036 -0.9728 -0.4478
    5TMC2    C814405   3.605   3.133  15.305 -0.4009  0.4466  0.1986
    5TMC2    O114406   3.386   3.213  14.863  0.3464  0.1452  0.2480
    5TMC2    O214407   3.706   3.177  15.252 -0.0273  0.1877 -0.2277
    5TMC2    O514408   3.574   3.139  15.434  0.0573  0.9134 -0.1782
    5TMC2    H514409   3.478   3.138  15.454 -0.1173  0.2765 -1.0372
    6MPD2     C14410   2.804   2.917  15.600  0.8558  0.0010  0.3099
    6MPD2    C114411   2.808   2.927  15.461 -0.1584  0.7669  0.1174
    6MPD2    C214412   2.932   2.913  15.396 -0.4738 -0.0851  0.0892
    6MPD2    C314413   3.048   2.893  15.466  0.1919  0.0041 -0.1629
    6MPD2    C414414   3.039   2.868  15.598 -0.2684 -0.1811 -0.8580
    6MPD2    C514415   2.922   2.884  15.659 -0.2841  0.3878  0.1940
    6MPD2     H14416   2.933   2.925  15.288  2.1069  1.0088  0.2513
    6MPD2    H114417   3.124   2.830  15.655 -0.9527 -0.3856  0.0257
    6MPD2    H214418   2.718   2.914  15.666 -0.6221 -1.5385 -1.7200
    6MPD2    H314419   2.923   2.862  15.765  0.3938 -0.0284  0.1042
    6MPD2     N14420   3.175   2.874  15.398 -0.0952 -0.1355 -1.0765
    6MPD2    H514421   3.252   2.854  15.461 -0.9743  3.4739  1.1485
    6MPD2    N114422   2.693   2.951  15.378 -0.2197 -0.0218  0.4465
    6MPD2    H714423   2.706   2.969  15.279  0.9998  2.1984  1.0241
  945NH4     N114424   1.220   2.869   2.315 -0.5691 -0.7457  0.0369
  945NH4     H214425   1.319   2.847   2.291 -0.3361  0.6077 -0.2280
  945NH4     H314426   1.188   2.911   2.225  0.7525  2.4472  1.0781
  945NH4     H414427   1.210   2.930   2.398  2.7919 -1.1920  0.8073
  945NH4     H514428   1.173   2.777   2.325 -2.5667  0.2164 -0.5871
  946SOD     NA14429   2.611   2.346  10.440 -0.4679  0.4611 -0.3085
  947SOD     NA14430   4.365   2.693  16.423  0.0516 -0.0476 -0.3191
  948SOD     NA14431   0.575   4.487   1.183 -0.6150 -0.1143 -0.6602
  949SOD     NA14432   1.558   4.033   4.021 -0.0443  0.2117  0.2822
  950SOD     NA14433   3.814   2.694   9.173 -0.0848  0.2218 -0.3111
  951SOD     NA14434   2.373   0.220   7.230  0.1786  0.0826  0.0693
  952SOD     NA14435   3.788   4.182  17.207 -0.2033  0.1707  0.0834
  953SOD     NA14436   2.597   3.844   5.266 -0.1227 -0.1611 -0.0840
  954SOD     NA14437   3.256   1.430  13.077 -0.0081 -0.0441  0.2310
  955SOD     NA14438   0.579   3.761   7.071 -0.4229 -0.1468 -0.0152
  956SOD     NA14439   1.083   2.630  13.993 -0.0418 -0.1741 -0.0144
  957SOD     NA14440   3.733   0.876   1.641 -0.0660 -0.5395 -0.2751
  958SOD     NA14441   2.345   3.894  15.980 -0.0869  0.2399 -0.2564
  959SOD     NA14442   3.815   4.494  11.349 -0.4734  0.3580 -0.0313
  960SOD     NA14443   3.653   1.839  12.243  0.3339  0.2234  0.0744
  961SOD     NA14444   0.121   4.355   1.239  0.0100  0.1288  0.6321
  962SOD     NA14445   1.882   3.802   2.075 -0.3034 -0.7536 -0.0102
  963SOD     NA14446   2.225   2.631   1.947 -0.3069 -0.2447 -0.6358
  964SOD     NA14447   2.573   3.798  12.441 -0.3487  0.2765  0.3062
  965SOD     NA14448   4.624   0.294  11.666 -0.0352 -0.4237  0.2844
  966SOD     NA14449   4.423   0.814   2.343 -0.0080  0.5522  0.5092
  967SOD     NA14450   1.784   1.829  10.720  0.0940 -0.0047  0.0724
  968SOD     NA14451   2.886   0.882   1.048  0.2669 -0.1980  0.0653
  969SOD     NA14452   3.529   1.409  11.390 -0.0887  0.1228 -0.3175
  970SOD     NA14453   3.767   2.731   9.729 -0.3069  0.2178 -0.2931
  971SOD     NA14454   3.296   2.449  17.537 -0.1686  0.0455 -0.0919
  972SOD     NA14455   2.515   2.819  14.262  0.2455  0.4962  0.3919
  973SOD     NA14456   1.541   2.048  13.505 -0.0110 -0.1199  0.2810
  974SOD     NA14457   2.883   0.124   3.582 -0.1037  0.1999 -0.1933
  975SOD     NA14458   2.860   1.485   8.913 -0.0420  0.4541  0.2747
  976SOD     NA14459   2.197   2.091  13.362  0.0769 -0.2968  0.2313
  977SOD     NA14460   4.358   2.000  14.606 -0.0129  0.0013 -0.1701
  978SOD     NA14461   3.401   1.040  12.792  0.0988 -0.2608  0.4191
  979SOD     NA14462   0.880   1.847   0.982 -0.0678  0.0213 -0.3261
  980SOD     NA14463   4.201   4.570  14.589  0.2632  0.3932  0.2770
  981SOD     NA14464   0.738   1.169   0.764  0.1615 -0.3879 -0.3797
  982SOD     NA14465   1.511   4.499   4.908  0.4385  0.1792 -0.0377
  983SOD     NA14466   3.692   1.281  10.598  0.0332  0.0844 -0.3407
  984SOD     NA14467   3.007   1.716  10.343 -0.6127  0.1139 -0.2692
  985SOD     NA14468   4.359   2.418  14.687  0.1577  0.3711 -0.8725
  986SOD     NA14469   4.454   1.679  14.916  0.5031 -0.0546  0.8156
  987SOD     NA14470   0.258   3.716  12.696 -0.1833 -0.1531  0.2952
  988SOD     NA14471   2.652   4.270   1.203  0.0121  0.1334  0.2657
  989SOD     NA14472   2.811   0.919  11.403 -0.2046 -0.1377 -0.0078
  990SOD     NA14473   0.826   0.623  12.450  0.0129  0.4077  0.3604
  991SOD     NA14474   3.612   2.184  14.333 -0.1583 -0.0056  0.3387
  992SOD     NA14475   2.699   3.855  15.479  0.2116 -0.3433 -0.3051
  993SOD     NA14476   0.705   1.482  12.900 -0.1659  0.4372 -0.1228
  994SOD     NA14477   2.124   1.452  15.591 -0.1420  0.4984 -0.0162
  995SOD     NA14478   0.174   2.634  16.742 -0.2434  0.1688  0.0599
  996SOD     NA14479   4.557   1.809  14.624 -0.2290  0.0916 -0.2405
  997SOD     NA14480   0.898   3.005   3.017 -0.1446  0.1086  0.3096
  998SOD     NA14481   3.001   1.368  13.368 -0.2142  0.2481 -0.0232
  999SOD     NA14482   2.571   0.132  12.236  0.4010 -0.0145  0.0938
 1000SOD     NA14483   0.257   4.663   2.794 -0.2352  0.2487  0.2607
 1001SOD     NA14484   3.355   2.819  12.686  0.1427 -0.1139 -0.2377
 1002SOD     NA14485   2.526   0.299   9.954 -0.2645 -0.4998 -0.1550
 1003SOD     NA14486   4.062   2.868   1.544  0.0692 -0.1802  0.2021
 1004SOD     NA14487   3.840   3.516  16.062  0.5185  0.3851  0.6433
 1005SOD     NA14488   3.023   0.978  10.402 -0.0762 -0.3137 -0.2067
 1006SOD     NA14489   2.439   1.194  11.504 -0.0263  0.6588  0.0047
 1007SOD     NA14490   1.734   1.692  17.624  0.4453  0.3861  0.1716
 1008SOD     NA14491   0.776   1.494   0.980  0.2706 -0.1353  0.1154
 1009SOD     NA14492   4.485   3.099  10.981  0.2952 -0.1399 -0.0437
 1010SOD     NA14493   2.704   0.046   8.894 -0.3878 -0.2475 -0.0860
 1011SOL     OW14494   3.898   4.555   4.465 -0.2353  0.4386  0.5478
 1011SOL    HW114495   3.951   4.620   4.511  0.5611  0.9255 -1.0382
 1011SOL    HW214496   3.864   4.611   4.394 -0.8407 -0.2821  0.2743
 1012SOL     OW14497   1.087   1.800   5.098  0.0873  0.4201 -0.1664
 1012SOL    HW114498   1.100   1.813   5.192 -0.5898  1.1812 -0.1815
 1012SOL    HW214499   1.064   1.889   5.072 -1.8929  0.0538  0.3619
 1013SOL     OW14500   3.682   1.330  12.725  1.0105  0.6804  0.0836
 1013SOL    HW114501   3.641   1.319  12.810  0.6177 -0.7757 -0.2977
 1013SOL    HW214502   3.774   1.319  12.749  0.6717 -0.1264  1.0089
 1014SOL     OW14503   1.316   3.051   9.992  0.1485 -0.4060 -0.1038
 1014SOL    HW114504   1.351   3.122   9.938 -0.5825 -2.1168 -2.8524
 1014SOL    HW214505   1.388   3.020  10.046 -2.3213 -1.6808  2.4579
 1015SOL     OW14506   0.233   4.366   6.878 -0.5413  0.0710  0.5596
 1015SOL    HW114507   0.245   4.457   6.848  1.4180 -0.3523  0.0917
 1015SOL    HW214508   0.289   4.377   6.955 -1.0371  0.2785  0.8923
 1016SOL     OW14509   2.549   2.309  14.354  0.0246  0.2671  0.1484
 1016SOL    HW114510   2.493   2.339  14.426 -0.6373 -3.0320  1.0045
 1016SOL    HW214511   2.631   2.300  14.402 -0.3033  0.5091  0.7546
 1017SOL     OW14512   3.153   0.317   2.693 -0.3598  0.4202 -0.1701
 1017SOL    HW114513   3.079   0.338   2.749 -1.5558  0.1190 -1.6325
 1017SOL    HW214514   3.221   0.383   2.705  0.5765 -0.5384 -0.2689
 1018SOL     OW14515   1.437   0.150  12.124  0.0681  0.1949 -0.4274
 1018SOL    HW114516   1.453   0.157  12.030  1.4095 -2.5467 -0.4186
 1018SOL    HW214517   1.372   0.080  12.132  0.3398  0.1055  1.0120
 1019SOL     OW14518   4.370   4.033  12.116 -0.3403  0.5129  0.9617
 1019SOL    HW114519   4.386   3.993  12.201  0.2482 -0.3845  0.4226
 1019SOL    HW214520   4.413   3.974  12.056 -0.1572  0.1377  1.4624
 1020SOL     OW14521   4.193   0.235   6.978 -0.8791  0.0067 -0.7537
 1020SOL    HW114522   4.283   0.208   6.996 -1.0861  1.3743  2.3170
 1020SOL    HW214523   4.200   0.270   6.890  2.4571 -0.9659 -0.8469
 1021SOL     OW14524   3.230   3.404   2.608 -0.1199  0.3333 -0.5637
 1021SOL    HW114525   3.252   3.315   2.583 -0.7752  0.0958 -0.2963
 1021SOL    HW214526   3.226   3.406   2.703  3.4688  1.6211 -0.4255
 1022SOL     OW14527   3.263   3.491   2.335  0.3962  0.3804  0.2737
 1022SOL    HW114528   3.249   3.586   2.326  0.2509  0.4300  1.0457
 1022SOL    HW214529   3.229   3.487   2.425  0.3724  0.0720  0.2490
 1023SOL     OW14530   3.077   3.205   3.839  0.2138 -0.7051 -0.4780
 1023SOL    HW114531   3.106   3.263   3.768  0.7648 -2.3543 -1.6053
 1023SOL    HW214532   3.076   3.265   3.913 -0.8923  0.4101 -1.3908
 1024SOL     OW14533   2.352   2.418   7.231 -0.7140 -0.0800 -0.3591
 1024SOL    HW114534   2.411   2.358   7.185 -0.6422 -0.8544  0.7288
 1024SOL    HW214535   2.371   2.387   7.319  0.4210  0.2975 -0.4825
 1025SOL     OW14536   0.480   0.432   7.581 -0.2269  0.4212 -0.1326
 1025SOL    HW114537   0.552   0.372   7.599 -0.0842 -0.1164 -2.4963
 1025SOL    HW214538   0.416   0.372   7.542 -1.3753  1.2398  0.4639
 1026SOL     OW14539   0.761   2.318   7.492 -0.4450  0.7235  0.3277
 1026SOL    HW114540   0.791   2.320   7.582 -3.4186  1.2156  1.3204
 1026SOL    HW214541   0.806   2.397   7.461 -0.6326  0.1485 -1.4627
 1027SOL     OW14542   3.252   3.381   9.112  0.0374  0.0533 -0.0202
 1027SOL    HW114543   3.189   3.394   9.183  1.1582  1.0987  0.7689
 1027SOL    HW214544   3.210   3.418   9.034 -1.3996  1.7776  1.5817
 1028SOL     OW14545   4.408   1.138  15.566  0.7928  0.2717  0.7029
 1028SOL    HW114546   4.400   1.229  15.538 -2.5878 -1.0798 -2.8264
 1028SOL    HW214547   4.392   1.098  15.481  2.1134 -0.3119  0.7380
 1029SOL     OW14548   1.365   2.698   6.843  0.1584 -0.1962 -0.6721
 1029SOL    HW114549   1.326   2.622   6.799  2.2983 -0.1403 -2.6667
 1029SOL    HW214550   1.357   2.651   6.926  0.8540 -2.4402 -1.8834
 1030SOL     OW14551   0.653   0.352   8.954 -0.7766  0.9933  0.2448
 1030SOL    HW114552   0.572   0.354   8.904 -0.5573  1.6247 -0.0872
 1030SOL    HW214553   0.716   0.333   8.885 -2.7814 -0.1822 -1.2647
 1031SOL     OW14554   3.025   1.616   5.577 -0.0143  0.1010  1.0907
 1031SOL    HW114555   2.961   1.688   5.582  2.5898  2.4495  0.3496
 1031SOL    HW214556   3.042   1.622   5.483  0.1240 -1.5646  1.0124
 1032SOL     OW14557   0.390   1.789   3.868  0.0125  0.0326  0.6519
 1032SOL    HW114558   0.388   1.726   3.940  0.4887 -0.0058  0.6276
 1032SOL    HW214559   0.484   1.799   3.854  0.2465 -0.5607  1.8471
 1033SOL     OW14560   1.541   0.866   2.363 -0.8771  0.4786  0.1482
 1033SOL    HW114561   1.543   0.904   2.275  0.5986 -0.2331 -0.1288
 1033SOL    HW214562   1.539   0.945   2.416  0.8138 -0.0966  1.0713
 1034SOL     OW14563   2.532   3.381   3.110  0.4993 -0.0522  0.1246
 1034SOL    HW114564   2.536   3.377   3.015  1.3002  1.1384  0.1009
 1034SOL    HW214565   2.611   3.435   3.119  0.8095  0.0383 -3.4140
 1035SOL     OW14566   3.795   1.173  11.950  0.1596 -0.5513 -0.2378
 1035SOL    HW114567   3.716   1.190  12.002  1.2165 -1.5029  1.6420
 1035SOL    HW214568   3.870   1.186  12.008 -0.2559 -2.7698  0.7752
 1036SOL     OW14569   1.188   0.750   0.165 -0.0068 -0.1337  0.3759
 1036SOL    HW114570   1.129   0.701   0.221 -0.5296  1.5486  1.2896
 1036SOL    HW214571   1.265   0.746   0.222 -1.1448  0.1745  1.9334
 1037SOL     OW14572   1.798   4.057   6.727 -0.0800 -0.1967  0.0609
 1037SOL    HW114573   1.820   3.971   6.763  0.5709  0.4087  1.1247
 1037SOL    HW214574   1.706   4.060   6.756 -1.3013  0.3404 -3.9658
 1038SOL     OW14575   2.016   3.904  12.917 -0.4122  0.6134 -0.1391
 1038SOL    HW114576   2.013   3.819  12.961 -0.5906 -0.0755 -1.4617
 1038SOL    HW214577   2.110   3.925  12.920 -0.5486  1.1422  0.2695
 1039SOL     OW14578   3.256   4.022   0.712 -0.3073 -0.1686 -0.3562
 1039SOL    HW114579   3.328   3.978   0.758 -0.4413 -0.5464 -0.5085
 1039SOL    HW214580   3.205   4.032   0.792 -0.4057  2.5902 -0.7825
 1040SOL     OW14581   1.348   2.799  16.436  0.5549  0.4317 -0.0357
 1040SOL    HW114582   1.319   2.888  16.452 -0.4506 -0.0257  0.7289
 1040SOL    HW214583   1.270   2.745  16.453  0.4725  0.4398 -0.3895
 1041SOL     OW14584   3.687   3.081   3.542 -0.1929  0.3487  0.3237
 1041SOL    HW114585   3.754   3.093   3.475 -0.8123 -0.6263 -0.4716
 1041SOL    HW214586   3.745   3.066   3.616  2.0123  2.4854 -0.9725
 1042SOL     OW14587   2.917   4.687   4.035  0.4923 -0.1404 -0.0036
 1042SOL    HW114588   3.005   4.670   4.069  1.2550  0.9576 -1.4289
 1042SOL    HW214589   2.885   4.597   4.038 -0.6299  0.2336 -0.8521
 1043SOL     OW14590   0.904   3.928  11.342 -0.1754 -0.1430  0.4152
 1043SOL    HW114591   0.956   3.861  11.298 -1.6853  0.1559 -1.8440
 1043SOL    HW214592   0.982   3.974  11.371  0.2313 -0.0477 -0.8162
 1044SOL     OW14593   3.941   3.767   5.543  0.1452  0.0269 -0.0680
 1044SOL    HW114594   3.958   3.685   5.589 -1.8287  0.4533  1.3873
 1044SOL    HW214595   3.904   3.828   5.607  0.3601 -0.1597  0.2331
 1045SOL     OW14596   4.118   3.252   5.679 -0.3889 -0.0506  0.2316
 1045SOL    HW114597   4.210   3.269   5.700 -0.4116  0.5639 -0.1535
 1045SOL    HW214598   4.084   3.248   5.768 -0.7984  0.2863  0.0918
 1046SOL     OW14599   3.892   0.170   7.725 -0.3480 -0.1483  0.3943
 1046SOL    HW114600   3.899   0.263   7.702  0.8944 -1.0196 -2.6347
 1046SOL    HW214601   3.901   0.126   7.641  1.3183 -0.8799  0.9676
 1047SOL     OW14602   2.503   2.868   7.520 -0.4362  0.4471 -0.2775
 1047SOL    HW114603   2.526   2.810   7.447  1.4815  2.0222 -0.9129
 1047SOL    HW214604   2.474   2.945   7.472 -0.2047  0.9492  0.3993
 1048SOL     OW14605   4.455   0.450   0.685  0.3062 -0.2262 -0.0301
 1048SOL    HW114606   4.526   0.390   0.708  0.4015  0.2036  0.7631
 1048SOL    HW214607   4.393   0.386   0.649  0.1626 -0.1179  0.0229
 1049SOL     OW14608   4.328   1.772   8.943  0.2181 -0.4130 -0.3489
 1049SOL    HW114609   4.271   1.848   8.935  1.6405  0.6227 -0.6986
 1049SOL    HW214610   4.294   1.733   9.024  1.0578 -3.0549 -1.2774
 1050SOL     OW14611   0.115   4.237   8.937 -0.1152  0.1395 -0.0480
 1050SOL    HW114612   0.089   4.273   9.021 -1.6169 -1.5277  0.2244
 1050SOL    HW214613   0.070   4.153   8.948  1.8803 -1.0592 -1.0575
 1051SOL     OW14614   0.490   3.531  12.014  0.0372  0.0163  0.4472
 1051SOL    HW114615   0.437   3.595  12.061  0.5205  0.1567  0.7999
 1051SOL    HW214616   0.500   3.582  11.933  1.0888 -0.2427  0.4143
 1052SOL     OW14617   4.331   3.821   2.591  0.0060 -0.0113  0.0240
 1052SOL    HW114618   4.426   3.827   2.577  0.1776 -0.5927  0.9262
 1052SOL    HW214619   4.325   3.811   2.686  0.8686  1.4706  0.2463
 1053SOL     OW14620   4.611   3.731   2.529 -0.0151  0.6923 -0.4590
 1053SOL    HW114621   4.611   3.638   2.506 -2.7457  0.3768  0.8438
 1053SOL    HW214622   4.702   3.747   2.557 -0.8808  2.5616  1.2680
 1054SOL     OW14623   3.428   1.108   8.085 -0.1183  0.4091  0.3176
 1054SOL    HW114624   3.379   1.040   8.131 -0.5239 -0.6345 -1.6387
 1054SOL    HW214625   3.362   1.175   8.068 -1.7625 -1.4387 -0.6090
 1055SOL     OW14626   0.760   3.631   7.104  0.0589 -0.2496 -0.3868
 1055SOL    HW114627   0.852   3.627   7.129  0.3804 -0.1745 -1.5948
 1055SOL    HW214628   0.734   3.541   7.081  0.2176 -0.6151  0.8500
 1056SOL     OW14629   1.877   3.979   5.881  0.0115  0.5781  0.0585
 1056SOL    HW114630   1.802   3.943   5.834  1.3614 -0.5383 -1.2653
 1056SOL    HW214631   1.841   4.050   5.933  0.7311 -0.0776  1.4613
 1057SOL     OW14632   1.893   4.404  17.489 -0.1897 -0.8662  0.0362
 1057SOL    HW114633   1.874   4.362  17.405  2.6363 -1.2064 -0.4238
 1057SOL    HW214634   1.868   4.495  17.473  0.1265 -0.8815 -0.5414
 1058SOL     OW14635   1.826   3.471   6.452  0.4828  0.1899 -0.5688
 1058SOL    HW114636   1.796   3.544   6.398 -0.2294  1.6101  1.7768
 1058SOL    HW214637   1.750   3.416   6.435 -1.6246  2.8259  0.4182
 1059SOL     OW14638   0.977   0.391   5.449  0.3394 -0.3874  0.2850
 1059SOL    HW114639   1.059   0.360   5.408 -0.0529  0.5575 -1.2326
 1059SOL    HW214640   0.924   0.313   5.437 -0.2381 -0.0692  0.8326
 1060SOL     OW14641   3.944   0.482   6.212 -0.1660 -0.0410 -0.1253
 1060SOL    HW114642   3.927   0.396   6.174  0.0171 -0.0204 -0.2545
 1060SOL    HW214643   3.949   0.460   6.305  2.6875 -0.5820 -0.4228
 1061SOL     OW14644   3.421   2.417   0.291  0.2362 -0.3238 -0.0917
 1061SOL    HW114645   3.422   2.509   0.319  3.4523 -0.4017  0.0250
 1061SOL    HW214646   3.452   2.427   0.201 -0.1899  0.2327 -0.1759
 1062SOL     OW14647   2.077   0.095   5.603  0.3278  0.5340 -0.2451
 1062SOL    HW114648   2.101   0.057   5.687  1.9121  2.1762  0.0461
 1062SOL    HW214649   1.998   0.146   5.621 -0.0676  0.1388 -0.8476
 1063SOL     OW14650   1.052   3.950  12.974 -0.1556 -0.0412 -0.3721
 1063SOL    HW114651   1.061   3.999  12.892 -3.4795 -0.7462 -1.1360
 1063SOL    HW214652   0.969   3.988  13.001  0.0772  1.8843 -2.4078
 1064SOL     OW14653   1.282   3.753  14.012  0.4219 -0.0550  0.9247
 1064SOL    HW114654   1.361   3.750  14.067  0.1640 -0.8000  1.2530
 1064SOL    HW214655   1.318   3.810  13.944  1.6550 -1.2676  0.5704
 1065SOL     OW14656   2.680   0.294  11.648 -0.1204  0.5276 -0.0549
 1065SOL    HW114657   2.592   0.314  11.680 -0.1467 -3.3678  2.3773
 1065SOL    HW214658   2.693   0.368  11.590  2.2354 -0.3607 -0.6612
 1066SOL     OW14659   1.330   1.163  14.902  0.3150 -0.7002  0.7590
 1066SOL    HW114660   1.395   1.233  14.907 -0.4205  0.0046  0.2484
 1066SOL    HW214661   1.249   1.204  14.872  0.8974 -1.0538 -1.2901
 1067SOL     OW14662   3.153   1.199   3.648  0.1585 -0.2510  0.3877
 1067SOL    HW114663   3.135   1.275   3.703  1.6601  0.7992 -0.5555
 1067SOL    HW214664   3.153   1.241   3.562  0.9615 -2.3645 -0.6347
 1068SOL     OW14665   1.012   3.849  14.559 -0.2615 -0.5685 -0.5198
 1068SOL    HW114666   0.969   3.934  14.566 -1.0754 -1.0053 -0.2342
 1068SOL    HW214667   1.071   3.857  14.484  0.4649 -0.3922  0.0671
 1069SOL     OW14668   3.970   1.878   1.760 -0.0991 -0.1428 -0.5698
 1069SOL    HW114669   4.000   1.804   1.706 -0.5861 -0.1105 -0.8817
 1069SOL    HW214670   3.876   1.892   1.750 -0.2470  0.7179  2.0868
 1070SOL     OW14671   4.458   4.136  13.812 -0.3201  0.0145 -0.4840
 1070SOL    HW114672   4.504   4.189  13.746  2.9538 -1.4037  0.6269
 1070SOL    HW214673   4.397   4.198  13.851  0.8038 -0.1760  1.5560
 1071SOL     OW14674   1.446   0.470   6.243 -0.6890  0.2188 -0.5512
 1071SOL    HW114675   1.401   0.424   6.173  0.0918 -2.0412  0.4261
 1071SOL    HW214676   1.490   0.537   6.190 -0.5384  0.8911  0.4075
 1072SOL     OW14677   4.554   2.897   2.940 -0.0691 -0.3267  0.2070
 1072SOL    HW114678   4.647   2.909   2.961  0.0405 -1.2675  0.2680
 1072SOL    HW214679   4.516   2.900   3.028 -0.0306  0.0043  0.2110
 1073SOL     OW14680   2.668   3.402  16.942  0.1796 -0.4154  0.0787
 1073SOL    HW114681   2.598   3.395  16.876 -0.2639 -1.9893  0.7256
 1073SOL    HW214682   2.751   3.410  16.897  0.1773 -0.0682  0.1361
 1074SOL     OW14683   3.399   4.609   8.269  0.7829 -0.1349 -0.5932
 1074SOL    HW114684   3.352   4.667   8.209 -0.9742 -0.4367  0.4913
 1074SOL    HW214685   3.342   4.533   8.265 -0.1769  0.5464  0.2278
 1075SOL     OW14686   2.963   1.490   5.814  0.4137 -0.4841  0.4486
 1075SOL    HW114687   2.950   1.569   5.763  2.1807 -0.5613 -0.1053
 1075SOL    HW214688   3.055   1.477   5.793 -0.0817 -1.7379 -0.9306
 1076SOL     OW14689   2.708   2.492  10.611  0.1442  0.4844  0.0600
 1076SOL    HW114690   2.647   2.529  10.674 -1.2855 -2.4754  0.4131
 1076SOL    HW214691   2.786   2.548  10.611  0.3901  0.1430 -1.4039
 1077SOL     OW14692   2.772   0.997   6.036  0.5663  0.0417  0.2857
 1077SOL    HW114693   2.783   0.915   5.988 -1.6891  0.4047 -0.8371
 1077SOL    HW214694   2.860   1.002   6.075  0.6247 -1.4822  0.3815
 1078SOL     OW14695   1.832   1.363   0.424  0.5102 -0.0456 -0.1265
 1078SOL    HW114696   1.811   1.371   0.517  0.6840 -2.1829  0.1134
 1078SOL    HW214697   1.922   1.332   0.426  1.5266  2.9988  0.5353
 1079SOL     OW14698   4.136   4.072  16.873  0.4613  0.0131  0.1593
 1079SOL    HW114699   4.173   4.144  16.822 -0.8804 -0.3570 -1.3642
 1079SOL    HW214700   4.125   4.005  16.805  0.0152 -0.2176  0.4559
 1080SOL     OW14701   3.283   4.404  11.990 -0.6617 -0.0979 -0.3196
 1080SOL    HW114702   3.337   4.325  11.985 -0.3733 -0.0283  1.6649
 1080SOL    HW214703   3.300   4.451  11.908  0.7361 -0.3484 -0.1704
 1081SOL     OW14704   3.229   1.244   5.313  0.5350 -0.0143 -0.1323
 1081SOL    HW114705   3.242   1.334   5.282 -1.6280 -0.1195 -1.3204
 1081SOL    HW214706   3.173   1.261   5.388 -2.3241 -1.3968 -1.9615
 1082SOL     OW14707   0.855   1.327   2.083  0.3320  0.2783 -0.1219
 1082SOL    HW114708   0.819   1.411   2.054 -1.8930 -0.4699  0.4927
 1082SOL    HW214709   0.868   1.277   2.003  0.2499  1.3600 -0.8188
 1083SOL     OW14710   4.040   2.813   4.523 -0.2903 -0.3727 -0.6543
 1083SOL    HW114711   3.999   2.832   4.439 -1.9460  2.8725  0.8736
 1083SOL    HW214712   4.039   2.892   4.576  2.1901 -0.0697 -1.0476
 1084SOL     OW14713   3.489   3.122  10.260  0.0249 -0.5823  0.9016
 1084SOL    HW114714   3.453   3.124  10.349  1.5245  2.1747  1.4421
 1084SOL    HW214715   3.457   3.036  10.232  0.8094 -0.4784 -0.3162
 1085SOL     OW14716   3.379   1.231   7.598  0.2214 -0.2568  0.0645
 1085SOL    HW114717   3.360   1.208   7.507 -0.7929  0.2080  0.1521
 1085SOL    HW214718   3.350   1.321   7.613  1.0177 -0.0247  0.2131
 1086SOL     OW14719   2.170   0.405   3.596  0.0459 -0.0030  0.1948
 1086SOL    HW114720   2.109   0.366   3.659 -0.0398  0.2909  0.2946
 1086SOL    HW214721   2.107   0.434   3.530 -0.1803 -0.1220  0.3583
 1087SOL     OW14722   4.625   1.628  11.306  0.4650 -0.1863  0.4514
 1087SOL    HW114723   4.668   1.697  11.256 -2.5756  0.9613 -0.5559
 1087SOL    HW214724   4.602   1.679  11.384  0.0217  1.0118 -0.4655
 1088SOL     OW14725   1.769   0.871   1.902  0.6608 -0.0241 -0.6089
 1088SOL    HW114726   1.811   0.805   1.957  0.5324 -0.2267 -0.7569
 1088SOL    HW214727   1.742   0.818   1.827  0.8826 -2.3133  0.9379
 1089SOL     OW14728   1.648   1.194   4.152 -0.2642  0.3174 -0.1333
 1089SOL    HW114729   1.585   1.266   4.159 -1.5316 -0.9906  1.7946
 1089SOL    HW214730   1.656   1.190   4.057  1.2197  1.7757 -0.0808
 1090SOL     OW14731   3.979   0.824   8.020 -0.3479 -0.1855 -0.0937
 1090SOL    HW114732   4.049   0.888   8.010 -1.0504  0.1441 -3.0240
 1090SOL    HW214733   3.938   0.849   8.103  2.7811 -0.9343  1.6763
 1091SOL     OW14734   3.533   4.558   6.012 -0.0111 -0.3771  0.5398
 1091SOL    HW114735   3.513   4.630   5.951 -0.3156  0.2892  1.4211
 1091SOL    HW214736   3.448   4.526   6.042 -0.7496  1.7174  0.7131
 1092SOL     OW14737   0.236   1.880   3.620  0.5544  0.0271 -0.4521
 1092SOL    HW114738   0.228   1.844   3.708  1.1952 -1.8859 -1.1660
 1092SOL    HW214739   0.325   1.912   3.630  0.7077 -1.1703  1.9934
 1093SOL     OW14740   3.925   3.344   5.518 -0.0040 -0.1642  0.1579
 1093SOL    HW114741   3.991   3.306   5.576  0.0407 -0.2508  0.0509
 1093SOL    HW214742   3.920   3.284   5.444  0.6997 -0.0490  0.0195
 1094SOL     OW14743   3.934   4.394  16.788  0.2253 -0.1114  0.1274
 1094SOL    HW114744   3.997   4.353  16.728 -0.0541  0.8184 -0.7846
 1094SOL    HW214745   3.947   4.488  16.775  0.5124 -0.2575 -0.6233
 1095SOL     OW14746   0.364   2.546   9.586 -0.0030  0.2139  0.7086
 1095SOL    HW114747   0.399   2.514   9.669  0.1030  0.1667  0.6456
 1095SOL    HW214748   0.331   2.631   9.618 -0.9238 -0.1068  0.6183
 1096SOL     OW14749   3.482   4.660   3.262 -0.1122  0.4693  0.1946
 1096SOL    HW114750   3.509   4.621   3.345 -2.6113  0.7660  1.1608
 1096SOL    HW214751   3.557   4.651   3.204 -0.8676 -1.1224 -0.5391
 1097SOL     OW14752   4.074   3.982   4.285 -0.2121 -0.4372 -0.2578
 1097SOL    HW114753   4.095   4.048   4.351  0.7555 -0.3808 -0.6082
 1097SOL    HW214754   4.055   3.917   4.352 -0.4933 -2.1054 -1.9451
 1098SOL     OW14755   4.656   3.077   6.120  0.2301 -0.3158  0.2969
 1098SOL    HW114756   4.614   2.992   6.133 -0.2294 -0.0387  0.5986
 1098SOL    HW214757   4.662   3.072   6.025  0.1041 -2.0675  0.3714
 1099SOL     OW14758   2.611   2.300   3.393 -0.3803 -0.1521  0.3828
 1099SOL    HW114759   2.628   2.206   3.397  2.6091  0.4464  1.6877
 1099SOL    HW214760   2.522   2.303   3.359 -0.9730 -0.1316  1.9243
 1100SOL     OW14761   0.330   2.012   4.358  0.5298 -0.0613 -0.2927
 1100SOL    HW114762   0.304   1.962   4.281  0.9250  1.2170 -1.2451
 1100SOL    HW214763   0.272   2.087   4.356  0.6404  0.0224 -0.3579
 1101SOL     OW14764   0.133   1.583  14.006  0.0426 -0.1343  0.2799
 1101SOL    HW114765   0.214   1.617  14.044  1.4433 -1.7148 -1.2747
 1101SOL    HW214766   0.068   1.646  14.038 -0.7898  0.3453 -2.4000
 1102SOL     OW14767   3.053   0.439   4.618  0.2226  0.2320 -0.2711
 1102SOL    HW114768   2.972   0.411   4.576 -1.5703  2.5964  1.6351
 1102SOL    HW214769   3.120   0.406   4.558 -0.0967  0.7483 -0.8932
 1103SOL     OW14770   4.478   0.770   8.554 -0.1120  0.0097 -0.6314
 1103SOL    HW114771   4.501   0.858   8.584  0.3878 -0.3067 -0.0896
 1103SOL    HW214772   4.424   0.787   8.476  1.1683  0.5874 -1.3937
 1104SOL     OW14773   1.864   1.219   3.684  0.0394 -0.0214  0.0932
 1104SOL    HW114774   1.840   1.296   3.632  1.9265  0.6873  0.2888
 1104SOL    HW214775   1.785   1.208   3.738  0.5151  1.0715  1.0035
 1105SOL     OW14776   0.654   0.900   6.503 -0.0958 -0.4177 -0.6167
 1105SOL    HW114777   0.569   0.860   6.517  0.3859 -0.2848  2.8254
 1105SOL    HW214778   0.698   0.883   6.587  0.6844 -1.4490 -1.2488
 1106SOL     OW14779   0.806   2.681   8.919  0.8111 -0.0146  0.3245
 1106SOL    HW114780   0.728   2.709   8.966  0.7842  2.8106 -1.3939
 1106SOL    HW214781   0.838   2.620   8.985 -1.9860 -2.5212 -0.6799
 1107SOL     OW14782   2.562   4.635   4.854 -0.1721 -0.0747  0.3122
 1107SOL    HW114783   2.644   4.680   4.835 -0.2799 -0.8080 -1.9468
 1107SOL    HW214784   2.576   4.551   4.810 -0.5078 -0.8439  1.6657
 1108SOL     OW14785   3.116   1.093  10.077 -0.4065  0.0409  0.0049
 1108SOL    HW114786   3.045   1.060  10.133 -0.7082 -0.7938 -0.8697
 1108SOL    HW214787   3.083   1.067   9.991 -1.0401 -1.4382  0.6862
 1109SOL     OW14788   0.428   3.697   8.326  0.4109  0.3071 -0.5127
 1109SOL    HW114789   0.400   3.737   8.244  0.0978  1.3530  0.1012
 1109SOL    HW214790   0.522   3.710   8.327  0.7701 -2.3727 -0.7394
 1110SOL     OW14791   0.808   2.156  11.566  0.2980 -0.1856 -0.1431
 1110SOL    HW114792   0.767   2.159  11.652  0.7158  4.3290 -0.1337
 1110SOL    HW214793   0.735   2.185  11.510  0.6501 -0.7734 -0.9149
 1111SOL     OW14794   2.166   1.715   4.829  0.0874  0.4467 -0.0068
 1111SOL    HW114795   2.078   1.684   4.852  1.0968 -1.7656  0.8987
 1111SOL    HW214796   2.220   1.638   4.813  1.8001  1.5407  0.5933
 1112SOL     OW14797   1.851   4.078  17.453  0.2224  0.4460 -0.3020
 1112SOL    HW114798   1.892   4.090  17.368  0.7732  0.7869  0.0119
 1112SOL    HW214799   1.913   4.040  17.516 -1.0254 -1.7892 -0.4026
 1113SOL     OW14800   2.591   0.674   2.208  0.1553  0.2766  0.0423
 1113SOL    HW114801   2.637   0.713   2.133 -2.0329  2.4848 -0.1337
 1113SOL    HW214802   2.639   0.594   2.232 -0.7875 -0.4306 -0.4075
 1114SOL     OW14803   0.694   1.977   7.555  0.2005  0.4813 -0.6520
 1114SOL    HW114804   0.648   1.900   7.588  1.9918 -0.3347 -0.0558
 1114SOL    HW214805   0.628   2.033   7.515  1.1561  2.0663 -0.0189
 1115SOL     OW14806   3.309   2.532   5.512 -0.4261 -0.6857  0.8546
 1115SOL    HW114807   3.309   2.604   5.575 -1.4261 -0.4690  0.6019
 1115SOL    HW214808   3.247   2.562   5.445  1.7183  0.2642 -0.7321
 1116SOL     OW14809   4.187   2.463   7.115  1.3353 -0.5096 -0.3798
 1116SOL    HW114810   4.233   2.473   7.198  0.0610  2.3464  0.0055
 1116SOL    HW214811   4.215   2.546   7.076 -2.5595 -0.3559 -2.8878
 1117SOL     OW14812   4.182   2.840   8.302 -0.5974 -0.5315 -0.0748
 1117SOL    HW114813   4.230   2.820   8.222 -2.0423 -0.9989 -0.8185
 1117SOL    HW214814   4.094   2.829   8.266 -0.5365 -1.2636  0.0028
 1118SOL     OW14815   3.996   2.304   8.073  0.4323  0.2793 -0.4371
 1118SOL    HW114816   4.077   2.269   8.111  1.1702  2.4024 -0.0146
 1118SOL    HW214817   4.006   2.258   7.990  1.6965 -0.7778  0.2890
 1119SOL     OW14818   1.769   2.399   2.206 -0.4986 -0.8468  0.1786
 1119SOL    HW114819   1.685   2.354   2.198 -0.1860 -0.9611 -2.4308
 1119SOL    HW214820   1.752   2.446   2.124  2.4792 -0.8228 -0.4319
 1120SOL     OW14821   3.618   0.824   8.837 -0.2685  0.0916  0.7291
 1120SOL    HW114822   3.669   0.876   8.774 -1.2550  1.6155  1.1744
 1120SOL    HW214823   3.682   0.758   8.862 -0.4987  0.7287  2.9509
 1121SOL     OW14824   2.534   0.933   2.795 -0.7159  0.6928 -0.0651
 1121SOL    HW114825   2.615   0.894   2.763 -0.1153  0.1641  2.1182
 1121SOL    HW214826   2.561   1.024   2.812 -0.7898  0.1545  2.9602
 1122SOL     OW14827   2.415   0.148   3.037  0.4528 -0.1453  0.0857
 1122SOL    HW114828   2.420   0.088   3.112  0.2224 -0.6810 -0.3300
 1122SOL    HW214829   2.503   0.170   3.009  0.3527 -0.9148 -0.8395
 1123SOL     OW14830   4.544   4.429   7.201  0.0444 -0.0940  0.4901
 1123SOL    HW114831   4.597   4.352   7.223 -0.9217 -0.2705  2.2290
 1123SOL    HW214832   4.459   4.398   7.233  0.9447 -0.4025  2.5897
 1124SOL     OW14833   1.205   4.545   6.025 -0.7020  0.4210 -0.2496
 1124SOL    HW114834   1.293   4.527   6.060 -0.5743  3.2779  0.9450
 1124SOL    HW214835   1.182   4.459   5.991 -0.1638  1.2548 -2.7185
 1125SOL     OW14836   1.951   3.698   2.780 -0.0659  0.1428  0.5367
 1125SOL    HW114837   1.959   3.650   2.698 -3.9070 -0.6942  0.6144
 1125SOL    HW214838   1.966   3.625   2.840  0.2667 -0.4321 -0.2652
 1126SOL     OW14839   1.994   2.343   6.147  0.2097 -0.2821  0.5865
 1126SOL    HW114840   2.006   2.369   6.056 -1.3559 -0.7212  0.2600
 1126SOL    HW214841   2.078   2.299   6.166  1.0176  1.8879  2.0302
 1127SOL     OW14842   0.574   4.441   7.744  0.1184 -0.2068  0.4789
 1127SOL    HW114843   0.570   4.484   7.829 -0.3301 -1.6295  1.1716
 1127SOL    HW214844   0.648   4.381   7.754 -0.4981 -1.1591 -0.6650
 1128SOL     OW14845   1.210   4.539  13.554  0.0631  0.3083 -0.1092
 1128SOL    HW114846   1.151   4.472  13.521 -1.2772  2.0863 -1.2756
 1128SOL    HW214847   1.158   4.617  13.535 -0.1607  0.0820 -0.4164
 1129SOL     OW14848   3.920   4.248   5.058 -0.0335  0.3621 -0.0405
 1129SOL    HW114849   3.939   4.254   4.965  1.4569 -1.5512  0.1584
 1129SOL    HW214850   4.010   4.249   5.090  0.1457  1.3730 -0.5734
 1130SOL     OW14851   1.835   0.155   6.245 -0.5534  0.0596 -0.2836
 1130SOL    HW114852   1.903   0.092   6.221  0.5423  1.0040  0.3443
 1130SOL    HW214853   1.823   0.139   6.339 -1.7592  2.0801 -0.0945
 1131SOL     OW14854   3.604   3.475  12.168  0.2457  0.8010  0.0990
 1131SOL    HW114855   3.694   3.507  12.154  0.9214 -0.5494  1.3723
 1131SOL    HW214856   3.615   3.383  12.144  2.4124  0.1511  3.5943
 1132SOL     OW14857   3.784   3.051   4.812  0.2510 -0.0197 -0.4664
 1132SOL    HW114858   3.877   3.054   4.834  0.2154 -0.3936 -0.2795
 1132SOL    HW214859   3.764   3.131   4.763  1.1030  0.7244  0.4185
 1133SOL     OW14860   4.186   0.244   1.631  0.1898  0.4022  0.0964
 1133SOL    HW114861   4.148   0.162   1.662 -0.5736  0.6552 -0.1680
 1133SOL    HW214862   4.236   0.264   1.710 -0.8146  2.4454  0.1918
 1134SOL     OW14863   2.379   3.935  16.919 -0.4081  0.1705 -0.0695
 1134SOL    HW114864   2.466   3.899  16.939 -0.0135 -0.0406 -2.1529
 1134SOL    HW214865   2.343   3.936  17.008 -0.7422  2.2886 -0.2303
 1135SOL     OW14866   2.389   4.659   6.114  0.0862 -0.3688 -0.4250
 1135SOL    HW114867   2.476   4.697   6.126  0.3205 -0.7796 -0.8196
 1135SOL    HW214868   2.411   4.578   6.161  1.6157 -0.5476 -1.4339
 1136SOL     OW14869   1.219   2.907   0.866 -0.1231 -0.3758  0.3376
 1136SOL    HW114870   1.257   2.826   0.832 -1.8034 -0.1338 -2.1082
 1136SOL    HW214871   1.125   2.886   0.865 -0.4630  1.2544 -1.3144
 1137SOL     OW14872   4.215   1.361  11.987 -0.6430  0.0312  0.1914
 1137SOL    HW114873   4.201   1.315  11.904  0.6176  0.8434 -0.4691
 1137SOL    HW214874   4.178   1.442  11.951 -0.6382  0.2613  0.7064
 1138SOL     OW14875   2.201   2.299  13.246 -0.7114  0.2875  0.0752
 1138SOL    HW114876   2.197   2.377  13.301  0.2204  1.0700 -0.9722
 1138SOL    HW214877   2.180   2.333  13.159  0.2508  1.0586  0.1445
 1139SOL     OW14878   2.170   2.296   1.055  0.3990 -0.6741 -0.3190
 1139SOL    HW114879   2.160   2.388   1.079 -0.3193 -0.2815 -2.1646
 1139SOL    HW214880   2.092   2.279   1.003  1.0172 -0.4086 -1.3473
 1140SOL     OW14881   1.163   2.508  14.367  0.2955 -0.5343  0.2698
 1140SOL    HW114882   1.204   2.548  14.290  0.8797  1.4363  1.6017
 1140SOL    HW214883   1.070   2.508  14.343  0.5675  2.4991 -0.7874
 1141SOL     OW14884   4.105   1.451   4.318 -0.1071  0.0241  0.3276
 1141SOL    HW114885   4.044   1.499   4.262  1.2729  0.5325 -0.7309
 1141SOL    HW214886   4.102   1.495   4.403 -0.4681 -1.4107  1.0630
 1142SOL     OW14887   2.755   2.578   9.316 -0.1178  0.1789  0.1852
 1142SOL    HW114888   2.803   2.661   9.321  1.5886 -0.6550 -2.4691
 1142SOL    HW214889   2.691   2.592   9.386 -0.2846  0.2436  0.0183
 1143SOL     OW14890   2.138   2.950   2.716  0.4254 -0.3234  0.6545
 1143SOL    HW114891   2.203   2.929   2.782  0.9408  0.2183  0.3198
 1143SOL    HW214892   2.194   2.975   2.643 -0.4462 -1.3476 -0.3673
 1144SOL     OW14893   2.414   2.661  10.523 -0.2869  0.0275 -0.2821
 1144SOL    HW114894   2.414   2.727  10.592  0.0124 -1.7521  1.4072
 1144SOL    HW214895   2.333   2.613  10.539 -0.9461  1.1125 -0.4170
 1145SOL     OW14896   1.531   3.720  13.122  0.7658 -0.2882 -0.0977
 1145SOL    HW114897   1.581   3.800  13.134 -0.6748  0.4814  0.8045
 1145SOL    HW214898   1.598   3.662  13.159  2.0536  0.9152 -0.5761
 1146SOL     OW14899   2.889   2.245   0.414  0.0630 -0.3088 -0.1565
 1146SOL    HW114900   2.832   2.194   0.357  0.1088 -1.0684  0.4799
 1146SOL    HW214901   2.851   2.244   0.502 -1.6700  2.8502 -0.8628
 1147SOL     OW14902   1.526   0.461  14.028 -0.1835  0.2298 -0.6809
 1147SOL    HW114903   1.524   0.372  13.993  1.8312  0.4844 -1.4243
 1147SOL    HW214904   1.445   0.504  13.998 -0.0941 -0.5437 -2.0099
 1148SOL     OW14905   3.165   4.176   2.079  0.1301 -0.0984 -0.4279
 1148SOL    HW114906   3.089   4.234   2.072 -0.5616 -1.1885 -1.9501
 1148SOL    HW214907   3.174   4.160   2.173 -0.7994  1.8786 -0.0093
 1149SOL     OW14908   2.997   1.861  17.341 -0.0311  1.1068  0.1601
 1149SOL    HW114909   3.048   1.941  17.334  0.3957  0.6998 -1.4047
 1149SOL    HW214910   3.006   1.839  17.434  1.7409 -3.1748 -0.9839
 1150SOL     OW14911   1.034   1.836  11.037  0.2404  0.0088 -0.3387
 1150SOL    HW114912   0.955   1.786  11.015  2.0256 -3.1217  0.5406
 1150SOL    HW214913   1.088   1.768  11.077  1.9343  1.7704  0.3661
 1151SOL     OW14914   4.162   2.695   1.626  0.5364 -0.2658  0.1465
 1151SOL    HW114915   4.253   2.687   1.654  0.9853  1.7380 -0.7675
 1151SOL    HW214916   4.131   2.611   1.661 -1.9629  0.7930  0.4826
 1152SOL     OW14917   1.769   2.757   7.953 -0.6210 -0.4750 -0.5332
 1152SOL    HW114918   1.718   2.819   8.006 -0.1914 -0.6327  0.0614
 1152SOL    HW214919   1.852   2.803   7.945 -0.9282 -0.0417 -1.2166
 1153SOL     OW14920   3.150   2.170   2.979 -0.1721  0.1104 -0.0132
 1153SOL    HW114921   3.179   2.261   2.964  1.5022 -0.6298 -1.3079
 1153SOL    HW214922   3.159   2.157   3.073  3.1626  0.1496 -0.3268
 1154SOL     OW14923   0.851   0.743   9.183 -0.4313 -0.0561  0.6154
 1154SOL    HW114924   0.765   0.746   9.226 -0.2901  1.4402  0.8081
 1154SOL    HW214925   0.854   0.823   9.130  0.3128  1.1908  2.5181
 1155SOL     OW14926   4.257   4.302   5.945 -0.6304  0.2944 -0.3790
 1155SOL    HW114927   4.288   4.314   5.855  0.8417  3.5778  0.5758
 1155SOL    HW214928   4.162   4.304   5.942 -0.7529 -4.0326  0.4322
 1156SOL     OW14929   0.190   4.297  11.657  0.3119  0.0970  0.1395
 1156SOL    HW114930   0.260   4.346  11.614 -0.6265  2.5254  1.3755
 1156SOL    HW214931   0.222   4.209  11.637  1.7406  0.3797  1.1256
 1157SOL     OW14932   0.861   2.979   3.665  0.4520  0.4526 -0.6590
 1157SOL    HW114933   0.811   2.906   3.701 -2.1489  3.4162  1.7298
 1157SOL    HW214934   0.946   2.938   3.646  0.5376  0.0382  0.6576
 1158SOL     OW14935   2.982   1.003   1.409  0.4205  0.2310  0.2554
 1158SOL    HW114936   2.897   0.965   1.387  0.5315  0.4310 -0.5336
 1158SOL    HW214937   3.016   0.941   1.473 -0.7264  0.7551  1.3787
 1159SOL     OW14938   1.173   2.357   2.729 -0.2158  0.0135  0.2549
 1159SOL    HW114939   1.156   2.304   2.651  0.7294 -1.1250  0.8337
 1159SOL    HW214940   1.244   2.313   2.774  2.0557  0.8938 -2.4922
 1160SOL     OW14941   3.631   3.603  16.010  0.1282  0.2741  0.0594
 1160SOL    HW114942   3.595   3.682  15.970 -0.7981 -0.8490 -1.3299
 1160SOL    HW214943   3.578   3.533  15.973 -0.1270  0.7477 -0.4781
 1161SOL     OW14944   1.410   0.072  13.829 -0.3627 -0.5524 -0.6590
 1161SOL    HW114945   1.452   0.076  13.915 -0.3372 -1.0349 -0.6446
 1161SOL    HW214946   1.323   0.037  13.849 -0.1535 -0.9107 -0.3812
 1162SOL     OW14947   3.112   1.995   7.844 -0.1352 -0.2472  0.0861
 1162SOL    HW114948   3.109   2.038   7.758 -0.3711  0.3248  0.3879
 1162SOL    HW214949   3.036   2.034   7.887  1.1064 -0.5506  2.5533
 1163SOL     OW14950   4.635   1.576   6.528 -0.5606 -0.0354 -0.4440
 1163SOL    HW114951   4.559   1.633   6.516  0.5166  1.2795 -1.0244
 1163SOL    HW214952   4.608   1.492   6.492  3.7383 -2.4356  1.9136
 1164SOL     OW14953   3.818   1.185  13.608 -0.0732  0.2896  0.3779
 1164SOL    HW114954   3.877   1.200  13.681  2.1385 -2.0577 -0.9234
 1164SOL    HW214955   3.755   1.257  13.611  0.4005  0.7468 -0.5332
 1165SOL     OW14956   3.712   1.640   7.942 -0.0797 -0.2812 -0.2770
 1165SOL    HW114957   3.650   1.585   7.990  1.5410  0.0904  2.2588
 1165SOL    HW214958   3.701   1.726   7.982 -0.0523 -0.4472  0.0849
 1166SOL     OW14959   3.103   1.630   7.135 -0.4194  0.3423 -0.0317
 1166SOL    HW114960   3.151   1.611   7.216  0.8682  0.8687 -0.6675
 1166SOL    HW214961   3.176   1.627   7.073 -0.5296  0.8535 -0.1846
 1167SOL     OW14962   3.254   1.839  14.721  0.1044 -0.4605  0.8794
 1167SOL    HW114963   3.297   1.891  14.652 -1.7327  1.9595  1.5513
 1167SOL    HW214964   3.176   1.809  14.675  0.4963 -1.1290  0.6558
 1168SOL     OW14965   0.884   3.599   7.665 -0.6610  0.0457  0.0929
 1168SOL    HW114966   0.902   3.509   7.636 -0.3563 -0.5416  2.1146
 1168SOL    HW214967   0.943   3.603   7.740  1.8885  1.8233 -2.0424
 1169SOL     OW14968   2.720   1.291   3.610 -0.3034 -0.3922  0.1208
 1169SOL    HW114969   2.659   1.279   3.537  0.4236 -2.1103 -0.2211
 1169SOL    HW214970   2.736   1.382   3.586  0.3373  0.2084  2.9116
 1170SOL     OW14971   3.132   0.268   6.018 -0.6736 -0.1565  0.4884
 1170SOL    HW114972   3.179   0.318   6.084  1.2236  0.2547 -1.1562
 1170SOL    HW214973   3.197   0.269   5.947  0.0232 -2.2296  1.0984
 1171SOL     OW14974   2.578   1.542  17.122 -0.1574 -0.4714  0.1232
 1171SOL    HW114975   2.524   1.598  17.067 -1.3486 -1.2618  0.4996
 1171SOL    HW214976   2.631   1.609  17.166  1.1487 -0.9848 -0.6535
 1172SOL     OW14977   2.654   2.625   4.439 -0.6845 -0.0532  0.3064
 1172SOL    HW114978   2.561   2.622   4.463 -0.5601 -2.7927  0.5161
 1172SOL    HW214979   2.693   2.637   4.525 -1.2129 -1.9068  0.8277
 1173SOL     OW14980   1.460   0.342  13.426  0.0737  0.9770  0.2252
 1173SOL    HW114981   1.452   0.434  13.402  1.6864  1.1588  0.3545
 1173SOL    HW214982   1.425   0.340  13.515  0.3537  1.2115  0.3406
 1174SOL     OW14983   4.221   4.564   5.564  0.3095  0.5488  0.1420
 1174SOL    HW114984   4.241   4.618   5.640 -0.3096  0.7470  0.1652
 1174SOL    HW214985   4.135   4.595   5.535 -0.0483 -1.5410 -1.0290
 1175SOL     OW14986   1.185   4.082  12.769 -0.3066  0.0303  0.1854
 1175SOL    HW114987   1.281   4.086  12.764 -0.2761 -0.9936 -0.0188
 1175SOL    HW214988   1.158   4.110  12.682 -0.0578 -1.8093 -0.4772
 1176SOL     OW14989   4.636   3.662  12.464  0.2668 -0.0434  0.7296
 1176SOL    HW114990   4.590   3.718  12.401  1.3541 -0.7633 -0.7160
 1176SOL    HW214991   4.646   3.722  12.537  0.9987 -0.3441  0.8729
 1177SOL     OW14992   1.408   3.602   9.095  0.2212 -0.6006  0.2992
 1177SOL    HW114993   1.428   3.668   9.160 -1.3630 -1.1202  1.3006
 1177SOL    HW214994   1.324   3.643   9.073  0.4426 -0.7380 -0.8335
 1178SOL     OW14995   4.205   1.116  14.118 -0.1399  0.0849  0.9909
 1178SOL    HW114996   4.218   1.178  14.190 -0.8988  0.1200  1.0964
 1178SOL    HW214997   4.270   1.051  14.145 -0.6374 -0.3693  1.0850
 1179SOL     OW14998   3.131   0.821   7.076 -0.3589  0.2894 -0.5517
 1179SOL    HW114999   3.064   0.766   7.036  0.6245 -2.1483  1.1151
 1179SOL    HW215000   3.120   0.900   7.023 -2.1414 -0.2999 -1.0617
 1180SOL     OW15001   0.522   0.206   6.450  0.1624 -0.0175 -0.2944
 1180SOL    HW115002   0.601   0.227   6.498  0.3643 -0.8897 -0.2483
 1180SOL    HW215003   0.477   0.147   6.511 -2.0668  0.7446 -1.1697
 1181SOL     OW15004   3.291   3.662   9.531  0.1587 -0.1380 -0.0356
 1181SOL    HW115005   3.288   3.733   9.466  1.3440 -1.3349 -1.3890
 1181SOL    HW215006   3.299   3.712   9.613  0.6157  2.3540 -1.5894
 1182SOL     OW15007   0.504   0.757   2.443 -0.3584 -0.1224  0.3195
 1182SOL    HW115008   0.594   0.739   2.471  0.1018  1.0553 -0.3703
 1182SOL    HW215009   0.513   0.707   2.362  2.9946  1.2807 -0.1830
 1183SOL     OW15010   1.528   3.375   4.185 -0.4883 -0.1630 -0.0203
 1183SOL    HW115011   1.567   3.288   4.195 -0.1203  0.0937  0.7789
 1183SOL    HW215012   1.442   3.356   4.222 -0.9448  2.1031  0.0448
 1184SOL     OW15013   0.670   3.604   8.590 -0.5077  0.0825 -0.5973
 1184SOL    HW115014   0.677   3.650   8.507  1.4391  1.3007  0.2224
 1184SOL    HW215015   0.712   3.659   8.657  0.5480 -0.7301 -0.5830
 1185SOL     OW15016   1.167   3.329   5.586 -0.3125 -0.1217  0.1532
 1185SOL    HW115017   1.163   3.424   5.578 -0.6505  0.0706  2.7199
 1185SOL    HW215018   1.216   3.319   5.667  1.4158 -1.0512 -0.9964
 1186SOL     OW15019   2.043   3.280  11.747 -0.7262 -0.4807 -0.8023
 1186SOL    HW115020   2.064   3.373  11.743  0.1673 -0.5960  1.3324
 1186SOL    HW215021   2.072   3.257  11.659  1.0334  0.2780 -0.4109
 1187SOL     OW15022   0.186   2.405  10.538 -0.2425  0.1151  0.2314
 1187SOL    HW115023   0.218   2.316  10.553  0.9050 -0.0699 -3.1417
 1187SOL    HW215024   0.135   2.391  10.458  0.1811 -0.4209  0.0544
 1188SOL     OW15025   2.822   1.781   2.985 -0.1985  0.0684  0.3483
 1188SOL    HW115026   2.792   1.863   3.026  0.8839  1.2390 -1.1897
 1188SOL    HW215027   2.762   1.720   3.028  1.1562 -0.6771  1.1590
 1189SOL     OW15028   1.036   2.208  13.996 -0.3614  0.1560  0.4773
 1189SOL    HW115029   0.954   2.188  13.951 -0.2497  1.4445 -0.2712
 1189SOL    HW215030   1.052   2.127  14.046  0.6295 -0.7685 -1.2986
 1190SOL     OW15031   0.806   0.440   7.842  0.9645  0.9687 -0.1219
 1190SOL    HW115032   0.817   0.345   7.834  1.5040  1.1263 -1.1933
 1190SOL    HW215033   0.738   0.452   7.908  0.6302  3.0410 -0.8567
 1191SOL     OW15034   1.835   3.766   8.711 -0.1043 -0.4321  0.4085
 1191SOL    HW115035   1.813   3.854   8.739  0.5509  0.1316 -0.8224
 1191SOL    HW215036   1.799   3.765   8.622  2.7396 -1.9338 -0.7501
 1192SOL     OW15037   1.667   2.038   8.998 -0.3320 -0.3011  0.5981
 1192SOL    HW115038   1.679   2.101   9.069  0.1207 -0.0121  0.2649
 1192SOL    HW215039   1.745   1.987   9.020 -0.5194 -0.8355  0.0075
 1193SOL     OW15040   3.695   1.779   2.930 -0.1748 -0.3364 -0.8923
 1193SOL    HW115041   3.642   1.855   2.953 -0.8504 -1.7032  2.0875
 1193SOL    HW215042   3.779   1.795   2.973  0.0102 -0.8783 -1.0569
 1194SOL     OW15043   1.513   1.250  16.986 -0.1413  0.2913  0.2760
 1194SOL    HW115044   1.429   1.243  17.031  0.1293  1.6588  1.0038
 1194SOL    HW215045   1.519   1.343  16.966 -1.5736  0.3719  0.2467
 1195SOL     OW15046   2.016   4.491   5.198 -0.1752  0.0918 -0.2276
 1195SOL    HW115047   1.962   4.570   5.190  3.1363  2.4162  0.1682
 1195SOL    HW215048   2.097   4.516   5.152 -0.0217 -1.4810 -0.7953
 1196SOL     OW15049   3.551   1.909   5.816 -0.3625 -0.1108 -0.3534
 1196SOL    HW115050   3.639   1.946   5.819 -0.4979  0.0774  1.2963
 1196SOL    HW215051   3.534   1.923   5.723  0.9236  0.1926 -0.5396
 1197SOL     OW15052   4.037   4.666  13.060  0.7812 -0.3966  0.1878
 1197SOL    HW115053   3.962   4.668  13.001 -1.0700  4.1576  2.6788
 1197SOL    HW215054   4.103   4.713  13.009  0.7611  1.5347  1.9528
 1198SOL     OW15055   4.717   0.838   7.750  0.4208 -0.1180  0.3390
 1198SOL    HW115056   0.016   0.746   7.766 -1.3372 -0.6600 -0.5470
 1198SOL    HW215057   0.070   0.884   7.788 -1.2360  1.5504  1.5481
 1199SOL     OW15058   2.298   3.985   5.034  0.1630  0.1577  0.2793
 1199SOL    HW115059   2.246   3.984   5.115 -0.6822 -0.0521 -0.2709
 1199SOL    HW215060   2.237   3.926   4.990  0.2437  1.2214 -1.2477
 1200SOL     OW15061   2.872   1.193   9.859 -0.6049 -0.0781  0.1839
 1200SOL    HW115062   2.839   1.105   9.838 -2.3801  0.6265 -0.0153
 1200SOL    HW215063   2.865   1.179   9.953  1.8317 -1.0083  0.2254
 1201SOL     OW15064   1.093   0.241   7.202 -0.0539  0.0353 -0.2406
 1201SOL    HW115065   1.151   0.316   7.218 -1.2541  1.1600 -1.1266
 1201SOL    HW215066   1.155   0.171   7.221  1.2041  1.4418  0.8359
 1202SOL     OW15067   1.430   2.429  17.050 -0.1600  0.5657  0.4270
 1202SOL    HW115068   1.431   2.434  16.955  0.9722  0.9607  0.4615
 1202SOL    HW215069   1.435   2.335  17.067 -1.4301  0.3973 -0.1176
 1203SOL     OW15070   3.051   3.281   8.285  0.5965 -0.1985 -0.0374
 1203SOL    HW115071   3.020   3.196   8.254  0.3195 -0.5390  1.1704
 1203SOL    HW215072   2.972   3.319   8.324  1.5686 -0.0153  1.7707
 1204SOL     OW15073   4.491   3.979  11.258  0.2001  0.3219 -0.0305
 1204SOL    HW115074   4.570   3.968  11.204  0.2002 -1.0919  0.2508
 1204SOL    HW215075   4.509   4.047  11.322 -2.4011 -0.7394  1.8491
 1205SOL     OW15076   4.277   0.708   9.149 -0.2666 -0.0059 -0.4582
 1205SOL    HW115077   4.298   0.672   9.235 -0.4631 -2.5136 -1.4594
 1205SOL    HW215078   4.358   0.748   9.117 -0.6410 -0.4004 -1.9045
 1206SOL     OW15079   2.610   2.224   2.720 -0.2564 -0.1996 -0.0694
 1206SOL    HW115080   2.594   2.212   2.626 -0.3959  0.4723 -0.1279
 1206SOL    HW215081   2.704   2.218   2.736 -0.2878 -2.3249 -0.5737
 1207SOL     OW15082   1.126   0.782   8.416  0.0039 -0.1271 -0.4376
 1207SOL    HW115083   1.075   0.863   8.412 -0.7659 -0.7029 -2.6075
 1207SOL    HW215084   1.216   0.812   8.403  0.3748 -0.4839  1.3648
 1208SOL     OW15085   2.815   1.000   0.867  0.1627 -0.3049 -0.0316
 1208SOL    HW115086   2.814   1.095   0.871 -1.5167 -0.4874  3.5619
 1208SOL    HW215087   2.801   0.986   0.773 -1.4515  1.9983 -0.1448
 1209SOL     OW15088   0.019   1.303   9.138  0.1412  0.2813 -0.2834
 1209SOL    HW115089   0.013   1.398   9.140 -0.1979  0.2732 -0.9357
 1209SOL    HW215090   0.094   1.289   9.196  0.6568  0.8291 -0.8100
 1210SOL     OW15091   3.053   1.834   6.455 -0.5341 -0.4868 -0.0111
 1210SOL    HW115092   3.001   1.858   6.532 -0.1221 -0.3534  0.2218
 1210SOL    HW215093   2.995   1.770   6.413 -1.2671  0.2401 -0.0983
 1211SOL     OW15094   0.001   1.082   6.397 -0.2901  0.4530  0.1234
 1211SOL    HW115095   0.002   1.163   6.448  0.5080 -0.3588  1.3695
 1211SOL    HW215096   0.054   1.103   6.320 -1.1967  2.6132  0.0764
 1212SOL     OW15097   1.730   1.007   6.296 -0.3337 -0.0704  0.1225
 1212SOL    HW115098   1.653   1.058   6.272  0.0652  0.6325  0.3355
 1212SOL    HW215099   1.784   0.983   6.220 -0.2529  0.0643  0.1361
 1213SOL     OW15100   1.091   4.367   8.659  0.2703  0.0553 -0.2111
 1213SOL    HW115101   1.111   4.389   8.750 -0.0961  0.5820 -0.2583
 1213SOL    HW215102   1.007   4.415   8.659 -0.0799 -0.5599 -1.1744
 1214SOL     OW15103   2.484   2.658  15.657  0.5796  0.1872 -0.2681
 1214SOL    HW115104   2.496   2.753  15.646 -0.3129 -0.0140 -2.8386
 1214SOL    HW215105   2.431   2.658  15.737  0.6049  0.8484 -0.2464
 1215SOL     OW15106   1.549   2.383  12.059 -0.7399 -0.0681 -0.0050
 1215SOL    HW115107   1.644   2.379  12.048 -0.9739 -1.5499 -1.4673
 1215SOL    HW215108   1.538   2.424  12.145 -1.0991  0.6482 -0.3835
 1216SOL     OW15109   0.006   2.267  11.737  0.1732  0.6751  0.3173
 1216SOL    HW115110   4.713   2.350  11.690  2.1444  1.6495  1.4087
 1216SOL    HW215111   4.657   2.257  11.800 -0.7757 -1.9183 -1.1649
 1217SOL     OW15112   2.574   1.683   8.405  0.5870 -1.1169 -0.4849
 1217SOL    HW115113   2.497   1.683   8.462  1.5657  0.6100  0.8207
 1217SOL    HW215114   2.580   1.774   8.375 -0.2678 -1.8040 -2.7743
 1218SOL     OW15115   3.181   0.367  12.697  0.3571 -0.2855 -0.3565
 1218SOL    HW115116   3.150   0.342  12.610 -0.6184 -0.2082 -0.0286
 1218SOL    HW215117   3.135   0.307  12.756 -1.2909  2.9655  1.6378
 1219SOL     OW15118   0.479   2.801  14.245 -0.4879  0.0598  0.7531
 1219SOL    HW115119   0.490   2.894  14.225 -0.6539  0.2075  1.3399
 1219SOL    HW215120   0.455   2.799  14.338 -0.8779  0.0740  0.6528
 1220SOL     OW15121   3.731   2.296   5.067 -0.0427  0.4841  0.0198
 1220SOL    HW115122   3.676   2.248   5.005  0.8316 -0.7020  0.1578
 1220SOL    HW215123   3.669   2.369   5.066 -2.1603 -1.2995  1.0985
 1221SOL     OW15124   1.658   3.274   5.963 -0.0608  0.1528 -0.4220
 1221SOL    HW115125   1.639   3.195   6.015  0.8572  0.5042  0.4506
 1221SOL    HW215126   1.577   3.323   5.974  0.7380  1.5064 -0.5351
 1222SOL     OW15127   1.735   2.531   6.711  0.2933 -0.0060  0.9773
 1222SOL    HW115128   1.816   2.529   6.661  0.1634 -1.3375  0.8177
 1222SOL    HW215129   1.731   2.610   6.765 -0.5812  0.8261 -0.3076
 1223SOL     OW15130   3.558   3.644   6.900 -0.4631 -0.7872 -0.1332
 1223SOL    HW115131   3.534   3.657   6.808  0.3441  2.1566  0.0660
 1223SOL    HW215132   3.496   3.575   6.922 -0.1189 -1.1482 -0.2895
 1224SOL     OW15133   4.195   2.960   9.777  0.8702 -0.0170 -0.4278
 1224SOL    HW115134   4.228   2.976   9.866 -1.1091  1.2342  0.0918
 1224SOL    HW215135   4.187   2.865   9.785 -1.1970  0.1433 -0.6547
 1225SOL     OW15136   4.368   4.670   5.216 -0.4450 -0.0431 -0.8797
 1225SOL    HW115137   4.401   4.596   5.267 -0.5624  1.2374  1.0538
 1225SOL    HW215138   4.276   4.649   5.230 -0.0723  0.4492  2.2256
 1226SOL     OW15139   4.450   1.442  12.660 -0.1277 -0.8403 -0.3595
 1226SOL    HW115140   4.444   1.527  12.704  2.6946 -0.7783 -0.0925
 1226SOL    HW215141   4.431   1.479  12.574  0.4794  0.7207  0.1676
 1227SOL     OW15142   1.877   4.441   9.026 -0.3112  0.2802  0.4250
 1227SOL    HW115143   1.917   4.509   8.971 -0.0973  1.1056  1.6083
 1227SOL    HW215144   1.927   4.449   9.108  1.4286 -1.5044 -0.4466
 1228SOL     OW15145   2.517   2.279   4.064 -0.1603 -0.4342  0.0420
 1228SOL    HW115146   2.435   2.260   4.108 -0.9981  1.9841 -0.5121
 1228SOL    HW215147   2.489   2.303   3.975  0.3103  0.8953  0.2511
 1229SOL     OW15148   0.433   1.702   6.812  0.4997 -0.7964  0.4666
 1229SOL    HW115149   0.512   1.668   6.771 -0.7233 -1.5198 -1.2866
 1229SOL    HW215150   0.393   1.755   6.744 -1.5202  0.8647  2.9737
 1230SOL     OW15151   2.316   0.662   2.160 -0.0805 -0.0309  0.0478
 1230SOL    HW115152   2.297   0.591   2.221 -0.4181  0.2726  0.2981
 1230SOL    HW215153   2.411   0.651   2.152 -0.1005  0.8076 -1.4285
 1231SOL     OW15154   4.679   3.568   4.817 -0.7668  0.0549 -0.3814
 1231SOL    HW115155   4.628   3.622   4.877 -1.2180 -2.1063  1.1735
 1231SOL    HW215156   4.655   3.611   4.735 -1.8581 -2.5873 -1.4453
 1232SOL     OW15157   1.424   2.859   1.062 -0.1031 -0.6734 -0.2451
 1232SOL    HW115158   1.347   2.871   1.007 -1.0598  0.5442  1.3856
 1232SOL    HW215159   1.393   2.820   1.143 -1.1786  1.3319  0.2983
 1233SOL     OW15160   1.500   2.589  16.531 -0.2555 -0.1468 -0.6508
 1233SOL    HW115161   1.562   2.635  16.587 -1.0319  0.0979  0.0069
 1233SOL    HW215162   1.462   2.668  16.492  0.1000  0.5688  0.4663
 1234SOL     OW15163   4.202   1.579  11.831  0.0075  0.4893  0.7482
 1234SOL    HW115164   4.140   1.602  11.762  2.1601 -0.0594 -1.3289
 1234SOL    HW215165   4.187   1.656  11.886  2.2028  1.8007 -0.4779
 1235SOL     OW15166   3.563   4.697   4.405  0.6088 -0.2028 -0.1406
 1235SOL    HW115167   3.607   0.035   4.466  0.1013  1.6069 -1.5453
 1235SOL    HW215168   3.634   4.687   4.342  0.4606 -1.1560 -0.1500
 1236SOL     OW15169   0.763   1.367   8.572  0.2612 -0.4015 -0.1934
 1236SOL    HW115170   0.814   1.324   8.641  1.2697  0.7665 -0.2219
 1236SOL    HW215171   0.776   1.455   8.606  0.2552 -0.6881  0.5442
 1237SOL     OW15172   1.823   3.238  17.209  0.7883  0.4960 -0.0375
 1237SOL    HW115173   1.773   3.194  17.276  1.6733 -0.9429 -0.3233
 1237SOL    HW215174   1.905   3.188  17.207  0.9820  0.7993  0.3434
 1238SOL     OW15175   2.167   1.280   4.849  0.1193  0.2529 -0.0914
 1238SOL    HW115176   2.141   1.254   4.760 -2.0184 -0.8682  0.8509
 1238SOL    HW215177   2.224   1.209   4.877  2.7828  2.4012 -0.1038
 1239SOL     OW15178   2.706   2.507   3.026 -0.3055  0.2626 -0.0309
 1239SOL    HW115179   2.797   2.518   2.996  0.2049 -1.2930  0.9160
 1239SOL    HW215180   2.681   2.427   2.978 -0.5008  0.9127 -1.0103
 1240SOL     OW15181   1.141   4.447   8.929  0.0194  0.4132 -0.0877
 1240SOL    HW115182   1.099   4.375   8.977  2.7120  0.3836  2.2546
 1240SOL    HW215183   1.118   4.519   8.988 -3.6397  0.3207 -1.4110
 1241SOL     OW15184   0.128   1.383   8.204 -0.8186  0.2636 -1.0292
 1241SOL    HW115185   0.106   1.470   8.172 -0.2509  0.5716 -0.5747
 1241SOL    HW215186   0.186   1.410   8.275 -0.7776  0.2826 -1.0701
 1242SOL     OW15187   3.220   0.185   3.449 -0.1343  0.4707 -0.7996
 1242SOL    HW115188   3.219   0.157   3.358 -0.1470  2.2392 -1.3417
 1242SOL    HW215189   3.129   0.202   3.476  0.7832  2.1352  1.2865
 1243SOL     OW15190   2.251   0.904   3.205 -0.3201  0.6463  0.7542
 1243SOL    HW115191   2.272   0.945   3.288  0.0783  2.2648 -0.1467
 1243SOL    HW215192   2.265   0.811   3.222  0.6233  0.3317 -1.6541
 1244SOL     OW15193   3.515   3.105   9.087  0.4907  0.0151 -0.2550
 1244SOL    HW115194   3.430   3.067   9.111 -0.5992  1.6940 -1.4797
 1244SOL    HW215195   3.506   3.133   8.996  2.6005 -4.1788 -1.7335
 1245SOL     OW15196   0.793   2.951   1.654  0.3275 -0.0386  0.7637
 1245SOL    HW115197   0.877   2.953   1.701 -0.3263  1.1672  1.8775
 1245SOL    HW215198   0.799   2.860   1.624 -2.8025  0.2413 -0.6671
 1246SOL     OW15199   1.881   3.021  14.154 -0.5003  0.2677 -0.2502
 1246SOL    HW115200   1.954   3.050  14.100  0.0544 -0.8926 -0.1118
 1246SOL    HW215201   1.875   2.933  14.117  1.8328  0.4735 -1.1208
 1247SOL     OW15202   0.948   2.979   1.992 -0.1918  0.2642  0.1247
 1247SOL    HW115203   1.033   2.989   2.036  0.0288 -2.0433  0.2470
 1247SOL    HW215204   0.888   3.014   2.057 -1.5228 -0.4156 -0.7368
 1248SOL     OW15205   3.632   1.885   4.242  0.2330 -0.5369 -0.2281
 1248SOL    HW115206   3.602   1.964   4.198  0.6216 -1.0197 -1.3636
 1248SOL    HW215207   3.676   1.927   4.316 -2.3310  1.1600  0.3319
 1249SOL     OW15208   4.307   0.496   8.588 -0.4584  0.1369 -0.6077
 1249SOL    HW115209   4.227   0.444   8.583 -0.5528  0.1642  0.5871
 1249SOL    HW215210   4.266   0.583   8.591  0.5538  0.6028 -0.4497
 1250SOL     OW15211   1.518   0.769  11.029  0.0873 -0.3270 -0.1196
 1250SOL    HW115212   1.505   0.795  10.938  0.2418 -1.3175 -0.4327
 1250SOL    HW215213   1.577   0.694  11.020 -0.5055 -0.6395 -1.3767
 1251SOL     OW15214   2.097   1.452  17.465  0.3069  0.1857 -0.5830
 1251SOL    HW115215   2.146   1.532  17.483  1.0037  0.1448 -2.2631
 1251SOL    HW215216   2.039   1.435  17.539 -0.5192 -1.5459 -1.6374
 1252SOL     OW15217   3.378   4.259   8.739 -0.6288 -0.7300 -0.0930
 1252SOL    HW115218   3.403   4.180   8.691  0.7563  0.2124 -0.9434
 1252SOL    HW215219   3.293   4.239   8.779 -0.3215 -0.4845  0.6674
 1253SOL     OW15220   1.613   2.470   3.963 -0.2457  0.1112  0.1083
 1253SOL    HW115221   1.617   2.561   3.992 -1.3561 -0.5334  2.3120
 1253SOL    HW215222   1.702   2.440   3.979 -0.2874  0.0461  0.2205
 1254SOL     OW15223   3.914   4.222   3.866  0.3163 -0.1416 -0.1892
 1254SOL    HW115224   3.949   4.234   3.954  0.4725  0.5159 -0.3411
 1254SOL    HW215225   3.891   4.313   3.844 -1.1937 -0.2202  1.0128
 1255SOL     OW15226   3.578   1.327   3.870 -0.6416 -0.1444 -0.3142
 1255SOL    HW115227   3.538   1.241   3.857 -1.5793  0.0340  1.3398
 1255SOL    HW215228   3.665   1.301   3.841  0.1920 -2.3362  4.1719
 1256SOL     OW15229   0.111   4.528   3.501 -0.2599  0.0088  0.5869
 1256SOL    HW115230   0.019   4.501   3.512 -0.2586  0.0718  0.7461
 1256SOL    HW215231   0.151   4.459   3.554 -0.8652 -1.4134 -0.7815
 1257SOL     OW15232   4.519   1.440  11.107  0.2317 -0.5802 -0.4852
 1257SOL    HW115233   4.556   1.519  11.147  0.4908 -0.4244 -1.0323
 1257SOL    HW215234   4.561   1.367  11.152 -0.5279 -0.2456  0.7841
 1258SOL     OW15235   3.585   1.206   2.594 -0.5043  0.5291  0.0752
 1258SOL    HW115236   3.624   1.129   2.635 -0.0339  1.2080  0.9027
 1258SOL    HW215237   3.660   1.248   2.551  0.7369  2.1505  3.7524
 1259SOL     OW15238   4.273   3.821   5.256  0.1798  0.2965 -0.0732
 1259SOL    HW115239   4.205   3.775   5.207  0.7924  1.2391 -1.8082
 1259SOL    HW215240   4.334   3.749   5.271  2.5643  2.3553  0.0574
 1260SOL     OW15241   1.789   1.642   3.757 -0.4320 -0.2165  0.0328
 1260SOL    HW115242   1.723   1.710   3.771  1.4870  1.5156  0.7189
 1260SOL    HW215243   1.870   1.680   3.793 -1.2041  0.5795  0.9540
 1261SOL     OW15244   3.107   1.251   1.015  0.1213  0.1989  0.1937
 1261SOL    HW115245   3.121   1.318   0.948 -1.3803 -0.0112 -0.3394
 1261SOL    HW215246   3.172   1.281   1.077  1.1655 -1.9242  0.1418
 1262SOL     OW15247   3.232   1.435   5.757 -0.4031 -0.4988  0.5066
 1262SOL    HW115248   3.302   1.459   5.818  1.4138  0.4443 -1.8917
 1262SOL    HW215249   3.243   1.340   5.762 -2.4624 -0.6739  1.7115
 1263SOL     OW15250   3.919   2.627  15.616 -0.4682  0.0859 -0.0058
 1263SOL    HW115251   3.972   2.651  15.540  0.4470  1.7447  1.1573
 1263SOL    HW215252   3.988   2.616  15.681 -0.0148  0.0819 -0.4818
 1264SOL     OW15253   0.866   1.915   8.905 -0.7034  0.4190 -0.1149
 1264SOL    HW115254   0.953   1.881   8.886  0.9316  3.5571  1.7341
 1264SOL    HW215255   0.848   1.875   8.990  1.6932  0.9471  0.6624
 1265SOL     OW15256   0.116   1.875   3.154  0.5922 -0.0104 -0.1689
 1265SOL    HW115257   0.100   1.780   3.162  0.6079  0.0899  1.1679
 1265SOL    HW215258   0.052   1.909   3.218 -1.7224 -1.8715 -1.4864
 1266SOL     OW15259   2.020   1.193   8.919 -0.4774 -0.2954 -0.5427
 1266SOL    HW115260   2.024   1.287   8.940  0.2751 -0.4586  0.0142
 1266SOL    HW215261   1.975   1.193   8.834 -0.8312  2.2638 -0.3680
 1267SOL     OW15262   1.475   4.461   3.988 -0.1165  0.3259 -0.1579
 1267SOL    HW115263   1.386   4.481   3.960 -0.5495  0.3427  1.2867
 1267SOL    HW215264   1.490   4.531   4.051  1.1326  0.0824 -0.1816
 1268SOL     OW15265   0.185   3.717   3.041 -0.0413 -0.0826  0.0644
 1268SOL    HW115266   0.193   3.785   2.974 -0.1544  0.8351  0.9785
 1268SOL    HW215267   0.228   3.648   2.990 -0.8858  0.3549 -1.2652
 1269SOL     OW15268   4.499   0.775  14.973  0.7131  0.2901  0.0366
 1269SOL    HW115269   4.497   0.763  14.878  2.6720  2.4062 -0.2536
 1269SOL    HW215270   4.525   0.686  14.996  1.8521  0.6260  0.0072
 1270SOL     OW15271   1.964   0.833   5.592 -0.1551 -0.5376 -0.5073
 1270SOL    HW115272   1.936   0.923   5.578  0.7963 -0.7115 -3.5454
 1270SOL    HW215273   1.890   0.803   5.644  0.5625  1.3089  1.5763
 1271SOL     OW15274   0.501   0.131   4.715 -0.2427 -0.5687 -0.0034
 1271SOL    HW115275   0.424   0.161   4.666 -0.4744 -2.1762 -0.6353
 1271SOL    HW215276   0.516   0.042   4.682 -0.3095 -1.1495  1.5510
 1272SOL     OW15277   4.221   2.810   3.663 -0.0258 -0.2543 -0.1727
 1272SOL    HW115278   4.190   2.735   3.715  0.3159 -0.1589  0.1698
 1272SOL    HW215279   4.162   2.804   3.588 -2.0448  1.1676  1.2824
 1273SOL     OW15280   4.689   1.653   2.985 -0.3327  0.2134  0.7606
 1273SOL    HW115281   4.630   1.651   3.061  1.4890 -3.7926  2.0827
 1273SOL    HW215282   4.629   1.653   2.910 -1.5151 -0.9766  1.7143
 1274SOL     OW15283   2.446   1.026   6.307 -0.3858  0.2776  0.0787
 1274SOL    HW115284   2.377   1.090   6.322 -0.0131  1.1324 -1.8125
 1274SOL    HW215285   2.498   1.069   6.239  1.6710 -0.6099  1.0606
 1275SOL     OW15286   4.306   1.516   6.786 -0.2749 -0.1372 -0.3373
 1275SOL    HW115287   4.280   1.449   6.850 -1.2670  2.2394  1.7492
 1275SOL    HW215288   4.401   1.501   6.793 -0.5162 -1.1156  0.8155
 1276SOL     OW15289   0.933   3.402   1.160  0.3784  0.0937  0.4300
 1276SOL    HW115290   1.004   3.383   1.221 -1.3495 -1.2593  1.9977
 1276SOL    HW215291   0.873   3.333   1.188  2.8102 -0.6709  3.6404
 1277SOL     OW15292   0.569   3.649   8.867 -0.0503  0.0628 -0.0118
 1277SOL    HW115293   0.532   3.659   8.779 -1.5993  0.2575  0.6788
 1277SOL    HW215294   0.487   3.625   8.909  0.0679 -0.1943  0.0695
 1278SOL     OW15295   4.636   2.231   8.723 -0.0736  0.1858  0.7873
 1278SOL    HW115296   4.686   2.204   8.646  0.5111 -0.2640  1.3343
 1278SOL    HW215297   4.686   2.307   8.753  2.0833 -0.3087 -1.5263
 1279SOL     OW15298   1.310   4.109   9.587 -0.1915  0.1361  0.3644
 1279SOL    HW115299   1.222   4.145   9.587 -1.0964 -2.1823 -1.9349
 1279SOL    HW215300   1.300   4.016   9.607  0.6899 -0.2467 -0.9887
 1280SOL     OW15301   1.715   4.052   7.392  0.3484  0.3150  0.0215
 1280SOL    HW115302   1.744   4.121   7.333  2.2917 -1.0684 -0.6515
 1280SOL    HW215303   1.620   4.066   7.391  0.2541 -0.3820 -0.5389
 1281SOL     OW15304   4.351   4.334   5.681  0.2230 -0.3631  0.0228
 1281SOL    HW115305   4.292   4.394   5.637 -0.1046 -0.1401  0.7563
 1281SOL    HW215306   4.432   4.385   5.692  2.7568 -3.8998 -2.2671
 1282SOL     OW15307   4.119   2.684  15.851  0.5631  0.3509  0.1516
 1282SOL    HW115308   4.212   2.683  15.826  0.3773 -0.9754 -0.4964
 1282SOL    HW215309   4.107   2.609  15.908  1.6636  1.5259  1.9297
 1283SOL     OW15310   4.538   0.262   4.070  0.5932  0.2409 -0.0242
 1283SOL    HW115311   4.587   0.218   4.139 -0.0536  1.6097  1.3271
 1283SOL    HW215312   4.546   0.351   4.105  3.3757 -0.3459  0.8475
 1284SOL     OW15313   4.484   2.778   2.512 -0.1534 -0.0201 -0.5711
 1284SOL    HW115314   4.495   2.866   2.549  0.4220 -0.5150  0.4298
 1284SOL    HW215315   4.570   2.749   2.480 -0.4170 -0.4958 -0.8534
 1285SOL     OW15316   3.419   2.804   8.539  0.5803 -0.7880  0.2968
 1285SOL    HW115317   3.511   2.799   8.567  0.6880 -0.8689 -0.0763
 1285SOL    HW215318   3.414   2.719   8.497  0.1791 -0.9015  0.5757
 1286SOL     OW15319   1.133   3.206  17.654  0.1395 -0.1602 -0.1266
 1286SOL    HW115320   1.092   3.219  17.569  0.8100  2.2699 -0.0712
 1286SOL    HW215321   1.171   3.291  17.675  0.0310 -1.0519  3.6545
 1287SOL     OW15322   1.744   4.113   8.535  0.3717 -0.5496  0.5190
 1287SOL    HW115323   1.745   4.085   8.627  0.6156  0.0323  0.6930
 1287SOL    HW215324   1.766   4.204   8.552  2.7517 -1.1525  0.5955
 1288SOL     OW15325   0.963   1.470  11.739 -0.1812 -0.1353  0.1763
 1288SOL    HW115326   0.928   1.558  11.728 -0.0294 -0.1266 -0.2234
 1288SOL    HW215327   0.935   1.422  11.660 -2.4137  1.4785 -0.0162
 1289SOL     OW15328   3.013   0.024  13.647  0.2608  0.1105  0.0625
 1289SOL    HW115329   3.049   4.703  13.725 -1.2003 -1.9338 -0.3618
 1289SOL    HW215330   3.064   0.104  13.639 -3.2215  2.3840  0.3632
 1290SOL     OW15331   4.453   0.155   7.016 -0.1418  0.1779  0.0487
 1290SOL    HW115332   4.541   0.154   6.977 -1.0869  0.0936 -2.0557
 1290SOL    HW215333   4.453   0.062   7.036 -0.5377  0.1602 -0.0393
 1291SOL     OW15334   2.600   4.083   9.873  0.2591 -0.2403 -0.2677
 1291SOL    HW115335   2.687   4.118   9.854  0.7321 -1.2584  0.0123
 1291SOL    HW215336   2.608   4.077   9.968 -1.5818 -0.3410 -0.1064
 1292SOL     OW15337   0.778   3.818   6.220 -0.2457 -0.5824 -0.3577
 1292SOL    HW115338   0.737   3.832   6.305  0.5211 -3.1868  0.4199
 1292SOL    HW215339   0.694   3.787   6.184 -0.5044 -0.6799  0.3324
 1293SOL     OW15340   1.925   2.160   0.387 -0.3296 -0.2204  0.3238
 1293SOL    HW115341   1.975   2.200   0.458 -0.6572 -2.9024  2.0719
 1293SOL    HW215342   1.850   2.215   0.362  1.3580  0.8341 -2.4479
 1294SOL     OW15343   2.430   2.469   8.956  0.0424  0.3663 -0.1819
 1294SOL    HW115344   2.508   2.519   8.981  0.5592 -0.3618 -0.3250
 1294SOL    HW215345   2.394   2.438   9.039  0.2270  1.4578  0.2996
 1295SOL     OW15346   2.838   4.103  11.537  0.3711 -0.0334 -0.6954
 1295SOL    HW115347   2.744   4.124  11.539  0.0914 -1.3116 -0.4002
 1295SOL    HW215348   2.856   4.104  11.443 -0.8983 -0.8651 -0.9483
 1296SOL     OW15349   0.767   0.175   7.781 -0.8427 -0.0397 -0.3252
 1296SOL    HW115350   0.700   0.127   7.830 -2.2944  0.9079 -1.3700
 1296SOL    HW215351   0.848   0.139   7.817  0.0749  2.5523  0.2023
 1297SOL     OW15352   0.040   2.738   2.519  0.0946 -0.2416 -0.3791
 1297SOL    HW115353   0.117   2.752   2.464  1.2707 -1.9976  0.7947
 1297SOL    HW215354   0.080   2.792   2.587  0.3363 -1.0629  0.1336
 1298SOL     OW15355   0.586   4.605   7.514  0.2212 -0.3994  0.2859
 1298SOL    HW115356   0.533   4.677   7.549 -1.2245 -1.1314 -0.4032
 1298SOL    HW215357   0.587   4.551   7.593  0.4591 -1.6695 -0.6009
 1299SOL     OW15358   2.976   1.349  16.419 -0.0586  0.6619  0.5043
 1299SOL    HW115359   2.964   1.314  16.507 -0.5086 -1.8438 -0.5503
 1299SOL    HW215360   3.059   1.395  16.434  0.0068  1.1423 -1.3061
 1300SOL     OW15361   3.960   0.175   3.154 -0.6031 -0.6154 -0.4913
 1300SOL    HW115362   4.009   0.131   3.085  0.9578 -0.2291  0.3465
 1300SOL    HW215363   4.027   0.235   3.186  0.3151 -0.7368 -2.2348
 1301SOL     OW15364   3.892   1.920   3.925 -0.3666  0.2900 -0.2044
 1301SOL    HW115365   3.899   1.963   4.010  1.4692  2.3174 -1.3891
 1301SOL    HW215366   3.911   1.831   3.956  0.7718 -0.4519 -3.0807
 1302SOL     OW15367   2.442   2.384   5.295 -0.1044 -0.3429  0.2589
 1302SOL    HW115368   2.393   2.323   5.241 -2.0867  2.6635 -1.3488
 1302SOL    HW215369   2.519   2.392   5.239  0.9379  1.1036  1.8878
 1303SOL     OW15370   1.805   1.451   7.387 -0.7221 -0.2398 -0.0925
 1303SOL    HW115371   1.742   1.523   7.379 -1.0540 -0.1334  3.2273
 1303SOL    HW215372   1.821   1.457   7.482  0.5396 -0.6824 -0.2806
 1304SOL     OW15373   4.159   3.807   8.088  0.2482 -0.5433 -0.0285
 1304SOL    HW115374   4.213   3.875   8.127  1.0739 -1.1595 -0.1095
 1304SOL    HW215375   4.157   3.845   8.000  1.7431 -1.9456 -0.6502
 1305SOL     OW15376   1.542   4.374  13.634 -0.7181  0.4468 -0.3842
 1305SOL    HW115377   1.497   4.458  13.631  2.0481  1.9036 -1.6129
 1305SOL    HW215378   1.607   4.387  13.564  0.5385 -2.3950  0.2485
 1306SOL     OW15379   2.361   2.067   2.229 -0.0432 -1.1023  0.7968
 1306SOL    HW115380   2.449   2.030   2.226 -0.5718 -2.4280  1.4880
 1306SOL    HW215381   2.327   1.999   2.287 -0.0321 -0.4573  1.5589
 1307SOL     OW15382   1.653   1.762   5.908  0.4074  0.0228 -0.1722
 1307SOL    HW115383   1.567   1.778   5.948  0.5800 -0.1399  0.2696
 1307SOL    HW215384   1.697   1.724   5.985  3.4791  1.0270 -1.4479
 1308SOL     OW15385   2.553   3.728   4.487 -0.3504 -0.0603  0.3680
 1308SOL    HW115386   2.564   3.639   4.453  1.1611 -0.4054  1.7611
 1308SOL    HW215387   2.534   3.785   4.413 -0.2080 -1.8046 -1.0122
 1309SOL     OW15388   3.058   3.828   9.206 -0.1551  0.4729  0.2984
 1309SOL    HW115389   3.150   3.841   9.228  0.5317 -0.5664 -1.9340
 1309SOL    HW215390   3.063   3.805   9.113 -0.3102 -1.1891  0.6922
 1310SOL     OW15391   3.814   1.478   2.768  0.0898 -0.3594  0.0316
 1310SOL    HW115392   3.824   1.459   2.861 -0.6446 -0.0677  0.1672
 1310SOL    HW215393   3.725   1.512   2.762  0.1851  0.2467  2.3260
 1311SOL     OW15394   1.179   3.352   4.570 -0.1969  0.7274  0.4517
 1311SOL    HW115395   1.204   3.282   4.510  0.7173  0.9415  0.5886
 1311SOL    HW215396   1.242   3.332   4.639  2.1036  1.0736 -1.5394
 1312SOL     OW15397   1.348   0.196   8.378 -0.2737  0.7096  0.1568
 1312SOL    HW115398   1.327   0.273   8.325  0.7585  1.2195  0.5032
 1312SOL    HW215399   1.311   0.126   8.323  0.3677  0.1556  0.4448
 1313SOL     OW15400   1.226   3.323   7.021 -0.7214 -0.2475 -0.4751
 1313SOL    HW115401   1.180   3.367   6.950  1.4531  0.8783 -1.1832
 1313SOL    HW215402   1.233   3.236   6.983 -1.9959 -0.9847  0.9994
 1314SOL     OW15403   1.417   1.135   1.872  0.0842 -0.4982  0.2029
 1314SOL    HW115404   1.503   1.134   1.830 -0.2630  0.7489 -0.5403
 1314SOL    HW215405   1.359   1.120   1.798  1.2695  0.4752 -0.9203
 1315SOL     OW15406   3.513   3.795   5.311  0.1267  0.2353  0.1298
 1315SOL    HW115407   3.535   3.791   5.404  1.6504  0.6935 -0.2184
 1315SOL    HW215408   3.423   3.762   5.311  0.2272 -0.0429 -0.6208
 1316SOL     OW15409   2.453   1.060   2.415 -0.0753  0.5238  0.1179
 1316SOL    HW115410   2.425   1.057   2.324  0.9312  0.4796 -0.1871
 1316SOL    HW215411   2.507   0.983   2.433 -0.4646 -0.2997 -2.2555
 1317SOL     OW15412   4.200   2.061   4.202 -0.0341 -0.3856 -0.3774
 1317SOL    HW115413   4.108   2.043   4.179 -0.5436  0.7436  0.7689
 1317SOL    HW215414   4.181   2.132   4.263  0.2777 -0.7856  0.1781
 1318SOL     OW15415   1.324   0.643   2.710 -0.2644 -0.6422  0.0509
 1318SOL    HW115416   1.321   0.656   2.805 -1.9717 -3.2713  0.3497
 1318SOL    HW215417   1.311   0.549   2.704  2.3544 -1.0722  1.1785
 1319SOL     OW15418   0.849   0.579  14.726 -0.2700  0.2360  0.0402
 1319SOL    HW115419   0.831   0.671  14.745  4.0644  0.5975  2.2634
 1319SOL    HW215420   0.944   0.575  14.731 -0.2983 -1.2973 -0.4001
 1320SOL     OW15421   1.754   4.072   9.613 -0.7677 -0.0828 -0.0082
 1320SOL    HW115422   1.837   4.042   9.575  0.8514  3.1611  0.9983
 1320SOL    HW215423   1.695   3.997   9.604 -1.3140  0.5881 -1.9304
 1321SOL     OW15424   0.846   3.391   8.176 -0.3579 -0.4884 -0.5385
 1321SOL    HW115425   0.815   3.301   8.189 -0.2969 -0.5108 -0.5486
 1321SOL    HW215426   0.785   3.407   8.104  0.4098  0.7775 -0.9095
 1322SOL     OW15427   4.473   2.835   4.609  0.4023 -0.5182  0.1654
 1322SOL    HW115428   4.529   2.872   4.541 -0.0635 -0.2320 -0.0646
 1322SOL    HW215429   4.520   2.879   4.679 -1.6554  1.6761  0.1940
 1323SOL     OW15430   2.355   0.348   3.911  0.2734 -0.3723 -0.7967
 1323SOL    HW115431   2.339   0.429   3.863  0.8087 -0.9670 -1.9984
 1323SOL    HW215432   2.333   0.388   3.995 -0.4825 -0.3785 -0.9928
 1324SOL     OW15433   3.969   1.337   9.403 -0.0018  0.0882 -0.3453
 1324SOL    HW115434   4.041   1.396   9.424 -1.4966  1.1460  1.9513
 1324SOL    HW215435   3.942   1.312   9.492  0.5766 -0.9283 -0.4593
 1325SOL     OW15436   4.120   0.542   6.492  0.1539 -0.2534 -0.3228
 1325SOL    HW115437   4.077   0.592   6.562 -0.6128 -0.4489 -0.6498
 1325SOL    HW215438   4.090   0.453   6.509  0.4690 -0.2742  0.1363
 1326SOL     OW15439   1.423   1.788   6.061 -0.5952 -0.2314  0.3375
 1326SOL    HW115440   1.439   1.878   6.092 -1.0555 -0.0856  0.1445
 1326SOL    HW215441   1.472   1.741   6.129 -0.8650 -1.9810 -0.6872
 1327SOL     OW15442   4.403   2.339   6.690  0.1446  0.0319 -0.7671
 1327SOL    HW115443   4.328   2.309   6.639 -1.2571  2.4728 -0.1613
 1327SOL    HW215444   4.363   2.348   6.777 -0.3199  3.7918 -1.3771
 1328SOL     OW15445   2.254   2.655   7.114 -0.1887 -0.5015 -0.2327
 1328SOL    HW115446   2.320   2.586   7.122  0.8935  0.4476 -1.0502
 1328SOL    HW215447   2.282   2.716   7.183 -2.1737  0.9359 -0.7086
 1329SOL     OW15448   1.188   0.348   5.191  0.5408  0.0017  0.1472
 1329SOL    HW115449   1.135   0.381   5.118 -0.7433 -1.5843  0.3585
 1329SOL    HW215450   1.230   0.431   5.216  0.2285  0.0665  0.4649
 1330SOL     OW15451   3.235   3.157   1.580  0.7489  0.3056 -0.1169
 1330SOL    HW115452   3.146   3.185   1.561  0.9013  0.5538 -0.4624
 1330SOL    HW215453   3.263   3.115   1.498 -1.6729 -2.9539  0.7451
 1331SOL     OW15454   3.079   2.556  15.090  0.3608  0.0911  0.1976
 1331SOL    HW115455   3.173   2.569  15.079  0.4687 -0.5890  0.3104
 1331SOL    HW215456   3.048   2.608  15.016  0.3929 -1.1037 -0.6672
 1332SOL     OW15457   2.739   2.311   8.882 -0.1421  0.6962 -0.0779
 1332SOL    HW115458   2.815   2.328   8.826  0.7490  0.5809  1.1108
 1332SOL    HW215459   2.738   2.382   8.946  0.2644 -0.5376  1.2818
 1333SOL     OW15460   3.422   2.552   4.518  0.0714 -0.0301 -0.2955
 1333SOL    HW115461   3.328   2.543   4.503 -0.3289 -0.2090  2.1749
 1333SOL    HW215462   3.436   2.487   4.587  0.6087  0.6903  0.2843
 1334SOL     OW15463   0.563   1.719   1.088  0.1467  0.8932 -0.3734
 1334SOL    HW115464   0.507   1.662   1.035  0.4969  1.4574 -1.3399
 1334SOL    HW215465   0.623   1.747   1.019  0.2329  0.1278 -0.6067
 1335SOL     OW15466   2.867   3.665  11.068 -0.5390  0.1844 -0.4930
 1335SOL    HW115467   2.784   3.622  11.048 -0.8380  0.4822  0.1175
 1335SOL    HW215468   2.848   3.712  11.149  1.6722 -0.6400  0.5154
 1336SOL     OW15469   2.784   0.975  14.694 -0.4724  0.4502 -0.0393
 1336SOL    HW115470   2.727   0.916  14.646 -1.1165  1.3990 -0.4462
 1336SOL    HW215471   2.715   1.037  14.719 -0.9032 -0.3558  0.7815
 1337SOL     OW15472   3.444   4.031   5.225 -0.0369 -0.1441 -0.0805
 1337SOL    HW115473   3.448   4.079   5.307  2.0244  0.5720 -0.6010
 1337SOL    HW215474   3.473   3.942   5.245 -2.8785 -1.6248 -2.5299
 1338SOL     OW15475   3.892   4.385  12.840  0.0058 -0.9035  0.2335
 1338SOL    HW115476   3.817   4.441  12.819  0.6373  0.0138  0.3891
 1338SOL    HW215477   3.896   4.352  12.751 -0.7815 -1.2751  0.3346
 1339SOL     OW15478   3.531   2.288  13.884  0.1006 -0.0307 -0.0809
 1339SOL    HW115479   3.503   2.288  13.792  1.8126  0.9194 -0.5940
 1339SOL    HW215480   3.612   2.237  13.884  1.5637  2.3292 -0.3332
 1340SOL     OW15481   3.624   3.321   5.791 -0.8009  0.0271 -0.2629
 1340SOL    HW115482   3.529   3.324   5.798 -0.7350  0.3244  0.4854
 1340SOL    HW215483   3.640   3.237   5.748 -0.0609 -0.1488  0.3550
 1341SOL     OW15484   1.681   1.339   7.722  0.4499 -0.4787  0.4814
 1341SOL    HW115485   1.686   1.250   7.687 -2.4830 -1.1423  1.7582
 1341SOL    HW215486   1.764   1.381   7.699  0.4108 -0.1617  0.9086
 1342SOL     OW15487   0.725   1.761   4.401 -0.3574 -0.1548  0.5022
 1342SOL    HW115488   0.754   1.835   4.454  0.7298 -1.0348  1.1165
 1342SOL    HW215489   0.689   1.703   4.468  1.4492 -1.2519  0.5212
 1343SOL     OW15490   1.227   3.366   4.262  0.1422 -0.2001 -0.0613
 1343SOL    HW115491   1.246   3.436   4.200  1.7311  0.3746  1.0921
 1343SOL    HW215492   1.164   3.407   4.322 -2.2099 -2.1360 -1.1772
 1344SOL     OW15493   4.626   4.698   7.213 -0.0546 -0.0597  0.5853
 1344SOL    HW115494   4.578   0.003   7.291 -1.5029 -3.1491  0.7532
 1344SOL    HW215495   4.598   4.607   7.203  1.3735 -0.3756 -0.4118
 1345SOL     OW15496   2.263   4.155   5.839 -0.3636 -0.5237  0.0672
 1345SOL    HW115497   2.352   4.186   5.855 -1.4298  2.0233  0.9288
 1345SOL    HW215498   2.211   4.217   5.889 -0.9768 -2.0784  1.3846
 1346SOL     OW15499   3.629   4.403   2.005  0.3065  0.1565  0.1332
 1346SOL    HW115500   3.667   4.316   1.996 -1.1680 -0.3285 -1.3753
 1346SOL    HW215501   3.549   4.372   2.047  0.9566 -2.5072 -0.5722
 1347SOL     OW15502   1.774   1.963  12.016 -0.2915  0.2173  0.0154
 1347SOL    HW115503   1.811   2.024  12.080 -1.0674 -0.4554  1.0974
 1347SOL    HW215504   1.775   2.019  11.938 -3.3522  0.3422  0.0676
 1348SOL     OW15505   2.570   0.582   2.492  0.5287  0.2573 -0.1744
 1348SOL    HW115506   2.657   0.588   2.452  3.0240 -3.9724  4.4973
 1348SOL    HW215507   2.562   0.487   2.502 -1.3063  0.7252  2.9275
 1349SOL     OW15508   3.795   2.702   0.824 -0.0847  0.9321 -0.3853
 1349SOL    HW115509   3.736   2.632   0.798 -1.4843  1.3488  1.6624
 1349SOL    HW215510   3.748   2.740   0.899 -1.9126 -2.1797  0.0080
 1350SOL     OW15511   3.484   3.368   8.618  0.1451 -0.4475 -0.0382
 1350SOL    HW115512   3.412   3.324   8.572 -0.1629 -0.5200  0.5212
 1350SOL    HW215513   3.451   3.458   8.623  1.5751  0.1855 -1.6185
 1351SOL     OW15514   4.397   0.582   9.374 -0.1134  0.2052 -0.6083
 1351SOL    HW115515   4.470   0.642   9.356  0.1378  0.3904  1.0938
 1351SOL    HW215516   4.451   0.524   9.427 -1.0522 -0.9211 -0.8988
 1352SOL     OW15517   2.214   1.203   2.438  0.0240  0.6763 -0.4893
 1352SOL    HW115518   2.233   1.253   2.518 -1.9245  0.5621  0.0403
 1352SOL    HW215519   2.300   1.169   2.414  0.3225  1.0646  0.0310
 1353SOL     OW15520   0.357   3.921   1.687  0.2360 -0.0130  0.0994
 1353SOL    HW115521   0.374   4.008   1.650 -0.6098  0.2143  0.2278
 1353SOL    HW215522   0.282   3.935   1.746  2.0831  1.2704  2.1229
 1354SOL     OW15523   3.788   2.882  16.364  0.2899 -0.0063 -0.7210
 1354SOL    HW115524   3.825   2.944  16.427  0.4692  0.6545 -1.4888
 1354SOL    HW215525   3.801   2.925  16.280  0.4097  0.6906 -0.3462
 1355SOL     OW15526   1.214   1.655   5.875  0.1912 -0.3273  0.2680
 1355SOL    HW115527   1.137   1.703   5.905 -0.7565 -1.7651  0.1690
 1355SOL    HW215528   1.286   1.717   5.864  0.3832 -0.8234 -1.3032
 1356SOL     OW15529   1.644   1.613   0.144  0.1647  0.0864 -0.6235
 1356SOL    HW115530   1.689   1.689   0.181 -0.0225  0.6438 -1.5305
 1356SOL    HW215531   1.563   1.612   0.194  0.3589  2.5932 -0.2816
 1357SOL     OW15532   1.507   1.404  14.525 -0.5292 -0.4307  0.1694
 1357SOL    HW115533   1.503   1.499  14.531 -2.2209 -0.5980  1.6663
 1357SOL    HW215534   1.419   1.379  14.497  0.2874 -0.0304 -2.7588
 1358SOL     OW15535   2.165   2.040  10.106 -0.3464 -0.1042  0.6658
 1358SOL    HW115536   2.175   2.027  10.011 -0.3869 -2.4992  0.9820
 1358SOL    HW215537   2.085   2.092  10.100  0.8873  1.8025  0.8848
 1359SOL     OW15538   4.322   4.272  12.233  0.1454  0.3811 -0.2209
 1359SOL    HW115539   4.229   4.285  12.214 -0.6133 -0.0267  3.2058
 1359SOL    HW215540   4.350   4.203  12.173  1.2792  0.9610 -0.3642
 1360SOL     OW15541   1.074   3.913   3.422  0.1131 -0.1992 -0.0081
 1360SOL    HW115542   1.024   3.901   3.503 -0.1802  0.6599 -0.0705
 1360SOL    HW215543   1.070   3.824   3.385  0.0198 -1.3237  2.6686
 1361SOL     OW15544   2.515   2.753   8.762 -0.4288 -0.3541  0.1308
 1361SOL    HW115545   2.472   2.731   8.844 -1.3766  0.4912 -0.1385
 1361SOL    HW215546   2.438   2.759   8.706  0.5083 -1.0377 -1.2462
 1362SOL     OW15547   3.032   0.990   3.751  0.1268  0.3131 -0.2091
 1362SOL    HW115548   3.083   0.921   3.709  1.5237  1.5610 -0.5492
 1362SOL    HW215549   3.068   1.071   3.716  0.8637 -0.8354 -2.1363
 1363SOL     OW15550   2.362   1.886   4.843  0.0360 -0.2989  0.1931
 1363SOL    HW115551   2.422   1.812   4.858 -0.5971 -1.1530 -1.5172
 1363SOL    HW215552   2.283   1.836   4.822 -1.5287  1.6988  1.3607
 1364SOL     OW15553   0.276   2.211  12.029 -0.0617 -0.0415  0.6099
 1364SOL    HW115554   0.200   2.166  11.993 -0.3738 -0.5424  1.8921
 1364SOL    HW215555   0.319   2.238  11.948 -1.1694 -0.6516 -0.1758
 1365SOL     OW15556   3.525   3.316   1.518 -0.0710 -0.4819 -0.2902
 1365SOL    HW115557   3.439   3.298   1.556  0.3607  1.2173  1.5463
 1365SOL    HW215558   3.577   3.283   1.591  1.4831  1.6251 -0.4221
 1366SOL     OW15559   3.366   4.379   2.152 -0.9559 -0.1853 -0.3286
 1366SOL    HW115560   3.372   4.303   2.210  1.7903  0.0888 -0.2358
 1366SOL    HW215561   3.277   4.411   2.162 -1.0949 -0.4423 -0.7279
 1367SOL     OW15562   2.812   1.902   1.738  0.2714 -0.2113  0.7254
 1367SOL    HW115563   2.896   1.858   1.721  0.8435  0.6949  1.1587
 1367SOL    HW215564   2.842   1.993   1.731 -0.1042 -0.0947  0.6207
 1368SOL     OW15565   3.927   2.366  12.067  0.4132  0.0008  0.4042
 1368SOL    HW115566   3.918   2.359  12.162 -0.2629 -1.9565  0.1983
 1368SOL    HW215567   3.862   2.301  12.042  1.9469 -1.2944 -0.1488
 1369SOL     OW15568   0.418   2.437   0.956 -0.0530 -0.3055  0.6033
 1369SOL    HW115569   0.441   2.417   0.865  2.5657 -0.6551  1.3517
 1369SOL    HW215570   0.447   2.527   0.968  0.1844 -0.3206  0.1390
 1370SOL     OW15571   0.914   4.698  10.935  0.1405 -0.1305  0.4389
 1370SOL    HW115572   0.982   4.710  10.869 -0.6364 -2.7738 -0.8207
 1370SOL    HW215573   0.945   4.611  10.961  2.6717  1.2167  2.0089
 1371SOL     OW15574   1.034   1.760   5.372 -0.1520 -0.0311  0.4090
 1371SOL    HW115575   1.040   1.695   5.442  0.9692  0.5284  0.8229
 1371SOL    HW215576   0.942   1.761   5.344  0.1715 -0.1558 -0.6524
 1372SOL     OW15577   1.435   4.714   5.043  0.6836 -0.4179 -0.3584
 1372SOL    HW115578   1.465   0.082   5.053 -0.3946 -0.0776 -0.1116
 1372SOL    HW215579   1.356   4.720   5.098  1.8823 -0.1300  1.3282
 1373SOL     OW15580   1.079   2.068   1.855 -0.1811  0.3404  0.0075
 1373SOL    HW115581   1.142   2.134   1.884 -0.5131  0.2744  0.8779
 1373SOL    HW215582   1.054   2.023   1.935 -3.1963 -0.6623 -1.4941
 1374SOL     OW15583   3.025   1.281   7.319 -0.5018 -0.5478  0.4005
 1374SOL    HW115584   3.119   1.276   7.334 -0.2987 -0.3996 -0.8317
 1374SOL    HW215585   3.005   1.189   7.297  1.4992 -0.1570 -3.0710
 1375SOL     OW15586   2.418   3.854  12.956  0.3417  0.1838  0.1680
 1375SOL    HW115587   2.376   3.934  12.986  1.0448 -0.3445  2.5830
 1375SOL    HW215588   2.365   3.786  13.000  1.2796 -0.0530  0.9393
 1376SOL     OW15589   3.571   0.084   7.226 -0.5981 -0.1038  0.1496
 1376SOL    HW115590   3.479   0.108   7.212 -0.4479 -0.2907 -1.1886
 1376SOL    HW215591   3.558   0.015   7.291  0.6216 -0.3952  0.0828
 1377SOL     OW15592   0.818   3.542   3.692  0.2825  0.4985 -0.3450
 1377SOL    HW115593   0.736   3.556   3.645  0.9105  1.4957 -1.1278
 1377SOL    HW215594   0.817   3.608   3.761 -0.2020  1.4573 -1.2667
 1378SOL     OW15595   4.574   3.390   2.761  0.4236 -0.0118 -0.2517
 1378SOL    HW115596   4.607   3.421   2.676  0.8431  0.4195  0.0643
 1378SOL    HW215597   4.650   3.351   2.805  2.3919  0.2006 -3.4554
 1379SOL     OW15598   3.067   0.034   6.895  0.9164 -0.6084 -0.4755
 1379SOL    HW115599   3.102   0.020   6.983  2.0710  0.4890 -0.7712
 1379SOL    HW215600   3.100   4.675   6.856 -0.6406 -2.3785  1.8490
 1380SOL     OW15601   0.601   2.191   7.994  0.0732  0.3713 -0.7117
 1380SOL    HW115602   0.687   2.226   8.015 -0.6318  2.4568 -1.2843
 1380SOL    HW215603   0.602   2.113   8.049 -0.3667  0.8402 -0.0442
 1381SOL     OW15604   0.144   4.574  13.987 -0.1653  0.3886 -0.0408
 1381SOL    HW115605   0.125   4.516  14.060 -2.5184  0.4625 -0.5961
 1381SOL    HW215606   0.065   4.564  13.934  1.5252 -2.1586 -2.0711
 1382SOL     OW15607   1.943   2.339   0.936 -0.0379 -0.7603  0.1448
 1382SOL    HW115608   1.861   2.325   0.985  0.4520 -0.1361  1.1472
 1382SOL    HW215609   1.918   2.404   0.870  1.5129  1.1656  1.4438
 1383SOL     OW15610   3.406   3.572  11.921 -0.1272  0.2417 -0.0544
 1383SOL    HW115611   3.497   3.547  11.938  0.7836  2.8240 -1.1005
 1383SOL    HW215612   3.431   3.662  11.901  1.8210  0.0943  1.7380
 1384SOL     OW15613   2.811   2.383   1.106  0.2699 -0.1718  0.2211
 1384SOL    HW115614   2.817   2.398   1.011  0.5836 -0.5913  0.1723
 1384SOL    HW215615   2.890   2.329   1.112  1.2164  1.5324  2.8770
 1385SOL     OW15616   0.584   2.028   8.912 -0.2089  0.2942  0.5518
 1385SOL    HW115617   0.577   2.123   8.915 -0.5203  0.3078 -0.7680
 1385SOL    HW215618   0.676   2.008   8.895 -0.4321 -1.8442  1.8387
 1386SOL     OW15619   3.329   2.878   7.147 -0.2662  0.1815 -0.1178
 1386SOL    HW115620   3.355   2.943   7.213  2.4711  0.8468 -1.8403
 1386SOL    HW215621   3.417   2.862   7.114  0.0513  0.6015  0.5233
 1387SOL     OW15622   2.110   3.703   2.474 -0.2730 -0.3104 -0.1829
 1387SOL    HW115623   2.070   3.664   2.397  0.2881 -0.4272 -0.4184
 1387SOL    HW215624   2.104   3.799   2.472 -0.1993 -0.2653  1.9170
 1388SOL     OW15625   2.552   2.759   0.712  0.3404  0.3380  0.1504
 1388SOL    HW115626   2.523   2.763   0.621 -0.1629  2.2008  0.3950
 1388SOL    HW215627   2.614   2.832   0.724  0.6303  0.0576  0.3531
 1389SOL     OW15628   2.444   1.016  11.833 -0.3732 -0.0323 -0.8779
 1389SOL    HW115629   2.477   1.044  11.748 -0.5302 -0.5750 -1.1238
 1389SOL    HW215630   2.421   1.102  11.868 -0.2628 -0.5162  0.3771
 1390SOL     OW15631   1.994   2.932  11.600  0.2474 -0.4024  0.0909
 1390SOL    HW115632   2.079   2.926  11.644  0.3392 -1.8967 -0.2667
 1390SOL    HW215633   1.948   2.855  11.634 -2.0911  0.8593 -0.2153
 1391SOL     OW15634   4.005   2.268   5.675  0.3240 -0.0696 -0.2100
 1391SOL    HW115635   4.008   2.269   5.770 -1.1424 -1.5320 -0.1503
 1391SOL    HW215636   4.065   2.336   5.644 -0.4404  0.9885  0.6520
 1392SOL     OW15637   0.263   3.315   9.751 -0.4188 -0.2227  0.7462
 1392SOL    HW115638   0.349   3.320   9.793  1.0191  0.8132 -2.3203
 1392SOL    HW215639   0.226   3.400   9.777 -0.4774 -0.2203  0.6523
 1393SOL     OW15640   2.082   0.181   5.340 -0.3346 -0.1073 -0.3971
 1393SOL    HW115641   2.092   0.162   5.433 -1.4690  2.1292  0.1735
 1393SOL    HW215642   1.987   0.181   5.335 -0.3075 -0.9880 -1.1171
 1394SOL     OW15643   3.983   1.217   8.928 -0.0514 -0.3340 -0.0853
 1394SOL    HW115644   3.936   1.275   8.989  2.0277  0.9197  0.3332
 1394SOL    HW215645   4.049   1.179   8.985  1.0431  1.2186 -0.3170
 1395SOL     OW15646   4.308   2.357  12.660  0.1408  0.1134  0.0837
 1395SOL    HW115647   4.378   2.364  12.726  0.8438  2.4049 -0.9344
 1395SOL    HW215648   4.248   2.290  12.693 -0.8173  0.6016 -0.6904
 1396SOL     OW15649   0.332   0.152   5.768 -0.5085 -0.0820 -0.0363
 1396SOL    HW115650   0.316   0.184   5.857 -0.3903  2.0106 -0.7842
 1396SOL    HW215651   0.259   0.191   5.720 -1.1028 -0.3299  0.6573
 1397SOL     OW15652   1.842   2.897   5.534  0.3228 -0.2916 -0.6355
 1397SOL    HW115653   1.882   2.910   5.448  1.5236 -1.8358 -0.3162
 1397SOL    HW215654   1.910   2.945   5.583  0.4088  0.2291 -1.2691
 1398SOL     OW15655   0.482   3.159   1.128  0.3895  0.1795 -1.1290
 1398SOL    HW115656   0.473   3.081   1.184  0.8746  0.7286 -0.2835
 1398SOL    HW215657   0.466   3.120   1.042  1.3781 -0.5568 -0.9871
 1399SOL     OW15658   1.628   4.003  15.671 -0.2999 -0.3132 -0.1753
 1399SOL    HW115659   1.611   3.933  15.607 -4.0599  0.4053  0.0576
 1399SOL    HW215660   1.603   3.969  15.757 -0.4708 -0.6949 -0.3754
 1400SOL     OW15661   2.705   4.517   7.334 -0.3128 -0.2852 -0.6131
 1400SOL    HW115662   2.769   4.588   7.339  1.2217 -1.8100  1.5889
 1400SOL    HW215663   2.756   4.439   7.315 -0.3592 -1.1533  2.8274
 1401SOL     OW15664   3.716   2.014   6.341  0.1402  0.8814  0.0717
 1401SOL    HW115665   3.688   1.934   6.386 -0.0154 -0.7888 -2.9537
 1401SOL    HW215666   3.810   2.016   6.357  0.0003 -0.4348  1.0440
 1402SOL     OW15667   3.287   4.114   8.265  0.2440  0.5678  0.3656
 1402SOL    HW115668   3.365   4.080   8.221 -0.3385 -0.1657 -0.0934
 1402SOL    HW215669   3.285   4.202   8.227  3.8786 -0.5270 -2.4003
 1403SOL     OW15670   2.296   1.728   7.234 -0.7861  0.1380  0.2888
 1403SOL    HW115671   2.343   1.810   7.216  1.5913 -0.7749  2.2736
 1403SOL    HW215672   2.311   1.724   7.328  0.1430  2.4576  0.2515
 1404SOL     OW15673   0.368   3.322   6.841 -0.5072 -0.4949  0.4770
 1404SOL    HW115674   0.308   3.282   6.905  0.6427 -3.2391 -0.2000
 1404SOL    HW215675   0.316   3.391   6.799 -0.9738 -3.1879 -3.3393
 1405SOL     OW15676   3.789   1.007   2.195  0.2744 -0.3949 -0.1524
 1405SOL    HW115677   3.792   0.918   2.160  0.6121 -0.0823 -0.9212
 1405SOL    HW215678   3.801   1.067   2.122 -1.2030  1.1822  0.9011
 1406SOL     OW15679   1.366   2.534  14.830 -0.2029 -0.2007  0.0469
 1406SOL    HW115680   1.386   2.453  14.876 -1.0426 -1.3272 -1.5815
 1406SOL    HW215681   1.340   2.521  14.739  0.2408 -0.5776 -0.0251
 1407SOL     OW15682   3.924   2.327   7.204  0.6202 -0.2425  0.1296
 1407SOL    HW115683   3.952   2.238   7.227  0.4797  0.2048  2.0202
 1407SOL    HW215684   3.987   2.361   7.141 -2.2319  0.5884 -2.3003
 1408SOL     OW15685   2.054   2.568   6.329 -0.3668  0.4887 -0.1593
 1408SOL    HW115686   2.044   2.476   6.308  2.2061  0.6194 -1.9421
 1408SOL    HW215687   2.144   2.591   6.308 -1.4084  2.8997 -2.1069
 1409SOL     OW15688   0.198   4.173  13.775  0.2054 -0.2568 -0.4703
 1409SOL    HW115689   0.155   4.182  13.690 -0.9996 -0.9397  0.0575
 1409SOL    HW215690   0.267   4.239  13.775  0.0274 -0.0704 -0.8136
 1410SOL     OW15691   2.047   3.225   3.007 -0.2661 -0.0607 -0.3135
 1410SOL    HW115692   2.134   3.235   3.046 -0.4747 -1.1237  0.4073
 1410SOL    HW215693   2.075   3.220   2.915 -0.4997  2.0138 -0.5009
 1411SOL     OW15694   2.094   2.440   7.347 -0.5201  0.4333 -0.3932
 1411SOL    HW115695   2.147   2.476   7.276 -0.5021  2.9539  0.8908
 1411SOL    HW215696   2.151   2.454   7.422  0.9680  1.4057 -1.7275
 1412SOL     OW15697   4.580   2.484   3.492 -0.2527 -0.1157  0.5635
 1412SOL    HW115698   4.547   2.549   3.554  3.9313 -0.2749  2.9607
 1412SOL    HW215699   4.520   2.500   3.420  0.3195  0.2978  0.1790
 1413SOL     OW15700   2.259   2.035  15.744  0.4829  0.0580  0.3340
 1413SOL    HW115701   2.280   2.006  15.832 -1.4431 -1.0323  0.4315
 1413SOL    HW215702   2.165   2.046  15.759  0.6157  0.3062  0.9451
 1414SOL     OW15703   4.044   2.571   4.710 -0.6703 -0.2824 -0.5716
 1414SOL    HW115704   4.027   2.514   4.635  0.0487 -0.5301 -0.5427
 1414SOL    HW215705   4.040   2.655   4.664 -2.0214 -1.0308 -1.8223
 1415SOL     OW15706   1.187   2.271   4.658 -0.3723  0.2074  0.3464
 1415SOL    HW115707   1.253   2.320   4.608 -0.7683 -0.8612 -1.2313
 1415SOL    HW215708   1.177   2.197   4.598  0.5607 -0.4970  1.0551
 1416SOL     OW15709   0.406   0.007   7.679  0.2183  0.2642 -0.1958
 1416SOL    HW115710   0.401   4.665   7.750  0.4973 -0.6919 -1.0256
 1416SOL    HW215711   0.316   0.034   7.663  0.1583  0.5421  0.6593
 1417SOL     OW15712   2.307   0.226   6.817  0.1492  0.3362 -0.2878
 1417SOL    HW115713   2.381   0.243   6.758  1.0149 -0.7947  0.4721
 1417SOL    HW215714   2.253   0.182   6.751  0.6497  0.3824 -0.7311
 1418SOL     OW15715   3.433   1.828   6.264 -0.5956 -0.2391 -0.0748
 1418SOL    HW115716   3.349   1.782   6.269  0.7928 -2.6600  1.3091
 1418SOL    HW215717   3.496   1.758   6.244 -0.0799  0.7728 -1.9245
 1419SOL     OW15718   0.537   1.548   8.106 -0.2319  0.9804 -0.2546
 1419SOL    HW115719   0.495   1.627   8.072 -0.7117  0.9181  0.2030
 1419SOL    HW215720   0.544   1.558   8.201 -1.4315 -1.1195  0.0441
 1420SOL     OW15721   4.203   4.121  14.680 -0.1799  0.4018  0.2955
 1420SOL    HW115722   4.206   4.062  14.605 -0.4849 -1.6235  1.8929
 1420SOL    HW215723   4.236   4.061  14.746 -1.8315 -0.0833  0.6848
 1421SOL     OW15724   3.822   1.105   1.956 -0.3149 -0.3522  0.4204
 1421SOL    HW115725   3.876   1.108   1.877 -3.8617 -1.8384 -2.0644
 1421SOL    HW215726   3.738   1.137   1.923  0.1326  0.1753 -0.1970
 1422SOL     OW15727   2.421   1.986  11.271 -0.2793  0.0026  0.1887
 1422SOL    HW115728   2.452   2.027  11.190  0.2755 -1.6915 -0.4493
 1422SOL    HW215729   2.452   1.896  11.259 -1.4089 -0.1285 -1.7519
 1423SOL     OW15730   3.503   1.757  16.593 -0.4724 -0.4129  0.3742
 1423SOL    HW115731   3.573   1.694  16.608 -0.7332 -0.9260 -0.5689
 1423SOL    HW215732   3.436   1.706  16.548 -0.7791  0.8376 -0.6061
 1424SOL     OW15733   0.270   0.102  14.070 -0.0987 -0.2872 -0.6932
 1424SOL    HW115734   0.207   0.135  14.134  1.0807  0.0134  0.3293
 1424SOL    HW215735   0.237   0.016  14.045 -0.3730  0.0866 -1.6125
 1425SOL     OW15736   2.344   1.244  10.281 -0.0913 -0.2950 -0.0534
 1425SOL    HW115737   2.411   1.177  10.267 -1.1202 -0.8853 -2.0777
 1425SOL    HW215738   2.300   1.212  10.359  2.8677 -2.4954  0.7039
 1426SOL     OW15739   1.237   1.309  14.483  0.1215 -0.3042 -0.4802
 1426SOL    HW115740   1.145   1.328  14.499  0.9689  4.5399 -1.4562
 1426SOL    HW215741   1.246   1.225  14.528  1.3045 -0.1251 -0.3785
 1427SOL     OW15742   1.327   3.650   7.996 -0.4472 -0.6870 -0.4092
 1427SOL    HW115743   1.235   3.625   7.997 -1.1989  2.1626  0.6608
 1427SOL    HW215744   1.333   3.736   7.953 -1.1995 -0.8232 -0.7802
 1428SOL     OW15745   1.106   1.752   0.924  0.2246  0.5830 -0.1099
 1428SOL    HW115746   1.134   1.668   0.887  0.2585  1.9182 -3.0893
 1428SOL    HW215747   1.146   1.726   1.007 -0.9963 -1.8082 -0.2805
 1429SOL     OW15748   0.809   3.540  15.937 -0.2947 -0.8687 -0.1259
 1429SOL    HW115749   0.753   3.506  16.007  0.5124 -0.1271  0.8728
 1429SOL    HW215750   0.845   3.455  15.911  2.3051  0.0510  0.4918
 1430SOL     OW15751   4.252   2.288   2.231  0.5283  0.8235 -0.2234
 1430SOL    HW115752   4.163   2.300   2.199 -0.2501 -0.3869  1.4492
 1430SOL    HW215753   4.294   2.363   2.189  0.1923  0.2605 -1.5835
 1431SOL     OW15754   4.629   1.650   8.315 -0.5725  0.1492  0.2944
 1431SOL    HW115755   4.708   1.644   8.262 -0.0300  1.6409  0.9381
 1431SOL    HW215756   4.560   1.643   8.250 -0.2752  0.8320 -0.0888
 1432SOL     OW15757   0.440   0.094  11.615  0.7389  0.0697  0.8081
 1432SOL    HW115758   0.514   0.135  11.658  0.1871  1.2139  0.6831
 1432SOL    HW215759   0.412   0.175  11.572 -0.4988 -0.5258  0.4834
 1433SOL     OW15760   2.300   2.921  15.724  0.3968 -0.4552 -0.4067
 1433SOL    HW115761   2.248   2.872  15.660  0.1605  0.2076 -0.7230
 1433SOL    HW215762   2.366   2.961  15.668  0.9877 -0.2746  0.4326
 1434SOL     OW15763   0.154   0.353   4.326  0.3204  0.4095  0.1223
 1434SOL    HW115764   0.108   0.393   4.399 -0.5138  0.6737 -0.5426
 1434SOL    HW215765   0.174   0.436   4.283  1.2352  1.6090  2.8946
 1435SOL     OW15766   2.101   0.557   5.767  0.1463  0.5992 -0.0223
 1435SOL    HW115767   2.166   0.620   5.737  0.3929  0.9049  1.1248
 1435SOL    HW215768   2.085   0.592   5.855  0.2034 -1.2729  0.7295
 1436SOL     OW15769   2.719   1.572   3.892  0.3391  0.0273  0.3032
 1436SOL    HW115770   2.665   1.651   3.897 -0.4347 -0.6546  2.5761
 1436SOL    HW215771   2.732   1.567   3.797 -0.8004  0.7762  0.1052
 1437SOL     OW15772   1.342   1.228   7.824 -0.0259 -0.2169  0.0814
 1437SOL    HW115773   1.303   1.302   7.870  2.0357  0.3853  0.8456
 1437SOL    HW215774   1.360   1.165   7.894  1.3840  0.4363  0.2986
 1438SOL     OW15775   0.333   3.914  13.041 -0.9229  0.1860 -0.5863
 1438SOL    HW115776   0.384   3.906  12.960  0.3456 -0.1877  0.2364
 1438SOL    HW215777   0.318   3.822  13.062  1.5087  0.0276  0.5522
 1439SOL     OW15778   0.710   3.952   3.116  0.2775  0.1489  0.0043
 1439SOL    HW115779   0.794   3.914   3.090 -0.2332 -1.7311  1.1169
 1439SOL    HW215780   0.724   4.033   3.066 -0.1940  0.1557 -0.1155
 1440SOL     OW15781   1.011   0.418   9.682 -0.4990  0.3659  0.3902
 1440SOL    HW115782   0.926   0.383   9.705 -0.8554  0.6941 -0.4123
 1440SOL    HW215783   1.036   0.465   9.761 -1.4814 -0.1879  1.0224
 1441SOL     OW15784   4.571   3.937  14.534  0.1912 -0.0668  0.3569
 1441SOL    HW115785   4.517   3.964  14.460  0.9725 -0.7006 -0.4529
 1441SOL    HW215786   4.657   3.926  14.494 -1.0854  0.1507 -2.4277
 1442SOL     OW15787   2.190   1.162   7.388  0.5024  0.3111  0.5747
 1442SOL    HW115788   2.172   1.141   7.296 -0.3851 -2.4076  1.3431
 1442SOL    HW215789   2.227   1.081   7.424  0.4751 -0.2890 -0.7093
 1443SOL     OW15790   4.046   1.102   4.433  0.1006  0.2497  0.2233
 1443SOL    HW115791   4.076   1.186   4.398 -1.6345  0.7924  0.0628
 1443SOL    HW215792   3.957   1.127   4.459 -0.7819 -0.8948 -1.7236
 1444SOL     OW15793   1.559   0.508   3.302 -0.2507  0.4307 -0.1133
 1444SOL    HW115794   1.615   0.581   3.327  0.7641 -0.4562  0.2450
 1444SOL    HW215795   1.550   0.533   3.210 -2.5876  1.1325  0.3057
 1445SOL     OW15796   4.064   0.733   7.586 -0.3417 -0.1291 -0.3119
 1445SOL    HW115797   4.094   0.739   7.677 -1.3588  2.4515 -0.1420
 1445SOL    HW215798   4.149   0.705   7.551  0.3664  1.0146  0.5074
 1446SOL     OW15799   3.367   3.918   7.917  0.5190 -0.4174  0.3531
 1446SOL    HW115800   3.347   4.011   7.909 -2.0499 -1.2626 -2.8350
 1446SOL    HW215801   3.461   3.921   7.936  0.7985  2.8274 -1.5344
 1447SOL     OW15802   1.410   2.547   7.039 -0.3996  0.7063  0.7468
 1447SOL    HW115803   1.348   2.475   7.031  1.3948 -0.6827 -0.4934
 1447SOL    HW215804   1.491   2.498   7.045 -0.1866  1.0942  1.0608
 1448SOL     OW15805   1.404   4.687   5.407  0.2238 -0.3227 -0.0094
 1448SOL    HW115806   1.394   0.059   5.422 -0.0641 -0.7307  2.4187
 1448SOL    HW215807   1.499   4.681   5.404  0.3327  0.9019  0.7878
 1449SOL     OW15808   1.226   0.378   7.444 -0.4499 -0.1372  0.6014
 1449SOL    HW115809   1.169   0.443   7.402 -0.9830 -0.6949  0.4729
 1449SOL    HW215810   1.182   0.370   7.528  2.1728  3.1930  2.2976
 1450SOL     OW15811   2.685   1.776  17.254 -0.3279 -0.0876 -0.2315
 1450SOL    HW115812   2.760   1.823  17.291  0.4745 -1.4710 -0.1108
 1450SOL    HW215813   2.652   1.831  17.183  0.1429 -0.9682 -1.1248
 1451SOL     OW15814   0.217   1.486   5.729 -0.3611 -0.5629  0.1388
 1451SOL    HW115815   0.177   1.567   5.761  1.8360  0.9717 -1.0192
 1451SOL    HW215816   0.284   1.480   5.797 -1.0731  2.8556  1.1545
 1452SOL     OW15817   4.495   0.082   8.147  0.2121 -0.3147 -0.1933
 1452SOL    HW115818   4.487   0.003   8.093  1.7977  0.0684 -1.0094
 1452SOL    HW215819   4.499   0.044   8.234  0.2063 -0.8445 -0.4255
 1453SOL     OW15820   4.411   3.137   5.823  0.2505 -0.1579  0.3756
 1453SOL    HW115821   4.426   3.124   5.729 -3.7408  0.3418 -0.3130
 1453SOL    HW215822   4.478   3.079   5.859  2.4019  1.9748 -0.2409
 1454SOL     OW15823   2.830   3.398   8.383 -0.2268 -0.0095  0.4107
 1454SOL    HW115824   2.789   3.483   8.400  1.7600  1.1497 -0.6395
 1454SOL    HW215825   2.772   3.341   8.434 -0.4044 -0.7643 -0.6308
 1455SOL     OW15826   3.638   1.741   6.901 -0.0259  0.0771 -0.2285
 1455SOL    HW115827   3.629   1.751   6.996 -0.0146  0.6564 -0.2863
 1455SOL    HW215828   3.607   1.651   6.901  1.7493 -0.5250  0.5121
 1456SOL     OW15829   1.830   0.929   7.376 -0.4844 -0.0929  0.3404
 1456SOL    HW115830   1.739   0.899   7.375 -0.6078  0.2539  2.2268
 1456SOL    HW215831   1.868   0.904   7.460  0.1572 -2.9131 -0.7974
 1457SOL     OW15832   0.509   4.555   4.751  0.3055 -0.1593  0.5754
 1457SOL    HW115833   0.503   4.467   4.789  1.4439 -0.6419 -0.3909
 1457SOL    HW215834   0.605   4.557   4.758  0.3693 -2.8788  0.4849
 1458SOL     OW15835   0.803   3.625   2.591  0.0512 -0.0996 -0.0283
 1458SOL    HW115836   0.887   3.665   2.613  0.9211 -1.7980 -0.3236
 1458SOL    HW215837   0.814   3.547   2.644  0.4813 -2.5295 -3.7032
 1459SOL     OW15838   2.170   0.023   1.209  0.4889 -0.3886 -0.4092
 1459SOL    HW115839   2.098   4.688   1.237  1.3304 -1.0788  0.3776
 1459SOL    HW215840   2.233   4.702   1.267  1.6833  0.1369 -1.3169
 1460SOL     OW15841   4.705   4.398   3.144 -0.0989  0.0580 -0.0927
 1460SOL    HW115842   0.041   4.467   3.178  1.1610  0.3198 -2.7740
 1460SOL    HW215843   0.023   4.377   3.060 -0.7444  0.2862 -0.4575
 1461SOL     OW15844   1.705   0.804   9.824 -0.0380  0.7104 -0.6950
 1461SOL    HW115845   1.685   0.884   9.774  1.0234  1.0129 -0.6458
 1461SOL    HW215846   1.796   0.786   9.800  0.1110  1.9994 -1.0895
 1462SOL     OW15847   4.259   2.189   7.842  0.0242 -0.2950  0.2310
 1462SOL    HW115848   4.200   2.215   7.771  2.1187 -1.9195 -2.1007
 1462SOL    HW215849   4.201   2.135   7.895  1.5757 -0.5224  1.6971
 1463SOL     OW15850   2.331   4.548   2.225 -0.0006  0.2116  1.3394
 1463SOL    HW115851   2.399   4.557   2.158 -1.9685  2.3870 -0.3501
 1463SOL    HW215852   2.313   4.642   2.234 -2.6247 -0.1769  0.0288
 1464SOL     OW15853   3.526   1.362   7.877  0.1546 -0.7504 -0.4492
 1464SOL    HW115854   3.441   1.350   7.836  0.1048 -0.2945 -0.4842
 1464SOL    HW215855   3.517   1.322   7.964  3.3155 -4.4154 -1.7916
 1465SOL     OW15856   1.903   1.093   5.652 -0.6227  0.2858 -0.6266
 1465SOL    HW115857   1.890   1.144   5.732  1.5679  0.3733 -0.3161
 1465SOL    HW215858   1.866   1.150   5.585 -1.1948  0.1938 -0.3854
 1466SOL     OW15859   1.269   0.233   4.245  0.1428  1.0202 -0.2329
 1466SOL    HW115860   1.240   0.294   4.177  0.5624 -0.3641 -1.6774
 1466SOL    HW215861   1.358   0.215   4.213  0.5239  3.5614 -0.5924
 1467SOL     OW15862   1.344   0.664   5.678  0.4500  0.1739  0.5310
 1467SOL    HW115863   1.303   0.578   5.676 -0.6107  0.7637 -2.8993
 1467SOL    HW215864   1.390   0.662   5.762 -0.6049 -0.9603  1.0806
 1468SOL     OW15865   3.078   0.256   4.346 -0.1333  0.2187  0.1396
 1468SOL    HW115866   3.108   0.168   4.371 -2.1119 -0.8062 -1.0684
 1468SOL    HW215867   2.985   0.259   4.366 -0.3269 -0.0814 -0.7058
 1469SOL     OW15868   1.742   4.692   5.855 -0.0858 -0.3197  0.5673
 1469SOL    HW115869   1.654   0.006   5.860 -1.1038 -2.8164  0.4667
 1469SOL    HW215870   1.799   0.019   5.914  1.7277 -1.3478 -0.3228
 1470SOL     OW15871   3.180   3.084   6.305 -0.1946 -0.4091 -0.0310
 1470SOL    HW115872   3.251   3.031   6.342 -0.2722  0.2287  1.0067
 1470SOL    HW215873   3.145   3.136   6.377  0.4522 -1.0583  0.7515
 1471SOL     OW15874   2.881   3.328   7.087 -0.1546  0.1470 -0.0343
 1471SOL    HW115875   2.926   3.252   7.050  1.7498  0.9399  0.6863
 1471SOL    HW215876   2.851   3.382   7.014  0.3291 -1.5959 -1.5287
 1472SOL     OW15877   3.205   3.840  17.232 -0.0070  0.2463 -0.6114
 1472SOL    HW115878   3.113   3.840  17.259  0.0053 -0.2245 -0.5652
 1472SOL    HW215879   3.242   3.921  17.268 -0.4463  0.6139 -0.9994
 1473SOL     OW15880   3.436   3.345  12.777 -0.1201  0.5228  0.0862
 1473SOL    HW115881   3.463   3.370  12.688 -2.6674  0.5755 -0.6761
 1473SOL    HW215882   3.361   3.404  12.787  1.6209  2.7390  0.0962
 1474SOL     OW15883   3.355   2.291  15.828 -0.2983 -0.4255  0.2802
 1474SOL    HW115884   3.331   2.351  15.758 -2.4236 -0.2877  1.1138
 1474SOL    HW215885   3.446   2.313  15.846 -0.0953  0.5397 -1.9605
 1475SOL     OW15886   4.455   0.451   3.682 -0.2797 -0.6738  0.0983
 1475SOL    HW115887   4.362   0.455   3.658 -0.5423  1.4045  1.4897
 1475SOL    HW215888   4.457   0.505   3.760 -1.9095  0.7483 -0.8410
 1476SOL     OW15889   1.878   1.019  12.170  0.0401 -0.6163  0.7362
 1476SOL    HW115890   1.822   1.049  12.098 -1.7588 -0.5519  2.1760
 1476SOL    HW215891   1.934   0.951  12.132  0.4177  0.7435 -1.1336
 1477SOL     OW15892   3.649   3.891   8.386 -0.1036  0.4895 -0.1118
 1477SOL    HW115893   3.741   3.889   8.362 -0.8130 -0.6424 -2.6988
 1477SOL    HW215894   3.608   3.831   8.324 -1.4383  1.4772 -0.2028
 1478SOL     OW15895   1.297   3.646   8.306  0.1393  0.1703  0.4134
 1478SOL    HW115896   1.205   3.635   8.328  0.1486  0.6957  0.7189
 1478SOL    HW215897   1.305   3.608   8.219  1.5135  0.4251  0.4200
 1479SOL     OW15898   1.618   4.208   2.508 -0.2478  0.2709  0.1740
 1479SOL    HW115899   1.522   4.206   2.499 -0.0886  0.0121 -1.5332
 1479SOL    HW215900   1.612   4.253   2.593 -1.3888 -0.4104  0.4588
 1480SOL     OW15901   3.487   4.510  17.002  0.0225 -0.7759 -0.2648
 1480SOL    HW115902   3.404   4.536  17.043  0.4009  2.9170 -1.9055
 1480SOL    HW215903   3.450   4.447  16.941  0.1111  0.7209 -1.8605
 1481SOL     OW15904   4.560   0.815  15.972 -0.0390  0.5458 -0.4433
 1481SOL    HW115905   4.629   0.839  15.910 -0.0992  0.2714 -0.6208
 1481SOL    HW215906   4.593   0.727  15.994 -1.1073  0.4685  0.8452
 1482SOL     OW15907   2.696   0.393   8.320  0.2610 -0.0156 -0.2379
 1482SOL    HW115908   2.637   0.391   8.395  0.2237 -0.4580 -0.2819
 1482SOL    HW215909   2.735   0.306   8.325  0.0090  0.0223  2.3426
 1483SOL     OW15910   0.577   1.868  14.625 -0.2893 -0.0597  0.0843
 1483SOL    HW115911   0.669   1.890  14.639 -0.2983  1.3803 -2.1244
 1483SOL    HW215912   0.548   1.936  14.564  0.6694 -1.3125 -1.7696
 1484SOL     OW15913   1.821   1.916  14.517  0.1012 -0.1029  0.0142
 1484SOL    HW115914   1.902   1.943  14.560 -0.5150  0.8862  0.5592
 1484SOL    HW215915   1.848   1.904  14.426  1.6338 -0.7789  0.5527
 1485SOL     OW15916   3.684   2.530  16.701  0.2039  0.5924 -0.3362
 1485SOL    HW115917   3.610   2.576  16.663  2.4986  2.4616 -2.5017
 1485SOL    HW215918   3.756   2.534  16.638 -0.1734  0.2628 -0.7811
 1486SOL     OW15919   1.879   2.262   8.802 -0.1707 -0.0402 -0.4878
 1486SOL    HW115920   1.946   2.227   8.861 -0.3741 -0.0726 -0.2751
 1486SOL    HW215921   1.913   2.247   8.714  0.0061 -0.2614 -0.3810
 1487SOL     OW15922   0.391   1.191  11.235 -0.1631  0.5105 -0.7060
 1487SOL    HW115923   0.342   1.137  11.173  2.1102  0.5675 -2.5520
 1487SOL    HW215924   0.366   1.279  11.207 -0.3798 -0.1434 -2.5935
 1488SOL     OW15925   1.451   4.359   8.905 -0.3729 -0.0847  0.0925
 1488SOL    HW115926   1.401   4.434   8.872 -2.1557 -0.0862  2.7675
 1488SOL    HW215927   1.396   4.332   8.979 -1.4766  4.1211  0.8076
 1489SOL     OW15928   2.243   0.134  14.289  0.5284 -0.5632  0.2879
 1489SOL    HW115929   2.177   0.194  14.256  1.7024  0.8546  0.5450
 1489SOL    HW215930   2.262   0.167  14.377  2.5961 -2.6754  0.6293
 1490SOL     OW15931   0.605   4.371   8.285  0.2988  0.5573  0.1247
 1490SOL    HW115932   0.688   4.338   8.320 -0.5937 -1.1509  0.6204
 1490SOL    HW215933   0.550   4.293   8.280  0.6592  0.2605  0.8272
 1491SOL     OW15934   4.678   3.614   8.906  0.4401  0.3548  0.0639
 1491SOL    HW115935   0.037   3.630   8.955  0.2854 -1.6389  0.9695
 1491SOL    HW215936   4.716   3.562   8.836 -2.1609 -1.3106 -0.1419
 1492SOL     OW15937   3.626   2.624   1.485 -1.1331  0.6766  0.1518
 1492SOL    HW115938   3.563   2.679   1.531 -0.3997  0.6495  1.1920
 1492SOL    HW215939   3.571   2.546   1.488 -2.1130  1.3715  0.1308
 1493SOL     OW15940   2.786   3.663   1.876 -0.8759  0.5484  0.1367
 1493SOL    HW115941   2.865   3.630   1.919 -0.4566 -0.3535 -1.3501
 1493SOL    HW215942   2.820   3.681   1.789  1.1985 -2.8781  0.2419
 1494SOL     OW15943   1.422   1.940  15.168  0.1287 -0.6206  0.3005
 1494SOL    HW115944   1.376   2.006  15.117  1.6621  0.2261  0.0203
 1494SOL    HW215945   1.504   1.939  15.117  1.2174  1.7466  2.0440
 1495SOL     OW15946   4.422   1.434   6.014  0.2415 -0.0179  0.5941
 1495SOL    HW115947   4.365   1.377   5.964  2.8472 -0.6737 -1.6382
 1495SOL    HW215948   4.466   1.368   6.068 -2.0101 -2.8966 -1.1470
 1496SOL     OW15949   2.956   2.101   1.401  0.0954  0.0350 -0.5168
 1496SOL    HW115950   2.867   2.079   1.372 -0.2722 -0.9474  1.3615
 1496SOL    HW215951   2.935   2.187   1.437  1.6133 -0.9285  2.6309
 1497SOL     OW15952   0.107   1.756   9.534 -0.5425 -0.0648 -0.1968
 1497SOL    HW115953   0.170   1.775   9.603 -0.2058  1.3735 -0.9017
 1497SOL    HW215954   0.166   1.742   9.460 -1.1743 -1.6780 -0.4193
 1498SOL     OW15955   2.195   3.962   8.814  0.2987 -0.2247  0.9733
 1498SOL    HW115956   2.177   3.869   8.796 -2.9079  0.8992 -1.6366
 1498SOL    HW215957   2.270   3.964   8.873  0.3173 -1.1178  0.9854
 1499SOL     OW15958   1.259   4.608   5.652  0.5083  0.3951  0.5066
 1499SOL    HW115959   1.335   4.607   5.594  0.5557  0.4703  0.5669
 1499SOL    HW215960   1.245   4.514   5.663 -3.9923  0.7463 -2.5697
 1500SOL     OW15961   2.762   3.646   9.672 -0.0941  0.2969 -0.1351
 1500SOL    HW115962   2.826   3.582   9.705  0.8406  1.5774  0.5359
 1500SOL    HW215963   2.714   3.673   9.750 -0.4040 -2.7322  0.7355
 1501SOL     OW15964   4.349   3.415   3.768  0.3005  0.0439 -0.3847
 1501SOL    HW115965   4.400   3.397   3.847  0.0294  0.1527 -0.1853
 1501SOL    HW215966   4.262   3.386   3.796 -0.3158  0.1811 -2.1793
 1502SOL     OW15967   2.358   4.129   4.006 -0.3108  0.3443 -0.2582
 1502SOL    HW115968   2.342   4.035   4.002  0.9018  0.1872 -1.4466
 1502SOL    HW215969   2.414   4.129   4.083  0.1386  0.8930 -0.5812
 1503SOL     OW15970   2.699   0.170  17.059  0.6602 -0.3686 -0.2445
 1503SOL    HW115971   2.614   0.190  17.020  1.1329  0.2767 -0.9456
 1503SOL    HW215972   2.755   0.228  17.007  0.3455  0.7350  0.6495
 1504SOL     OW15973   4.634   1.252   4.541 -0.3290  0.5587  0.6580
 1504SOL    HW115974   4.569   1.252   4.470 -0.3809  1.5724  0.7110
 1504SOL    HW215975   4.593   1.180   4.589  0.2853 -1.1778 -1.4326
 1505SOL     OW15976   1.010   3.120   1.301 -0.9089  0.0007  0.1793
 1505SOL    HW115977   1.079   3.175   1.263 -0.1707 -0.5796  0.6744
 1505SOL    HW215978   1.013   3.150   1.392  0.6880  2.0904 -0.5512
 1506SOL     OW15979   3.814   3.013   7.567 -0.3065 -0.4866 -0.5395
 1506SOL    HW115980   3.888   3.072   7.551 -0.8523  0.0280 -1.1813
 1506SOL    HW215981   3.772   3.047   7.646  3.2297  1.1065  0.6951
 1507SOL     OW15982   2.076   2.344  14.529  0.3261 -0.7669  1.6333
 1507SOL    HW115983   2.109   2.268  14.481  0.8915  0.1972  0.4894
 1507SOL    HW215984   2.048   2.296  14.607 -1.3031 -1.9407  0.3319
 1508SOL     OW15985   2.221   1.666   6.186 -0.1161  0.6014  0.2175
 1508SOL    HW115986   2.273   1.588   6.166 -1.1607 -0.1157  0.2629
 1508SOL    HW215987   2.132   1.641   6.159  0.8177 -0.9827 -1.3875
 1509SOL     OW15988   2.799   0.068   4.835 -0.0698 -0.2683 -0.3363
 1509SOL    HW115989   2.812   0.030   4.922  1.4683 -2.8476 -1.6871
 1509SOL    HW215990   2.843   0.152   4.842 -0.7973  0.1559 -0.8158
 1510SOL     OW15991   2.183   1.159  14.075 -0.2748 -0.8032 -0.2111
 1510SOL    HW115992   2.165   1.250  14.052 -0.9650 -0.7762  0.4350
 1510SOL    HW215993   2.121   1.105  14.025 -0.8191 -0.0145 -0.3793
 1511SOL     OW15994   1.638   0.980   5.883  0.1087 -0.4828 -0.2216
 1511SOL    HW115995   1.650   0.890   5.852  1.2376 -0.5307  0.3780
 1511SOL    HW215996   1.599   1.013   5.802 -0.5143 -1.8096 -0.4609
 1512SOL     OW15997   1.948   3.777   4.518 -0.1011  0.7965  0.2275
 1512SOL    HW115998   1.962   3.840   4.448  1.0915 -0.4725 -0.6884
 1512SOL    HW215999   2.040   3.762   4.539  0.1523  1.6469 -0.2712
 1513SOL     OW16000   2.628   3.454  13.563 -0.4362 -0.5945 -0.1017
 1513SOL    HW116001   2.690   3.457  13.490 -2.7463  0.5542 -1.9986
 1513SOL    HW216002   2.662   3.387  13.623 -0.3856 -0.4643  0.0146
 1514SOL     OW16003   0.785   0.240   9.169  0.7666  0.2824  0.3353
 1514SOL    HW116004   0.716   0.274   9.113 -0.3628 -0.1411  1.4613
 1514SOL    HW216005   0.861   0.224   9.114 -0.4645  1.1108 -1.5949
 1515SOL     OW16006   1.977   4.134  17.177  0.3892  0.5009  0.4922
 1515SOL    HW116007   2.056   4.184  17.199  0.3095 -0.4067  2.8802
 1515SOL    HW216008   1.926   4.205  17.139 -0.6012  0.3983  1.5981
 1516SOL     OW16009   0.166   1.331   7.186  0.3392 -0.5404 -0.1974
 1516SOL    HW116010   0.259   1.344   7.169  0.5444 -1.3356  0.3277
 1516SOL    HW216011   0.162   1.235   7.196 -1.6761 -0.5182 -0.8202
 1517SOL     OW16012   1.468   4.096   7.306 -0.0021 -0.3878 -0.2722
 1517SOL    HW116013   1.423   4.057   7.230 -0.1190 -1.8021  0.5221
 1517SOL    HW216014   1.417   4.068   7.382  1.9302 -2.3420  0.2841
 1518SOL     OW16015   4.509   1.093   7.888 -0.1552  0.3471 -0.1249
 1518SOL    HW116016   4.489   1.180   7.923  0.6815  0.0266  1.1503
 1518SOL    HW216017   4.604   1.101   7.886 -0.1195 -0.0613 -0.0178
 1519SOL     OW16018   4.502   0.543   4.631  0.0068 -0.0755  0.5614
 1519SOL    HW116019   4.567   0.521   4.564 -1.6923  0.2881 -1.1782
 1519SOL    HW216020   4.547   0.621   4.664  0.2248 -0.4785  1.2176
 1520SOL     OW16021   1.364   2.509   7.527 -0.2230 -0.1445  0.3072
 1520SOL    HW116022   1.273   2.482   7.523  0.4155 -2.3235  0.8200
 1520SOL    HW216023   1.347   2.564   7.450  1.0262  0.6319  0.5878
 1521SOL     OW16024   0.816   1.135   4.194 -0.3503 -0.0444 -0.1182
 1521SOL    HW116025   0.834   1.074   4.266 -1.2847 -0.6062 -0.3643
 1521SOL    HW216026   0.789   1.213   4.242  4.5944  2.0473 -0.6792
 1522SOL     OW16027   4.151   2.307   7.511  0.6248 -0.3652 -0.0773
 1522SOL    HW116028   4.187   2.389   7.545 -0.7416 -0.8102  2.4408
 1522SOL    HW216029   4.229   2.259   7.482  2.1588  2.2432 -0.2661
 1523SOL     OW16030   1.195   3.186   7.328 -0.0418 -0.1512 -0.0951
 1523SOL    HW116031   1.287   3.168   7.346  0.2571 -0.1293 -1.5485
 1523SOL    HW216032   1.198   3.237   7.247 -1.1821  1.7198  1.0259
 1524SOL     OW16033   4.128   2.647   3.878  0.2599  0.3560  0.0923
 1524SOL    HW116034   4.113   2.573   3.937 -0.2740 -0.5080 -1.1319
 1524SOL    HW216035   4.129   2.720   3.939  0.3006 -1.1023  1.8495
 1525SOL     OW16036   2.945   1.083  14.930 -0.4381 -0.6179 -0.3988
 1525SOL    HW116037   3.011   1.085  14.860 -0.9787  0.2454 -0.8849
 1525SOL    HW216038   2.865   1.069  14.880 -0.5068  0.6889 -0.6504
 1526SOL     OW16039   4.239   3.166  15.488  0.5319  0.5655  0.7025
 1526SOL    HW116040   4.198   3.213  15.416  0.5284  0.3545  0.5684
 1526SOL    HW216041   4.234   3.075  15.461 -0.8974  0.1320  2.4256
 1527SOL     OW16042   4.690   2.770  12.000  0.7585  0.4077 -0.0071
 1527SOL    HW116043   4.645   2.687  11.986  1.1248  0.6989 -2.8165
 1527SOL    HW216044   0.023   2.750  12.076  2.4620 -0.6354 -1.5187
 1528SOL     OW16045   1.168   0.451   3.068  0.6586 -0.3415  0.5304
 1528SOL    HW116046   1.136   0.413   3.149 -1.1509  1.3604  0.6176
 1528SOL    HW216047   1.163   0.546   3.084  1.0057 -0.2190 -0.0829
 1529SOL     OW16048   0.626   3.274   3.435 -0.1736 -0.1371 -0.0658
 1529SOL    HW116049   0.688   3.203   3.418  0.1781  0.3739 -0.9297
 1529SOL    HW216050   0.557   3.236   3.381  0.2933  0.1439 -0.8688
 1530SOL     OW16051   4.236   4.090   9.116 -0.0855 -0.4216  0.1124
 1530SOL    HW116052   4.270   4.004   9.092  1.0110 -0.1402  0.6647
 1530SOL    HW216053   4.269   4.138   9.040 -1.9180 -1.1401 -1.1342
 1531SOL     OW16054   4.143   3.253   1.659  0.4361 -0.6799  0.0535
 1531SOL    HW116055   4.092   3.331   1.639  1.5557  0.3811  1.3595
 1531SOL    HW216056   4.067   3.198   1.640 -0.3240  0.4991 -0.3408
 1532SOL     OW16057   2.902   0.270   2.795 -0.0728  0.4915 -0.2507
 1532SOL    HW116058   2.864   0.271   2.883 -1.6005  2.7839 -0.9320
 1532SOL    HW216059   2.922   0.176   2.801  0.7888  0.7428  0.7405
 1533SOL     OW16060   1.230   0.096   5.952 -0.1259 -0.0996  0.4050
 1533SOL    HW116061   1.177   0.127   5.878 -0.7114  0.2920  0.9797
 1533SOL    HW216062   1.205   0.004   5.962 -2.7599  0.5441 -0.1181
 1534SOL     OW16063   3.580   2.587   6.055  0.0828  0.1865 -0.2443
 1534SOL    HW116064   3.629   2.504   6.058 -1.5642 -0.8360 -1.2318
 1534SOL    HW216065   3.524   2.573   5.978  0.9904 -0.8075 -0.7196
 1535SOL     OW16066   2.354   2.700   8.475  0.2820  0.1694  1.2062
 1535SOL    HW116067   2.271   2.747   8.467  0.8103  1.0397  0.8372
 1535SOL    HW216068   2.322   2.621   8.517 -1.7310  0.1269 -0.4029
 1536SOL     OW16069   3.841   1.701   8.627  0.2203  0.3958 -0.1840
 1536SOL    HW116070   3.901   1.760   8.673 -1.7338  0.7893  1.8302
 1536SOL    HW216071   3.759   1.717   8.674  0.1229  1.1745 -0.6145
 1537SOL     OW16072   3.025   1.877   3.325 -0.2739  0.4182  0.0791
 1537SOL    HW116073   2.998   1.828   3.248  0.4266  0.9685 -0.5113
 1537SOL    HW216074   3.014   1.813   3.396 -1.6053  1.4165  0.7699
 1538SOL     OW16075   2.483   0.358   8.118 -0.2529 -0.2167 -0.1969
 1538SOL    HW116076   2.440   0.382   8.201  1.3221 -0.8824  0.8132
 1538SOL    HW216077   2.574   0.376   8.141 -0.5237 -0.0688  0.7584
 1539SOL     OW16078   1.991   2.347   8.074  0.3798 -0.5482 -1.1984
 1539SOL    HW116079   2.033   2.369   8.157 -2.4991  0.6636 -0.0429
 1539SOL    HW216080   1.901   2.377   8.087  0.9339  0.6449 -0.0675
 1540SOL     OW16081   3.416   3.055   3.335  0.5052 -0.1016 -0.0802
 1540SOL    HW116082   3.447   3.017   3.418  0.9635  2.0048  0.7020
 1540SOL    HW216083   3.378   3.136   3.368  0.6713  0.4831 -1.3367
 1541SOL     OW16084   1.858   3.348  16.468 -0.0349  0.2560  0.6008
 1541SOL    HW116085   1.832   3.267  16.423  2.5902  0.7483 -1.8061
 1541SOL    HW216086   1.775   3.393  16.483  0.0064  0.4024  0.3934
 1542SOL     OW16087   2.414   0.629  11.275 -0.3723  0.1130 -0.3315
 1542SOL    HW116088   2.423   0.605  11.367  1.0107 -0.9802 -0.7515
 1542SOL    HW216089   2.341   0.691  11.280  0.5046  1.0781  0.6414
 1543SOL     OW16090   3.340   2.920  13.201 -0.2683 -0.0242 -0.2612
 1543SOL    HW116091   3.353   2.979  13.275 -2.3747 -0.3020  0.3160
 1543SOL    HW216092   3.246   2.938  13.196 -0.3011  0.3846  1.5724
 1544SOL     OW16093   3.961   1.953   3.644  0.9335 -0.4140 -0.4632
 1544SOL    HW116094   3.937   1.928   3.733 -1.9443  0.2753 -1.0533
 1544SOL    HW216095   4.051   1.986   3.652  0.2970  1.0424  0.7555
 1545SOL     OW16096   3.934   3.742   2.685 -0.9721  0.2768 -0.3424
 1545SOL    HW116097   3.919   3.655   2.720  2.4656 -0.5195 -0.7875
 1545SOL    HW216098   3.971   3.785   2.762 -1.6848 -1.9603  1.2294
 1546SOL     OW16099   3.378   3.733  17.019 -0.0174 -0.0941 -0.0324
 1546SOL    HW116100   3.365   3.655  17.073  1.8121 -0.9616 -0.8649
 1546SOL    HW216101   3.373   3.807  17.080 -0.1365  0.9224 -1.2740
 1547SOL     OW16102   3.974   3.954  14.407 -0.4445 -0.4062  0.0131
 1547SOL    HW116103   3.971   3.879  14.347 -1.2972  0.3388 -0.8859
 1547SOL    HW216104   4.053   3.939  14.459  0.1148 -0.1536 -0.7662
 1548SOL     OW16105   3.347   1.693   5.303 -0.0034  0.2589  0.3215
 1548SOL    HW116106   3.422   1.745   5.274  1.8418 -1.5988  1.7799
 1548SOL    HW216107   3.378   1.655   5.385 -0.1671 -1.8348 -0.5834
 1549SOL     OW16108   3.138   4.187   6.299  0.6657  0.2858 -0.8171
 1549SOL    HW116109   3.046   4.167   6.313  1.0904 -2.2389 -1.5138
 1549SOL    HW216110   3.129   4.261   6.239  1.6000  1.1238  0.0679
 1550SOL     OW16111   3.447   3.644   3.994  0.0756  0.0111 -0.2682
 1550SOL    HW116112   3.421   3.555   3.970  0.2511  0.7308 -3.0613
 1550SOL    HW216113   3.381   3.688   3.942  0.3112 -0.4277 -0.9375
 1551SOL     OW16114   2.339   2.813  10.728 -0.1888 -0.2130 -0.0221
 1551SOL    HW116115   2.321   2.744  10.791 -2.5910 -0.3451 -0.8730
 1551SOL    HW216116   2.381   2.878  10.784  0.7116  1.5587 -2.7204
 1552SOL     OW16117   3.244   1.924   9.012 -0.8493  0.0249 -0.3893
 1552SOL    HW116118   3.319   1.973   8.978  0.3838  1.4916  4.4384
 1552SOL    HW216119   3.267   1.916   9.105 -1.0918  1.9276 -0.1711
 1553SOL     OW16120   1.155   1.843  16.547  0.2116  0.5456 -0.4111
 1553SOL    HW116121   1.170   1.827  16.454 -0.6859 -0.5712 -0.3666
 1553SOL    HW216122   1.121   1.933  16.547  0.3255  0.5920 -0.9268
 1554SOL     OW16123   1.984   2.634   2.912  0.0771  0.5729  0.5187
 1554SOL    HW116124   2.003   2.612   3.004  1.5681  1.3976  0.4022
 1554SOL    HW216125   1.975   2.545   2.878  0.6332  0.7325 -0.0410
 1555SOL     OW16126   4.013   0.180  10.646  0.1110  0.3596  0.1357
 1555SOL    HW116127   3.951   0.117  10.684  1.9261 -0.9060  1.0001
 1555SOL    HW216128   4.064   0.197  10.726 -0.5849 -0.2408  0.7072
 1556SOL     OW16129   1.752   0.566   3.547  0.1896  0.2412  0.3598
 1556SOL    HW116130   1.757   0.622   3.625  0.2777  2.2677 -1.1022
 1556SOL    HW216131   1.719   0.637   3.492 -3.1780 -0.4436  1.4720
 1557SOL     OW16132   4.496   2.136   6.037  0.3954 -0.2839  0.2021
 1557SOL    HW116133   4.502   2.140   6.132 -0.4697  0.4453  0.2331
 1557SOL    HW216134   4.508   2.043   6.019  0.9644 -0.1545 -0.0695
 1558SOL     OW16135   4.080   4.251  13.009  0.0660  0.7073 -0.1434
 1558SOL    HW116136   4.025   4.304  12.952 -0.8383 -0.3098 -0.2307
 1558SOL    HW216137   4.031   4.262  13.091  1.0720  0.9635  0.4230
 1559SOL     OW16138   3.826   2.380   1.734 -0.4967 -0.7029  0.3787
 1559SOL    HW116139   3.740   2.357   1.699  0.6977  0.6594 -3.4823
 1559SOL    HW216140   3.886   2.309   1.713 -0.3975  0.2379 -2.4404
 1560SOL     OW16141   4.401   4.579   7.027 -0.2902 -0.0443  0.7824
 1560SOL    HW116142   4.469   4.534   7.077  0.4164  1.4615  1.1704
 1560SOL    HW216143   4.353   4.501   6.998 -0.3154 -0.8808  3.0531
 1561SOL     OW16144   0.494   1.229   3.003 -0.0500  0.3217  0.8268
 1561SOL    HW116145   0.542   1.241   2.921 -1.1830  2.8329  0.5376
 1561SOL    HW216146   0.418   1.285   2.985 -1.1874 -1.2136  0.8938
 1562SOL     OW16147   4.609   1.374   5.693  0.6313  0.3639  0.0968
 1562SOL    HW116148   4.669   1.301   5.677  1.6305  1.4573 -1.2189
 1562SOL    HW216149   4.524   1.338   5.718  1.5120 -2.5430 -1.0969
 1563SOL     OW16150   2.575   3.253  17.448 -0.0239  0.7188 -0.5652
 1563SOL    HW116151   2.654   3.246  17.501 -0.7784  2.8979  0.8491
 1563SOL    HW216152   2.609   3.247  17.358 -2.1031  1.8613 -1.4120
 1564SOL     OW16153   0.339   4.264   1.300 -0.2339 -0.7974 -0.2048
 1564SOL    HW116154   0.356   4.357   1.316 -0.3188 -0.5950 -1.2773
 1564SOL    HW216155   0.427   4.252   1.263  0.4144  2.0542  0.3914
 1565SOL     OW16156   1.333   4.291   9.889  0.7395  0.7354 -0.2600
 1565SOL    HW116157   1.407   4.264   9.835  0.0719  1.5651 -1.5906
 1565SOL    HW216158   1.342   4.242   9.971  1.5855  1.2699 -0.0361
 1566SOL     OW16159   4.521   0.326   8.702  0.4568 -0.4904 -0.3399
 1566SOL    HW116160   4.585   0.397   8.691  0.5375 -0.4814  0.2037
 1566SOL    HW216161   4.442   0.372   8.673  1.7259  1.4355 -0.7780
 1567SOL     OW16162   0.935   3.922  11.038 -0.1648 -0.3549  0.4113
 1567SOL    HW116163   1.006   3.868  11.073 -0.6862 -1.1575  0.2367
 1567SOL    HW216164   0.986   3.955  10.963 -0.8454  2.6791  1.2802
 1568SOL     OW16165   3.645   0.211  13.573 -0.5041  0.1316  0.2272
 1568SOL    HW116166   3.725   0.230  13.623 -1.5435  3.3526  0.6777
 1568SOL    HW216167   3.586   0.204  13.649  0.8205  2.8424  1.5149
 1569SOL     OW16168   1.066   1.788   3.474  0.0802 -0.3505 -0.1987
 1569SOL    HW116169   1.138   1.794   3.411  1.7581 -1.3703  1.6152
 1569SOL    HW216170   1.112   1.817   3.552  0.0945  2.1754 -1.1289
 1570SOL     OW16171   2.277   2.133   8.286 -0.1475 -0.1268  0.5107
 1570SOL    HW116172   2.210   2.194   8.318  0.4109  0.6184  0.2640
 1570SOL    HW216173   2.244   2.044   8.285  0.9027 -0.5113  0.2019
 1571SOL     OW16174   3.622   3.979   5.876  0.6267  0.0649  0.0560
 1571SOL    HW116175   3.542   3.954   5.830  0.6746 -1.0571  0.5696
 1571SOL    HW216176   3.597   4.034   5.951  0.4618 -0.2626  0.2448
 1572SOL     OW16177   3.133   4.515  13.491 -0.4557  0.0911 -0.5023
 1572SOL    HW116178   3.193   4.575  13.535 -0.3750 -0.5382  0.2380
 1572SOL    HW216179   3.167   4.510  13.402 -2.5441 -0.3087 -1.2868
 1573SOL     OW16180   3.888   1.725   0.627  0.1699 -0.2212 -0.3015
 1573SOL    HW116181   3.892   1.697   0.718  0.2795 -0.3759 -0.3536
 1573SOL    HW216182   3.880   1.640   0.584 -0.8566 -0.5907  0.6404
 1574SOL     OW16183   2.147   1.880  16.241  0.4448  0.3963 -0.5503
 1574SOL    HW116184   2.145   1.967  16.281  0.3574 -0.3940  1.1636
 1574SOL    HW216185   2.135   1.920  16.155  3.2834  2.4820  0.0480
 1575SOL     OW16186   1.351   0.566   5.256  0.5649 -0.1993 -0.2988
 1575SOL    HW116187   1.290   0.633   5.287  0.3838 -1.9840  3.2525
 1575SOL    HW216188   1.432   0.617   5.261  0.3931  0.1887 -1.5536
 1576SOL     OW16189   4.293   2.916   6.774 -0.3346  0.9104 -0.1054
 1576SOL    HW116190   4.367   2.976   6.781  1.4552 -1.4839  1.1933
 1576SOL    HW216191   4.234   2.971   6.722 -0.3541  2.6928  1.7952
 1577SOL     OW16192   4.061   1.110   6.727 -0.4328 -0.4570  0.0999
 1577SOL    HW116193   4.065   1.022   6.767 -0.8930 -0.4451  0.1728
 1577SOL    HW216194   4.067   1.174   6.798  0.7774 -0.0936 -0.3384
 1578SOL     OW16195   0.727   2.675   1.544  0.2404  0.3119  0.3951
 1578SOL    HW116196   0.636   2.677   1.574  0.0638  0.9899 -0.2031
 1578SOL    HW216197   0.739   2.581   1.525  1.6685  0.0360  2.7523
 1579SOL     OW16198   2.506   1.499   0.682  0.1017 -0.2712 -0.7952
 1579SOL    HW116199   2.449   1.541   0.746  1.0569  1.4313 -1.0580
 1579SOL    HW216200   2.593   1.525   0.713 -0.0915 -0.3557 -0.1825
 1580SOL     OW16201   4.348   3.959   9.397  0.4154  0.5340  0.2176
 1580SOL    HW116202   4.424   3.974   9.340  0.8683 -0.8377  0.4633
 1580SOL    HW216203   4.309   4.047   9.395 -0.6506  0.0779  1.6687
 1581SOL     OW16204   2.535   3.712   3.909  0.5570  0.3822  0.1324
 1581SOL    HW116205   2.558   3.631   3.863 -0.4329 -0.6216  1.3644
 1581SOL    HW216206   2.616   3.729   3.957  0.1518  0.2405  0.8787
 1582SOL     OW16207   0.123   2.976  12.855  0.0228  0.2826 -0.5428
 1582SOL    HW116208   0.083   2.957  12.770  0.0249 -1.8202 -0.0784
 1582SOL    HW216209   0.148   3.069  12.857  0.7990  0.0726 -0.3399
 1583SOL     OW16210   3.049   0.020   2.061  0.2947  0.8248 -0.5538
 1583SOL    HW116211   3.106   0.084   2.103 -1.2812  2.6293 -1.1691
 1583SOL    HW216212   2.962   0.059   2.070 -0.2214 -0.2506 -0.9106
 1584SOL     OW16213   0.169   0.421  11.302 -0.0119  0.0160 -0.6541
 1584SOL    HW116214   0.202   0.509  11.285 -0.6350  0.2301 -0.7628
 1584SOL    HW216215   0.200   0.377  11.223 -0.5413  0.2907 -1.0157
 1585SOL     OW16216   3.730   3.884   4.777 -0.1454 -0.2653 -0.1805
 1585SOL    HW116217   3.662   3.884   4.709  0.3251  0.6433 -0.6591
 1585SOL    HW216218   3.673   3.872   4.853 -0.4401  1.2141 -0.1710
 1586SOL     OW16219   0.281   2.648   3.177 -0.0307  0.3457  0.3776
 1586SOL    HW116220   0.282   2.552   3.169  0.9092  0.2715  1.3177
 1586SOL    HW216221   0.333   2.651   3.257 -0.4982 -1.8240  0.7813
 1587SOL     OW16222   1.425   2.366  13.789 -0.6089 -0.4005 -0.0366
 1587SOL    HW116223   1.474   2.431  13.740 -1.3139 -0.6062 -1.0093
 1587SOL    HW216224   1.488   2.332  13.853 -0.3186 -0.0571 -0.1420
 1588SOL     OW16225   1.185   0.179   9.847 -0.0871  0.2368 -0.2279
 1588SOL    HW116226   1.244   0.243   9.807 -0.2358  0.2023 -0.5026
 1588SOL    HW216227   1.223   0.169   9.934 -0.6435 -1.8401 -0.2144
 1589SOL     OW16228   3.855   2.331  17.484  0.4219 -0.4764  0.1665
 1589SOL    HW116229   3.872   2.276  17.560 -1.3527  1.1896  1.7387
 1589SOL    HW216230   3.775   2.288  17.453  1.2546 -2.6483  1.0162
 1590SOL     OW16231   2.379   3.001  11.510  0.2086 -0.2869  0.5827
 1590SOL    HW116232   2.472   2.997  11.533  0.1702 -0.0198  0.7889
 1590SOL    HW216233   2.334   2.971  11.590  0.3425 -0.5923  0.5421
 1591SOL     OW16234   1.971   4.535  10.532  0.0100  0.2278  0.3040
 1591SOL    HW116235   1.995   4.453  10.489  1.4627  1.6565 -1.6159
 1591SOL    HW216236   1.983   4.593  10.457  2.9735 -1.2959 -0.4231
 1592SOL     OW16237   0.520   4.655   3.786 -0.2578  0.3784  0.3021
 1592SOL    HW116238   0.498   4.653   3.693  0.8815  0.0164  0.0289
 1592SOL    HW216239   0.546   4.563   3.795  2.5648  1.1690  0.4776
 1593SOL     OW16240   3.459   0.743   6.521  0.2754  0.6838  0.3222
 1593SOL    HW116241   3.434   0.764   6.431  0.8703  0.9758  0.2320
 1593SOL    HW216242   3.553   0.737   6.507  0.0758  0.4299 -0.9237
 1594SOL     OW16243   3.078   2.813   9.163  0.6044  0.1855  0.1246
 1594SOL    HW116244   3.028   2.821   9.244 -0.1845 -0.8909 -0.2607
 1594SOL    HW216245   3.010   2.810   9.096 -1.9359  0.1361  2.7257
 1595SOL     OW16246   2.471   3.333   6.045 -0.5084 -0.2487 -0.3373
 1595SOL    HW116247   2.478   3.358   5.952  0.0435  0.9282  0.0183
 1595SOL    HW216248   2.490   3.412   6.095  3.1400 -0.8002 -0.8449
 1596SOL     OW16249   1.500   4.607   2.924 -0.9397 -0.0020 -0.1338
 1596SOL    HW116250   1.548   4.676   2.969 -0.0537 -0.2230 -0.7400
 1596SOL    HW216251   1.474   4.651   2.843 -0.2172 -0.6896 -0.7416
 1597SOL     OW16252   3.142   4.116   5.813 -0.8377 -0.2250 -0.0878
 1597SOL    HW116253   3.147   4.209   5.835  2.2101 -0.8369  1.7837
 1597SOL    HW216254   3.177   4.120   5.724 -2.4125 -0.8032 -0.7427
 1598SOL     OW16255   1.819   1.707   6.405 -0.1938  0.4686 -0.3998
 1598SOL    HW116256   1.849   1.796   6.422 -0.2033  0.5803 -0.9716
 1598SOL    HW216257   1.752   1.692   6.473 -1.2377 -0.6962 -1.6944
 1599SOL     OW16258   3.848   3.581  14.568  0.1946  0.1187  0.0709
 1599SOL    HW116259   3.809   3.591  14.655 -0.9561 -2.1976 -0.1825
 1599SOL    HW216260   3.778   3.608  14.508  0.5129  2.5287  0.7652
 1600SOL     OW16261   2.204   3.098   7.643 -0.7113  0.1521 -0.0246
 1600SOL    HW116262   2.167   3.183   7.668 -0.6330 -0.0961  0.9636
 1600SOL    HW216263   2.295   3.131   7.644 -0.6051 -0.1351 -1.3566
 1601SOL     OW16264   0.823   4.445   5.775  0.0887 -0.0888 -1.0512
 1601SOL    HW116265   0.791   4.378   5.715  1.3127 -0.4379 -1.3169
 1601SOL    HW216266   0.864   4.504   5.711  2.0657 -0.4180 -0.0874
 1602SOL     OW16267   0.823   3.997   8.411 -0.4949  0.4956  0.4933
 1602SOL    HW116268   0.852   3.998   8.502  1.2181 -2.1575 -0.0380
 1602SOL    HW216269   0.891   4.061   8.388  1.4512 -1.3010  1.2962
 1603SOL     OW16270   1.818   1.181   7.270  0.7228  0.3268  0.1017
 1603SOL    HW116271   1.785   1.225   7.349 -1.3529 -0.0102 -0.5723
 1603SOL    HW216272   1.824   1.089   7.297 -1.5969 -0.2299 -1.2675
 1604SOL     OW16273   1.346   1.360   3.278 -0.1584 -0.1637  0.3411
 1604SOL    HW116274   1.251   1.361   3.275 -0.1069 -1.5164 -1.4746
 1604SOL    HW216275   1.360   1.284   3.336  2.4085  0.9241  1.1463
 1605SOL     OW16276   1.600   1.651   6.225 -0.0897 -0.4028  0.8366
 1605SOL    HW116277   1.678   1.661   6.278  1.1660  2.4951 -1.5349
 1605SOL    HW216278   1.583   1.557   6.220  0.6511 -0.4613 -0.6851
 1606SOL     OW16279   3.726   4.410  17.221 -0.1234  0.1662 -0.1644
 1606SOL    HW116280   3.733   4.504  17.232 -1.5760  0.5825 -2.7324
 1606SOL    HW216281   3.681   4.400  17.137 -0.5530 -0.1667  0.1046
 1607SOL     OW16282   3.179   1.276  11.320  0.0551  0.5107  0.5209
 1607SOL    HW116283   3.266   1.238  11.309 -1.5752 -3.3227  0.8336
 1607SOL    HW216284   3.191   1.326  11.400 -3.3362 -0.2422  1.5248
 1608SOL     OW16285   1.702   3.219  14.465 -0.0194  0.6030 -0.0985
 1608SOL    HW116286   1.683   3.236  14.373 -0.6956  0.4519  0.0112
 1608SOL    HW216287   1.796   3.236  14.468 -0.1499  1.8750 -2.9108
 1609SOL     OW16288   4.238   0.581  14.062  0.0029  1.1536  0.3081
 1609SOL    HW116289   4.166   0.642  14.078 -2.7807 -1.7599 -1.0692
 1609SOL    HW216290   4.268   0.573  14.152  2.3562 -0.1006 -0.5856
 1610SOL     OW16291   2.949   0.611   4.073  0.5043  0.1032 -0.0611
 1610SOL    HW116292   3.015   0.594   4.141 -0.4888 -1.1433  0.6053
 1610SOL    HW216293   2.994   0.688   4.040  0.6449  0.4778  0.9921
 1611SOL     OW16294   0.271   1.959   7.932 -0.4246 -0.3791  0.1489
 1611SOL    HW116295   0.218   1.886   7.900 -0.1791 -0.5881  0.2190
 1611SOL    HW216296   0.245   2.030   7.873  3.6317 -0.2002 -1.3775
 1612SOL     OW16297   0.263   1.826  13.418  0.3545  0.1426 -0.1297
 1612SOL    HW116298   0.224   1.782  13.342  0.1506 -1.5126  0.9210
 1612SOL    HW216299   0.346   1.850  13.377  0.1103  0.4753 -0.4255
 1613SOL     OW16300   0.782   1.107   4.674 -0.2887  0.6068 -0.1847
 1613SOL    HW116301   0.838   1.166   4.724  1.8827 -1.1695 -0.5415
 1613SOL    HW216302   0.845   1.071   4.612 -0.4781 -1.5447  0.8665
 1614SOL     OW16303   0.418   2.643   1.584 -0.0030  0.6997  1.0151
 1614SOL    HW116304   0.392   2.563   1.539  1.8440 -0.3233  1.7716
 1614SOL    HW216305   0.371   2.646   1.667 -0.7518 -1.5694  0.6642
 1615SOL     OW16306   0.654   1.962   8.119 -0.2336  0.0109  0.3999
 1615SOL    HW116307   0.659   1.891   8.183 -0.5030  0.3547  0.7970
 1615SOL    HW216308   0.635   1.908   8.042  2.1800  0.1083 -0.2787
 1616SOL     OW16309   0.997   2.679   3.358 -0.4409 -0.2346 -0.1733
 1616SOL    HW116310   1.091   2.697   3.356 -0.4813  0.2704  2.5086
 1616SOL    HW216311   0.998   2.593   3.316 -1.7404 -0.3791  0.1054
 1617SOL     OW16312   3.077   3.342   4.311  0.0448 -0.5074 -0.5626
 1617SOL    HW116313   3.026   3.318   4.389  2.1251 -0.5875  0.7569
 1617SOL    HW216314   3.140   3.271   4.301 -1.7368 -2.3219  1.1504
 1618SOL     OW16315   2.424   4.255   2.217 -0.7394 -0.0798 -0.0913
 1618SOL    HW116316   2.352   4.318   2.224 -0.4974 -0.1106  2.8337
 1618SOL    HW216317   2.417   4.233   2.310 -0.0728  0.6997  0.1380
 1619SOL     OW16318   2.340   1.322  13.138  0.3103  0.2299 -0.6969
 1619SOL    HW116319   2.375   1.307  13.050  0.9699  1.9099 -0.7319
 1619SOL    HW216320   2.250   1.294  13.125 -0.1309  0.4096  2.1266
 1620SOL     OW16321   0.647   4.138  13.383  0.7890  0.1485 -0.2785
 1620SOL    HW116322   0.591   4.126  13.459  0.5054 -3.9294 -1.1474
 1620SOL    HW216323   0.612   4.067  13.329  1.9252 -1.9351  1.7269
 1621SOL     OW16324   3.437   3.062   2.949  0.3945 -0.0371 -0.3124
 1621SOL    HW116325   3.493   3.026   3.018 -0.1133 -1.0523 -0.4351
 1621SOL    HW216326   3.419   2.980   2.904 -0.2307 -0.9281  1.5719
 1622SOL     OW16327   4.696   0.829   2.052  0.3653  0.5653 -0.1054
 1622SOL    HW116328   4.616   0.799   2.094  0.9347 -0.9618 -0.1247
 1622SOL    HW216329   0.046   0.795   2.105  0.4415 -0.4660 -0.8687
 1623SOL     OW16330   0.782   2.760   2.367 -0.1223 -0.3869 -0.7795
 1623SOL    HW116331   0.747   2.831   2.313  1.1141  1.5108  0.8810
 1623SOL    HW216332   0.849   2.715   2.315  0.9712  0.4722 -0.1195
 1624SOL     OW16333   2.324   3.607   8.848  0.3064 -0.3381 -0.1246
 1624SOL    HW116334   2.238   3.620   8.806  0.9621 -0.3746 -1.4693
 1624SOL    HW216335   2.314   3.664   8.924  0.8745 -0.9759  0.4215
 1625SOL     OW16336   4.384   2.506   2.676  0.0453  0.5410 -0.1504
 1625SOL    HW116337   4.465   2.535   2.633  1.1783 -0.2269  1.4433
 1625SOL    HW216338   4.349   2.466   2.597 -1.2840  1.6713 -0.1167
 1626SOL     OW16339   2.700   1.145   2.210  0.7177  0.5092  0.7537
 1626SOL    HW116340   2.764   1.191   2.264  0.9834 -0.6260  1.3935
 1626SOL    HW216341   2.770   1.098   2.165 -0.6864 -2.1018  1.2887
 1627SOL     OW16342   2.622   2.902  17.517  0.0052  0.5672  0.3500
 1627SOL    HW116343   2.669   2.983  17.533 -1.7649  1.6068  0.2663
 1627SOL    HW216344   2.591   2.882  17.605 -1.5109 -2.1469 -0.7886
 1628SOL     OW16345   0.268   3.159  15.076 -0.0573 -0.1553  0.4037
 1628SOL    HW116346   0.240   3.089  15.017 -0.1582  1.9503 -2.0709
 1628SOL    HW216347   0.353   3.174  15.033 -1.1822  1.7327 -1.1348
 1629SOL     OW16348   2.660   1.623   9.220  0.1289 -0.4414  0.0009
 1629SOL    HW116349   2.688   1.574   9.142 -0.5978 -2.2360  0.8758
 1629SOL    HW216350   2.607   1.563   9.272  0.3501 -0.7268 -0.1015
 1630SOL     OW16351   3.207   1.554  14.544  0.5162  0.0939  0.1523
 1630SOL    HW116352   3.143   1.483  14.551  0.2894  0.2402 -0.5177
 1630SOL    HW216353   3.205   1.577  14.452 -2.2075  0.3513  0.2757
 1631SOL     OW16354   1.245   0.216   2.383  0.0060  0.0423  0.7178
 1631SOL    HW116355   1.176   0.262   2.337  0.5739 -0.6499 -0.8143
 1631SOL    HW216356   1.244   0.127   2.347  0.0650  0.7689 -1.0728
 1632SOL     OW16357   0.454   0.065   9.144 -0.5428  0.6305 -0.1499
 1632SOL    HW116358   0.472   0.084   9.236  0.0978  0.3077 -0.2129
 1632SOL    HW216359   0.361   0.088   9.132 -0.4350  1.3644  0.4346
 1633SOL     OW16360   0.848   1.870   7.263  0.4314  0.2059  0.0572
 1633SOL    HW116361   0.869   1.798   7.322  0.4179 -1.0146 -1.4342
 1633SOL    HW216362   0.939   1.887   7.239 -0.4265  0.0460 -3.3467
 1634SOL     OW16363   2.874   3.631   7.085 -0.0207  0.3812  0.2221
 1634SOL    HW116364   2.801   3.694   7.092 -0.9988 -0.7423  0.1307
 1634SOL    HW216365   2.883   3.621   7.179  0.1449  2.1318  0.3974
 1635SOL     OW16366   0.156   4.443   1.841 -0.0350  0.5797 -0.9288
 1635SOL    HW116367   0.225   4.388   1.805  0.5523 -0.0692  1.1647
 1635SOL    HW216368   0.093   4.383   1.880  0.1974 -0.9104 -2.8708
 1636SOL     OW16369   3.339   0.983  13.030 -0.2507 -0.2056 -0.1871
 1636SOL    HW116370   3.288   0.907  13.056 -2.8654  2.4804  2.6011
 1636SOL    HW216371   3.404   0.973  13.100 -0.8084  0.0631  0.3626
 1637SOL     OW16372   2.435   1.041   2.148  0.2232 -0.0636  0.4140
 1637SOL    HW116373   2.425   1.068   2.057 -1.4905  2.6332  1.4270
 1637SOL    HW216374   2.531   1.040   2.146  0.1735 -1.6993 -1.3024
 1638SOL     OW16375   4.518   3.438   5.609  0.5282 -0.5992  0.0499
 1638SOL    HW116376   4.530   3.360   5.555  0.9727 -0.8467  0.5053
 1638SOL    HW216377   4.610   3.450   5.636 -0.4013  1.4774  2.3793
 1639SOL     OW16378   4.192   2.721   7.362  0.2630  0.1577 -0.0452
 1639SOL    HW116379   4.268   2.665   7.379 -0.6917 -1.1996 -0.2721
 1639SOL    HW216380   4.118   2.661   7.364  1.5352 -1.3574  2.2133
 1640SOL     OW16381   1.828   0.076   4.364  0.0440 -0.3734  0.0878
 1640SOL    HW116382   1.750   0.074   4.419  1.3983  1.6384  2.0862
 1640SOL    HW216383   1.899   0.097   4.424 -0.0343  3.8748 -1.3494
 1641SOL     OW16384   3.294   1.944   7.447  0.3404 -0.5986 -0.7649
 1641SOL    HW116385   3.373   1.970   7.399  2.0000 -1.2004  1.6295
 1641SOL    HW216386   3.334   1.916   7.529  1.7212  4.8768  0.4882
 1642SOL     OW16387   0.488   3.399   9.592  0.2351  0.0287 -0.0218
 1642SOL    HW116388   0.502   3.369   9.681 -1.8658  0.6860  0.5348
 1642SOL    HW216389   0.545   3.338   9.546 -1.1398 -0.7438 -0.7221
 1643SOL     OW16390   0.909   4.096   8.663  0.0808 -0.8145  0.2171
 1643SOL    HW116391   0.949   4.178   8.693  0.9863 -1.2863  0.2982
 1643SOL    HW216392   0.931   4.042   8.739 -1.8604 -0.1193  1.2538
 1644SOL     OW16393   0.047   2.013   2.920  0.3480  0.0007  0.7567
 1644SOL    HW116394   0.011   2.087   2.968  0.4336 -0.4392  1.5021
 1644SOL    HW216395   0.065   1.950   2.990 -1.2163 -0.7765  0.4551
 1645SOL     OW16396   2.043   2.729   8.031  0.2250 -0.0210  0.1060
 1645SOL    HW116397   2.081   2.736   7.943 -1.5414  1.1287 -0.5698
 1645SOL    HW216398   2.096   2.658   8.066  0.2046 -0.8554 -1.5847
 1646SOL     OW16399   0.290   1.152   8.580  0.1998 -0.2219 -0.2718
 1646SOL    HW116400   0.334   1.068   8.578 -0.2527 -0.4846  1.0666
 1646SOL    HW216401   0.299   1.170   8.674  1.3018 -1.8459 -0.0773
 1647SOL     OW16402   4.326   2.443   7.695 -0.0765  0.0327  0.2123
 1647SOL    HW116403   4.358   2.431   7.784 -1.9776  2.9356  1.2834
 1647SOL    HW216404   4.404   2.427   7.642 -0.2256  0.0898 -0.0261
 1648SOL     OW16405   3.739   3.794   2.505  0.3283 -0.0138 -0.6463
 1648SOL    HW116406   3.768   3.855   2.437  1.1659 -0.4105 -0.6524
 1648SOL    HW216407   3.805   3.808   2.574 -0.1374  1.7117 -0.5477
 1649SOL     OW16408   2.553   2.307  10.001 -0.1345  0.3197  0.5938
 1649SOL    HW116409   2.528   2.238   9.941  1.5156 -0.6704  1.0494
 1649SOL    HW216410   2.527   2.388   9.956  0.8354 -0.0289 -0.5681
 1650SOL     OW16411   3.199   3.433   5.297 -0.0206 -0.4622 -0.0490
 1650SOL    HW116412   3.209   3.388   5.213 -2.1465 -2.2544  0.6573
 1650SOL    HW216413   3.261   3.389   5.355  0.6995 -0.5101 -0.8533
 1651SOL     OW16414   2.199   0.827   5.747 -0.1505 -0.5114  0.1015
 1651SOL    HW116415   2.228   0.918   5.754 -0.3293 -0.3964 -0.6787
 1651SOL    HW216416   2.112   0.829   5.708  0.7302 -0.4732 -1.8764
 1652SOL     OW16417   2.227   4.397  11.073 -0.3938 -0.0376 -0.3588
 1652SOL    HW116418   2.310   4.442  11.086 -0.7358  0.3930  0.3667
 1652SOL    HW216419   2.185   4.444  11.145  1.2399 -0.8577  1.1262
 1653SOL     OW16420   3.652   1.612   6.297 -0.1976  0.5405 -0.4443
 1653SOL    HW116421   3.584   1.601   6.363  0.1675  0.0350 -0.1448
 1653SOL    HW216422   3.737   1.591   6.337 -0.6735 -0.0996  0.2390
 1654SOL     OW16423   1.380   3.112   4.033  0.0554  0.0336  0.5181
 1654SOL    HW116424   1.395   3.142   3.944  0.3561 -0.9884  0.2148
 1654SOL    HW216425   1.313   3.044   4.022 -0.8100  1.0726 -0.5195
 1655SOL     OW16426   3.538   2.863   1.102  0.6202  0.1425 -0.5474
 1655SOL    HW116427   3.538   2.768   1.115  3.4637  0.7067  3.4838
 1655SOL    HW216428   3.607   2.901   1.157 -0.1219 -2.1716  2.0114
 1656SOL     OW16429   0.814   1.091   1.536  0.4297 -0.3426 -0.2639
 1656SOL    HW116430   0.889   1.033   1.550  0.4463 -0.0248  0.9373
 1656SOL    HW216431   0.804   1.127   1.624 -0.0430 -2.7329  0.6530
 1657SOL     OW16432   2.514   1.164   8.254  0.2526  0.3897 -0.6880
 1657SOL    HW116433   2.477   1.106   8.189  0.6213  0.1185 -0.6549
 1657SOL    HW216434   2.588   1.113   8.287 -0.6685  0.5979  1.7108
 1658SOL     OW16435   4.496   1.746   0.420  0.0281 -0.1905  0.1545
 1658SOL    HW116436   4.494   1.673   0.358  0.6664 -0.5069  0.5077
 1658SOL    HW216437   4.590   1.741   0.436  0.1891  2.3834  0.0536
 1659SOL     OW16438   2.565   4.371   3.085  0.4291  0.6023  0.2940
 1659SOL    HW116439   2.589   4.284   3.055 -1.8752 -0.9894  3.0656
 1659SOL    HW216440   2.621   4.379   3.162 -0.6235  1.3475  0.9934
 1660SOL     OW16441   2.906   2.758  14.967 -0.5228  0.1334  0.0876
 1660SOL    HW116442   2.868   2.843  14.946 -2.1422 -0.2393  1.4950
 1660SOL    HW216443   2.908   2.768  15.062  0.8054 -0.1793  0.0869
 1661SOL     OW16444   0.456   3.311  12.849 -0.0216  0.0732 -0.1811
 1661SOL    HW116445   0.519   3.331  12.779 -0.6604  1.5911 -0.3283
 1661SOL    HW216446   0.495   3.358  12.922 -2.5272  1.5661  0.2054
 1662SOL     OW16447   1.094   1.479   5.261 -0.1515  0.5257 -0.2139
 1662SOL    HW116448   1.166   1.463   5.322  0.0521  1.8852 -0.0983
 1662SOL    HW216449   1.078   1.571   5.285 -1.4232  0.7947 -2.1514
 1663SOL     OW16450   4.238   0.156   4.143  0.2446  0.5401 -0.7932
 1663SOL    HW116451   4.154   0.160   4.189  0.9024 -1.7501  0.5788
 1663SOL    HW216452   4.238   0.233   4.086 -1.4528  0.6798 -0.6220
 1664SOL     OW16453   4.590   3.060   4.811  0.7627  0.6072 -0.2388
 1664SOL    HW116454   4.541   3.142   4.817 -2.0886 -1.2821  2.2535
 1664SOL    HW216455   4.605   3.037   4.902  1.4239 -1.9014 -0.9592
 1665SOL     OW16456   0.195   2.383   1.921  0.1791 -0.2002  0.0435
 1665SOL    HW116457   0.106   2.383   1.886  0.0847  1.0373  0.2800
 1665SOL    HW216458   0.211   2.289   1.927  0.0310 -0.0204  3.3502
 1666SOL     OW16459   0.475   2.516  14.216  0.2776  0.0662  0.9179
 1666SOL    HW116460   0.450   2.609  14.217  4.1926  1.1357 -1.9245
 1666SOL    HW216461   0.557   2.516  14.167 -1.0281 -0.2545 -1.2830
 1667SOL     OW16462   2.806   3.021   4.932 -0.1253 -0.2380  0.7103
 1667SOL    HW116463   2.853   2.995   4.852  0.1957 -0.3636  0.9393
 1667SOL    HW216464   2.791   2.938   4.977  0.2853 -0.0546  1.1962
 1668SOL     OW16465   4.333   1.023   1.104  0.7825 -0.2538  0.5869
 1668SOL    HW116466   4.419   0.981   1.112  0.7872 -0.5248 -0.9103
 1668SOL    HW216467   4.337   1.089   1.173 -0.8423 -0.9315  1.3611
 1669SOL     OW16468   2.049   4.251   5.327  0.3832 -0.1194  0.4966
 1669SOL    HW116469   1.959   4.255   5.359  0.1809 -0.5796 -0.0324
 1669SOL    HW216470   2.039   4.328   5.270  1.3918 -0.3301  0.0350
 1670SOL     OW16471   1.959   1.767  17.030 -0.5581 -0.0717  0.4457
 1670SOL    HW116472   1.937   1.811  16.948 -0.9724 -0.4520  0.3541
 1670SOL    HW216473   1.926   1.678  17.018  1.8033 -1.0767  1.2498
 1671SOL     OW16474   2.532   1.592   2.655  0.4680  0.4757  0.2975
 1671SOL    HW116475   2.503   1.657   2.719  2.2146  0.5275  1.0284
 1671SOL    HW216476   2.564   1.654   2.589 -2.2364  1.6305  0.0787
 1672SOL     OW16477   1.783   0.742   7.889  0.4614  0.0411  0.3129
 1672SOL    HW116478   1.693   0.761   7.861  0.0434  0.0342  1.6637
 1672SOL    HW216479   1.797   0.816   7.947  0.8861 -1.4844  2.1733
 1673SOL     OW16480   1.200   0.525   1.235 -0.6176  0.2871 -0.0328
 1673SOL    HW116481   1.162   0.610   1.213 -3.4626 -0.8161  0.5703
 1673SOL    HW216482   1.292   0.549   1.226  0.1593 -2.0814  1.6254
 1674SOL     OW16483   3.838   3.449   6.381  0.2435 -0.0405 -0.2157
 1674SOL    HW116484   3.924   3.445   6.424  1.6825  2.8751 -2.8145
 1674SOL    HW216485   3.782   3.462   6.458  2.2178 -0.7015  1.3544
 1675SOL     OW16486   2.274   0.741   7.928 -0.0888  0.1664  0.2080
 1675SOL    HW116487   2.196   0.692   7.957  0.4556 -0.8632 -0.0669
 1675SOL    HW216488   2.333   0.667   7.916  2.5149  2.0827  1.1813
 1676SOL     OW16489   1.876   1.719   3.419 -0.3913 -0.2230 -0.0796
 1676SOL    HW116490   1.805   1.669   3.458  0.7336 -0.2087  2.0069
 1676SOL    HW216491   1.855   1.716   3.326  3.3284  2.8688 -1.0482
 1677SOL     OW16492   0.763   3.365  12.457 -0.1890  1.1333  0.4460
 1677SOL    HW116493   0.749   3.351  12.364 -0.2885 -0.8052  0.7670
 1677SOL    HW216494   0.854   3.396  12.467 -0.2325  1.0145  1.1927
 1678SOL     OW16495   1.964   4.241   8.620  0.2567  0.2917 -0.2282
 1678SOL    HW116496   2.045   4.232   8.670 -0.4715  0.1053  0.9224
 1678SOL    HW216497   1.913   4.302   8.673 -0.5020 -1.6643  1.3169
 1679SOL     OW16498   3.642   3.019  13.208  0.1067  0.0359  0.8731
 1679SOL    HW116499   3.592   3.087  13.162  1.5378  0.8519  0.4823
 1679SOL    HW216500   3.683   2.976  13.133  1.0822  3.2388 -0.4750
 1680SOL     OW16501   1.014   2.380  15.695 -0.1459 -0.0691 -0.3781
 1680SOL    HW116502   1.019   2.285  15.706  1.2004 -0.0545 -0.9466
 1680SOL    HW216503   1.004   2.389  15.601 -2.0150 -0.4192 -0.2124
 1681SOL     OW16504   0.621   0.497   9.891 -0.6755  0.6685  0.1377
 1681SOL    HW116505   0.657   0.579   9.925 -1.1299  0.8556  0.1595
 1681SOL    HW216506   0.549   0.482   9.953  0.2734 -2.8855  0.3792
 1682SOL     OW16507   3.753   4.720  15.496 -0.4357 -0.5071 -0.0251
 1682SOL    HW116508   3.702   4.671  15.560  1.1868  0.6485  2.1453
 1682SOL    HW216509   3.816   0.038  15.556  2.0848  0.7461 -3.4941
 1683SOL     OW16510   1.885   1.512  15.334 -0.3481 -0.3522 -0.0076
 1683SOL    HW116511   1.966   1.485  15.377  1.0294  2.4713 -0.8818
 1683SOL    HW216512   1.925   1.538  15.251 -1.7317  0.3196 -0.4543
 1684SOL     OW16513   3.195   2.971  14.103 -0.3625 -0.4245  0.3437
 1684SOL    HW116514   3.271   3.028  14.093  0.0580 -0.9469  0.5925
 1684SOL    HW216515   3.185   2.938  14.014  0.0278 -1.1402  0.5623
 1685SOL     OW16516   2.017   4.438   3.628 -0.2808 -0.0622 -0.0995
 1685SOL    HW116517   1.942   4.428   3.686 -0.0339  1.7302  0.5297
 1685SOL    HW216518   1.987   4.391   3.550  0.6353  0.9117 -1.0461
 1686SOL     OW16519   3.413   2.263   1.236 -0.2561  0.2337  0.2342
 1686SOL    HW116520   3.445   2.198   1.173  1.5837  0.4759  0.9140
 1686SOL    HW216521   3.323   2.230   1.235  0.3687 -1.4682 -0.1015
 1687SOL     OW16522   0.365   1.927   1.759 -0.1640 -0.2218  0.3842
 1687SOL    HW116523   0.410   1.971   1.686 -2.1497 -0.9651 -1.2908
 1687SOL    HW216524   0.359   1.837   1.728  1.2226 -0.6026  1.2494
 1688SOL     OW16525   3.395   3.167   8.823  0.2963  0.1175 -0.4088
 1688SOL    HW116526   3.306   3.193   8.802 -0.1532 -1.7635 -0.8104
 1688SOL    HW216527   3.442   3.246   8.796  1.4851  0.2635  2.0732
 1689SOL     OW16528   0.301   0.484   3.151  0.0659  0.3642  0.0019
 1689SOL    HW116529   0.232   0.478   3.085  1.4797 -2.7053 -1.2307
 1689SOL    HW216530   0.278   0.557   3.209  1.3321  0.7858 -0.0324
 1690SOL     OW16531   3.794   4.581   6.955 -0.2098 -0.4134  0.3559
 1690SOL    HW116532   3.831   4.644   6.893  1.2407 -2.7384 -1.1663
 1690SOL    HW216533   3.795   4.625   7.040  0.4159 -0.2529  0.2695
 1691SOL     OW16534   0.023   4.598   5.969  0.2089 -1.0438 -0.2451
 1691SOL    HW116535   4.690   4.543   6.025 -2.2714 -0.0851 -1.7644
 1691SOL    HW216536   0.018   4.683   6.012 -0.4358 -1.7155  1.0160
 1692SOL     OW16537   3.301   3.240  13.717  0.6141 -0.0454 -0.4047
 1692SOL    HW116538   3.330   3.149  13.722 -0.6916 -0.5303 -1.6503
 1692SOL    HW216539   3.389   3.271  13.738 -0.1774 -0.3455  3.3720
 1693SOL     OW16540   0.462   2.315   7.194  0.3834 -0.3754  0.0952
 1693SOL    HW116541   0.532   2.345   7.135 -0.3395  1.4264  0.1686
 1693SOL    HW216542   0.517   2.265   7.254 -0.1363  2.6349  3.0785
 1694SOL     OW16543   2.518   2.457   5.895  0.0248 -0.7332 -0.6763
 1694SOL    HW116544   2.588   2.392   5.892  1.4133  0.7170 -0.1581
 1694SOL    HW216545   2.448   2.409   5.938  2.0094 -1.3878  1.7891
 1695SOL     OW16546   0.824   4.461   6.048  0.4956 -0.0628 -0.1017
 1695SOL    HW116547   0.821   4.473   5.953  1.1190 -1.6637 -0.3230
 1695SOL    HW216548   0.815   4.367   6.060  1.5247 -0.0419  0.8158
 1696SOL     OW16549   3.566   4.242  15.485  0.1507 -0.1745  0.0808
 1696SOL    HW116550   3.547   4.306  15.553 -0.0635 -0.4764  0.3045
 1696SOL    HW216551   3.479   4.223  15.447  1.1146 -1.5536 -1.4638
 1697SOL     OW16552   4.481   4.568   5.477 -0.0623  0.1962 -0.1808
 1697SOL    HW116553   4.501   4.571   5.571  0.3693  0.7244 -0.2897
 1697SOL    HW216554   4.385   4.572   5.486 -0.0123  0.4616  0.2463
 1698SOL     OW16555   3.775   3.375   9.469 -0.6072  0.2381  0.4918
 1698SOL    HW116556   3.751   3.466   9.452 -0.0702  0.3472  0.3194
 1698SOL    HW216557   3.740   3.326   9.395 -1.4447  2.0750 -0.3135
 1699SOL     OW16558   3.903   2.871   8.221  0.3114  0.0498  0.3549
 1699SOL    HW116559   3.821   2.903   8.186 -0.1159 -1.8165 -0.3860
 1699SOL    HW216560   3.947   2.920   8.152  1.0607 -4.0030 -2.0738
 1700SOL     OW16561   3.920   2.313   3.074  0.6501 -0.6003  0.1427
 1700SOL    HW116562   3.924   2.270   2.989 -0.3524 -2.1186  0.8703
 1700SOL    HW216563   3.863   2.255   3.125 -0.1051 -0.7300 -0.8511
 1701SOL     OW16564   0.600   2.696   4.797 -0.3427  0.2950  0.8793
 1701SOL    HW116565   0.613   2.638   4.723  2.5558  0.1689  1.4998
 1701SOL    HW216566   0.635   2.777   4.760 -0.2465 -0.1802 -0.0590
 1702SOL     OW16567   2.836   3.701  11.468 -0.0510 -0.2210 -0.7476
 1702SOL    HW116568   2.765   3.726  11.528  0.9427 -1.9677  1.1353
 1702SOL    HW216569   2.814   3.743  11.385 -0.2900 -0.2137 -0.6807
 1703SOL     OW16570   2.925   2.917   8.272 -0.6656  0.5537 -0.2016
 1703SOL    HW116571   2.941   2.952   8.360  1.9485  1.3869 -0.9998
 1703SOL    HW216572   2.942   2.824   8.288  2.8425  0.9090 -1.8537
 1704SOL     OW16573   0.307   4.653   7.368 -0.6484  0.1836 -0.2153
 1704SOL    HW116574   0.298   4.641   7.274 -1.0781  1.9275 -0.3954
 1704SOL    HW216575   0.383   4.710   7.374 -0.5672  0.2011 -1.4654
 1705SOL     OW16576   1.428   1.070   3.823 -0.1222  0.2610  0.4868
 1705SOL    HW116577   1.409   0.989   3.870  2.1569  0.3251  1.5023
 1705SOL    HW216578   1.340   1.107   3.837 -0.5801  0.1236 -1.9215
 1706SOL     OW16579   1.727   2.089   5.587  0.1154 -0.2482  0.1009
 1706SOL    HW116580   1.634   2.110   5.595 -0.6404 -3.1112 -1.2973
 1706SOL    HW216581   1.759   2.130   5.507 -2.0150 -0.6903 -0.9806
 1707SOL     OW16582   4.230   3.300  10.590  0.5433 -0.2314 -0.4236
 1707SOL    HW116583   4.198   3.381  10.630 -1.4733 -0.9563 -0.5653
 1707SOL    HW216584   4.204   3.324  10.501  0.9981 -1.1170 -0.7905
 1708SOL     OW16585   2.028   4.264  14.663  0.0627 -0.6005 -0.2283
 1708SOL    HW116586   2.031   4.357  14.638  0.3258  0.0772  2.3186
 1708SOL    HW216587   2.080   4.222  14.594  0.7272  1.1484 -0.8011
 1709SOL     OW16588   3.098   2.856   5.475  0.0754  0.4320  0.3658
 1709SOL    HW116589   3.149   2.887   5.400 -0.4712 -0.9451 -0.5722
 1709SOL    HW216590   3.171   2.859   5.536  1.9334  1.2312 -1.8953
 1710SOL     OW16591   2.147   3.899   5.790  0.1388  0.4821  0.6058
 1710SOL    HW116592   2.190   3.983   5.807  2.2295 -0.4004 -0.3100
 1710SOL    HW216593   2.056   3.928   5.797 -0.8657 -2.2853 -1.0468
 1711SOL     OW16594   2.571   4.119   6.776  0.3269 -0.3195  0.1316
 1711SOL    HW116595   2.488   4.114   6.823  1.0385  0.9633  1.5054
 1711SOL    HW216596   2.543   4.086   6.690  0.2175 -0.2741  0.1487
 1712SOL     OW16597   2.313   1.490   4.365 -0.7979  0.4306  0.4946
 1712SOL    HW116598   2.218   1.492   4.352 -0.4436  2.4449 -1.8057
 1712SOL    HW216599   2.332   1.553   4.295 -1.7851  0.4076  0.1938
 1713SOL     OW16600   4.531   2.502  14.555  0.5555  0.0245  0.1270
 1713SOL    HW116601   4.620   2.469  14.545  0.9944  1.0766  0.5878
 1713SOL    HW216602   4.528   2.576  14.494  0.8014 -2.8059 -3.3265
 1714SOL     OW16603   2.863   4.640  13.440  0.2653  0.1597  0.6372
 1714SOL    HW116604   2.944   4.671  13.483 -0.8725  2.7026  0.9787
 1714SOL    HW216605   2.882   4.547  13.439 -1.1111 -0.1170  0.5367
 1715SOL     OW16606   1.624   0.607   4.437 -0.4185  0.7149 -0.8162
 1715SOL    HW116607   1.683   0.641   4.370  0.9712 -1.3104 -0.6188
 1715SOL    HW216608   1.570   0.683   4.461  0.0461  0.9879 -0.6337
 1716SOL     OW16609   4.714   4.528   6.384 -0.2638 -0.8292 -0.6561
 1716SOL    HW116610   4.676   4.498   6.467  0.2688 -0.9866 -0.4725
 1716SOL    HW216611   0.084   4.541   6.404 -0.9016 -0.6718  2.1889
 1717SOL     OW16612   4.485   0.737   7.070 -0.2711  0.1010 -0.2036
 1717SOL    HW116613   4.550   0.668   7.085 -1.2314 -0.8136 -0.2122
 1717SOL    HW216614   4.409   0.681   7.087 -1.3335  1.4149 -0.7416
 1718SOL     OW16615   3.543   0.241   5.091 -0.1957  0.2816 -0.0941
 1718SOL    HW116616   3.518   0.200   5.008 -1.8922  1.2196 -0.0508
 1718SOL    HW216617   3.637   0.222   5.092  0.2474  2.5185  1.0767
 1719SOL     OW16618   3.663   0.808   5.826 -0.3715  0.1425 -0.5305
 1719SOL    HW116619   3.592   0.868   5.803 -0.1260  0.9474  0.7762
 1719SOL    HW216620   3.732   0.873   5.815 -2.3565  2.3532  0.2233
 1720SOL     OW16621   0.637   2.332   6.440 -0.2661 -0.0107 -0.0508
 1720SOL    HW116622   0.697   2.396   6.403  0.7537 -0.3537  0.9911
 1720SOL    HW216623   0.695   2.260   6.468 -0.1509  0.5644  1.1742
 1721SOL     OW16624   4.074   2.972   5.625 -0.2573  0.3668 -0.3842
 1721SOL    HW116625   4.068   3.068   5.632  0.7360  0.5423 -2.1139
 1721SOL    HW216626   4.120   2.950   5.706 -2.8888  0.4643  1.1647
 1722SOL     OW16627   2.224   4.659   4.011 -0.2715  0.5211 -0.1645
 1722SOL    HW116628   2.289   0.007   4.020  1.5927 -1.1748 -0.5564
 1722SOL    HW216629   2.138   4.692   4.037  0.2683  1.4077  0.5433
 1723SOL     OW16630   1.274   2.636  14.136  0.4843 -0.4745  0.3101
 1723SOL    HW116631   1.287   2.715  14.188 -0.0711 -0.7981  0.9461
 1723SOL    HW216632   1.356   2.587  14.143 -0.8591 -2.8514 -0.3862
 1724SOL     OW16633   3.319   3.466   4.300 -0.6971 -0.0391 -0.3025
 1724SOL    HW116634   3.348   3.515   4.377 -0.4631 -0.7335  0.0532
 1724SOL    HW216635   3.238   3.425   4.330  0.2022 -1.1207  0.6895
 1725SOL     OW16636   0.493   0.141  10.711 -0.0288 -0.0593  0.2414
 1725SOL    HW116637   0.467   0.132  10.619  0.6735 -2.6195  0.2828
 1725SOL    HW216638   0.456   0.225  10.739 -0.3318 -0.4825  1.1055
 1726SOL     OW16639   3.396   2.896  11.650  0.3093  0.4529  0.3347
 1726SOL    HW116640   3.436   2.818  11.689  0.9024 -1.3268 -3.7903
 1726SOL    HW216641   3.326   2.857  11.597 -0.1182  0.9942  0.5033
 1727SOL     OW16642   1.485   1.128   8.993 -0.1083  0.2609  0.4878
 1727SOL    HW116643   1.524   1.054   8.946 -0.9324 -0.1063  0.3865
 1727SOL    HW216644   1.547   1.137   9.066  2.0042 -0.8756 -1.1699
 1728SOL     OW16645   0.732   0.847   9.502  0.2522 -0.0489 -0.2539
 1728SOL    HW116646   0.738   0.786   9.575 -1.1976 -0.4236 -0.4551
 1728SOL    HW216647   0.638   0.859   9.493  0.4736  0.0501 -2.4826
 1729SOL     OW16648   1.773   1.734   5.687  0.1965  0.5676 -0.2289
 1729SOL    HW116649   1.719   1.758   5.762 -0.7054  0.0943 -0.7247
 1729SOL    HW216650   1.713   1.681   5.635  2.1912 -3.2050  1.3214
 1730SOL     OW16651   1.975   2.858  12.608  0.0351 -0.1853 -0.6893
 1730SOL    HW116652   2.030   2.917  12.557  1.1347 -1.2187 -0.7108
 1730SOL    HW216653   1.889   2.859  12.566 -0.0788 -1.7537 -0.5260
 1731SOL     OW16654   4.487   1.694   1.711 -0.0896 -0.0502  0.1083
 1731SOL    HW116655   4.573   1.735   1.709  0.4429 -1.1185  1.2110
 1731SOL    HW216656   4.488   1.625   1.644 -1.6340  0.4072 -0.3797
 1732SOL     OW16657   2.500   0.802   5.229 -0.2632 -0.2002 -0.1054
 1732SOL    HW116658   2.546   0.744   5.168  0.7144  0.2153  0.2311
 1732SOL    HW216659   2.454   0.735   5.281 -1.5130 -0.0161 -0.9879
 1733SOL     OW16660   2.861   1.591   4.592  0.2553 -0.2723 -0.5788
 1733SOL    HW116661   2.787   1.608   4.534  1.3193  1.8571 -1.2746
 1733SOL    HW216662   2.829   1.628   4.674  0.7092  0.0426 -0.5433
 1734SOL     OW16663   2.877   2.618   4.306 -0.7076  0.3044 -0.0400
 1734SOL    HW116664   2.792   2.607   4.347  0.4526 -1.2335  1.9606
 1734SOL    HW216665   2.886   2.539   4.254 -1.6265 -0.3892  0.8598
 1735SOL     OW16666   4.427   3.901   6.451  0.0957 -0.2219 -0.2233
 1735SOL    HW116667   4.504   3.851   6.422 -0.4675 -0.7270 -0.8421
 1735SOL    HW216668   4.369   3.890   6.376  0.1439  2.0841 -0.6004
 1736SOL     OW16669   1.968   1.395  11.486 -0.1396 -0.5367 -0.0402
 1736SOL    HW116670   1.929   1.415  11.401 -2.8475 -3.7921  0.4113
 1736SOL    HW216671   1.957   1.479  11.530 -0.3596 -1.5179  1.7764
 1737SOL     OW16672   3.665   0.629  14.771  0.0664 -0.0438 -0.4812
 1737SOL    HW116673   3.572   0.644  14.753 -0.1089 -0.3016  0.2245
 1737SOL    HW216674   3.674   0.665  14.859  0.5446  0.7910 -0.8805
 1738SOL     OW16675   3.300   1.832  15.669 -0.3721  0.3446  0.0450
 1738SOL    HW116676   3.279   1.923  15.689 -1.0922 -0.1502  1.5439
 1738SOL    HW216677   3.295   1.785  15.752 -1.3214 -0.0379 -0.2352
 1739SOL     OW16678   4.313   0.501   6.857 -0.2453  0.8333  0.0062
 1739SOL    HW116679   4.247   0.550   6.808 -0.3448  0.9245  0.2341
 1739SOL    HW216680   4.273   0.499   6.944  1.8915  1.2236  1.0020
 1740SOL     OW16681   3.686   3.270   9.226 -0.5838  0.7163 -0.2455
 1740SOL    HW116682   3.613   3.226   9.182  2.8763 -1.8971 -3.3448
 1740SOL    HW216683   3.733   3.292   9.146  0.1395  3.1179  0.8317
 1741SOL     OW16684   3.673   3.596   6.178 -0.3018 -0.0347  0.1440
 1741SOL    HW116685   3.754   3.603   6.126  0.3176  0.9488  1.2611
 1741SOL    HW216686   3.688   3.526   6.241  0.6920  0.8634  0.9016
 1742SOL     OW16687   1.421   2.880   3.623  0.2437  0.7301 -0.4945
 1742SOL    HW116688   1.373   2.886   3.540 -0.0507  2.6303 -0.1943
 1742SOL    HW216689   1.513   2.883   3.597  0.0226 -1.2098 -1.4998
 1743SOL     OW16690   1.153   2.799  13.170  0.1571  0.2491  0.3380
 1743SOL    HW116691   1.118   2.783  13.258  0.3179  0.8950  0.5268
 1743SOL    HW216692   1.077   2.797  13.113 -1.6479 -4.3459  2.9364
 1744SOL     OW16693   0.031   3.568   1.586 -0.3015 -0.2854  0.0423
 1744SOL    HW116694   0.086   3.520   1.525  1.8299  0.8204  1.0913
 1744SOL    HW216695   0.090   3.545   1.658  1.0342 -0.5747 -1.1489
 1745SOL     OW16696   2.213   1.104   7.089 -0.1587  0.7344  0.4730
 1745SOL    HW116697   2.185   1.195   7.086 -0.3134  0.6608 -0.2182
 1745SOL    HW216698   2.188   1.079   7.000 -1.4447  0.8013  0.8140
 1746SOL     OW16699   1.074   1.416   3.259  0.5292 -0.7674  0.2023
 1746SOL    HW116700   1.035   1.423   3.172  0.1268 -1.7525  0.2958
 1746SOL    HW216701   1.048   1.500   3.297 -2.1546 -1.7751  0.6249
 1747SOL     OW16702   3.905   2.197   7.517 -0.1032 -0.2352 -0.2927
 1747SOL    HW116703   3.975   2.259   7.501 -1.7724  0.9333 -3.0997
 1747SOL    HW216704   3.933   2.154   7.597  0.9094  2.0544  0.5744
 1748SOL     OW16705   1.042   4.017  13.729 -0.2570  0.2081 -0.3125
 1748SOL    HW116706   1.128   3.978  13.744 -0.2211  0.2678 -0.3639
 1748SOL    HW216707   1.029   3.994  13.637 -1.7686  1.4792 -0.4225
 1749SOL     OW16708   2.183   3.319   1.477 -0.0305  0.4665  0.5041
 1749SOL    HW116709   2.161   3.244   1.422 -1.5922  2.4981 -1.6626
 1749SOL    HW216710   2.232   3.273   1.545  1.9089 -0.2742 -1.3973
 1750SOL     OW16711   3.367   2.092   7.874  0.1526 -0.4461  0.0825
 1750SOL    HW116712   3.336   2.179   7.900  2.4838  0.4644 -0.1799
 1750SOL    HW216713   3.288   2.043   7.851  0.2789  0.0021 -1.2914
 1751SOL     OW16714   3.641   2.709   4.458  0.3757 -0.0204 -0.3746
 1751SOL    HW116715   3.663   2.747   4.543 -1.8291  0.3217  0.0473
 1751SOL    HW216716   3.572   2.648   4.485 -1.2472  1.5823 -0.8960
 1752SOL     OW16717   3.041   4.288  14.628 -0.3263  0.0608  0.1567
 1752SOL    HW116718   3.130   4.286  14.594 -0.3122 -0.9841  0.2703
 1752SOL    HW216719   3.023   4.380  14.610 -2.0127 -0.6844 -2.0029
 1753SOL     OW16720   2.886   3.019   1.624 -0.5314  0.5377 -0.0879
 1753SOL    HW116721   2.913   3.108   1.602  0.3673 -0.0404 -1.3332
 1753SOL    HW216722   2.824   3.009   1.552 -0.5121 -1.9983  0.2403
 1754SOL     OW16723   2.931   1.707   5.110  0.2108 -0.2176 -0.1310
 1754SOL    HW116724   2.951   1.639   5.046 -1.7913 -0.3660 -0.6251
 1754SOL    HW216725   2.861   1.661   5.157  0.3000  0.8209  1.0125
 1755SOL     OW16726   0.856   1.539   7.010  0.1740  0.5308 -0.0008
 1755SOL    HW116727   0.922   1.605   6.990  1.7575 -0.8981  0.5180
 1755SOL    HW216728   0.870   1.524   7.103  1.0960 -0.5920 -0.3338
 1756SOL     OW16729   1.358   2.867   6.442  0.1854  0.7652  0.1860
 1756SOL    HW116730   1.421   2.821   6.386  0.2415  0.2801  0.6432
 1756SOL    HW216731   1.409   2.871   6.523  1.3657 -1.2764 -0.4394
 1757SOL     OW16732   3.656   1.300   4.295  0.3551  0.2256 -0.6147
 1757SOL    HW116733   3.712   1.259   4.230 -0.0956  0.1793 -0.9810
 1757SOL    HW216734   3.701   1.275   4.375 -2.6417 -2.4713  0.2395
 1758SOL     OW16735   1.319   0.089   1.871  0.0836  0.1206 -0.0841
 1758SOL    HW116736   1.390   0.063   1.812  1.3886  0.6239  1.2489
 1758SOL    HW216737   1.308   0.020   1.937 -0.9781 -0.0340 -0.4236
 1759SOL     OW16738   1.388   0.827   8.386 -0.2795 -0.5209 -0.4541
 1759SOL    HW116739   1.408   0.899   8.326  1.2136 -0.3961  0.1889
 1759SOL    HW216740   1.431   0.756   8.339  1.1185 -0.6069  0.9579
 1760SOL     OW16741   1.616   4.411   7.346 -0.1846  0.2321  0.0161
 1760SOL    HW116742   1.710   4.422   7.362 -0.1123 -0.4507  0.0542
 1760SOL    HW216743   1.604   4.339   7.284 -0.2345  0.6785 -0.4832
 1761SOL     OW16744   3.063   1.542   8.813  0.1495 -0.4526 -0.1501
 1761SOL    HW116745   3.072   1.637   8.804 -2.0857 -0.2659 -0.2992
 1761SOL    HW216746   3.155   1.520   8.799  0.3977  1.1274 -0.9828
 1762SOL     OW16747   0.096   2.121   6.843  0.5412  0.2077  0.2968
 1762SOL    HW116748   0.166   2.115   6.778  1.5913  2.6777  1.1945
 1762SOL    HW216749   0.097   2.036   6.888 -1.6587  0.7340  1.3565
 1763SOL     OW16750   2.636   1.133  11.140  0.2439  0.1013 -0.0209
 1763SOL    HW116751   2.708   1.178  11.185 -0.9626  1.6522  0.3773
 1763SOL    HW216752   2.616   1.058  11.195  2.2948  0.0047  0.5897
 1764SOL     OW16753   3.195   0.761   7.373  0.2903  0.4398  0.0521
 1764SOL    HW116754   3.220   0.800   7.289 -1.3468 -2.0034 -1.5664
 1764SOL    HW216755   3.170   0.676   7.338 -0.2203  0.4297  0.4339
 1765SOL     OW16756   1.592   2.383   3.321  0.0153 -0.4635 -0.3675
 1765SOL    HW116757   1.551   2.298   3.303 -2.6316 -0.0015  3.3758
 1765SOL    HW216758   1.518   2.420   3.370 -1.1558 -2.8912 -0.2819
 1766SOL     OW16759   3.609   2.170   7.555  0.1536  0.2832  0.5831
 1766SOL    HW116760   3.699   2.201   7.567  0.8730 -0.9699 -1.5258
 1766SOL    HW216761   3.599   2.141   7.464 -0.5675  1.7428  0.2006
 1767SOL     OW16762   3.387   2.153   4.592  0.2148  0.6627 -0.3114
 1767SOL    HW116763   3.329   2.104   4.650 -1.9772  1.5331 -1.7903
 1767SOL    HW216764   3.351   2.150   4.503  0.0761 -1.3887 -0.1866
 1768SOL     OW16765   1.490   0.270   1.631 -0.0954 -0.1598  0.0758
 1768SOL    HW116766   1.564   0.320   1.595  0.0506 -0.3696  0.0830
 1768SOL    HW216767   1.492   0.298   1.723 -2.9355  0.5853 -0.0953
 1769SOL     OW16768   0.289   1.474  14.537  0.1669 -0.5437  0.1147
 1769SOL    HW116769   0.288   1.570  14.537 -1.9716 -0.5554 -1.5234
 1769SOL    HW216770   0.195   1.456  14.539  0.2349 -0.7247  1.5654
 1770SOL     OW16771   2.252   2.082   8.785  0.2871  0.1179 -0.1752
 1770SOL    HW116772   2.322   2.128   8.831 -1.5423 -0.1182  2.7973
 1770SOL    HW216773   2.176   2.116   8.833  0.6040  0.1783  0.2802
 1771SOL     OW16774   4.287   3.344   8.601 -0.1259  0.2050 -0.3122
 1771SOL    HW116775   4.293   3.292   8.522  1.6628  0.6629 -0.4689
 1771SOL    HW216776   4.358   3.305   8.652 -0.9510  0.5183  1.0901
 1772SOL     OW16777   1.749   3.520  14.312  0.4836  0.0322  0.0039
 1772SOL    HW116778   1.816   3.463  14.273 -1.5594 -2.1112 -0.3851
 1772SOL    HW216779   1.766   3.513  14.406  2.0167 -0.6933 -0.3211
 1773SOL     OW16780   0.033   4.355   8.345 -0.0562 -0.3117 -0.2673
 1773SOL    HW116781   0.049   4.336   8.437 -0.3211  1.9494  0.2320
 1773SOL    HW216782   0.090   4.431   8.336  0.9523 -1.0811 -0.4592
 1774SOL     OW16783   4.492   3.604  12.078 -0.0926 -0.0896 -0.1523
 1774SOL    HW116784   4.417   3.603  12.019 -1.3172  1.2798  1.3794
 1774SOL    HW216785   4.462   3.573  12.164  0.3907 -1.7549 -0.5693
 1775SOL     OW16786   0.797   3.380   8.819 -0.7480  0.0752 -0.0511
 1775SOL    HW116787   0.797   3.475   8.829 -1.8716 -0.1930  2.4385
 1775SOL    HW216788   0.703   3.365   8.827 -0.3007 -3.1666 -0.7954
 1776SOL     OW16789   0.481   1.042   9.701  0.1376 -0.3586  0.0201
 1776SOL    HW116790   0.392   1.069   9.677 -0.3187 -1.7412  0.1690
 1776SOL    HW216791   0.513   1.022   9.613 -1.1621  2.9276 -1.2219
 1777SOL     OW16792   1.218   2.261  12.577  0.1508 -0.0851 -0.2585
 1777SOL    HW116793   1.133   2.222  12.596  0.1471  0.2942  0.5335
 1777SOL    HW216794   1.214   2.274  12.482  0.3743  1.9474  0.0108
 1778SOL     OW16795   4.552   2.483   4.097 -0.1342  0.3006  0.0514
 1778SOL    HW116796   4.491   2.410   4.106 -1.3315  1.3155  0.0815
 1778SOL    HW216797   4.530   2.516   4.010 -0.9904 -0.1639  0.0994
 1779SOL     OW16798   0.263   0.715   6.992 -0.4512  0.2418  0.3418
 1779SOL    HW116799   0.190   0.729   6.932  0.3215 -1.7810 -1.0698
 1779SOL    HW216800   0.232   0.765   7.068  2.5384  1.0737  1.0053
 1780SOL     OW16801   0.425   0.884   0.984 -0.2985 -0.2306 -0.7067
 1780SOL    HW116802   0.418   0.925   1.070  1.0422  3.9719 -2.6247
 1780SOL    HW216803   0.350   0.824   0.986  0.7597 -1.5483 -1.1162
 1781SOL     OW16804   2.694   3.438   5.028 -0.6134  0.0835  0.0218
 1781SOL    HW116805   2.743   3.450   5.109  0.8244 -0.9008 -0.7154
 1781SOL    HW216806   2.684   3.526   4.993  1.3318  0.1474 -0.3322
 1782SOL     OW16807   2.403   2.066   4.372  0.0638  0.4725  0.3196
 1782SOL    HW116808   2.452   2.148   4.365  1.2875 -0.3952 -1.2370
 1782SOL    HW216809   2.344   2.081   4.298  2.5556  0.2551 -1.6902
 1783SOL     OW16810   4.026   2.576   3.004 -0.0369 -0.2250  0.2956
 1783SOL    HW116811   3.997   2.596   2.915 -1.0110 -2.6349  0.0675
 1783SOL    HW216812   3.975   2.504   3.042 -2.1065  0.7572 -0.6056
 1784SOL     OW16813   2.798   1.638   9.908 -0.7245 -0.1471 -0.4142
 1784SOL    HW116814   2.807   1.709   9.845  1.6877 -0.1508 -0.0715
 1784SOL    HW216815   2.873   1.580   9.899 -0.2344  0.5853 -1.0135
 1785SOL     OW16816   3.699   1.422   8.345  0.2079  0.4792 -0.4571
 1785SOL    HW116817   3.725   1.488   8.281  0.9900 -0.6287 -1.2859
 1785SOL    HW216818   3.612   1.450   8.374 -0.1364  0.2303 -1.2467
 1786SOL     OW16819   3.391   3.133  11.483 -0.1178  0.0556 -0.2957
 1786SOL    HW116820   3.374   3.208  11.540  0.4790 -0.1704  0.1762
 1786SOL    HW216821   3.367   3.054  11.532  0.9956 -0.0514  0.0798
 1787SOL     OW16822   1.558   4.366   7.845  0.4915 -0.0592 -0.6804
 1787SOL    HW116823   1.621   4.325   7.905  0.4908 -0.9958 -1.3123
 1787SOL    HW216824   1.618   4.415   7.790  0.7949  0.8917  0.5105
 1788SOL     OW16825   0.130   4.322   2.916  0.0210  0.2999  0.3312
 1788SOL    HW116826   0.102   4.370   2.838  0.2445  0.6137  0.4425
 1788SOL    HW216827   0.225   4.321   2.905  0.1593  3.0964  1.2647
 1789SOL     OW16828   2.686   4.087   8.187  0.4435  0.0019 -0.5367
 1789SOL    HW116829   2.623   4.044   8.129  0.6414  0.0410 -0.7836
 1789SOL    HW216830   2.629   4.112   8.260 -0.1382 -0.6624 -0.7668
 1790SOL     OW16831   3.851   4.114   2.987 -0.0309  0.1280  0.7221
 1790SOL    HW116832   3.817   4.187   3.039  1.1216  1.9162 -1.0252
 1790SOL    HW216833   3.793   4.041   3.009 -2.3766  1.6550 -0.3792
 1791SOL     OW16834   2.933   1.758   1.051  0.1939 -0.6568 -0.1382
 1791SOL    HW116835   2.848   1.716   1.063  0.5402 -1.3645 -0.1587
 1791SOL    HW216836   2.982   1.745   1.133 -0.6012  0.8369  0.5715
 1792SOL     OW16837   3.630   3.061  13.481 -0.3730  0.3330 -0.1075
 1792SOL    HW116838   3.538   3.084  13.468  0.0422  2.2641  0.4328
 1792SOL    HW216839   3.661   3.078  13.392 -0.6711  0.6303 -0.1532
 1793SOL     OW16840   3.973   1.566   8.263 -0.1854 -0.1302  0.1459
 1793SOL    HW116841   3.984   1.536   8.353  1.8723 -0.6398 -0.2711
 1793SOL    HW216842   3.965   1.661   8.273 -0.0529 -0.1665  0.5826
 1794SOL     OW16843   0.810   3.087   9.221  0.1557 -0.2170  0.4157
 1794SOL    HW116844   0.868   3.098   9.146  1.5354  2.1233  1.8109
 1794SOL    HW216845   0.739   3.043   9.175  0.1365  0.7590 -0.4922
 1795SOL     OW16846   3.509   2.072   1.878 -0.0293 -0.0675  0.7728
 1795SOL    HW116847   3.446   2.054   1.947 -0.6470  0.1353  0.2629
 1795SOL    HW216848   3.585   2.031   1.919 -0.7173 -1.2674  0.8441
 1796SOL     OW16849   2.658   0.364   4.569 -0.3474  0.3500 -0.4826
 1796SOL    HW116850   2.739   0.371   4.518 -0.1821  0.9776 -0.1289
 1796SOL    HW216851   2.608   0.436   4.529  0.0539  0.9315  0.0744
 1797SOL     OW16852   0.537   2.123   5.664  0.3307  0.1542 -0.0124
 1797SOL    HW116853   0.468   2.097   5.725 -0.3433  1.2942 -0.2783
 1797SOL    HW216854   0.504   2.086   5.582  0.2861 -1.6486  0.8217
 1798SOL     OW16855   3.056   1.420   7.867  0.2022 -0.2424 -0.0298
 1798SOL    HW116856   3.048   1.501   7.917 -1.0832 -1.1270  1.1791
 1798SOL    HW216857   2.968   1.388   7.885 -0.1445 -0.2915 -1.7921
 1799SOL     OW16858   1.862   2.612   7.716 -0.2286  0.1994  0.4121
 1799SOL    HW116859   1.826   2.665   7.787  0.5159  0.3955  0.6402
 1799SOL    HW216860   1.777   2.580   7.686 -1.4061  2.6612  1.1573
 1800SOL     OW16861   3.910   0.281  14.697  0.1284  0.2731 -0.1825
 1800SOL    HW116862   3.879   0.197  14.662 -2.1151 -0.1637  2.9401
 1800SOL    HW216863   3.984   0.299  14.638 -0.0608 -0.7147 -0.7168
 1801SOL     OW16864   2.044   1.925   6.003 -0.3332 -0.6615 -0.2139
 1801SOL    HW116865   2.043   1.837   6.042  3.5395 -1.6499 -2.4045
 1801SOL    HW216866   1.961   1.925   5.954 -1.5426 -0.6916  1.8310
 1802SOL     OW16867   4.216   3.679   4.721  0.5735  0.0495 -0.2171
 1802SOL    HW116868   4.128   3.644   4.736  0.8953 -0.0309  1.5015
 1802SOL    HW216869   4.223   3.695   4.627 -1.4893  0.5369 -0.2704
 1803SOL     OW16870   0.946   3.749   7.436  0.1703  0.3219  0.1224
 1803SOL    HW116871   0.976   3.834   7.469 -0.6757  0.4593  0.5474
 1803SOL    HW216872   0.917   3.719   7.522 -1.2095  1.8634  0.2100
 1804SOL     OW16873   1.615   0.025   8.965  0.7364  0.2772  0.3293
 1804SOL    HW116874   1.630   0.072   9.046  0.6403 -0.4573  0.7751
 1804SOL    HW216875   1.607   4.654   8.989  0.2032 -0.3258 -2.0887
 1805SOL     OW16876   3.516   2.354   3.482 -0.1857 -0.1244  0.1577
 1805SOL    HW116877   3.583   2.288   3.504 -0.9101 -1.8851 -2.9563
 1805SOL    HW216878   3.454   2.303   3.429 -1.3591  1.5567 -0.0627
 1806SOL     OW16879   2.669   2.420   0.243  0.2139  0.2108  0.3682
 1806SOL    HW116880   2.643   2.331   0.223  0.2441  0.4728 -0.8377
 1806SOL    HW216881   2.670   2.458   0.155 -0.6087  0.2412  0.3698
 1807SOL     OW16882   0.220   2.504   9.924  0.0115 -0.3119 -0.1819
 1807SOL    HW116883   0.256   2.520  10.011 -1.5510 -2.3834  0.8759
 1807SOL    HW216884   0.199   2.587   9.882  0.9577 -0.2848 -0.5866
 1808SOL     OW16885   2.540   1.037   6.991 -0.3601 -0.3915 -0.1106
 1808SOL    HW116886   2.497   1.101   6.935  0.9883 -1.1795 -2.0544
 1808SOL    HW216887   2.467   0.982   7.018  0.5055 -2.0604 -1.1517
 1809SOL     OW16888   1.091   1.210   2.940  0.3860 -0.5204  0.2011
 1809SOL    HW116889   1.181   1.240   2.950  0.5786 -0.7975 -0.6948
 1809SOL    HW216890   1.047   1.294   2.948 -1.4714 -1.6922  2.5344
 1810SOL     OW16891   0.810   4.552   4.348 -0.1693  0.4397  0.2639
 1810SOL    HW116892   0.772   4.470   4.380  1.5448 -1.3536 -2.2669
 1810SOL    HW216893   0.741   4.617   4.359 -0.5263  0.0174  0.4795
 1811SOL     OW16894   3.621   0.757   7.646 -0.0675  0.1273 -0.2879
 1811SOL    HW116895   3.546   0.729   7.699  1.3052 -0.7006  1.2471
 1811SOL    HW216896   3.656   0.819   7.710 -1.4492 -0.6517  1.2148
 1812SOL     OW16897   4.581   1.792   4.715 -0.5242  0.3950  0.5167
 1812SOL    HW116898   4.588   1.790   4.620  0.9888  0.6000  0.6353
 1812SOL    HW216899   4.498   1.839   4.730 -0.6068  0.3286  0.2643
 1813SOL     OW16900   1.010   4.376  10.303  0.5217 -0.0999 -0.6637
 1813SOL    HW116901   0.923   4.395  10.267  1.0593  4.4341  0.4029
 1813SOL    HW216902   1.071   4.425  10.247 -0.3747  0.9492 -0.7264
 1814SOL     OW16903   4.604   1.352   6.354 -0.2947  0.0373  0.6033
 1814SOL    HW116904   4.604   1.274   6.299 -0.1020  0.7183 -0.3622
 1814SOL    HW216905   4.529   1.335   6.411 -0.7833  0.3014  0.0380
 1815SOL     OW16906   3.525   0.532  13.812 -0.3244  0.0472  0.0168
 1815SOL    HW116907   3.456   0.516  13.747  1.9070  1.8979 -2.7956
 1815SOL    HW216908   3.557   0.442  13.823 -0.5599 -0.2350 -1.5448
 1816SOL     OW16909   1.787   3.091  11.517  0.9170  0.6565 -0.4722
 1816SOL    HW116910   1.768   3.033  11.443 -1.4431 -0.0047  0.6466
 1816SOL    HW216911   1.862   3.044  11.555 -0.6774 -2.4035 -1.0471
 1817SOL     OW16912   3.299   0.719  17.015 -0.4495 -0.4197  0.3697
 1817SOL    HW116913   3.321   0.735  17.107 -0.3600 -0.1628  0.3037
 1817SOL    HW216914   3.250   0.799  16.999  1.7675  0.3392 -2.6500
 1818SOL     OW16915   0.720   3.420  17.461  0.3536 -0.4613 -0.1683
 1818SOL    HW116916   0.688   3.425  17.551 -0.1123 -1.2796 -0.2797
 1818SOL    HW216917   0.659   3.355  17.424  0.7442 -1.4455  0.9356
 1819SOL     OW16918   0.894   1.146   2.568 -0.2733 -0.6497  0.6655
 1819SOL    HW116919   0.930   1.226   2.529 -0.8957  0.8943  3.3145
 1819SOL    HW216920   0.909   1.084   2.497  2.2826  1.6469 -0.7919
 1820SOL     OW16921   0.077   2.248   0.653 -0.2135  0.3874 -0.0466
 1820SOL    HW116922   0.028   2.297   0.588  1.6581  1.2033 -0.8602
 1820SOL    HW216923   0.093   2.167   0.605  1.6792  0.3031  0.7044
 1821SOL     OW16924   2.051   1.827   2.095 -0.3536  0.0895 -0.1834
 1821SOL    HW116925   1.960   1.817   2.123  0.1021 -1.7065  0.6147
 1821SOL    HW216926   2.094   1.889   2.154  1.8719 -0.7783 -0.8743
 1822SOL     OW16927   3.093   3.031  13.830 -0.3859 -0.3310  0.0234
 1822SOL    HW116928   2.997   3.035  13.831 -0.3337  0.7881  0.8305
 1822SOL    HW216929   3.113   3.120  13.860 -0.1768 -0.1140 -0.7742
 1823SOL     OW16930   0.736   1.173   5.197 -0.0766 -0.6630  0.2334
 1823SOL    HW116931   0.667   1.121   5.155 -1.4168 -0.1894  1.8270
 1823SOL    HW216932   0.687   1.254   5.214 -0.5965 -0.4487 -2.2712
 1824SOL     OW16933   2.507   1.299   9.103 -0.3100  0.4622 -0.1628
 1824SOL    HW116934   2.558   1.377   9.086 -0.2481  0.7453  1.3714
 1824SOL    HW216935   2.570   1.227   9.092 -0.5027  0.2079  0.3912
 1825SOL     OW16936   2.625   3.299  10.763 -0.0161  0.4705  0.1384
 1825SOL    HW116937   2.537   3.285  10.800  0.9284 -2.0443  1.4276
 1825SOL    HW216938   2.678   3.232  10.805 -2.4971 -0.3606  1.9911
 1826SOL     OW16939   1.156   2.987  12.048  0.1698 -0.1272  0.5791
 1826SOL    HW116940   1.126   3.044  11.978 -2.6199  0.0191  1.9026
 1826SOL    HW216941   1.107   3.030  12.118  0.5455  0.7403  0.3087
 1827SOL     OW16942   2.879   4.122   6.339  0.5139 -0.7845  0.2944
 1827SOL    HW116943   2.888   4.032   6.307 -0.2226 -0.1166 -1.8414
 1827SOL    HW216944   2.838   4.112   6.425  0.3821  1.8797  0.5367
 1828SOL     OW16945   1.678   4.048   4.923  0.0076 -0.4667 -0.5110
 1828SOL    HW116946   1.634   3.987   4.983  0.9730 -1.4290 -0.7971
 1828SOL    HW216947   1.734   3.990   4.872 -0.1992 -2.4501  1.5116
 1829SOL     OW16948   3.811   3.317   8.142  0.3078  0.6992  0.4200
 1829SOL    HW116949   3.721   3.346   8.155 -0.0098 -0.5521  1.0039
 1829SOL    HW216950   3.824   3.277   8.228 -0.2421 -0.9103 -0.2436
 1830SOL     OW16951   4.332   3.470   9.590  0.0064 -0.3302  0.4210
 1830SOL    HW116952   4.240   3.474   9.566 -0.2989  0.9801  1.9039
 1830SOL    HW216953   4.353   3.388   9.543  3.8097  0.2656  1.0306
 1831SOL     OW16954   0.383   1.428   5.925  0.0012  0.0685  0.1881
 1831SOL    HW116955   0.478   1.437   5.916 -0.2504  3.1192  0.3801
 1831SOL    HW216956   0.384   1.335   5.948 -3.0008 -0.3896 -1.5274
 1832SOL     OW16957   0.381   4.397   2.905  0.2614 -0.7195 -0.1016
 1832SOL    HW116958   0.411   4.452   2.978  1.1115 -0.2051 -0.8397
 1832SOL    HW216959   0.457   4.417   2.851  0.8344 -0.9270  0.6231
 1833SOL     OW16960   3.331   1.698   1.997 -0.2043 -0.9942 -0.1915
 1833SOL    HW116961   3.285   1.669   2.075 -0.5331  1.7744  0.6471
 1833SOL    HW216962   3.413   1.744   2.019 -0.5463  0.3002 -1.5964
 1834SOL     OW16963   1.848   4.343   2.884  0.1973  0.3081 -0.2608
 1834SOL    HW116964   1.858   4.305   2.971 -0.1389 -1.5948 -1.0723
 1834SOL    HW216965   1.937   4.364   2.855  0.9663 -0.6625  1.3999
 1835SOL     OW16966   4.095   3.827   2.468 -0.2212  0.1846  0.0363
 1835SOL    HW116967   4.032   3.796   2.532 -0.0887 -1.8454 -0.8035
 1835SOL    HW216968   4.178   3.839   2.515  1.0104 -2.3468 -1.4827
 1836SOL     OW16969   1.273   4.513  11.866 -0.8693 -0.7782  0.0376
 1836SOL    HW116970   1.251   4.568  11.790 -1.0484 -0.8658  0.0268
 1836SOL    HW216971   1.357   4.477  11.838 -0.3108  1.8953 -1.7190
 1837SOL     OW16972   0.019   3.141   2.069 -0.0412  0.4537 -0.1863
 1837SOL    HW116973   4.659   3.178   2.038 -0.7552  0.4984  1.7308
 1837SOL    HW216974   0.014   3.046   2.060  2.6470  0.3024 -0.0411
 1838SOL     OW16975   0.191   4.604  12.007  0.0092  0.2859  0.1708
 1838SOL    HW116976   0.141   4.572  12.082 -0.1565  0.8642  0.3030
 1838SOL    HW216977   0.151   4.566  11.928  2.5348 -1.2814 -0.3710
 1839SOL     OW16978   3.521   4.697   5.761  0.3190 -0.0541 -0.2670
 1839SOL    HW116979   3.506   4.608   5.728 -0.8802 -1.2243  3.4310
 1839SOL    HW216980   3.537   0.029   5.684  0.7886  0.2904  0.0701
 1840SOL     OW16981   3.259   2.365   6.812  0.2306  0.2234 -0.3805
 1840SOL    HW116982   3.337   2.363   6.868  0.3759 -0.1262 -0.5990
 1840SOL    HW216983   3.277   2.292   6.754  1.3718 -0.5908  0.9879
 1841SOL     OW16984   1.715   1.236  10.841 -0.2246  0.2316  0.2652
 1841SOL    HW116985   1.676   1.157  10.877  0.3777  0.7970  2.1552
 1841SOL    HW216986   1.683   1.239  10.751 -1.9682 -0.6818  0.8448
 1842SOL     OW16987   2.337   3.568   5.467  0.1084  0.4713  0.0773
 1842SOL    HW116988   2.255   3.601   5.502  0.1357 -0.4969  1.0668
 1842SOL    HW216989   2.322   3.476   5.489  2.1621  0.4057  1.2013
 1843SOL     OW16990   4.265   2.295  13.809  0.2529 -0.0424 -0.3053
 1843SOL    HW116991   4.340   2.310  13.752 -0.1775  0.6870 -0.6853
 1843SOL    HW216992   4.300   2.267  13.893 -1.0558 -1.9254 -0.3971
 1844SOL     OW16993   4.419   2.530  10.434 -0.3537 -0.1716  0.8410
 1844SOL    HW116994   4.337   2.579  10.444 -0.4841 -0.3580  0.7113
 1844SOL    HW216995   4.376   2.448  10.461  0.1458 -0.8999 -0.6038
 1845SOL     OW16996   0.177   2.800   6.431  0.3059 -0.2581 -0.2593
 1845SOL    HW116997   0.088   2.831   6.444 -0.3615 -2.2288 -0.0615
 1845SOL    HW216998   0.154   2.707   6.438 -3.6274  0.8910  1.8257
 1846SOL     OW16999   4.668   3.516   6.488  0.5446  0.4798  0.2555
 1846SOL    HW117000   4.655   3.445   6.425 -1.5602 -0.8202  2.1780
 1846SOL    HW217001   4.609   3.499   6.562  0.8208  1.0900  0.6144
 1847SOL     OW17002   4.463   3.638   4.417  0.1961  0.0104  0.0257
 1847SOL    HW117003   4.468   3.681   4.332  2.5502 -0.6827 -0.1756
 1847SOL    HW217004   4.382   3.587   4.416  1.1905 -1.5288 -1.5310
 1848SOL     OW17005   1.160   1.585   4.587 -0.1772 -0.7436  0.5944
 1848SOL    HW117006   1.147   1.520   4.517  1.3209  1.4640 -1.7269
 1848SOL    HW217007   1.068   1.603   4.607  0.0054 -0.9230  1.5947
 1849SOL     OW17008   0.088   4.521   2.739  0.2415 -0.0039 -0.4238
 1849SOL    HW117009   0.011   4.577   2.754  2.0108  2.1046  0.7795
 1849SOL    HW217010   0.072   4.507   2.646  2.0161  0.6875 -0.8235
 1850SOL     OW17011   1.900   2.271   4.975  0.0384 -0.2504  0.0634
 1850SOL    HW117012   1.992   2.287   4.956 -0.8467  0.6989 -3.3433
 1850SOL    HW217013   1.902   2.231   5.062 -2.0090  1.1752  0.7521
 1851SOL     OW17014   0.280   0.173   7.047  0.4560  0.2797  0.1524
 1851SOL    HW117015   0.252   0.260   7.018 -1.2714 -0.5725 -0.7397
 1851SOL    HW217016   0.360   0.200   7.092 -0.2251  0.0174  1.5379
 1852SOL     OW17017   0.812   0.021   9.719 -0.0865  0.2117 -0.0079
 1852SOL    HW117018   0.801   4.690   9.640 -0.2479 -0.4947  0.4797
 1852SOL    HW217019   0.897   0.059   9.697  0.6193 -0.2750  1.7926
 1853SOL     OW17020   4.362   1.857   4.151 -0.4583  0.8943  0.7180
 1853SOL    HW117021   4.304   1.932   4.156  0.8967  2.0619 -0.7487
 1853SOL    HW217022   4.308   1.810   4.088  2.1198 -0.7712 -0.2529
 1854SOL     OW17023   4.022   1.278   2.897 -0.4041  0.0027  0.0740
 1854SOL    HW117024   4.075   1.285   2.818  2.6947  0.1810  2.1586
 1854SOL    HW217025   4.078   1.328   2.956  0.0088 -0.1454 -0.1874
 1855SOL     OW17026   3.514   2.323  13.627 -0.0302  0.2616  0.6106
 1855SOL    HW117027   3.505   2.247  13.569 -0.1268 -0.2449  1.2861
 1855SOL    HW217028   3.545   2.390  13.566 -2.1933  0.3474 -0.4007
 1856SOL     OW17029   3.738   0.174  12.447  0.1118  0.1558  0.4980
 1856SOL    HW117030   3.663   0.163  12.506  1.5412 -1.7393  1.9239
 1856SOL    HW217031   3.705   0.230  12.376  2.0749  0.6285 -0.0505
 1857SOL     OW17032   1.281   4.145   8.678 -0.1736  0.0777  0.0401
 1857SOL    HW117033   1.222   4.221   8.675 -0.7530 -0.3189  1.4891
 1857SOL    HW217034   1.215   4.077   8.665  0.3167 -0.3248 -0.3343
 1858SOL     OW17035   3.165   1.164  15.641 -0.8975  0.0550 -0.5194
 1858SOL    HW117036   3.173   1.086  15.695  0.5333 -0.5582 -1.6312
 1858SOL    HW217037   3.219   1.139  15.567  1.4200 -1.1882  1.5990
 1859SOL     OW17038   2.835   1.665   8.607 -0.7407 -0.2072 -0.1060
 1859SOL    HW117039   2.838   1.605   8.533 -1.0008 -0.4983  0.1198
 1859SOL    HW217040   2.782   1.616   8.670 -1.2901  0.4559 -0.0427
 1860SOL     OW17041   1.958   1.366  17.684 -0.4670 -0.2694 -0.2952
 1860SOL    HW117042   1.873   1.340  17.648 -0.5314 -2.7563  1.7263
 1860SOL    HW217043   2.006   1.285  17.668 -0.0681 -0.2776  0.9847
 1861SOL     OW17044   3.650   0.386   8.154  0.2134 -0.3603  0.0149
 1861SOL    HW117045   3.697   0.439   8.217  0.4752  3.3037 -3.3103
 1861SOL    HW217046   3.710   0.314   8.134  0.7135 -0.4320  1.7902
 1862SOL     OW17047   3.311   3.539   6.758  0.5749 -0.5023  0.3450
 1862SOL    HW117048   3.311   3.529   6.662 -4.7505 -0.9231  0.4349
 1862SOL    HW217049   3.354   3.458   6.788 -2.2289 -1.4541  1.7100
 1863SOL     OW17050   0.508   0.151   4.176 -0.2803 -0.3984 -0.6303
 1863SOL    HW117051   0.588   0.157   4.123 -0.4265 -1.9560 -1.0432
 1863SOL    HW217052   0.488   0.244   4.187  0.2804 -0.3399 -0.0759
 1864SOL     OW17053   3.685   4.011   5.479 -0.1903  0.5733 -0.4532
 1864SOL    HW117054   3.752   4.012   5.410  1.5808 -0.4188  1.2603
 1864SOL    HW217055   3.664   3.919   5.495 -0.2919  0.3648 -1.7944
 1865SOL     OW17056   1.511   2.809   3.881  0.2428  0.5367 -0.0845
 1865SOL    HW117057   1.465   2.863   3.816 -1.7434 -2.5646 -1.2193
 1865SOL    HW217058   1.586   2.863   3.908  1.5315 -2.1683  1.7022
 1866SOL     OW17059   2.359   1.324   4.578 -0.2118 -0.3952  0.3398
 1866SOL    HW117060   2.367   1.364   4.492  0.4927  0.1328  0.6498
 1866SOL    HW217061   2.307   1.248   4.552 -1.9656  0.0045  2.6053
 1867SOL     OW17062   4.321   0.456  13.597  0.2739 -0.3579 -0.1074
 1867SOL    HW117063   4.316   0.500  13.682 -0.1187 -0.7439  0.0690
 1867SOL    HW217064   4.415   0.470  13.589  0.3150 -0.0556  0.9315
 1868SOL     OW17065   4.113   4.448   6.975 -0.0255 -0.2869  0.2578
 1868SOL    HW117066   4.153   4.409   6.897  1.4311 -0.3372  1.0260
 1868SOL    HW217067   4.075   4.530   6.943 -1.5173 -1.4277 -0.8971
 1869SOL     OW17068   4.251   1.269  12.789  0.1125 -0.6082 -0.1037
 1869SOL    HW117069   4.246   1.340  12.726 -1.8699 -1.8749 -1.3977
 1869SOL    HW217070   4.191   1.203  12.753  0.7730 -1.8595  1.0815
 1870SOL     OW17071   3.483   4.148   5.601 -0.6808  0.0486  0.2858
 1870SOL    HW117072   3.566   4.102   5.587 -0.9181 -0.3851  0.3180
 1870SOL    HW217073   3.431   4.074   5.634  0.9915 -0.7175  1.2130
 1871SOL     OW17074   1.103   4.546   4.999  0.2341 -0.4127  0.1691
 1871SOL    HW117075   1.023   4.494   5.008 -0.9525  1.2255 -0.9746
 1871SOL    HW217076   1.088   4.588   4.914  0.3139  2.3261  1.5134
 1872SOL     OW17077   1.472   4.393   3.077  0.6075  0.0444  0.0917
 1872SOL    HW117078   1.494   4.462   3.014 -2.2864  0.8821  0.0405
 1872SOL    HW217079   1.484   4.447   3.155  1.8629  0.8949 -0.6779
 1873SOL     OW17080   0.986   0.349   5.792  0.3634 -0.2128  0.1842
 1873SOL    HW117081   0.909   0.404   5.778 -0.7533 -1.7316  0.3474
 1873SOL    HW217082   0.949   0.264   5.767 -1.4101  0.9103 -0.9542
 1874SOL     OW17083   1.516   3.918  16.428 -0.3508 -0.6438  0.2827
 1874SOL    HW117084   1.590   3.879  16.475 -1.1396 -0.3734  1.7406
 1874SOL    HW217085   1.457   3.939  16.500 -0.4441 -0.9503  0.2961
 1875SOL     OW17086   1.357   1.549   2.160 -0.1220 -0.3931  0.0666
 1875SOL    HW117087   1.419   1.502   2.104 -0.7783  0.2584 -1.2226
 1875SOL    HW217088   1.288   1.483   2.153 -3.7549  3.1354  2.4259
 1876SOL     OW17089   2.067   0.682   1.274 -0.5650  0.0957 -0.4886
 1876SOL    HW117090   2.098   0.768   1.302 -0.2188  0.2318 -1.2961
 1876SOL    HW217091   2.040   0.643   1.358 -0.0522 -2.8921 -1.6959
 1877SOL     OW17092   3.038   3.747   8.931 -0.1964 -0.0197  0.1991
 1877SOL    HW117093   2.948   3.764   8.903 -0.0705 -0.5549 -0.5115
 1877SOL    HW217094   3.087   3.824   8.902 -0.9435  0.4002  0.0532
 1878SOL     OW17095   3.910   2.399   6.870  0.3711 -0.2135 -0.1142
 1878SOL    HW117096   3.924   2.487   6.835  0.9321 -0.2929 -0.0958
 1878SOL    HW217097   3.815   2.401   6.865  0.6170  0.8234 -4.1159
 1879SOL     OW17098   3.335   4.158   3.876  0.4122  0.3861 -0.5167
 1879SOL    HW117099   3.257   4.176   3.823  0.3058 -0.5660 -0.6703
 1879SOL    HW217100   3.396   4.114   3.817 -0.4601 -0.8966 -0.4468
 1880SOL     OW17101   3.157   1.493  10.132 -0.0063 -0.5342 -0.4527
 1880SOL    HW117102   3.247   1.520  10.147 -0.8792  2.2005 -0.0149
 1880SOL    HW217103   3.132   1.460  10.219  0.9008 -0.7146 -0.2643
 1881SOL     OW17104   3.848   2.349   4.196 -0.6633 -0.5690 -0.2427
 1881SOL    HW117105   3.838   2.439   4.227 -0.7228 -1.6352  2.8894
 1881SOL    HW217106   3.769   2.357   4.143  0.2863  1.4661 -1.3243
 1882SOL     OW17107   2.885   2.677  10.471 -0.3933 -0.2809  0.5779
 1882SOL    HW117108   2.935   2.601  10.439 -1.6324 -0.8688  0.0379
 1882SOL    HW217109   2.813   2.669  10.409  0.4523  1.3060 -0.5955
 1883SOL     OW17110   1.772   2.225   6.645  0.0252  0.4810  0.6871
 1883SOL    HW117111   1.783   2.262   6.557 -3.2767  0.8123  0.4168
 1883SOL    HW217112   1.710   2.281   6.692 -0.4067  0.7453 -0.2040
 1884SOL     OW17113   4.109   0.325  14.526 -0.1557  0.4824  0.1721
 1884SOL    HW117114   4.191   0.283  14.500  0.7144  1.3093  1.5769
 1884SOL    HW217115   4.125   0.404  14.578  1.3437 -0.7374  1.5445
 1885SOL     OW17116   1.933   3.612   5.636  0.1500 -0.5872  0.1018
 1885SOL    HW117117   1.989   3.564   5.697  0.0138  0.2050  0.8451
 1885SOL    HW217118   2.005   3.645   5.583  1.2792 -2.6971  0.2943
 1886SOL     OW17119   4.053   3.185   9.849 -0.1553  0.2303  0.9173
 1886SOL    HW117120   4.111   3.119   9.812  1.2924  1.4206  1.0797
 1886SOL    HW217121   3.989   3.132   9.898 -0.7771 -0.0079 -0.1546
 1887SOL     OW17122   0.293   0.779   8.945 -0.8481  0.1869  0.3455
 1887SOL    HW117123   0.371   0.803   8.995 -1.2599 -0.4020  1.2876
 1887SOL    HW217124   0.253   0.701   8.984  0.3982 -1.0070 -0.7472
 1888SOL     OW17125   0.444   3.203   3.259 -0.1063  0.2616  0.6961
 1888SOL    HW117126   0.463   3.125   3.207 -2.5342  0.4373 -0.4340
 1888SOL    HW217127   0.370   3.163   3.305  0.4796  1.1444  2.4037
 1889SOL     OW17128   2.204   0.322   6.431 -0.5710  0.0492  0.1865
 1889SOL    HW117129   2.150   0.277   6.495 -1.7799  1.1848 -0.0382
 1889SOL    HW217130   2.281   0.322   6.488 -0.8565  0.5878  0.5732
 1890SOL     OW17131   2.855   4.528   7.953  0.0659  0.6770  0.0371
 1890SOL    HW117132   2.830   4.530   7.860  0.4887  0.1710 -0.0913
 1890SOL    HW217133   2.948   4.511   7.937 -0.1210 -0.7182  0.3765
 1891SOL     OW17134   1.926   2.785   2.699  0.1036 -0.2739 -0.1363
 1891SOL    HW117135   1.988   2.859   2.699  0.0582 -0.2359  1.6281
 1891SOL    HW217136   1.964   2.727   2.765  0.5147 -2.6347 -2.4617
 1892SOL     OW17137   3.582   4.540  13.871 -0.1056  0.6341  0.0492
 1892SOL    HW117138   3.616   4.628  13.886 -0.6885  1.0861 -1.2090
 1892SOL    HW217139   3.626   4.478  13.929  0.2234 -0.6556 -1.5618
 1893SOL     OW17140   1.772   1.484  15.781  0.1290  0.2032 -0.5859
 1893SOL    HW117141   1.746   1.479  15.689  1.3689  1.2240 -0.9951
 1893SOL    HW217142   1.841   1.417  15.785  0.3813  0.6473  2.6058
 1894SOL     OW17143   1.655   3.343   5.476  0.3421  0.0174 -0.4277
 1894SOL    HW117144   1.628   3.366   5.565  1.2381  0.1903 -0.2074
 1894SOL    HW217145   1.739   3.305   5.501 -0.0430 -0.1477  0.6221
 1895SOL     OW17146   1.071   0.186   8.570 -0.2719  0.3143 -0.1489
 1895SOL    HW117147   1.006   0.247   8.535 -1.0948 -0.6962 -0.3816
 1895SOL    HW217148   1.148   0.199   8.514  0.4469  0.1279  0.7981
 1896SOL     OW17149   2.132   0.204   7.227 -0.0600 -0.0021 -0.2990
 1896SOL    HW117150   2.057   0.235   7.277  1.9908  1.6034  1.7862
 1896SOL    HW217151   2.084   0.150   7.164 -0.3984 -0.4132  0.3133
 1897SOL     OW17152   0.294   1.470   7.561 -0.0213  0.6098 -0.1656
 1897SOL    HW117153   0.244   1.506   7.487 -1.1749 -0.5339  0.0603
 1897SOL    HW217154   0.332   1.402   7.504 -0.6808 -0.3509  0.5493
 1898SOL     OW17155   2.267   4.112   3.712  0.8496 -0.6412  0.2301
 1898SOL    HW117156   2.289   4.097   3.620  0.4747  1.0713 -0.1460
 1898SOL    HW217157   2.214   4.034   3.726 -1.1619  1.0396  1.8766
 1899SOL     OW17158   0.043   0.495   4.507  0.5091 -0.6986  0.4098
 1899SOL    HW117159   0.054   0.430   4.577  1.3336  0.5695  1.4496
 1899SOL    HW217160   0.107   0.560   4.534  1.1217 -0.3026 -2.0038
 1900SOL     OW17161   0.675   1.772  10.793  0.1368 -0.0230  0.4313
 1900SOL    HW117162   0.733   1.767  10.870  0.5207  1.4595  0.2476
 1900SOL    HW217163   0.695   1.685  10.760  1.3167  1.4165 -2.6575
 1901SOL     OW17164   0.528   2.997   2.550 -0.4640  0.3918 -0.3707
 1901SOL    HW117165   0.512   2.963   2.462 -1.8602 -1.2660  0.5276
 1901SOL    HW217166   0.558   3.086   2.533  0.2328  0.1608 -0.3446
 1902SOL     OW17167   4.188   3.707   2.242  0.0631  0.2173  0.0511
 1902SOL    HW117168   4.156   3.744   2.325  0.1791  0.2624  0.0753
 1902SOL    HW217169   4.118   3.650   2.209 -0.9227  0.2910  2.0178
 1903SOL     OW17170   1.426   2.730   9.899  0.8308 -0.7990  0.5020
 1903SOL    HW117171   1.497   2.680   9.939  0.5922 -1.9453 -0.4888
 1903SOL    HW217172   1.449   2.808   9.949 -0.0470 -0.8031  0.9266
 1904SOL     OW17173   0.886   1.099   9.481 -0.1504 -0.7493 -0.2199
 1904SOL    HW117174   0.843   1.016   9.499 -0.0351 -0.3273  2.0742
 1904SOL    HW217175   0.947   1.111   9.554 -2.3895  1.6600  1.2727
 1905SOL     OW17176   4.295   3.270   4.802  0.2977  0.1344 -0.5001
 1905SOL    HW117177   4.325   3.231   4.719 -1.2775 -0.9011 -0.5956
 1905SOL    HW217178   4.380   3.303   4.830 -0.4158  1.9769 -0.5615
 1906SOL     OW17179   1.193   4.455  10.048  0.0739  0.3050 -0.3477
 1906SOL    HW117180   1.236   4.390   9.992 -0.8348 -0.4945 -0.1230
 1906SOL    HW217181   1.264   4.515  10.069  0.5678 -0.9868  1.6639
 1907SOL     OW17182   1.512   1.512   4.767 -0.2136  0.3026  0.4559
 1907SOL    HW117183   1.534   1.459   4.690  0.5620  0.4883  0.5459
 1907SOL    HW217184   1.517   1.603   4.739  1.0109 -0.3202 -1.3745
 1908SOL     OW17185   0.244   4.637   2.045 -0.7105 -0.7440 -0.4064
 1908SOL    HW117186   0.319   4.662   1.991  0.6712 -0.4471  1.6191
 1908SOL    HW217187   0.226   4.552   2.005  0.1668 -1.7408  1.2877
 1909SOL     OW17188   2.536   1.618   7.779 -0.3191 -0.2828 -0.1180
 1909SOL    HW117189   2.596   1.575   7.718  2.2596  0.7108  1.7278
 1909SOL    HW217190   2.571   1.610   7.867 -1.3525  0.9691  0.4107
 1910SOL     OW17191   2.755   2.448  17.010 -0.2390  0.7226  0.5154
 1910SOL    HW117192   2.695   2.522  16.999  2.0802  2.6961  1.0340
 1910SOL    HW217193   2.778   2.460  17.102  3.3226 -0.6517 -0.2028
 1911SOL     OW17194   2.609   0.083   2.716 -0.2093  0.3733  0.4255
 1911SOL    HW117195   2.609   4.712   2.740  1.6922  0.0475 -0.7826
 1911SOL    HW217196   2.520   0.088   2.683  0.4631 -2.6294 -1.8197
 1912SOL     OW17197   3.730   3.043   2.563 -0.3091  0.3071  0.0477
 1912SOL    HW117198   3.804   2.982   2.561  0.3311  1.1552 -1.9988
 1912SOL    HW217199   3.741   3.078   2.651  2.3387  0.3645 -0.3165
 1913SOL     OW17200   2.890   1.287  13.555  0.2236  0.3278 -0.2986
 1913SOL    HW117201   2.806   1.251  13.528  0.2290  0.3443 -0.3386
 1913SOL    HW217202   2.907   1.228  13.628 -3.9356  0.9990  1.2001
 1914SOL     OW17203   2.992   1.749   8.114  1.1113 -0.7114  0.1825
 1914SOL    HW117204   3.024   1.688   8.181  1.3452 -2.4450 -1.5357
 1914SOL    HW217205   3.073   1.796   8.094  0.2179  2.0696  3.0123
 1915SOL     OW17206   2.043   0.622   8.033 -0.1620 -0.2839  0.0150
 1915SOL    HW117207   2.049   0.677   8.112  0.6261  0.7592 -0.7664
 1915SOL    HW217208   1.958   0.649   7.998  0.7373  2.4372 -0.0472
 1916SOL     OW17209   1.787   2.077   1.005  0.5420  0.2273  0.4421
 1916SOL    HW117210   1.769   2.164   1.041 -0.0787  1.6209 -3.2572
 1916SOL    HW217211   1.717   2.028   1.048  2.3974 -2.3539  0.5411
 1917SOL     OW17212   4.078   2.440   4.058 -0.0415  0.2354  0.1328
 1917SOL    HW117213   4.086   2.382   3.982 -1.2585  2.9689 -2.0817
 1917SOL    HW217214   4.007   2.390   4.098  0.9296 -0.8653  0.4738
 1918SOL     OW17215   4.457   0.059   6.151 -0.2158  0.3063 -0.3309
 1918SOL    HW117216   4.421   4.692   6.160  1.5118 -0.1608  1.7819
 1918SOL    HW217217   4.551   0.044   6.161  0.1903  0.8461 -3.3735
 1919SOL     OW17218   3.428   3.705  17.495 -0.0704 -0.1447 -0.4490
 1919SOL    HW117219   3.410   3.735  17.407  0.6504  1.7856  0.0678
 1919SOL    HW217220   3.384   3.620  17.507 -0.7850  0.3228  0.2213
 1920SOL     OW17221   3.852   2.221   1.360  0.4083 -0.1237 -0.4720
 1920SOL    HW117222   3.832   2.135   1.397  1.3544 -1.2303 -2.5008
 1920SOL    HW217223   3.947   2.227   1.369  0.3820 -0.9082  0.3297
 1921SOL     OW17224   1.792   3.299   6.891 -0.0183  0.9471 -0.1348
 1921SOL    HW117225   1.869   3.247   6.914 -0.4007  0.2295 -0.4867
 1921SOL    HW217226   1.820   3.333   6.805  1.1119  0.9349  0.2267
 1922SOL     OW17227   1.924   3.620   6.006  0.4717  0.9337 -0.0267
 1922SOL    HW117228   1.898   3.624   6.098  2.5837 -0.2759  0.6319
 1922SOL    HW217229   2.014   3.653   6.010  1.8340 -2.7809 -0.1240
 1923SOL     OW17230   4.718   3.396   8.724  0.0349 -0.4622  0.0424
 1923SOL    HW117231   4.666   3.390   8.644  0.1010  1.2987 -0.1407
 1923SOL    HW217232   0.014   3.309   8.759 -0.8918 -1.2473 -1.4247
 1924SOL     OW17233   3.303   1.260  16.300  0.0129 -0.2504  0.3640
 1924SOL    HW117234   3.371   1.199  16.269  1.2097  0.2549  1.9796
 1924SOL    HW217235   3.356   1.336  16.323 -2.6961  2.6287 -3.0141
 1925SOL     OW17236   1.560   2.517   5.178  0.0036 -0.1804 -0.2323
 1925SOL    HW117237   1.574   2.430   5.214  2.5319 -0.4459 -1.8664
 1925SOL    HW217238   1.466   2.529   5.194 -0.3753 -2.4684 -0.8725
 1926SOL     OW17239   2.170   1.775  13.993  0.1745 -0.2685 -0.2476
 1926SOL    HW117240   2.180   1.783  13.898 -2.1504  0.1816 -0.4499
 1926SOL    HW217241   2.211   1.690  14.012 -0.1279 -0.0626  1.2950
 1927SOL     OW17242   4.349   0.891   4.877 -0.1735 -0.1935 -0.0025
 1927SOL    HW117243   4.296   0.813   4.860 -1.0985  1.1337 -3.2005
 1927SOL    HW217244   4.320   0.903   4.967  0.8026  0.5963  0.2015
 1928SOL     OW17245   2.942   1.963   2.347 -0.0850 -0.2405 -0.4552
 1928SOL    HW117246   2.969   1.915   2.268  0.8578 -1.0062  0.3267
 1928SOL    HW217247   2.869   1.903   2.363  0.0058 -0.9336 -2.5583
 1929SOL     OW17248   0.087   4.376   2.162 -0.3188  0.0934  0.1298
 1929SOL    HW117249   4.718   4.398   2.143 -0.5081 -0.0229  0.9053
 1929SOL    HW217250   0.078   4.281   2.161 -0.9417  0.1611 -0.5262
 1930SOL     OW17251   0.139   2.065   8.906 -0.0604 -0.7172  0.7141
 1930SOL    HW117252   0.191   1.993   8.942 -0.6722 -1.5677 -0.1195
 1930SOL    HW217253   0.061   2.013   8.887  0.6530 -1.4886 -0.0747
 1931SOL     OW17254   3.306   0.726   5.128 -0.2015 -0.0668 -0.0215
 1931SOL    HW117255   3.353   0.652   5.167 -0.2605  0.7424  1.5731
 1931SOL    HW217256   3.282   0.777   5.205 -1.9145  0.1939 -0.7403
 1932SOL     OW17257   3.612   1.237  12.137  0.3442 -0.7195 -0.5678
 1932SOL    HW117258   3.539   1.297  12.157  1.9976  1.3857 -0.8145
 1932SOL    HW217259   3.685   1.296  12.156  0.7949 -1.4684 -0.0050
 1933SOL     OW17260   4.521   1.294  12.901  0.4966  0.1808 -0.3875
 1933SOL    HW117261   4.515   1.385  12.930  0.9700  0.8380 -2.3236
 1933SOL    HW217262   4.457   1.280  12.831 -0.2858  0.9149  0.1758
 1934SOL     OW17263   3.881   3.167   6.781  0.2114 -0.3381  0.4778
 1934SOL    HW117264   3.869   3.256   6.747 -0.3472 -0.2320  0.9474
 1934SOL    HW217265   3.829   3.161   6.861  0.7001  1.3136  0.9181
 1935SOL     OW17266   1.283   1.836   4.146 -0.1223 -0.2836  0.1726
 1935SOL    HW117267   1.188   1.830   4.142 -0.1445  0.8407 -1.0303
 1935SOL    HW217268   1.299   1.930   4.153  2.3774 -0.7855  1.4758
 1936SOL     OW17269   0.959   2.650   3.673  0.6649  0.1266 -0.1547
 1936SOL    HW117270   1.026   2.699   3.721  0.5715  0.0948  0.0075
 1936SOL    HW217271   0.978   2.670   3.581 -0.0640 -0.9091 -0.5200
 1937SOL     OW17272   2.497   4.034  17.665 -0.7926 -0.1665 -0.2829
 1937SOL    HW117273   2.491   4.019   0.069  0.3310  0.6019 -0.0801
 1937SOL    HW217274   2.585   4.001  17.647  0.0020  1.4521  0.6712
 1938SOL     OW17275   4.651   2.790   6.489  0.3773  0.1464  0.4492
 1938SOL    HW117276   4.594   2.859   6.456  0.5445  0.4674  0.8386
 1938SOL    HW217277   4.587   2.726   6.519  1.0753 -0.2885  1.0269
 1939SOL     OW17278   0.550   1.723   8.924 -1.3002  0.4809 -0.0340
 1939SOL    HW117279   0.633   1.675   8.927 -1.7873 -0.3758 -0.4423
 1939SOL    HW217280   0.517   1.681   8.845  0.1097 -3.0899  1.3117
 1940SOL     OW17281   4.395   2.711   4.947  0.6515 -0.3539  0.6583
 1940SOL    HW117282   4.456   2.772   4.989 -1.3292 -0.7242  4.1180
 1940SOL    HW217283   4.458   2.641   4.931 -0.1655 -0.5979 -1.4360
 1941SOL     OW17284   2.272   1.197   1.445  0.3098  0.5225 -0.2045
 1941SOL    HW117285   2.336   1.229   1.381 -1.1032  0.9364 -1.4129
 1941SOL    HW217286   2.227   1.277   1.472  0.5299  0.0402  1.6145
 1942SOL     OW17287   4.508   2.268   5.081  0.1086  0.1331 -0.0943
 1942SOL    HW117288   4.421   2.272   5.043 -0.9248 -1.9417  2.0509
 1942SOL    HW217289   4.490   2.223   5.163  2.7308 -1.6601 -0.5103
 1943SOL     OW17290   0.502   1.358   3.266 -0.6113  0.2113  0.6321
 1943SOL    HW117291   0.529   1.295   3.332  4.4127  2.0737  0.3476
 1943SOL    HW217292   0.495   1.293   3.197  0.9575 -0.7056  1.3320
 1944SOL     OW17293   0.340   4.346   2.081  0.6310  0.0597  0.2436
 1944SOL    HW117294   0.254   4.375   2.111  0.4474  0.5576 -0.7659
 1944SOL    HW217295   0.319   4.325   1.990  1.3241 -1.0984  0.3440
 1945SOL     OW17296   3.264   1.661   3.887 -0.8773  0.1152 -0.1138
 1945SOL    HW117297   3.278   1.607   3.965  1.0794 -0.2330 -0.6967
 1945SOL    HW217298   3.322   1.735   3.903 -2.3064  0.9334  1.2244
 1946SOL     OW17299   1.877   4.466   6.256  0.1706 -0.4753  0.2340
 1946SOL    HW117300   1.955   4.515   6.284  0.1218 -0.5843  0.5622
 1946SOL    HW217301   1.813   4.497   6.320  0.0970  1.7733 -0.9295
 1947SOL     OW17302   2.649   2.700  16.927  0.9561 -0.2202  0.1002
 1947SOL    HW117303   2.679   2.713  17.017 -0.0958 -0.3334  0.4690
 1947SOL    HW217304   2.559   2.670  16.942  1.1761 -0.3491  1.1772
 1948SOL     OW17305   3.953   1.517   1.368 -0.0451  0.2047 -0.0418
 1948SOL    HW117306   3.925   1.494   1.456 -0.1194 -0.4769 -0.2363
 1948SOL    HW217307   4.048   1.506   1.375 -0.1190 -1.1836 -1.0652
 1949SOL     OW17308   3.857   1.134   6.225 -0.0671 -0.0052  0.1078
 1949SOL    HW117309   3.835   1.071   6.155 -0.2486 -1.7747  1.7435
 1949SOL    HW217310   3.777   1.136   6.278 -0.6140  1.1179 -0.7758
 1950SOL     OW17311   0.605   2.796   8.028  0.0304  0.5268  0.3814
 1950SOL    HW117312   0.547   2.792   8.104  1.9078 -1.1486  1.7080
 1950SOL    HW217313   0.692   2.770   8.055  0.1143 -0.3914 -0.7616
 1951SOL     OW17314   2.636   0.343   9.202 -0.3847 -0.2274 -0.1007
 1951SOL    HW117315   2.678   0.425   9.177  0.7081  0.0441  2.6171
 1951SOL    HW217316   2.665   0.319   9.290  1.7571  0.3281 -0.6415
 1952SOL     OW17317   1.243   0.901   5.713  0.0637  0.6165  0.1745
 1952SOL    HW117318   1.262   0.813   5.680 -0.2337  2.1312 -4.0200
 1952SOL    HW217319   1.221   0.884   5.805 -1.1160  1.7480  0.0897
 1953SOL     OW17320   1.390   4.375   5.527 -0.7984  1.0651 -0.1847
 1953SOL    HW117321   1.322   4.318   5.491 -1.4985  1.7804  0.0148
 1953SOL    HW217322   1.451   4.384   5.454 -0.6262  0.8064 -0.0749
 1954SOL     OW17323   0.882   3.381   3.323  0.8151  0.2772  0.1455
 1954SOL    HW117324   0.914   3.304   3.368  1.5737 -0.8864 -2.4104
 1954SOL    HW217325   0.791   3.386   3.352  0.8312  1.1080  0.0722
 1955SOL     OW17326   2.326   4.174   0.399 -0.6376  0.3413 -0.4213
 1955SOL    HW117327   2.374   4.257   0.390 -0.5204 -0.0521 -3.4627
 1955SOL    HW217328   2.286   4.178   0.313 -0.9213 -0.5791 -0.3227
 1956SOL     OW17329   1.728   3.441  11.871  0.1517 -0.2728 -0.6414
 1956SOL    HW117330   1.741   3.386  11.793 -0.1847  0.7627 -1.4211
 1956SOL    HW217331   1.736   3.523  11.823 -1.2443  0.1800 -0.0826
 1957SOL     OW17332   3.133   2.775   3.915  0.0767 -0.1240 -0.7644
 1957SOL    HW117333   3.159   2.748   4.004  1.3742 -0.5667 -1.2748
 1957SOL    HW217334   3.170   2.704   3.864  2.4696  0.8254 -0.3499
 1958SOL     OW17335   2.813   0.678   0.748  0.0406 -0.0257 -0.5316
 1958SOL    HW117336   2.846   0.641   0.666 -0.7193 -0.8660 -0.4544
 1958SOL    HW217337   2.794   0.767   0.719  0.7019 -0.7912 -3.3333
 1959SOL     OW17338   3.739   3.592   4.894  0.1024 -0.7227  0.1041
 1959SOL    HW117339   3.830   3.565   4.906 -0.0847 -0.7730  1.4270
 1959SOL    HW217340   3.730   3.665   4.955 -1.0247 -1.4913  0.8653
 1960SOL     OW17341   3.874   1.909  13.769  0.3521 -0.2767 -0.0914
 1960SOL    HW117342   3.912   1.823  13.750 -1.4139 -0.9150 -0.7824
 1960SOL    HW217343   3.941   1.966  13.733  0.3813  0.2489  0.7998
 1961SOL     OW17344   1.138   0.124  16.929 -0.2713  0.1641 -0.6804
 1961SOL    HW117345   1.157   0.036  16.960  1.0838  1.0449  0.9859
 1961SOL    HW217346   1.122   0.097  16.838  2.7579 -3.1954 -0.2187
 1962SOL     OW17347   4.242   3.416   4.440 -0.4388  0.2649  0.5942
 1962SOL    HW117348   4.151   3.436   4.463 -0.8247 -1.6302  0.7770
 1962SOL    HW217349   4.249   3.337   4.495  0.5991  0.8199  1.2573
 1963SOL     OW17350   0.882   1.032   7.360 -0.0765  0.1603 -0.7290
 1963SOL    HW117351   0.850   1.122   7.355 -0.0764  0.1549 -0.8419
 1963SOL    HW217352   0.956   1.058   7.305 -0.9902  1.5032 -1.3188
 1964SOL     OW17353   0.450   0.444   1.957  0.0008  0.1402  0.3475
 1964SOL    HW117354   0.520   0.434   1.893 -1.4372  0.4618 -1.2813
 1964SOL    HW217355   0.398   0.500   1.899  0.9005  0.3618 -0.2440
 1965SOL     OW17356   1.399   4.409  16.986 -0.0843 -0.0461 -0.4587
 1965SOL    HW117357   1.337   4.339  17.006  1.1672 -0.0682  3.4689
 1965SOL    HW217358   1.469   4.392  17.050 -2.8948 -4.3003  1.4934
 1966SOL     OW17359   2.955   1.375   3.115  0.3429  1.2952  0.0692
 1966SOL    HW117360   2.991   1.319   3.046 -2.4640  0.1093 -0.3971
 1966SOL    HW217361   2.881   1.328   3.152  0.7802  0.3772 -0.2257
 1967SOL     OW17362   4.610   3.707   5.539  0.6913 -0.5515 -0.1413
 1967SOL    HW117363   4.636   3.657   5.616 -0.3750 -0.5305  0.2295
 1967SOL    HW217364   4.528   3.748   5.567  0.8579  1.6789 -2.9088
 1968SOL     OW17365   1.618   2.606  10.087 -0.1039 -0.4002 -1.2007
 1968SOL    HW117366   1.689   2.545  10.105 -0.7810 -0.7677  0.2043
 1968SOL    HW217367   1.596   2.621  10.179 -0.3527  0.9166 -1.4763
 1969SOL     OW17368   1.442   2.194  13.355  0.0118 -0.3123 -0.3953
 1969SOL    HW117369   1.405   2.282  13.347 -0.7813 -0.7106 -1.2077
 1969SOL    HW217370   1.424   2.161  13.267 -3.1083 -0.5502  0.3369
 1970SOL     OW17371   0.248   3.010   4.335 -0.0283 -0.1386 -0.2118
 1970SOL    HW117372   0.333   2.967   4.336 -0.1184 -0.3187 -0.2790
 1970SOL    HW217373   0.271   3.096   4.372  0.2423 -1.9357  3.8424
 1971SOL     OW17374   4.433   1.970   5.074  0.2518 -0.0418  0.1443
 1971SOL    HW117375   4.479   1.904   5.126  0.2202 -1.3181 -1.4216
 1971SOL    HW217376   4.396   2.016   5.149 -2.3260  0.5096 -1.4586
 1972SOL     OW17377   0.298   3.310  16.885  0.7138  0.3650 -0.7108
 1972SOL    HW117378   0.378   3.328  16.837  0.5870 -2.2278 -1.8906
 1972SOL    HW217379   0.238   3.355  16.824  1.0548  1.8180  0.0242
 1973SOL     OW17380   4.529   2.285   7.327 -0.6407  0.0303 -0.1099
 1973SOL    HW117381   4.593   2.290   7.397 -1.2281 -0.5126  0.4603
 1973SOL    HW217382   4.579   2.333   7.261  0.9216 -0.1257  0.9605
 1974SOL     OW17383   4.165   4.714   0.885  0.0070 -0.2429 -0.0850
 1974SOL    HW117384   4.257   0.017   0.894  0.1863 -1.4263  1.3348
 1974SOL    HW217385   4.133   0.012   0.973  1.4822  1.4590  0.0744
 1975SOL     OW17386   1.010   0.844   4.191  0.2696 -0.4791  0.2826
 1975SOL    HW117387   1.073   0.916   4.183  0.8623 -1.1393 -1.0281
 1975SOL    HW217388   1.004   0.811   4.101  0.6037 -3.4330  1.3385
 1976SOL     OW17389   3.174   2.898   6.738  0.3784  0.1321 -0.3136
 1976SOL    HW117390   3.096   2.907   6.684  2.7845  2.7214 -3.3132
 1976SOL    HW217391   3.143   2.844   6.811  0.1842 -1.8526 -1.8535
 1977SOL     OW17392   2.082   2.284   3.875  0.1089  0.5059 -0.0583
 1977SOL    HW117393   2.037   2.345   3.817  0.9851  0.6735 -0.5571
 1977SOL    HW217394   2.066   2.335   3.955  1.3410  0.9214 -0.0890
 1978SOL     OW17395   2.595   0.704  15.666 -0.4203  0.0229  0.4609
 1978SOL    HW117396   2.683   0.670  15.685  0.3238 -0.0777 -3.0043
 1978SOL    HW217397   2.601   0.795  15.693 -1.8224 -0.0815  1.1222
 1979SOL     OW17398   1.063   0.138   9.607  0.2824 -0.4749  0.2155
 1979SOL    HW117399   1.123   0.125   9.680  0.9152 -1.6204 -0.5182
 1979SOL    HW217400   1.013   0.214   9.636  2.6422 -0.2589  3.6142
 1980SOL     OW17401   0.727   2.368   4.804  0.4767  0.0255  0.4391
 1980SOL    HW117402   0.703   2.401   4.718 -2.2520 -2.0936  0.3859
 1980SOL    HW217403   0.664   2.410   4.862  0.4699  1.4921 -0.6276
 1981SOL     OW17404   1.730   2.349   0.346 -0.1699  1.4410 -0.1880
 1981SOL    HW117405   1.797   2.414   0.327 -0.3602  1.1877 -1.7425
 1981SOL    HW217406   1.684   2.390   0.419 -1.8124  0.6205 -0.7481
 1982SOL     OW17407   3.816   3.644   7.328 -0.2231 -0.8027 -0.4912
 1982SOL    HW117408   3.843   3.727   7.288  0.5517 -1.3772 -1.1701
 1982SOL    HW217409   3.768   3.677   7.404 -0.4799 -0.1927 -0.9132
 1983SOL     OW17410   1.524   2.217   4.618  0.1758  0.2084 -0.1442
 1983SOL    HW117411   1.541   2.234   4.711 -0.0674 -1.8968  0.2998
 1983SOL    HW217412   1.607   2.242   4.578 -0.9716 -0.7770 -3.1602
 1984SOL     OW17413   1.930   1.180   8.665  0.1095  0.2449 -0.7781
 1984SOL    HW117414   1.974   1.226   8.594  0.6696  1.1745  0.1769
 1984SOL    HW217415   1.907   1.101   8.615 -0.3547 -0.3680  0.4029
 1985SOL     OW17416   2.280   3.164   4.375  0.3856  0.1426 -0.0940
 1985SOL    HW117417   2.277   3.243   4.429 -1.2378  1.4702 -2.1397
 1985SOL    HW217418   2.372   3.140   4.386 -0.5233 -3.6599 -0.9161
 1986SOL     OW17419   1.425   2.012   7.224  0.6051  0.4286  0.0838
 1986SOL    HW117420   1.429   2.102   7.191  1.2042  0.1952 -0.4861
 1986SOL    HW217421   1.512   2.014   7.264 -0.3593  1.3879  2.1021
 1987SOL     OW17422   1.855   3.726   3.129  0.5510  0.4635 -0.4427
 1987SOL    HW117423   1.906   3.772   3.062 -0.6199  0.7892 -1.1061
 1987SOL    HW217424   1.839   3.643   3.084 -0.0768  0.1139  0.4242
 1988SOL     OW17425   1.649   3.624   4.253  0.0393 -0.1577 -0.1280
 1988SOL    HW117426   1.713   3.604   4.184  0.2661  0.1312 -0.0010
 1988SOL    HW217427   1.592   3.547   4.255  0.5078 -0.4345  2.7990
 1989SOL     OW17428   2.279   0.440   2.331 -0.7756 -0.0011 -1.0100
 1989SOL    HW117429   2.261   0.386   2.407  2.1935 -0.3146 -0.5016
 1989SOL    HW217430   2.330   0.380   2.275  1.7044  0.1856  1.0259
 1990SOL     OW17431   1.548   1.580   6.587  0.1019  0.6418  0.6266
 1990SOL    HW117432   1.606   1.578   6.663 -0.3527  1.1873  0.9939
 1990SOL    HW217433   1.559   1.488   6.565 -1.7675  1.2580 -3.0221
 1991SOL     OW17434   2.337   0.637   2.636  0.4488  0.0662 -0.3497
 1991SOL    HW117435   2.294   0.723   2.635 -1.2218 -0.7487  0.9986
 1991SOL    HW217436   2.400   0.646   2.564 -0.0979  0.3749 -0.7886
 1992SOL     OW17437   0.917   2.391   3.103 -0.0386 -0.5444  0.2144
 1992SOL    HW117438   0.890   2.393   3.011  2.4362  0.7542 -0.4656
 1992SOL    HW217439   1.011   2.388   3.088 -0.1925 -0.6884 -0.7803
 1993SOL     OW17440   2.722   0.021   6.594  0.1555 -0.3465 -0.5283
 1993SOL    HW117441   2.734   0.102   6.644 -1.8667 -0.0757 -0.5009
 1993SOL    HW217442   2.808   0.025   6.552  0.3229  0.4636 -0.1017
 1994SOL     OW17443   3.838   3.060   7.281  0.1539 -0.3803 -0.2508
 1994SOL    HW117444   3.795   3.094   7.360  2.2279 -0.2666  0.8503
 1994SOL    HW217445   3.928   3.049   7.313 -0.8239 -0.7265  2.3670
 1995SOL     OW17446   2.121   1.509   5.209 -0.8875 -0.4432  0.0336
 1995SOL    HW117447   2.068   1.442   5.167 -1.4253 -0.3878  0.6250
 1995SOL    HW217448   2.209   1.475   5.191 -0.0133  2.5989 -1.5553
 1996SOL     OW17449   2.986   4.681   3.476 -0.5084  0.4121 -0.0384
 1996SOL    HW117450   3.001   4.614   3.410  2.4947  0.4275  0.6270
 1996SOL    HW217451   3.056   4.667   3.540  0.0710  2.1961 -0.3065
 1997SOL     OW17452   1.712   1.935   7.567  0.0480 -0.3767 -0.0973
 1997SOL    HW117453   1.707   2.011   7.509  0.3208  0.1826  0.6029
 1997SOL    HW217454   1.780   1.964   7.628  0.7896 -1.0173 -0.6107
 1998SOL     OW17455   4.131   1.415  13.984  0.1178 -0.0133  0.3259
 1998SOL    HW117456   4.159   1.504  14.001  0.3195 -0.0949  0.4196
 1998SOL    HW217457   4.171   1.371  14.059 -1.1845 -0.5978  0.6843
 1999SOL     OW17458   0.790   4.572  16.392  0.2843  0.0305 -0.6827
 1999SOL    HW117459   0.735   4.637  16.349  2.0257  2.2638  0.4810
 1999SOL    HW217460   0.814   4.616  16.473 -2.7018 -1.9085  1.2372
 2000SOL     OW17461   0.548   3.070  14.215  0.3273 -0.1950  0.1642
 2000SOL    HW117462   0.628   3.119  14.197 -1.2619  2.7008  1.1044
 2000SOL    HW217463   0.498   3.127  14.272  0.5706 -0.9827  1.1623
 2001SOL     OW17464   2.119   3.072  13.569 -0.7284  0.7929  0.2538
 2001SOL    HW117465   2.139   3.159  13.604 -2.0157 -0.0934  3.1775
 2001SOL    HW217466   2.185   3.074  13.500 -0.8147 -1.0607  0.1200
 2002SOL     OW17467   1.916   3.912   6.150 -0.2165  0.2451 -0.0516
 2002SOL    HW117468   1.941   3.905   6.057 -2.2423  0.7529 -0.6291
 2002SOL    HW217469   1.886   4.003   6.156  0.2080  0.2882  1.2484
 2003SOL     OW17470   2.429   3.136  14.084  0.8651 -0.4236 -0.0034
 2003SOL    HW117471   2.473   3.215  14.053 -0.5946  1.5566  2.9389
 2003SOL    HW217472   2.503   3.089  14.123  1.8645  1.3670  0.2633
 2004SOL     OW17473   3.478   2.669   2.810 -0.0812  0.8953 -0.6043
 2004SOL    HW117474   3.473   2.677   2.906 -2.6283 -0.6420 -0.6017
 2004SOL    HW217475   3.465   2.761   2.789 -3.1261  0.8594  1.1195
 2005SOL     OW17476   3.985   3.809   3.424  0.1191 -0.2010  0.0478
 2005SOL    HW117477   4.072   3.831   3.457  1.3689 -2.5155 -1.6926
 2005SOL    HW217478   3.961   3.728   3.470  2.1909 -0.9078 -0.0975
 2006SOL     OW17479   2.884   4.539  15.138 -0.1684 -0.7859  0.7345
 2006SOL    HW117480   2.955   4.548  15.074 -1.9409  0.6624 -1.0535
 2006SOL    HW217481   2.890   4.445  15.155 -2.4726 -1.1967 -0.5898
 2007SOL     OW17482   0.102   2.107   7.771 -0.5454  0.4140 -0.5376
 2007SOL    HW117483   0.069   2.173   7.832  0.3207  1.0121 -0.7128
 2007SOL    HW217484   0.026   2.065   7.731  0.4411 -0.5033 -1.4635
 2008SOL     OW17485   0.663   0.381  10.886  0.4545 -0.2820  0.1065
 2008SOL    HW117486   0.625   0.303  10.926 -3.1064  1.1460 -0.4206
 2008SOL    HW217487   0.582   0.411  10.845  0.4652  0.4965  0.6456
 2009SOL     OW17488   1.214   0.247  15.128 -0.3973 -0.2271 -0.2371
 2009SOL    HW117489   1.183   0.173  15.075  2.2902 -0.8703 -0.8966
 2009SOL    HW217490   1.166   0.317  15.083  2.1861  1.6064 -0.1214
 2010SOL     OW17491   4.536   4.525   5.007  0.1438 -0.0930 -0.3564
 2010SOL    HW117492   4.517   4.517   5.100 -2.1914  2.6770 -0.6093
 2010SOL    HW217493   4.567   4.436   4.991  0.5185  0.6565 -3.9217
 2011SOL     OW17494   3.552   1.499   9.101 -0.1771  0.0744  0.2306
 2011SOL    HW117495   3.587   1.491   9.189  0.6531  1.9369  0.0686
 2011SOL    HW217496   3.631   1.508   9.047  0.6935  0.2100  1.5228
 2012SOL     OW17497   3.321   1.015   6.918  1.4319 -0.2421 -0.1581
 2012SOL    HW117498   3.231   1.045   6.905  1.2833 -1.2321 -1.4466
 2012SOL    HW217499   3.332   0.973   6.833  0.7683 -0.6095 -0.0668
 2013SOL     OW17500   2.104   0.149   8.532 -0.1352 -0.2852 -0.3090
 2013SOL    HW117501   2.134   0.223   8.585 -2.2911 -0.6092  1.4103
 2013SOL    HW217502   2.012   0.170   8.518 -0.1671  0.7568  1.4413
 2014SOL     OW17503   2.833   0.748  11.242 -0.1888 -0.3225 -0.2424
 2014SOL    HW117504   2.819   0.655  11.231  0.0207 -0.2097 -1.4516
 2014SOL    HW217505   2.924   0.766  11.217 -0.6779  2.0258 -0.3796
 2015SOL     OW17506   4.028   0.020   3.398 -0.8600  0.2592  0.2168
 2015SOL    HW117507   4.116   0.004   3.365 -0.9371 -0.6001  0.4062
 2015SOL    HW217508   4.023   4.692   3.480  1.6794  2.5514  1.7658
 2016SOL     OW17509   3.427   1.818   1.478 -0.0049  0.5863  0.1753
 2016SOL    HW117510   3.483   1.823   1.400  0.6412  3.9399  0.8565
 2016SOL    HW217511   3.447   1.899   1.526  0.8329  1.5078 -1.7299
 2017SOL     OW17512   2.778   3.359   2.729  0.4776 -0.0732  0.3022
 2017SOL    HW117513   2.815   3.282   2.687 -0.4246  0.2552 -1.0664
 2017SOL    HW217514   2.856   3.410   2.753  0.9860 -0.6464 -0.1617
 2018SOL     OW17515   1.341   1.606  17.409  0.8312 -0.3629  0.6698
 2018SOL    HW117516   1.308   1.551  17.337  1.0910 -0.6424  0.7661
 2018SOL    HW217517   1.310   1.687  17.369 -1.4189 -1.4814  0.1447
 2019SOL     OW17518   1.267   0.004  14.324 -0.8143 -0.1929 -0.3123
 2019SOL    HW117519   1.334   4.679  14.374  1.3240  3.3277  0.0779
 2019SOL    HW217520   1.276   4.695  14.234  2.0205 -0.1329 -0.0482
 2020SOL     OW17521   1.572   4.387  12.076  0.2321 -0.6842  0.0039
 2020SOL    HW117522   1.605   4.473  12.050  0.6433 -1.2820 -1.4671
 2020SOL    HW217523   1.535   4.358  11.993 -0.9226  0.8164 -0.0022
 2021SOL     OW17524   4.232   0.658  12.644 -0.2594  0.8467 -0.1449
 2021SOL    HW117525   4.242   0.692  12.555  0.6987 -2.4105 -1.2566
 2021SOL    HW217526   4.277   0.728  12.692 -0.0556  1.6853 -1.5436
 2022SOL     OW17527   1.060   0.562   8.593  0.3505  0.3823  0.4614
 2022SOL    HW117528   1.061   0.636   8.533  0.9798  0.9526  1.1801
 2022SOL    HW217529   1.152   0.547   8.617 -0.3420 -0.8422  2.3179
 2023SOL     OW17530   2.162   2.034  11.375  0.4136  0.0641 -0.1384
 2023SOL    HW117531   2.140   1.956  11.325  0.9982 -0.5313  0.5369
 2023SOL    HW217532   2.255   2.046  11.354  0.7859 -1.6132  0.5937
 2024SOL     OW17533   1.371   4.204  10.153  0.2778 -0.2140  1.0687
 2024SOL    HW117534   1.297   4.190  10.213  0.1626  0.8423  1.1807
 2024SOL    HW217535   1.424   4.265  10.203 -0.0591  0.7881  0.2084
 2025SOL     OW17536   1.921   1.673  17.469 -0.3177  0.5503  0.3638
 2025SOL    HW117537   1.963   1.715  17.544  0.2805 -0.8860  0.8453
 2025SOL    HW217538   1.976   1.697  17.395 -0.1365  1.5331  0.8092
 2026SOL     OW17539   1.929   1.725   1.349  0.3272 -0.1767 -0.3757
 2026SOL    HW117540   2.006   1.682   1.386 -1.5092 -1.5693  1.9065
 2026SOL    HW217541   1.870   1.709   1.424 -1.3297  2.9882 -0.9974
 2027SOL     OW17542   3.378   2.719   5.094 -0.2772  0.1694 -0.0322
 2027SOL    HW117543   3.287   2.716   5.122 -0.5778 -0.4190 -1.0821
 2027SOL    HW217544   3.419   2.789   5.145 -1.5043  0.4085  0.6233
 2028SOL     OW17545   0.133   1.878   7.017 -0.4449 -0.0054 -0.0033
 2028SOL    HW117546   0.055   1.889   7.072  0.0447 -0.2957  0.7513
 2028SOL    HW217547   0.204   1.919   7.065 -0.9253  0.0835  0.6272
 2029SOL     OW17548   0.998   1.764   6.968 -0.4678 -0.1368  0.2611
 2029SOL    HW117549   0.986   1.858   6.980  1.3426 -0.0168  1.0456
 2029SOL    HW217550   1.024   1.763   6.876 -0.1612  0.2299  0.3458
 2030SOL     OW17551   3.464   2.759   1.687 -0.0820 -0.3074 -0.5618
 2030SOL    HW117552   3.466   2.821   1.760 -1.2005 -3.0955  1.8053
 2030SOL    HW217553   3.369   2.754   1.683 -0.0791 -1.0312  0.4370
 2031SOL     OW17554   1.299   2.891  17.045 -0.0331 -0.0215 -0.2734
 2031SOL    HW117555   1.270   2.968  16.995 -0.7387 -0.4666 -0.5617
 2031SOL    HW217556   1.382   2.920  17.083 -0.1104  1.7084 -1.4340
 2032SOL     OW17557   1.090   0.468   4.224 -1.3652  0.4187  0.4799
 2032SOL    HW117558   1.153   0.516   4.170  0.5772 -1.0573  1.4153
 2032SOL    HW217559   1.100   0.517   4.306  1.9903  0.6478 -0.0651
 2033SOL     OW17560   3.548   3.243   4.479  0.1798 -0.3466  0.1178
 2033SOL    HW117561   3.542   3.148   4.465 -1.5273 -0.3000  0.5380
 2033SOL    HW217562   3.531   3.268   4.388  1.9761  1.6484  0.3506
 2034SOL     OW17563   3.103   2.093   7.335 -0.1129 -0.5176  0.1280
 2034SOL    HW117564   3.181   2.057   7.378 -0.8874 -1.1777  0.9849
 2034SOL    HW217565   3.075   2.018   7.283 -2.0330  0.6698 -0.5212
 2035SOL     OW17566   1.739   3.392   3.901 -0.2542  0.1230 -0.4555
 2035SOL    HW117567   1.782   3.439   3.972 -1.4849 -0.0386  0.4079
 2035SOL    HW217568   1.824   3.369   3.863  0.1486 -3.6846  2.7261
 2036SOL     OW17569   4.718   2.094   4.240  0.2277 -1.2317 -0.0078
 2036SOL    HW117570   0.033   2.144   4.168  0.6428 -0.3899  0.7998
 2036SOL    HW217571   4.696   2.016   4.189 -0.9405 -0.0499 -1.3220
 2037SOL     OW17572   3.800   2.948   2.892 -0.1438  0.1456 -0.2500
 2037SOL    HW117573   3.774   2.957   2.983  0.6578 -0.5012  0.0497
 2037SOL    HW217574   3.765   3.030   2.859 -0.5381  0.2722  0.4822
 2038SOL     OW17575   3.742   1.915  17.282 -0.5960  0.4796  0.2425
 2038SOL    HW117576   3.792   1.920  17.201 -2.4912 -0.8712 -1.0194
 2038SOL    HW217577   3.734   1.819  17.287  0.9737  0.4074  1.4089
 2039SOL     OW17578   0.522   2.155  11.475  0.0370 -0.5480 -0.0474
 2039SOL    HW117579   0.507   2.246  11.449 -2.7030 -0.5721  1.5427
 2039SOL    HW217580   0.455   2.141  11.541 -0.6027 -3.1142 -1.2154
 2040SOL     OW17581   1.509   2.098  16.040  0.5858  0.0433 -0.3353
 2040SOL    HW117582   1.501   2.101  15.945  0.4642 -0.7246 -0.3550
 2040SOL    HW217583   1.445   2.027  16.047  0.1691  0.8632  3.8922
 2041SOL     OW17584   3.275   4.455  13.251  0.4735  0.0598  0.1395
 2041SOL    HW117585   3.295   4.523  13.186  1.2229 -1.1320 -0.8776
 2041SOL    HW217586   3.364   4.425  13.268 -0.0362 -2.7843 -2.2286
 2042SOL     OW17587   1.303   0.143   2.719  0.2712  0.0910  0.3911
 2042SOL    HW117588   1.251   0.077   2.767 -0.1682  0.8949  1.0232
 2042SOL    HW217589   1.353   0.081   2.666  0.1718 -0.4881  0.9647
 2043SOL     OW17590   0.602   1.564  11.611  0.1608  0.0644  0.5547
 2043SOL    HW117591   0.550   1.634  11.651 -0.8848 -0.1991 -0.3358
 2043SOL    HW217592   0.693   1.585  11.629  0.4861  1.2516 -2.5306
 2044SOL     OW17593   3.563   3.377   2.089 -0.3767  0.1760  0.3812
 2044SOL    HW117594   3.588   3.445   2.152  0.0217  1.0633 -0.7497
 2044SOL    HW217595   3.535   3.428   2.013  2.0974 -0.1636 -0.7356
 2045SOL     OW17596   4.236   4.689   5.825  0.5077 -0.5346  0.0958
 2045SOL    HW117597   4.276   0.048   5.857  1.1480 -0.3662 -1.1262
 2045SOL    HW217598   4.142   4.709   5.821  1.3140  2.9929 -1.0306
 2046SOL     OW17599   3.929   4.291  10.266  0.5518 -0.0171  0.0099
 2046SOL    HW117600   3.888   4.309  10.182 -0.0277 -0.0300  0.2866
 2046SOL    HW217601   3.879   4.329  10.339  1.2105 -0.8513  0.8894
 2047SOL     OW17602   0.414   2.814   7.830 -0.1490  0.5427  1.0673
 2047SOL    HW117603   0.402   2.720   7.812 -2.3193  0.6604  1.9470
 2047SOL    HW217604   0.484   2.808   7.895 -1.2978  0.9319  2.3183
 2048SOL     OW17605   2.601   2.586   2.712 -0.3000 -0.1110  0.1049
 2048SOL    HW117606   2.695   2.570   2.726 -0.3927 -0.6545  0.1135
 2048SOL    HW217607   2.576   2.520   2.648 -0.2835  1.4211 -1.4757
 2049SOL     OW17608   3.433   2.314  10.786 -0.8251 -0.1074  0.4737
 2049SOL    HW117609   3.377   2.257  10.839 -0.7192 -1.9562 -1.3731
 2049SOL    HW217610   3.523   2.291  10.808 -1.2172 -2.6904 -0.5948
 2050SOL     OW17611   3.848   0.853  10.461  0.4196  0.4783 -0.4654
 2050SOL    HW117612   3.818   0.798  10.388  3.4002 -0.7321 -0.7847
 2050SOL    HW217613   3.787   0.837  10.534  0.7881 -0.6323 -0.3985
 2051SOL     OW17614   1.946   3.087   5.911 -0.8162 -0.3514 -0.0049
 2051SOL    HW117615   1.915   2.997   5.924 -0.8388 -0.1198  1.6284
 2051SOL    HW217616   1.918   3.120   5.997  0.9658  1.0040  0.0516
 2052SOL     OW17617   0.354   3.002  10.043 -0.0014  0.5390  0.2138
 2052SOL    HW117618   0.366   2.985  10.136 -0.4400  0.7657  0.3147
 2052SOL    HW217619   0.348   3.096  10.061 -3.0291  0.6575 -1.4051
 2053SOL     OW17620   0.252   4.593   4.721 -0.6039  0.4142  0.1657
 2053SOL    HW117621   0.214   4.518   4.765 -0.1640  0.1626  0.1174
 2053SOL    HW217622   0.344   4.565   4.722 -0.6445  0.3558  1.3975
 2054SOL     OW17623   3.816   0.842   3.414 -0.4230 -0.4044 -0.1241
 2054SOL    HW117624   3.875   0.842   3.338 -0.4031 -1.6518 -0.1099
 2054SOL    HW217625   3.822   0.752   3.446  2.6214 -0.9767 -2.3064
 2055SOL     OW17626   3.929   2.967  16.605  0.0403 -0.4279 -0.7443
 2055SOL    HW117627   3.921   3.055  16.570 -0.5720 -0.0447  0.3632
 2055SOL    HW217628   3.856   2.966  16.667  0.0490 -2.1592 -0.7501
 2056SOL     OW17629   4.579   2.680   9.308 -0.2748 -0.3617 -0.2479
 2056SOL    HW117630   4.654   2.718   9.355  0.4920 -0.2307 -1.5818
 2056SOL    HW217631   4.593   2.732   9.229 -1.0155 -0.2030 -0.2713
 2057SOL     OW17632   2.910   0.562   7.741  0.4787 -0.6421 -0.6172
 2057SOL    HW117633   2.927   0.491   7.679  0.0287 -0.7175 -0.6549
 2057SOL    HW217634   2.980   0.619   7.709 -0.3322  0.2990 -0.6936
 2058SOL     OW17635   2.793   0.422  13.359  0.5545 -0.7252  0.2171
 2058SOL    HW117636   2.807   0.370  13.280 -1.4754  0.8695 -1.2224
 2058SOL    HW217637   2.704   0.394  13.378  0.7214 -0.1885  1.7548
 2059SOL     OW17638   1.176   1.315   5.641  0.1818  0.2238  0.3630
 2059SOL    HW117639   1.108   1.253   5.669  0.6145  1.2534  3.7393
 2059SOL    HW217640   1.245   1.298   5.705  0.8591 -0.6595 -0.6130
 2060SOL     OW17641   4.542   1.056   7.145 -0.2961 -0.2711 -0.2374
 2060SOL    HW117642   4.495   0.980   7.179  1.4213 -1.6953 -0.9833
 2060SOL    HW217643   4.630   1.017   7.149 -0.4956 -0.5718  0.9870
 2061SOL     OW17644   1.222   0.633   4.478  0.3872 -0.2906  0.4347
 2061SOL    HW117645   1.307   0.650   4.438 -1.2579  1.8371 -2.1687
 2061SOL    HW217646   1.249   0.597   4.562 -0.0884 -1.6576  0.0082
 2062SOL     OW17647   1.187   4.498   3.952 -0.4446 -0.0555 -0.2260
 2062SOL    HW117648   1.172   4.577   4.004 -1.0381 -0.2480 -0.1090
 2062SOL    HW217649   1.111   4.499   3.894  0.5272 -0.7953 -1.5059
 2063SOL     OW17650   3.033   2.417   4.825  0.1828  0.0833  0.1043
 2063SOL    HW117651   3.092   2.467   4.769  0.7145 -0.1792  0.4297
 2063SOL    HW217652   2.993   2.360   4.760  1.0396  1.2889 -1.4710
 2064SOL     OW17653   0.161   0.779   7.253  0.0416 -0.2388 -0.0043
 2064SOL    HW117654   0.130   0.705   7.306 -0.3744 -1.2793 -1.7178
 2064SOL    HW217655   0.115   0.842   7.310  1.2122  0.7976 -0.1982
 2065SOL     OW17656   4.613   2.181  13.249 -0.5419  0.0323 -0.1010
 2065SOL    HW117657   4.646   2.092  13.235 -1.2065 -0.0502 -1.0872
 2065SOL    HW217658   4.531   2.159  13.293 -0.1597  0.8663  1.0393
 2066SOL     OW17659   2.055   2.806   0.484  0.0379  0.2744 -0.3289
 2066SOL    HW117660   2.061   2.760   0.400 -2.7738 -0.8610  0.1270
 2066SOL    HW217661   2.137   2.856   0.480 -1.2145  2.4222  0.7265
 2067SOL     OW17662   0.267   3.371   4.841 -0.4709 -0.2550 -0.1056
 2067SOL    HW117663   0.210   3.327   4.778 -0.6770  0.2764 -0.2984
 2067SOL    HW217664   0.351   3.363   4.795  1.1564  2.2979  2.4172
 2068SOL     OW17665   2.687   2.938   9.127 -0.3163  0.2980  0.1608
 2068SOL    HW117666   2.597   2.913   9.148 -0.2781  2.0102  2.2744
 2068SOL    HW217667   2.690   3.007   9.061  0.3952  0.6083  0.5142
 2069SOL     OW17668   1.358   0.234   7.784  0.0199  0.1271 -0.2242
 2069SOL    HW117669   1.376   0.207   7.874  0.0366 -0.0825 -0.2881
 2069SOL    HW217670   1.277   0.190   7.757 -0.1773 -0.2471  0.9804
 2070SOL     OW17671   2.195   0.498  17.667  0.0138 -0.6446  0.7509
 2070SOL    HW117672   2.100   0.502  17.675  0.0731  0.0230  1.0575
 2070SOL    HW217673   2.223   0.505   0.068  0.0024 -2.3858  0.8933
 2071SOL     OW17674   3.815   3.508  16.304  0.1899  0.0662  0.3338
 2071SOL    HW117675   3.890   3.467  16.347 -0.7430  0.2416  2.1149
 2071SOL    HW217676   3.748   3.498  16.372  0.7179  1.8890  1.1249
 2072SOL     OW17677   1.272   0.132  13.255  0.2876  0.0277  0.2656
 2072SOL    HW117678   1.318   0.121  13.171  0.7169  0.5764  0.4245
 2072SOL    HW217679   1.349   0.131  13.312 -0.2924  1.3495  1.0608
 2073SOL     OW17680   4.337   0.063   7.745  0.0237  0.3865  0.4805
 2073SOL    HW117681   4.261   0.021   7.706  1.9921  0.5822 -3.6454
 2073SOL    HW217682   4.303   0.077   7.833 -0.8142 -0.3135  0.2629
 2074SOL     OW17683   0.203   1.589   7.321 -0.3734 -0.2618  0.0568
 2074SOL    HW117684   0.247   1.582   7.237 -1.9863 -1.0619 -0.7028
 2074SOL    HW217685   0.198   1.684   7.334  0.6858 -0.3067  0.8544
 2075SOL     OW17686   2.922   1.600  16.366 -0.7389  0.5357  0.2879
 2075SOL    HW117687   3.012   1.605  16.396 -1.2645  0.1110  1.9950
 2075SOL    HW217688   2.912   1.505  16.359  0.2063  0.5295 -0.8364
 2076SOL     OW17689   4.406   2.345   5.651 -0.3359 -0.1965 -0.2515
 2076SOL    HW117690   4.437   2.425   5.694 -0.6791 -1.3867  2.2415
 2076SOL    HW217691   4.374   2.292   5.724  0.4124  0.0721  0.2749
 2077SOL     OW17692   0.785   3.310   6.498  0.2129  0.0541  0.8396
 2077SOL    HW117693   0.811   3.380   6.558  4.0017 -2.1053  1.7247
 2077SOL    HW217694   0.851   3.245   6.519  0.8460  0.7093  0.8666
 2078SOL     OW17695   3.408   1.263   9.109 -0.6811  0.3377  0.1351
 2078SOL    HW117696   3.464   1.338   9.090  1.7806 -1.6008 -0.2107
 2078SOL    HW217697   3.341   1.315   9.152  1.9591  4.3529 -0.5786
 2079SOL     OW17698   1.074   1.625   4.011  0.3332  0.5120 -0.3535
 2079SOL    HW117699   1.026   1.617   4.093  1.6653  0.9608  0.4554
 2079SOL    HW217700   1.012   1.686   3.970 -0.0473 -0.0475 -0.6187
 2080SOL     OW17701   4.324   1.523   5.659 -0.2111  0.1291 -0.0835
 2080SOL    HW117702   4.228   1.523   5.657 -0.1571  0.8604 -2.3984
 2080SOL    HW217703   4.344   1.444   5.608 -1.6427 -0.8959  0.9208
 2081SOL     OW17704   0.799   0.468   2.147 -0.4845  0.1030 -0.2336
 2081SOL    HW117705   0.713   0.498   2.177  0.0999  1.9747 -0.3964
 2081SOL    HW217706   0.822   0.514   2.066 -0.2096 -0.1471 -0.2956
 2082SOL     OW17707   3.675   0.871   4.716 -0.0705  0.3079  0.6516
 2082SOL    HW117708   3.628   0.839   4.793  0.5685 -0.0494  0.8918
 2082SOL    HW217709   3.741   0.802   4.709  1.2262  1.6430 -0.3192
 2083SOL     OW17710   3.901   1.893  14.070 -0.5337  0.1309 -0.2825
 2083SOL    HW117711   3.874   1.801  14.063  0.7655 -0.2675 -0.0643
 2083SOL    HW217712   3.973   1.887  14.007 -1.6237 -1.1612 -1.4153
 2084SOL     OW17713   1.808   1.731   4.521 -0.0694 -0.7235 -0.1073
 2084SOL    HW117714   1.730   1.772   4.558 -0.6491 -0.4336 -1.6750
 2084SOL    HW217715   1.777   1.719   4.431  0.9069  0.3139 -0.5679
 2085SOL     OW17716   0.921   0.155   9.996  0.2772 -0.2505  0.1152
 2085SOL    HW117717   0.999   0.178   9.945 -0.4892  0.3063 -0.7931
 2085SOL    HW217718   0.949   0.069  10.027  2.3058 -0.7754 -3.2457
 2086SOL     OW17719   3.391   1.473   4.051  0.1879 -0.2678  0.0991
 2086SOL    HW117720   3.371   1.401   4.111 -1.9845 -0.6072 -1.0206
 2086SOL    HW217721   3.479   1.450   4.020 -0.7446 -1.2981 -1.7449
 2087SOL     OW17722   1.438   0.338  12.945  0.5728  0.5402  0.4431
 2087SOL    HW117723   1.446   0.430  12.921 -0.8890  0.0251 -2.0540
 2087SOL    HW217724   1.479   0.333  13.031  0.0144 -0.4039  0.6541
 2088SOL     OW17725   4.567   1.479   6.763  0.7338 -0.9088  0.1990
 2088SOL    HW117726   4.616   1.512   6.688  1.5352 -1.5156  0.4564
 2088SOL    HW217727   4.614   1.504   6.842  0.8112  1.3674 -0.5762
 2089SOL     OW17728   2.378   0.909   4.269 -0.1002  0.3241 -0.5160
 2089SOL    HW117729   2.292   0.907   4.312 -1.2869  0.2669 -2.8926
 2089SOL    HW217730   2.402   0.998   4.293  0.5118 -0.3803  1.5042
 2090SOL     OW17731   4.680   1.618   8.596  0.3428  0.2256  0.0213
 2090SOL    HW117732   4.656   1.618   8.504 -2.3189  1.7998  0.7025
 2090SOL    HW217733   0.043   1.575   8.584 -0.4753 -1.6859  0.9144
 2091SOL     OW17734   4.495   1.741   7.097  0.3266  0.9168 -0.4136
 2091SOL    HW117735   4.505   1.732   7.192 -2.4121 -1.6962 -0.3737
 2091SOL    HW217736   4.447   1.661   7.077  2.7163 -0.5324 -0.2461
 2092SOL     OW17737   3.986   0.250   7.163 -0.1700  0.2773  0.0068
 2092SOL    HW117738   3.967   0.338   7.131  0.7867  0.0041 -1.3048
 2092SOL    HW217739   4.053   0.227   7.100 -0.0852 -0.0287  0.2071
 2093SOL     OW17740   0.807   0.056   8.852  0.2631 -0.2315 -0.0289
 2093SOL    HW117741   0.860   0.126   8.889 -0.5864  0.3086  0.1493
 2093SOL    HW217742   0.865   0.017   8.786 -0.1828 -2.2381  0.7472
 2094SOL     OW17743   0.541   3.570   4.281  0.2690  0.2957  0.2786
 2094SOL    HW117744   0.503   3.490   4.243 -0.0385  0.5991 -0.0492
 2094SOL    HW217745   0.606   3.539   4.344  0.0746  1.3390  0.9903
 2095SOL     OW17746   2.086   2.354  10.435  0.5112 -0.0724  0.5291
 2095SOL    HW117747   2.164   2.314  10.396  0.6519 -1.4568  2.2019
 2095SOL    HW217748   2.125   2.437  10.460  1.7912 -0.6945  0.6501
 2096SOL     OW17749   0.121   4.225  12.672 -0.4011  0.4977 -0.8207
 2096SOL    HW117750   0.128   4.210  12.766  0.4965  0.0526 -0.9544
 2096SOL    HW217751   0.027   4.234  12.660 -0.8155  0.7421  2.7912
 2097SOL     OW17752   1.329   0.847   0.666 -0.1270 -0.2682 -0.0175
 2097SOL    HW117753   1.405   0.791   0.650 -0.5821 -1.1581  0.9396
 2097SOL    HW217754   1.349   0.877   0.754 -2.2626  0.0054  0.3588
 2098SOL     OW17755   3.603   2.139   4.879  0.0622 -0.2784  0.0197
 2098SOL    HW117756   3.648   2.163   4.798 -0.0311  0.0093  0.0506
 2098SOL    HW217757   3.533   2.075   4.870 -0.6766  0.6812 -0.9411
 2099SOL     OW17758   4.486   3.230   0.961  0.1193 -0.1854  0.6938
 2099SOL    HW117759   4.531   3.171   1.020  0.8490 -0.7418 -0.4257
 2099SOL    HW217760   4.499   3.313   1.008  2.8339  0.5420 -1.3582
 2100SOL     OW17761   4.065   0.834  12.157  0.5495 -0.4792  0.3911
 2100SOL    HW117762   3.985   0.796  12.194 -0.7957  0.4514 -1.5009
 2100SOL    HW217763   4.139   0.804  12.208  0.8073  1.9655  1.4413
 2101SOL     OW17764   0.090   2.448   8.727 -0.0015 -0.1032  0.1487
 2101SOL    HW117765   0.170   2.400   8.705 -0.2861 -0.2148 -0.6396
 2101SOL    HW217766   0.077   2.486   8.641  0.5578  0.0453  0.1333
 2102SOL     OW17767   3.280   0.264   7.556 -0.6568 -0.0757  0.2442
 2102SOL    HW117768   3.184   0.268   7.551 -0.5939 -0.2305 -1.1209
 2102SOL    HW217769   3.299   0.200   7.625 -0.0935  0.0841  0.2389
 2103SOL     OW17770   1.283   3.634   7.170 -0.1097  0.4263 -0.4629
 2103SOL    HW117771   1.306   3.608   7.259  1.8692 -3.8480 -2.2500
 2103SOL    HW217772   1.359   3.605   7.119 -1.2998 -2.5628 -0.5605
 2104SOL     OW17773   3.325   2.891   6.410  0.3970 -0.3833  0.1748
 2104SOL    HW117774   3.415   2.873   6.380  0.1196 -1.1039 -0.2315
 2104SOL    HW217775   3.284   2.806   6.399 -3.7040  1.2132  3.3318
 2105SOL     OW17776   3.524   1.164   5.619  0.4093  0.0626  0.1418
 2105SOL    HW117777   3.559   1.250   5.594 -2.7297  1.4490  0.4715
 2105SOL    HW217778   3.507   1.117   5.538  3.6134  0.8583 -1.0062
 2106SOL     OW17779   4.533   0.634  10.494 -0.1098 -0.4620 -0.2459
 2106SOL    HW117780   4.534   0.624  10.589  0.9516 -1.4275 -0.3614
 2106SOL    HW217781   4.600   0.701  10.497 -1.3103  0.7641 -0.8351
 2107SOL     OW17782   2.043   2.477   9.013  0.1314  0.2747 -0.0606
 2107SOL    HW117783   2.044   2.401   9.071  0.2549  0.3733  0.0662
 2107SOL    HW217784   1.969   2.528   9.047 -1.5438 -0.2081 -2.9919
 2108SOL     OW17785   4.469   2.526   3.833  0.1939  0.0500 -0.2229
 2108SOL    HW117786   4.374   2.525   3.824  0.2879 -3.6383 -1.1828
 2108SOL    HW217787   4.499   2.594   3.773  0.1179  1.2051  1.0585
 2109SOL     OW17788   1.214   3.093   7.691  0.1113  0.6162 -0.2866
 2109SOL    HW117789   1.290   3.150   7.707 -0.1396  0.7294  0.4737
 2109SOL    HW217790   1.257   3.009   7.672  0.3073  0.7302 -0.3489
 2110SOL     OW17791   2.521   2.655   5.684  0.3790 -0.1524  0.9739
 2110SOL    HW117792   2.488   2.652   5.594 -0.9064 -0.7723  1.4732
 2110SOL    HW217793   2.463   2.593   5.728  1.3092 -1.4339  0.4021
 2111SOL     OW17794   2.214   1.555   3.670 -0.1817  0.2960  0.6936
 2111SOL    HW117795   2.163   1.540   3.749 -2.9643 -0.4498 -1.2616
 2111SOL    HW217796   2.184   1.643   3.647  2.4506  1.3537  1.2693
 2112SOL     OW17797   4.440   0.504   5.731 -0.2594  0.3876  0.3310
 2112SOL    HW117798   4.536   0.504   5.724 -0.2885 -1.1381 -0.1687
 2112SOL    HW217799   4.420   0.508   5.824 -1.9463 -2.7145  0.1064
 2113SOL     OW17800   3.836   2.902   2.186 -0.2256 -0.0742 -0.2351
 2113SOL    HW117801   3.746   2.926   2.207  0.8169  3.9710 -0.3191
 2113SOL    HW217802   3.829   2.897   2.090  1.6291  0.3742 -0.4038
 2114SOL     OW17803   4.336   4.491  16.466  0.6055  0.1347 -0.2323
 2114SOL    HW117804   4.372   4.415  16.512  0.4591  0.6316  0.7070
 2114SOL    HW217805   4.400   4.560  16.482 -1.8464  2.2583  0.3982
 2115SOL     OW17806   2.565   2.575  11.235 -0.1785  0.8660 -0.2061
 2115SOL    HW117807   2.657   2.589  11.213  0.3442 -0.4896  1.1776
 2115SOL    HW217808   2.521   2.655  11.205  1.3080  1.3872 -0.9741
 2116SOL     OW17809   1.228   2.862   4.100  0.3309 -0.1266  0.4451
 2116SOL    HW117810   1.143   2.818   4.101 -0.0710  0.7159  2.3379
 2116SOL    HW217811   1.221   2.944   4.149 -3.5030  0.7188 -1.4726
 2117SOL     OW17812   3.949   0.667   6.030  0.0994 -0.2278 -0.2718
 2117SOL    HW117813   3.953   0.592   6.090  0.2705  0.2102  0.2697
 2117SOL    HW217814   3.941   0.737   6.095 -1.7922  0.2317 -0.9909
 2118SOL     OW17815   2.676   2.214   1.632 -0.2666 -0.0215 -0.4348
 2118SOL    HW117816   2.715   2.281   1.575  0.3719  1.6448  1.9473
 2118SOL    HW217817   2.754   2.205   1.687 -0.2311  0.9400 -0.3293
 2119SOL     OW17818   1.491   0.761   7.128  0.7434  0.1311  0.7754
 2119SOL    HW117819   1.497   0.817   7.206  0.2596 -0.3482  1.1569
 2119SOL    HW217820   1.568   0.707   7.145 -0.7469 -1.6989  1.7186
 2120SOL     OW17821   2.822   1.941   4.753 -0.1826 -0.2053  0.1907
 2120SOL    HW117822   2.836   1.957   4.846  0.7583 -0.8668  0.1622
 2120SOL    HW217823   2.911   1.966   4.729 -0.1441 -0.0312  0.5197
 2121SOL     OW17824   3.781   2.543   9.597 -0.4614 -0.2584 -0.1171
 2121SOL    HW117825   3.720   2.513   9.529 -1.0103  1.5735 -0.4365
 2121SOL    HW217826   3.863   2.510   9.561  0.2822  1.2357  0.1856
 2122SOL     OW17827   1.619   3.804   3.305 -0.3342  0.1648  0.0077
 2122SOL    HW117828   1.653   3.778   3.220 -1.1136  0.6446 -0.4505
 2122SOL    HW217829   1.670   3.884   3.321 -0.4094 -0.0249  1.2161
 2123SOL     OW17830   4.163   3.959   8.808  0.1826 -0.3638 -0.2852
 2123SOL    HW117831   4.158   3.906   8.728 -1.3348 -0.5938 -0.0445
 2123SOL    HW217832   4.257   3.974   8.806 -0.1476  1.6015 -0.9922
 2124SOL     OW17833   4.711   1.153   5.402 -0.1054 -0.9823 -0.0101
 2124SOL    HW117834   0.046   1.192   5.469 -0.6307 -1.2124  0.5663
 2124SOL    HW217835   4.632   1.134   5.453  0.1347 -1.8195  0.0509
 2125SOL     OW17836   2.232   3.590   1.930 -0.1171  0.1325 -0.3223
 2125SOL    HW117837   2.213   3.549   1.845  1.7542  0.3766 -0.8526
 2125SOL    HW217838   2.324   3.613   1.919  0.4393 -0.7296  2.6028
 2126SOL     OW17839   2.515   2.513   7.732 -0.1403  0.0180  0.0776
 2126SOL    HW117840   2.593   2.498   7.679  0.3175 -0.4031  0.8641
 2126SOL    HW217841   2.530   2.606   7.752  0.7941 -0.4580  1.6267
 2127SOL     OW17842   2.980   0.955   2.654 -0.3821 -0.6671  0.0467
 2127SOL    HW117843   2.984   0.914   2.568 -1.6311 -0.1215 -0.2739
 2127SOL    HW217844   3.067   0.994   2.664 -1.6557  2.0220  0.6270
 2128SOL     OW17845   2.532   1.811   2.894 -0.0799 -0.0841  0.1097
 2128SOL    HW117846   2.478   1.891   2.894 -1.0215 -0.7295  2.2252
 2128SOL    HW217847   2.551   1.785   2.984 -1.8834 -1.9153 -0.0543
 2129SOL     OW17848   0.938   1.290  13.511 -0.1034 -0.0836  0.0627
 2129SOL    HW117849   1.001   1.284  13.439 -1.0094 -0.5969 -0.6863
 2129SOL    HW217850   0.988   1.264  13.589 -1.5957 -1.0273  0.6942
 2130SOL     OW17851   4.670   0.309   2.856 -0.0563 -0.1121  0.0084
 2130SOL    HW117852   4.635   0.306   2.945 -1.2748 -2.7218 -0.5663
 2130SOL    HW217853   4.591   0.303   2.802 -0.8384 -4.3427  1.6053
 2131SOL     OW17854   3.997   4.586  13.656 -0.4348  0.2550 -0.0179
 2131SOL    HW117855   3.985   4.662  13.713  0.3674  0.8795 -0.6773
 2131SOL    HW217856   3.930   4.605  13.590 -1.0049 -0.3869  0.3809
 2132SOL     OW17857   3.089   0.698   2.883 -0.5526  0.1048 -0.0362
 2132SOL    HW117858   3.012   0.693   2.826  0.0267  0.5046 -0.8494
 2132SOL    HW217859   3.086   0.607   2.913 -0.3755 -0.3440 -1.4277
 2133SOL     OW17860   0.415   3.538   2.348 -0.2077  0.1715 -0.8030
 2133SOL    HW117861   0.505   3.573   2.350 -0.1565  0.0062 -0.2067
 2133SOL    HW217862   0.402   3.529   2.253  2.4868 -1.7498 -1.0181
 2134SOL     OW17863   0.524   2.459   4.956  0.2057 -0.1633  0.4418
 2134SOL    HW117864   0.501   2.419   5.040 -0.5473 -0.9818 -0.1581
 2134SOL    HW217865   0.454   2.437   4.894  1.8917  3.2460 -2.6691
 2135SOL     OW17866   1.689   0.967   0.961  0.1625  0.6090 -0.4701
 2135SOL    HW117867   1.739   0.981   0.880  1.2237 -1.7802 -0.2340
 2135SOL    HW217868   1.651   1.055   0.963 -3.5895 -1.0786  1.2425
 2136SOL     OW17869   3.281   3.278  11.669 -0.1578 -0.4990  0.4306
 2136SOL    HW117870   3.232   3.356  11.643 -0.5199 -1.8777 -2.9921
 2136SOL    HW217871   3.228   3.243  11.739 -0.1284 -0.9167  0.2430
 2137SOL     OW17872   1.619   2.850   6.338 -0.2477  0.3355 -0.1861
 2137SOL    HW117873   1.598   2.887   6.252 -0.8891  0.1086 -0.1235
 2137SOL    HW217874   1.633   2.928   6.391  0.2433  0.2093 -0.1288
 2138SOL     OW17875   3.859   0.801   6.233 -0.3477  0.2310  0.0690
 2138SOL    HW117876   3.789   0.861   6.208 -2.9678 -3.7776 -2.2697
 2138SOL    HW217877   3.910   0.859   6.289  1.2447 -1.0029 -0.1120
 2139SOL     OW17878   1.255   2.837   8.335 -0.6433 -0.2758  0.2339
 2139SOL    HW117879   1.327   2.785   8.370 -1.9240 -2.4060 -0.2885
 2139SOL    HW217880   1.210   2.846   8.419 -0.1575  0.3093  0.4277
 2140SOL     OW17881   2.287   4.542  12.382  0.0537 -0.0049 -0.0404
 2140SOL    HW117882   2.286   4.589  12.465 -0.6426 -0.4703  0.2181
 2140SOL    HW217883   2.269   4.455  12.416  1.0646 -0.2896 -0.2393
 2141SOL     OW17884   4.494   2.077   8.293  0.3537  0.2014 -0.3196
 2141SOL    HW117885   4.457   1.992   8.267 -0.1803  0.1698  0.5092
 2141SOL    HW217886   4.468   2.070   8.385 -0.2927  0.9876 -0.4405
 2142SOL     OW17887   2.128   1.493   8.728 -0.9448 -0.6290  0.3953
 2142SOL    HW117888   2.072   1.567   8.706 -0.3814 -1.8558 -5.0163
 2142SOL    HW217889   2.107   1.491   8.822 -1.8479  1.2468  0.2201
 2143SOL     OW17890   1.591   4.656   8.289  0.1681  0.1270 -0.1827
 2143SOL    HW117891   1.522   4.611   8.339  1.5378 -0.9252  0.7497
 2143SOL    HW217892   1.673   4.620   8.323 -0.7605 -3.4021 -1.6674
 2144SOL     OW17893   1.954   4.176   7.496  0.0497  0.5457 -0.1613
 2144SOL    HW117894   2.027   4.162   7.556 -0.0217  1.6978  0.1923
 2144SOL    HW217895   1.907   4.095   7.514 -2.8449  2.3646  0.6195
 2145SOL     OW17896   1.597   1.176   9.312  0.7933  0.2979  0.3455
 2145SOL    HW117897   1.602   1.262   9.269 -0.3358  1.9129  3.4614
 2145SOL    HW217898   1.513   1.176   9.357  0.3997 -0.7462 -0.4023
 2146SOL     OW17899   3.477   3.099  14.619  0.4951 -0.2595  0.7284
 2146SOL    HW117900   3.457   3.149  14.698 -0.6356  1.0615 -0.3823
 2146SOL    HW217901   3.402   3.039  14.617 -0.7191  1.1878  2.7494
 2147SOL     OW17902   0.668   1.062   5.593  0.1378 -0.2001 -0.6483
 2147SOL    HW117903   0.739   1.037   5.534  1.0458 -1.9759  1.1819
 2147SOL    HW217904   0.660   1.157   5.585 -0.4251 -0.0515  1.4373
 2148SOL     OW17905   3.945   4.180   1.871  0.1735  0.1561  0.1217
 2148SOL    HW117906   4.031   4.206   1.839 -0.1373  0.8392 -0.1544
 2148SOL    HW217907   3.888   4.246   1.832  2.2565  0.6673 -2.0751
 2149SOL     OW17908   0.190   2.952   6.218  0.1495  0.2709  0.2966
 2149SOL    HW117909   0.191   2.887   6.289  0.0604  1.3469  1.2741
 2149SOL    HW217910   0.105   2.995   6.212  0.5428  1.0673  0.4392
 2150SOL     OW17911   1.795   2.174   7.020  0.0944  0.2051  0.4378
 2150SOL    HW117912   1.813   2.087   7.057  1.4783  0.5941  0.6859
 2150SOL    HW217913   1.848   2.225   7.081  0.6053  0.8048 -0.5136
 2151SOL     OW17914   3.949   1.593   6.935  0.4434 -0.5970 -0.5145
 2151SOL    HW117915   3.903   1.604   7.018 -1.4010  0.8756 -1.7350
 2151SOL    HW217916   4.028   1.643   6.956  0.2176  0.4439 -2.1162
 2152SOL     OW17917   2.526   3.038   4.395  0.7583  0.6207 -0.6206
 2152SOL    HW117918   2.604   3.092   4.403  0.1349  1.4972 -0.5094
 2152SOL    HW217919   2.512   3.012   4.486  1.4561  2.7115  0.0807
 2153SOL     OW17920   2.208   1.034   6.595 -0.4544 -0.3926 -0.2759
 2153SOL    HW117921   2.258   0.956   6.620 -2.3564 -1.7284 -0.6395
 2153SOL    HW217922   2.157   0.984   6.531  1.2768 -0.1844 -1.8528
 2154SOL     OW17923   0.844   4.133   1.084 -1.0156  0.4393  0.3156
 2154SOL    HW117924   0.851   4.041   1.111 -1.6277  1.0197  2.4637
 2154SOL    HW217925   0.889   4.129   1.000  1.2604  2.8757  1.4169
 2155SOL     OW17926   1.484   0.585   1.242  0.3462 -0.4598 -0.6897
 2155SOL    HW117927   1.512   0.517   1.303  0.0621 -1.4026 -1.6005
 2155SOL    HW217928   1.564   0.584   1.189 -0.5016 -0.2035 -1.9961
 2156SOL     OW17929   2.930   2.953   6.587  0.0708 -0.4195 -0.6357
 2156SOL    HW117930   2.959   3.044   6.592 -1.1564 -0.1786  2.4478
 2156SOL    HW217931   2.836   2.973   6.593  0.1165 -1.0934  2.3256
 2157SOL     OW17932   0.273   1.008   5.038 -0.4152 -0.0923  0.0539
 2157SOL    HW117933   0.194   1.060   5.055 -0.7560  0.1347 -2.2462
 2157SOL    HW217934   0.248   0.920   5.063  0.8875 -0.3321  0.5255
 2158SOL     OW17935   4.571   3.278   7.174 -0.6502 -0.0591 -0.0476
 2158SOL    HW117936   4.627   3.283   7.096 -1.0419 -0.6839 -0.3662
 2158SOL    HW217937   4.605   3.203   7.222  3.4342  2.2737  0.6958
 2159SOL     OW17938   2.380   1.319   2.013  0.0043  0.5392  0.0708
 2159SOL    HW117939   2.290   1.308   2.042 -0.1863 -0.2857 -0.8440
 2159SOL    HW217940   2.393   1.413   2.022 -1.4655  0.7312  0.1796
 2160SOL     OW17941   0.883   2.291   5.420 -0.1059  0.2163 -0.3071
 2160SOL    HW117942   0.842   2.318   5.338 -2.7548 -1.1320  0.5493
 2160SOL    HW217943   0.941   2.221   5.391  0.5564  1.2671 -1.5375
 2161SOL     OW17944   2.274   0.919   3.969 -0.6569  0.3187 -0.1688
 2161SOL    HW117945   2.356   0.903   4.015 -0.1230  0.0557 -1.2024
 2161SOL    HW217946   2.298   0.997   3.918  0.0695  0.7725  0.8647
 2162SOL     OW17947   4.077   4.290   7.203  0.2169 -0.3699  0.3077
 2162SOL    HW117948   4.002   4.234   7.185  0.6372 -1.2595  1.3154
 2162SOL    HW217949   4.085   4.338   7.120 -0.0361  0.2346  0.6373
 2163SOL     OW17950   2.389   3.822   6.187 -0.5322  0.5274  0.3355
 2163SOL    HW117951   2.469   3.866   6.159  1.1926 -1.3891  2.3666
 2163SOL    HW217952   2.326   3.894   6.197  0.8922  1.7934  0.0863
 2164SOL     OW17953   0.545   1.317   7.962  0.4270 -0.3327  0.0880
 2164SOL    HW117954   0.548   1.399   8.012  0.4672 -0.9040  1.0335
 2164SOL    HW217955   0.542   1.348   7.872 -0.4241 -1.1272 -0.1566
 2165SOL     OW17956   4.249   2.313   5.026  0.1536 -0.1324  0.2458
 2165SOL    HW117957   4.182   2.377   5.003  1.6591  1.1670 -0.5538
 2165SOL    HW217958   4.230   2.259   4.949 -1.3410 -0.7992  1.0867
 2166SOL     OW17959   2.853   3.929   6.108  0.2110 -0.3167 -0.6907
 2166SOL    HW117960   2.866   3.838   6.134 -0.1987  0.1544  1.1826
 2166SOL    HW217961   2.920   3.942   6.041  0.8920 -0.6206 -0.0591
 2167SOL     OW17962   0.223   1.861   7.371  0.5890  0.3502 -0.0839
 2167SOL    HW117963   0.297   1.914   7.342 -0.5384  1.1343 -1.4896
 2167SOL    HW217964   0.227   1.887   7.463 -0.3058  2.1575 -0.5524
 2168SOL     OW17965   4.546   2.579  16.434 -0.1777 -0.1503  0.4659
 2168SOL    HW117966   4.516   2.494  16.404 -0.5005  0.5366 -1.1858
 2168SOL    HW217967   4.621   2.595  16.376  0.3370 -1.5875  0.7288
 2169SOL     OW17968   2.357   0.642   9.781  0.1543 -0.0506  0.2774
 2169SOL    HW117969   2.382   0.734   9.769  0.8721  0.1420  3.2897
 2169SOL    HW217970   2.425   0.609   9.840  2.3316  3.3844 -0.3113
 2170SOL     OW17971   1.726   2.269  17.171  0.2294  0.1759  0.2132
 2170SOL    HW117972   1.699   2.355  17.137  1.6919  0.2402 -0.7501
 2170SOL    HW217973   1.792   2.241  17.108  1.2303  0.4161  1.1685
 2171SOL     OW17974   3.506   0.798   3.510 -0.1662 -0.3450  0.1243
 2171SOL    HW117975   3.555   0.730   3.464 -0.5229  0.1875 -1.0474
 2171SOL    HW217976   3.454   0.811   3.432  1.0157  0.8011 -0.4699
 2172SOL     OW17977   2.430   2.108  16.857 -0.4793  0.4778  0.5688
 2172SOL    HW117978   2.405   2.180  16.799 -1.6805  0.1225  0.6393
 2172SOL    HW217979   2.384   2.035  16.816  0.8521 -0.2528  0.3652
 2173SOL     OW17980   2.258   2.375   4.315 -0.0466  0.0086 -0.2096
 2173SOL    HW117981   2.345   2.346   4.342  0.7792  1.1273 -1.6901
 2173SOL    HW217982   2.260   2.470   4.322  1.4790 -0.0745  0.5397
 2174SOL     OW17983   2.189   3.211  14.524  0.0717  0.4166 -0.3094
 2174SOL    HW117984   2.275   3.177  14.502 -0.6089 -0.1628 -2.0373
 2174SOL    HW217985   2.195   3.204  14.620 -0.7277  2.4903 -0.1113
 2175SOL     OW17986   1.277   4.670  12.098  0.2390 -0.1929 -0.3297
 2175SOL    HW117987   1.271   4.616  12.019  1.3877 -2.8378  1.3701
 2175SOL    HW217988   1.198   4.722  12.084  1.0445  0.4594 -2.3154
 2176SOL     OW17989   1.869   2.032   1.393 -0.6109  0.3254  0.1100
 2176SOL    HW117990   1.909   2.030   1.480 -1.1297 -0.6656  0.3230
 2176SOL    HW217991   1.947   2.042   1.338 -1.1254  1.4221 -0.4159
 2177SOL     OW17992   3.671   2.159  12.467 -0.1701 -0.2018 -0.1849
 2177SOL    HW117993   3.592   2.211  12.475 -0.0881  0.0752 -1.2166
 2177SOL    HW217994   3.701   2.182  12.379 -0.6871 -1.5455 -0.7120
 2178SOL     OW17995   2.868   3.785   4.688  0.2836  0.4450  0.0007
 2178SOL    HW117996   2.935   3.812   4.749  0.8631 -1.5818  0.2664
 2178SOL    HW217997   2.887   3.824   4.603  0.3195  0.0149 -0.1914
 2179SOL     OW17998   1.289   3.601   4.767  0.0125 -0.0801 -0.4728
 2179SOL    HW117999   1.266   3.694   4.762 -1.6671 -0.4177  1.1010
 2179SOL    HW218000   1.270   3.582   4.675 -1.8550  1.6588 -0.4347
 2180SOL     OW18001   0.466   0.266  17.440  0.1269  0.5430 -0.1760
 2180SOL    HW118002   0.487   0.350  17.481 -0.5535  0.4493  0.3706
 2180SOL    HW218003   0.372   0.272  17.428  0.3486  0.1015 -2.1189
 2181SOL     OW18004   1.940   1.773   3.958 -0.2559  0.4362 -0.2965
 2181SOL    HW118005   1.910   1.801   4.044 -2.2117 -1.1100 -0.4929
 2181SOL    HW218006   1.936   1.862   3.922  0.2773  0.1762 -0.9952
 2182SOL     OW18007   1.660   4.227  15.525 -0.0435  0.6616  0.1701
 2182SOL    HW118008   1.668   4.156  15.589  1.0531 -0.1888 -0.9213
 2182SOL    HW218009   1.638   4.185  15.442  0.9540 -0.6805  0.5774
 2183SOL     OW18010   0.702   4.179   0.623 -0.1368 -0.1644  0.5304
 2183SOL    HW118011   0.677   4.229   0.701  1.0232  1.1365  0.0710
 2183SOL    HW218012   0.617   4.135   0.616 -0.2662  0.0842  0.5404
 2184SOL     OW18013   4.415   2.779  16.636  0.9611 -0.4735  0.5038
 2184SOL    HW118014   4.435   2.806  16.726 -1.3488  1.6484  0.3793
 2184SOL    HW218015   4.336   2.830  16.620  1.1692 -0.8812 -1.9043
 2185SOL     OW18016   1.676   2.111  13.015 -0.3322 -0.3923  0.1260
 2185SOL    HW118017   1.763   2.141  13.040 -1.4811  2.6163  0.5121
 2185SOL    HW218018   1.708   2.032  12.971 -0.8112  1.8631 -4.3631
 2186SOL     OW18019   2.970   2.839   6.235  0.3060  0.5736 -0.4717
 2186SOL    HW118020   3.053   2.852   6.280 -0.7250 -0.4419  1.7319
 2186SOL    HW218021   2.924   2.921   6.252 -2.0065 -0.1790 -3.0937
 2187SOL     OW18022   3.304   3.440   4.760 -0.0126  0.0732 -0.0609
 2187SOL    HW118023   3.328   3.460   4.850  2.5496 -1.1852 -0.4701
 2187SOL    HW218024   3.240   3.370   4.776 -2.2917  1.5590 -2.7615
 2188SOL     OW18025   1.515   3.259   8.606  0.1616  0.0947 -0.1976
 2188SOL    HW118026   1.549   3.269   8.694  0.7703  0.4462 -0.4759
 2188SOL    HW218027   1.574   3.186   8.584  1.3895  0.9010  0.4636
 2189SOL     OW18028   0.168   1.344   4.135  0.1758 -0.7908 -0.1073
 2189SOL    HW118029   0.169   1.249   4.147  0.6340 -0.5443  1.8523
 2189SOL    HW218030   0.247   1.358   4.084  0.3598 -2.4074 -0.2640
 2190SOL     OW18031   4.527   1.743   5.218 -0.1446 -0.2018 -0.1695
 2190SOL    HW118032   4.522   1.725   5.312  0.5582 -1.1658 -0.3185
 2190SOL    HW218033   4.536   1.649   5.199  1.1540 -0.2111  0.4572
 2191SOL     OW18034   4.105   0.303   8.536  0.1550 -0.6765  0.3826
 2191SOL    HW118035   4.143   0.240   8.597  0.5441 -0.6536  0.1648
 2191SOL    HW218036   4.020   0.261   8.522  0.2981 -1.3095  1.4469
 2192SOL     OW18037   0.650   0.499   4.791  0.3533 -0.0801 -0.6142
 2192SOL    HW118038   0.679   0.549   4.715 -1.5825  3.0253  0.6869
 2192SOL    HW218039   0.605   0.567   4.842 -0.6128 -2.0609  1.1857
 2193SOL     OW18040   1.419   4.120   7.959  0.0628  0.5792 -0.3591
 2193SOL    HW118041   1.367   4.179   8.013  0.8620  0.4664  0.5372
 2193SOL    HW218042   1.466   4.185   7.906  0.3505  0.1758 -0.5978
 2194SOL     OW18043   3.436   1.885   3.909  0.6286  0.5002  0.3270
 2194SOL    HW118044   3.520   1.924   3.884  0.2533 -0.7592 -2.8695
 2194SOL    HW218045   3.397   1.880   3.822 -0.3302 -0.3107  0.7942
 2195SOL     OW18046   1.434   1.271  11.359 -0.6068 -0.2199 -0.6170
 2195SOL    HW118047   1.350   1.229  11.344 -0.8086  0.7363 -2.1790
 2195SOL    HW218048   1.455   1.312  11.275  1.6672 -0.6939 -0.2936
 2196SOL     OW18049   1.267   3.660   3.134 -0.5541 -0.2942  0.1747
 2196SOL    HW118050   1.196   3.719   3.160  1.5883  2.2848  0.2102
 2196SOL    HW218051   1.219   3.578   3.143 -1.4896  0.5621  2.9267
 2197SOL     OW18052   0.541   0.239   6.018  0.2432 -0.1756  1.0524
 2197SOL    HW118053   0.595   0.262   6.094 -0.7538  1.0491  1.3804
 2197SOL    HW218054   0.522   0.326   5.983 -3.6845 -1.6815 -0.5445
 2198SOL     OW18055   4.480   1.720   5.561 -0.0426  0.0057  0.0911
 2198SOL    HW118056   4.549   1.657   5.538 -1.3483  0.8572 -6.0067
 2198SOL    HW218057   4.430   1.663   5.619 -0.1570 -0.3082 -0.3178
 2199SOL     OW18058   1.422   3.711  13.767  0.1901 -0.5471 -0.2064
 2199SOL    HW118059   1.388   3.800  13.773  0.2316 -0.5865  0.5876
 2199SOL    HW218060   1.363   3.672  13.702  0.4919  0.3587 -1.0234
 2200SOL     OW18061   4.677   2.711  16.663 -0.1561  0.0117 -0.8281
 2200SOL    HW118062   4.600   2.767  16.667 -0.3523 -0.2198 -1.4406
 2200SOL    HW218063   4.632   2.639  16.619  0.8371  0.1282 -2.0444
 2201SOL     OW18064   1.772   1.007   3.463 -0.0286  0.2765  0.1785
 2201SOL    HW118065   1.681   1.007   3.493 -0.7382  0.7814 -1.9771
 2201SOL    HW218066   1.807   1.076   3.519 -0.3635  0.4599  0.1659
 2202SOL     OW18067   3.706   4.332   5.878  0.1604  0.0497  0.1526
 2202SOL    HW118068   3.701   4.310   5.786  0.7170 -0.0651  0.1475
 2202SOL    HW218069   3.645   4.406   5.884 -0.4675 -0.4545 -0.1205
 2203SOL     OW18070   2.980   1.062  14.527 -0.1169 -0.1019 -0.4129
 2203SOL    HW118071   2.952   0.994  14.466 -2.8069  2.0557 -1.5855
 2203SOL    HW218072   2.921   1.036  14.598 -1.0861 -1.0036 -1.5463
 2204SOL     OW18073   4.628   2.325   6.542 -0.2406 -0.2351  0.1834
 2204SOL    HW118074   4.668   2.243   6.572 -1.9641 -1.3095 -0.4740
 2204SOL    HW218075   4.563   2.337   6.611 -0.7578  1.2127 -0.5735
 2205SOL     OW18076   1.484   2.060   1.679  0.1376 -0.0365 -0.2962
 2205SOL    HW118077   1.479   2.146   1.720 -3.5559  0.5715 -2.0439
 2205SOL    HW218078   1.579   2.043   1.684  0.2339  0.4703 -0.4177
 2206SOL     OW18079   4.119   2.193   1.359  0.3281  0.1584  0.0887
 2206SOL    HW118080   4.166   2.149   1.288  1.3728  0.4231  0.6089
 2206SOL    HW218081   4.186   2.253   1.393  0.0627  1.5678 -1.8921
 2207SOL     OW18082   1.274   3.032   4.960  1.0356 -0.0566 -0.1605
 2207SOL    HW118083   1.296   3.053   5.051 -1.0586  0.5647  0.2143
 2207SOL    HW218084   1.199   2.975   4.977  1.2707 -0.7442 -1.4495
 2208SOL     OW18085   1.853   0.272   8.510  0.3249  0.2644  0.2851
 2208SOL    HW118086   1.797   0.317   8.573  0.3132  0.0256  0.4455
 2208SOL    HW218087   1.864   0.341   8.444  2.5598  0.1755  0.5733
 2209SOL     OW18088   2.034   1.780  15.366  0.0377 -0.2774  0.3002
 2209SOL    HW118089   2.103   1.840  15.337  0.2961 -0.2906  0.8783
 2209SOL    HW218090   1.948   1.817  15.346  1.3302  2.0750 -0.9422
 2210SOL     OW18091   3.044   3.384   5.982 -0.3842 -0.4485  0.2569
 2210SOL    HW118092   3.088   3.446   6.039  0.1483  0.9067 -1.6052
 2210SOL    HW218093   3.079   3.298   6.007 -1.3123 -0.7195  0.6058
 2211SOL     OW18094   2.890   3.338   7.363 -0.1218  0.4542 -0.4734
 2211SOL    HW118095   2.795   3.339   7.375 -0.2096  1.2040 -1.2220
 2211SOL    HW218096   2.903   3.360   7.271  1.1276  3.2878  0.3704
 2212SOL     OW18097   1.964   0.008  13.120 -0.1100 -0.1289  0.7377
 2212SOL    HW118098   1.933   0.042  13.036 -1.4337 -2.0051  0.4870
 2212SOL    HW218099   1.990   0.091  13.161  0.8376 -1.4262  2.7373
 2213SOL     OW18100   0.352   1.748  17.158 -0.0009 -0.1400 -0.3499
 2213SOL    HW118101   0.309   1.720  17.239 -1.1633 -0.8820 -1.2095
 2213SOL    HW218102   0.441   1.725  17.184  0.6394  0.2211 -2.2237
 2214SOL     OW18103   4.141   3.177   0.461 -0.3673 -0.6029 -0.0608
 2214SOL    HW118104   4.207   3.245   0.448 -0.7973 -0.4056 -1.1871
 2214SOL    HW218105   4.191   3.106   0.502  1.2371  0.2866 -0.4900
 2215SOL     OW18106   3.750   4.190   6.120  0.0667  0.0625 -0.1759
 2215SOL    HW118107   3.758   4.235   6.035 -0.6662  0.6975  0.0902
 2215SOL    HW218108   3.834   4.144   6.124  0.7767  1.5385  1.4640
 2216SOL     OW18109   0.794   1.969   5.976  0.1505  0.0353  0.3670
 2216SOL    HW118110   0.794   2.044   5.917  0.0137 -0.9488 -0.8798
 2216SOL    HW218111   0.778   2.006   6.063 -1.4341 -1.6590  0.7763
 2217SOL     OW18112   1.181   0.909   1.870 -0.2710 -0.5102 -0.2598
 2217SOL    HW118113   1.210   0.950   1.789  1.4186 -0.9642  0.1237
 2217SOL    HW218114   1.228   0.827   1.856  2.5682  1.0030  0.5466
 2218SOL     OW18115   2.530   4.063  11.469  0.6970  0.2870  0.2666
 2218SOL    HW118116   2.448   4.087  11.513 -0.0445 -1.5625 -0.1317
 2218SOL    HW218117   2.507   4.077  11.377 -0.5725 -1.3668  0.3330
 2219SOL     OW18118   1.222   3.532   0.981  0.1223  0.3360 -0.0506
 2219SOL    HW118119   1.153   3.487   1.031  1.2216  0.3350  1.4498
 2219SOL    HW218120   1.168   3.585   0.923  1.2945  0.3004 -1.1598
 2220SOL     OW18121   1.118   1.816   7.444 -0.1150  0.3381 -0.2504
 2220SOL    HW118122   1.145   1.907   7.459 -1.3398  0.8188 -0.9898
 2220SOL    HW218123   1.162   1.815   7.359 -2.1099 -0.9630 -1.2668
 2221SOL     OW18124   0.829   3.729  13.270  0.2778 -0.5414  0.0106
 2221SOL    HW118125   0.822   3.710  13.176  0.9765 -1.7941  0.2159
 2221SOL    HW218126   0.736   3.735  13.294 -0.1187 -1.9052 -1.1333
 2222SOL     OW18127   3.375   1.891   3.637  0.0551 -0.1300 -0.0430
 2222SOL    HW118128   3.446   1.912   3.577 -0.3613 -0.5502 -0.6802
 2222SOL    HW218129   3.331   1.832   3.577 -1.4040  3.0696 -2.1047
 2223SOL     OW18130   2.720   1.024   1.152  0.3917  0.2629 -0.6023
 2223SOL    HW118131   2.747   1.103   1.198 -0.5964  0.5467 -0.4994
 2223SOL    HW218132   2.671   1.054   1.075  1.0736  0.4403 -0.9711
 2224SOL     OW18133   3.597   1.676   4.045  0.4286 -0.1920  0.0251
 2224SOL    HW118134   3.511   1.647   4.076  0.5919 -0.5811  0.1064
 2224SOL    HW218135   3.599   1.762   4.088  0.1894 -0.4497  0.5658
 2225SOL     OW18136   1.779   2.063   3.350  0.2074  0.1322  0.3942
 2225SOL    HW118137   1.795   2.126   3.420  3.2908 -0.5785  0.3138
 2225SOL    HW218138   1.785   1.981   3.399 -3.0942 -1.6211 -2.1507
 2226SOL     OW18139   1.770   4.324   9.439  0.0610  0.2527  0.0911
 2226SOL    HW118140   1.833   4.355   9.374  2.5041  0.2776  2.4734
 2226SOL    HW218141   1.800   4.360   9.523 -1.0557  0.1280  0.5387
 2227SOL     OW18142   1.233   0.531  14.210 -0.0877 -0.9107  0.3148
 2227SOL    HW118143   1.322   0.496  14.209  0.0243 -0.5834 -1.6656
 2227SOL    HW218144   1.182   0.457  14.244 -0.3061 -0.0927  1.7398
 2228SOL     OW18145   4.353   3.858   2.128  0.0044  0.1843  0.0683
 2228SOL    HW118146   4.302   3.894   2.055  0.3882 -1.9498 -1.2607
 2228SOL    HW218147   4.290   3.797   2.166  1.1818 -2.1285 -1.6261
 2229SOL     OW18148   0.817   0.819   5.817 -0.5662 -0.0290  0.1247
 2229SOL    HW118149   0.818   0.811   5.722  1.4050 -1.8402  0.3010
 2229SOL    HW218150   0.881   0.889   5.827 -0.6647 -0.2291  2.2215
 2230SOL     OW18151   2.993   2.608   9.588  0.6719 -0.2206  0.5152
 2230SOL    HW118152   3.004   2.583   9.496  1.7450  0.6757  0.4037
 2230SOL    HW218153   3.058   2.546   9.621 -0.6932 -0.8018  2.1262
 2231SOL     OW18154   2.914   4.408   1.543 -0.4306 -0.4710  0.4974
 2231SOL    HW118155   2.896   4.457   1.623 -0.0171 -0.7012  0.7271
 2231SOL    HW218156   2.888   4.468   1.473 -2.0414  0.9300  2.2976
 2232SOL     OW18157   0.147   3.157  13.287  0.4729 -0.2384 -0.8704
 2232SOL    HW118158   0.053   3.153  13.307  1.1144 -3.0214  1.5287
 2232SOL    HW218159   0.188   3.130  13.369 -0.8800 -1.5324 -0.6108
 2233SOL     OW18160   3.078   2.136   6.907 -0.3458 -0.0243  0.2790
 2233SOL    HW118161   3.131   2.209   6.942 -1.2831  0.3747  0.8583
 2233SOL    HW218162   3.010   2.125   6.973  0.3200  0.3689  1.0261
 2234SOL     OW18163   0.829   2.234   4.490  0.0726 -0.3706 -0.4369
 2234SOL    HW118164   0.887   2.187   4.431  0.7622 -2.1605  1.6813
 2234SOL    HW218165   0.834   2.171   4.561 -0.6666  1.7178  1.4547
 2235SOL     OW18166   0.792   4.596   9.422  0.1280 -0.2654  0.3932
 2235SOL    HW118167   0.764   4.557   9.339  0.8322 -0.7647  0.3935
 2235SOL    HW218168   0.795   4.690   9.403 -2.0450 -0.5840 -1.6960
 2236SOL     OW18169   2.500   1.354  11.347 -0.4067 -0.1105  0.0854
 2236SOL    HW118170   2.552   1.357  11.267  2.1219  0.0804  1.7367
 2236SOL    HW218171   2.465   1.442  11.359  0.9698  0.0209  3.0854
 2237SOL     OW18172   0.673   0.645   8.975  0.3647  0.5827 -0.0506
 2237SOL    HW118173   0.747   0.666   9.031  0.1293  0.6089  0.2544
 2237SOL    HW218174   0.673   0.551   8.993 -0.7411  0.6496  0.3235
 2238SOL     OW18175   1.730   0.744   5.742  0.3956  0.2928  0.0312
 2238SOL    HW118176   1.645   0.765   5.704 -0.7046 -0.9269  1.8188
 2238SOL    HW218177   1.736   0.649   5.728 -0.5466  0.1028  0.9128
 2239SOL     OW18178   1.033   2.874   2.532 -0.3200 -0.2758  0.1265
 2239SOL    HW118179   0.949   2.828   2.521 -1.7028  2.4886 -0.8362
 2239SOL    HW218180   1.010   2.927   2.608 -0.2517  1.4541 -1.0599
 2240SOL     OW18181   2.725   0.328   6.659 -0.1615  0.3639 -0.1221
 2240SOL    HW118182   2.747   0.282   6.740  0.5716 -1.8672 -1.5586
 2240SOL    HW218183   2.810   0.371   6.650  0.5233 -1.2321 -1.4481
 2241SOL     OW18184   0.113   3.633   3.290 -0.0378  0.2786 -0.4829
 2241SOL    HW118185   0.180   3.568   3.312 -1.5247 -0.5138  1.5937
 2241SOL    HW218186   0.155   3.679   3.217  1.2769 -0.8861 -0.4636
 2242SOL     OW18187   2.958   2.009   3.621  0.3650  0.0679 -0.3127
 2242SOL    HW118188   2.927   1.962   3.544 -1.7453  0.3505  0.3604
 2242SOL    HW218189   2.922   2.097   3.611 -0.9082 -0.0696  2.9533
 2243SOL     OW18190   2.956   1.685  14.338 -0.0645 -0.0876 -0.1177
 2243SOL    HW118191   2.969   1.778  14.320  1.3524 -0.1151  0.7947
 2243SOL    HW218192   3.027   1.641  14.291 -0.1765 -0.5659  0.1567
 2244SOL     OW18193   2.906   2.089  14.938 -0.0272  0.6177  0.1132
 2244SOL    HW118194   2.993   2.059  14.911 -0.0809  1.6423 -1.2299
 2244SOL    HW218195   2.920   2.158  15.003 -2.0587  0.8956  0.2541
 2245SOL     OW18196   3.341   3.177   6.677  0.3373  0.0059  0.0991
 2245SOL    HW118197   3.299   3.099   6.712  0.3373  0.5972  1.4235
 2245SOL    HW218198   3.268   3.231   6.647  1.2324  0.7017 -0.8397
 2246SOL     OW18199   4.361   3.222   4.083 -0.0869  0.3257 -0.2026
 2246SOL    HW118200   4.391   3.163   4.013  0.3606 -1.5593  1.5816
 2246SOL    HW218201   4.393   3.310   4.064  0.4631 -0.0054 -0.8468
 2247SOL     OW18202   0.500   4.109   6.679  0.5382 -0.3481 -0.3414
 2247SOL    HW118203   0.576   4.147   6.723 -0.5156 -1.3406  2.3428
 2247SOL    HW218204   0.453   4.192   6.666 -0.6512 -0.9573  0.0502
 2248SOL     OW18205   0.872   1.633   6.307 -0.0261 -0.4057 -0.1197
 2248SOL    HW118206   0.958   1.590   6.308 -0.6700 -1.7691 -3.7874
 2248SOL    HW218207   0.876   1.663   6.216 -2.7577 -1.3564 -0.5548
 2249SOL     OW18208   2.855   4.556  15.496  0.0339 -0.0574 -0.4012
 2249SOL    HW118209   2.841   4.564  15.402 -0.2742  1.0693 -0.2570
 2249SOL    HW218210   2.785   4.500  15.532 -0.2175  1.0834  0.9053
 2250SOL     OW18211   3.707   2.139   5.792 -0.7322  0.2062  0.0364
 2250SOL    HW118212   3.715   2.223   5.745  0.1554 -0.9637 -1.9164
 2250SOL    HW218213   3.680   2.163   5.880 -1.7659  2.0423 -0.7655
 2251SOL     OW18214   4.615   3.305  15.083 -0.2708 -0.5591  0.2747
 2251SOL    HW118215   4.677   3.292  15.011  0.2008  0.2985  0.5248
 2251SOL    HW218216   4.530   3.273  15.052 -0.1569  1.5941 -2.2436
 2252SOL     OW18217   1.320   3.047   6.843  0.2763  0.7065  0.0783
 2252SOL    HW118218   1.277   3.094   6.771 -0.4384  0.8323  0.5923
 2252SOL    HW218219   1.375   2.987   6.792  1.3409  2.3782 -0.7885
 2253SOL     OW18220   0.643   3.917  15.337 -0.1434 -0.2383 -0.1143
 2253SOL    HW118221   0.729   3.957  15.319 -0.1615  0.4856  1.4388
 2253SOL    HW218222   0.584   3.992  15.331  1.3505  1.0539  1.1785
 2254SOL     OW18223   2.994   2.457   3.930  0.5133  0.4142 -0.0901
 2254SOL    HW118224   3.058   2.419   3.869 -1.7085 -0.8334 -1.6300
 2254SOL    HW218225   2.944   2.501   3.861  0.0940  0.5938  0.3304
 2255SOL     OW18226   3.400   1.556   3.652  0.5521  0.4154  0.2081
 2255SOL    HW118227   3.325   1.555   3.592 -0.0789  0.5264  0.9879
 2255SOL    HW218228   3.353   1.580   3.732  1.4431  2.4315  0.1088
 2256SOL     OW18229   3.208   4.391  11.069  0.2591  0.3665 -0.5966
 2256SOL    HW118230   3.298   4.359  11.058 -0.7254 -1.6597 -2.6665
 2256SOL    HW218231   3.190   4.407  10.977  1.3081  1.5057 -0.6008
 2257SOL     OW18232   2.007   2.482   3.644  0.7089 -0.3585 -0.4298
 2257SOL    HW118233   1.964   2.527   3.572  1.0217  0.0969 -0.3320
 2257SOL    HW218234   2.001   2.553   3.708 -1.6451 -1.6055  0.7446
 2258SOL     OW18235   4.356   4.393   6.701  0.3952 -0.1342 -0.1887
 2258SOL    HW118236   4.386   4.361   6.786 -1.6607 -0.4635  0.4268
 2258SOL    HW218237   4.440   4.405   6.657  2.3685 -4.5275  2.3764
 2259SOL     OW18238   0.267   2.532   2.128  0.1490  0.6724  0.1287
 2259SOL    HW118239   0.194   2.528   2.189 -0.2894  1.9653 -0.3109
 2259SOL    HW218240   0.235   2.473   2.060  1.1652  1.3549 -0.9514
 2260SOL     OW18241   4.113   1.104   5.141 -0.2563  0.2915  0.0913
 2260SOL    HW118242   4.148   1.020   5.112  0.3810  1.1590 -1.6809
 2260SOL    HW218243   4.058   1.123   5.065 -0.0390 -0.4379 -0.2473
 2261SOL     OW18244   0.642   2.743  13.287  0.1548  0.0095  0.2571
 2261SOL    HW118245   0.613   2.717  13.199  3.0156 -0.7023 -0.4673
 2261SOL    HW218246   0.689   2.824  13.268 -0.5631  0.4246  0.2407
 2262SOL     OW18247   1.391   2.028   4.468  0.5325 -0.2706 -0.1682
 2262SOL    HW118248   1.450   2.078   4.524  2.0567 -0.8280 -1.2688
 2262SOL    HW218249   1.335   1.994   4.538 -1.7308 -1.3923 -2.5125
 2263SOL     OW18250   3.989   2.993   0.726  0.5313  0.0016  0.2279
 2263SOL    HW118251   3.954   2.910   0.694  0.9562  0.8275 -2.3979
 2263SOL    HW218252   4.052   3.004   0.654 -2.4693  3.8327 -1.8307
 2264SOL     OW18253   3.509   1.297   2.948  0.0233 -0.5093 -0.2338
 2264SOL    HW118254   3.492   1.389   2.930 -0.6352 -0.7232 -0.7120
 2264SOL    HW218255   3.581   1.302   3.010 -0.5241  0.0235  0.3549
 2265SOL     OW18256   1.377   1.687   6.858  0.0427  0.3104 -0.3670
 2265SOL    HW118257   1.344   1.667   6.946  0.4914  1.9149  0.1790
 2265SOL    HW218258   1.458   1.637   6.858  0.3633  0.8273  0.7482
 2266SOL     OW18259   0.820   3.179   7.967  0.3853  0.6557  0.2351
 2266SOL    HW118260   0.749   3.117   7.949  1.0485 -0.8192  2.6440
 2266SOL    HW218261   0.787   3.257   7.922 -2.2317 -0.2210  0.6374
 2267SOL     OW18262   3.535   4.438   2.529  0.3377  0.0253 -0.3893
 2267SOL    HW118263   3.440   4.425   2.537  0.4939 -0.9364 -0.1307
 2267SOL    HW218264   3.546   4.531   2.511 -0.6452  0.6309  2.0708
 2268SOL     OW18265   0.031   1.061  10.079 -0.5899 -0.0946 -0.2447
 2268SOL    HW118266   0.110   1.040  10.128  0.0433  2.0880 -0.3146
 2268SOL    HW218267   4.715   1.125  10.140 -0.4418 -0.5413  0.3127
 2269SOL     OW18268   1.325   2.025   3.441 -0.4345 -0.0545  0.1017
 2269SOL    HW118269   1.289   2.087   3.377 -1.3989 -0.2744  0.4383
 2269SOL    HW218270   1.302   1.942   3.400 -0.1947 -0.7201  1.3189
 2270SOL     OW18271   0.636   3.969   9.268 -0.1649 -0.1774  0.0198
 2270SOL    HW118272   0.600   4.046   9.224  2.1983  0.4128 -0.8875
 2270SOL    HW218273   0.729   3.985   9.252  0.1700  0.6559  2.9494
 2271SOL     OW18274   2.711   3.916   7.014  0.4513 -0.2670  0.5560
 2271SOL    HW118275   2.632   3.862   7.008  1.0402 -0.8754 -1.7763
 2271SOL    HW218276   2.688   4.009   7.023 -0.8097 -0.8977  3.7395
 2272SOL     OW18277   1.537   2.065  10.077  0.9582  0.7117  0.7736
 2272SOL    HW118278   1.557   2.127  10.147 -0.3711  1.9586  0.0355
 2272SOL    HW218279   1.627   2.039  10.058 -0.5647 -2.6888 -1.7847
 2273SOL     OW18280   0.536   3.892  14.624  0.1956 -0.3941  0.5374
 2273SOL    HW118281   0.592   3.848  14.687  3.2101  2.1789 -0.3481
 2273SOL    HW218282   0.568   3.980  14.642  1.1304 -0.2885 -1.6423
 2274SOL     OW18283   0.899   3.354   7.581 -0.0058 -0.2914  0.4936
 2274SOL    HW118284   0.843   3.335   7.505 -1.8755 -0.2371  1.8501
 2274SOL    HW218285   0.913   3.264   7.609  0.7380 -0.4814 -0.4924
 2275SOL     OW18286   2.787   3.859   8.861  0.3008 -0.2013 -0.0022
 2275SOL    HW118287   2.855   3.920   8.836 -0.8888  1.1046 -0.0566
 2275SOL    HW218288   2.789   3.804   8.782 -0.7128  1.2932 -1.0560
 2276SOL     OW18289   4.228   3.504   9.858  0.0989 -0.1220 -0.4440
 2276SOL    HW118290   4.285   3.465   9.924 -1.7677  0.5060  1.5006
 2276SOL    HW218291   4.211   3.434   9.794 -1.5561  0.8162 -1.0095
 2277SOL     OW18292   4.051   2.634   5.191 -0.8736  0.1908 -0.3301
 2277SOL    HW118293   4.089   2.610   5.107 -3.4938 -1.1633 -1.1241
 2277SOL    HW218294   4.032   2.548   5.230  2.6564 -0.6669 -0.5382
 2278SOL     OW18295   4.676   1.019   3.437 -0.1592 -0.2459 -0.4993
 2278SOL    HW118296   4.716   1.105   3.448  0.2516 -0.4753 -0.1999
 2278SOL    HW218297   4.612   1.042   3.369 -1.0654 -1.1939  0.0221
 2279SOL     OW18298   3.835   3.320   6.124  0.4548  0.3395 -0.2264
 2279SOL    HW118299   3.858   3.355   6.210  0.0712 -0.1921  0.0963
 2279SOL    HW218300   3.821   3.227   6.144 -2.3682  1.3033  2.3588
 2280SOL     OW18301   2.324   2.044   0.571 -0.4577  0.0630 -0.1150
 2280SOL    HW118302   2.250   2.102   0.586  0.3739  0.8920  0.7543
 2280SOL    HW218303   2.361   2.050   0.659  2.1577 -0.8632 -1.1561
 2281SOL     OW18304   4.537   3.915   7.937  0.4624  0.0180 -0.2885
 2281SOL    HW118305   4.554   4.000   7.896 -0.1471  0.0696 -0.4359
 2281SOL    HW218306   4.469   3.938   8.000 -0.8770  1.1541 -2.1450
 2282SOL     OW18307   0.739   1.279   9.657  0.1894  0.2588  0.4722
 2282SOL    HW118308   0.827   1.317   9.649  0.0293  0.7147  0.9207
 2282SOL    HW218309   0.743   1.210   9.591  0.1329  0.3172  0.4082
 2283SOL     OW18310   1.353   0.583  13.657 -0.2167  0.3410 -0.2612
 2283SOL    HW118311   1.333   0.490  13.646  1.7040  0.0037 -0.9929
 2283SOL    HW218312   1.375   0.592  13.750  0.8064 -0.7215 -0.3972
 2284SOL     OW18313   3.643   4.084  17.357  0.0686 -0.1605 -0.5545
 2284SOL    HW118314   3.648   3.989  17.349  1.6669 -0.0083 -1.2926
 2284SOL    HW218315   3.604   4.093  17.444  2.3732  0.9269  0.3645
 2285SOL     OW18316   1.526   0.971   2.094 -0.6210  0.3392  0.3523
 2285SOL    HW118317   1.543   0.881   2.068 -0.8036  0.7510 -1.1536
 2285SOL    HW218318   1.496   1.014   2.014 -0.2554 -0.3934 -0.1768
 2286SOL     OW18319   3.575   4.114   2.807 -0.5109 -0.2387  0.7230
 2286SOL    HW118320   3.538   4.087   2.891  0.1047  0.9434  1.3670
 2286SOL    HW218321   3.653   4.158   2.841  0.4362  0.6001 -2.4904
 2287SOL     OW18322   1.197   1.258   3.666  0.2626 -0.1711 -0.5279
 2287SOL    HW118323   1.155   1.223   3.587 -1.6006  0.2026  0.3064
 2287SOL    HW218324   1.289   1.274   3.644 -0.7872  2.5712 -2.9224
 2288SOL     OW18325   3.101   0.684   6.388  0.3014  0.3708  0.1152
 2288SOL    HW118326   3.054   0.750   6.335 -0.3789  0.3629  0.7071
 2288SOL    HW218327   3.190   0.720   6.386  0.6565 -0.4837  1.0223
 2289SOL     OW18328   2.872   1.292  16.155 -0.3068  0.0894  0.1420
 2289SOL    HW118329   2.883   1.297  16.250 -0.3729 -0.4388  0.1821
 2289SOL    HW218330   2.872   1.197  16.143  2.0982  0.1805 -0.6282
 2290SOL     OW18331   4.052   0.214   5.652 -0.0128  0.0721 -0.2981
 2290SOL    HW118332   4.044   0.170   5.568 -2.1014 -0.3756  0.1428
 2290SOL    HW218333   3.985   0.280   5.635 -1.8179 -1.4245  1.1082
 2291SOL     OW18334   0.383   3.881   8.113  0.1235 -0.2161  0.4203
 2291SOL    HW118335   0.305   3.935   8.101  0.1713 -0.1640  0.3476
 2291SOL    HW218336   0.439   3.952   8.145 -0.2852  0.4640 -0.3762
 2292SOL     OW18337   4.021   4.710  12.647  0.5742  0.1637 -0.9313
 2292SOL    HW118338   4.012   0.081  12.625  0.8424  0.2676 -0.5875
 2292SOL    HW218339   3.928   4.686  12.638  0.5344  0.2548 -0.7703
 2293SOL     OW18340   3.108   3.986   3.652 -0.0804 -0.3440 -0.3063
 2293SOL    HW118341   3.056   4.062   3.677  1.8221  1.0909 -0.7415
 2293SOL    HW218342   3.179   4.032   3.607 -1.2533  0.1834 -1.5954
 2294SOL     OW18343   1.006   2.315   6.916  0.1643 -0.1798  0.4755
 2294SOL    HW118344   0.985   2.225   6.939  0.3341  0.0540  1.5527
 2294SOL    HW218345   1.075   2.317   6.850 -0.2812  3.9002  0.0901
 2295SOL     OW18346   3.754   3.181   0.529 -0.1377 -0.4928  0.2325
 2295SOL    HW118347   3.739   3.250   0.465 -1.0262 -1.3072 -0.4178
 2295SOL    HW218348   3.850   3.183   0.537 -0.0113 -1.9593 -0.9968
 2296SOL     OW18349   0.728   4.131   5.746  0.0721  0.8573  0.1030
 2296SOL    HW118350   0.689   4.047   5.771  0.5887  0.2614 -1.0980
 2296SOL    HW218351   0.647   4.182   5.738  0.7054  1.5781 -1.7541
 2297SOL     OW18352   4.717   4.196   7.192  0.1232  0.4346 -0.4860
 2297SOL    HW118353   0.075   4.228   7.235  0.4768  0.9180 -1.5133
 2297SOL    HW218354   0.017   4.199   7.099  1.9605 -0.3200 -0.0766
 2298SOL     OW18355   2.875   3.647   6.468 -0.4136 -0.2706  0.4699
 2298SOL    HW118356   2.828   3.721   6.507 -0.7531  0.3534 -1.1255
 2298SOL    HW218357   2.947   3.638   6.531 -0.5013 -1.1679  0.4436
 2299SOL     OW18358   0.540   2.317   3.400  0.6997 -0.8284 -0.2157
 2299SOL    HW118359   0.487   2.244   3.368 -0.5742  0.6299 -1.4310
 2299SOL    HW218360   0.558   2.284   3.488 -2.5943 -0.5203  0.5572
 2300SOL     OW18361   4.628   3.108   5.126  0.0339 -0.0865 -0.1120
 2300SOL    HW118362   4.555   3.100   5.188 -0.2111 -0.0608 -0.3980
 2300SOL    HW218363   4.647   3.202   5.128  0.5504 -0.2279  1.9657
 2301SOL     OW18364   0.028   1.364  12.726  0.2777 -0.1792  0.4890
 2301SOL    HW118365   0.002   1.416  12.651  2.5231 -0.0089 -0.1701
 2301SOL    HW218366   4.670   1.366  12.778 -0.8875 -1.9343 -1.2380
 2302SOL     OW18367   3.795   4.484  15.729  0.1622  0.1078 -0.4748
 2302SOL    HW118368   3.718   4.541  15.736  0.0045 -0.1494 -0.1147
 2302SOL    HW218369   3.755   4.401  15.754  1.9388 -0.2173  1.2320
 2303SOL     OW18370   2.547   2.301   4.378  0.6053 -0.4344 -0.0954
 2303SOL    HW118371   2.598   2.336   4.452 -0.4238 -2.0878  1.3971
 2303SOL    HW218372   2.556   2.375   4.317 -1.7757 -0.3917 -0.3837
 2304SOL     OW18373   1.362   0.123  17.459  0.6144 -0.5392  0.0258
 2304SOL    HW118374   1.333   0.170  17.537  1.9186 -1.2859  0.9789
 2304SOL    HW218375   1.446   0.168  17.446  0.6747 -0.6940 -0.1283
 2305SOL     OW18376   3.701   3.500   6.612 -0.1648 -0.1844 -0.3582
 2305SOL    HW118377   3.645   3.573   6.586  0.2533 -0.3040 -1.5892
 2305SOL    HW218378   3.638   3.429   6.596  2.2325 -2.9090  2.1738
 2306SOL     OW18379   2.476   0.613   6.816  0.1004  0.3444 -0.4016
 2306SOL    HW118380   2.540   0.610   6.744  0.5088 -0.4860 -0.0099
 2306SOL    HW218381   2.518   0.561   6.885 -0.9115 -1.0015 -0.8009
 2307SOL     OW18382   2.432   4.402   2.721 -0.1969  0.3905 -0.5325
 2307SOL    HW118383   2.388   4.368   2.799  0.4376  0.9938  0.0827
 2307SOL    HW218384   2.487   4.470   2.761  2.2856 -1.5692 -0.6093
 2308SOL     OW18385   0.555   0.599   3.079  0.0067 -0.0937  0.0203
 2308SOL    HW118386   0.559   0.644   2.995  1.0079 -1.1884 -0.5316
 2308SOL    HW218387   0.470   0.555   3.088 -1.2603  2.2145 -0.7760
 2309SOL     OW18388   3.033   2.460   6.964  0.1201  0.0407 -0.5167
 2309SOL    HW118389   3.105   2.438   6.904 -0.2160 -3.5575  0.4006
 2309SOL    HW218390   2.954   2.441   6.914  0.2184  0.0557 -0.6774
 2310SOL     OW18391   0.622   3.389   5.798 -0.1913 -0.2264  0.4062
 2310SOL    HW118392   0.655   3.338   5.872  1.1809  0.8715  0.5531
 2310SOL    HW218393   0.642   3.477   5.828  0.7275  0.3999 -2.0306
 2311SOL     OW18394   4.714   1.803   3.838 -0.4106 -0.4079 -0.0280
 2311SOL    HW118395   0.043   1.723   3.822  0.3199  0.0253  0.1400
 2311SOL    HW218396   4.697   1.831   3.748  2.7728 -0.1958 -0.5592
 2312SOL     OW18397   3.248   4.005   5.034 -0.1223  0.2943 -1.0131
 2312SOL    HW118398   3.190   4.074   5.065  0.6988  0.2974  0.5077
 2312SOL    HW218399   3.323   4.020   5.091 -0.6357  1.3332 -0.6125
 2313SOL     OW18400   2.770   4.577   7.037 -0.0449 -0.3120  0.0124
 2313SOL    HW118401   2.844   4.636   7.043  0.9359 -1.4686 -0.5831
 2313SOL    HW218402   2.821   4.502   7.006  0.2070  0.9180 -2.6322
 2314SOL     OW18403   4.142   3.419  10.344  0.4908 -0.2963 -0.1190
 2314SOL    HW118404   4.162   3.508  10.318 -0.6005  0.4659  1.6320
 2314SOL    HW218405   4.046   3.419  10.342  0.5132 -1.0452 -1.5443
 2315SOL     OW18406   4.070   2.102  13.722  0.2908  0.6843 -0.0971
 2315SOL    HW118407   4.131   2.140  13.786  0.7734  0.8535 -0.6525
 2315SOL    HW218408   4.109   2.117  13.636  2.0000 -2.5137  0.1323
 2316SOL     OW18409   1.187   2.104   7.501  0.3230 -0.3410  0.9211
 2316SOL    HW118410   1.092   2.105   7.489  0.3825  2.9444  0.5613
 2316SOL    HW218411   1.211   2.186   7.458  0.3490 -1.2686 -0.8188
 2317SOL     OW18412   2.184   1.361   2.762  0.6496 -0.5428 -0.2399
 2317SOL    HW118413   2.088   1.368   2.757  0.7472  0.1384 -1.2029
 2317SOL    HW218414   2.207   1.269   2.771  0.8551 -0.3695  1.0312
 2318SOL     OW18415   0.282   0.499   6.121  0.3353  0.2694  0.0068
 2318SOL    HW118416   0.308   0.509   6.213  0.2294  3.1237 -0.2873
 2318SOL    HW218417   0.365   0.523   6.079  0.7587 -0.0245  0.6709
 2319SOL     OW18418   2.079   4.686  12.258  0.5578  0.4986 -0.1104
 2319SOL    HW118419   2.111   0.050  12.234  0.6819  0.8546  1.2976
 2319SOL    HW218420   2.155   4.650  12.305  0.6394 -0.9420 -1.3280
 2320SOL     OW18421   0.821   1.554   7.272  0.4512  0.1860  0.0254
 2320SOL    HW118422   0.832   1.568   7.366 -1.6072  2.2882 -0.0481
 2320SOL    HW218423   0.726   1.565   7.262  0.3504 -0.2421  0.5092
 2321SOL     OW18424   4.272   0.956   2.296 -0.4520 -0.7855  0.1075
 2321SOL    HW118425   4.235   1.045   2.291 -1.6038 -1.3530 -1.5634
 2321SOL    HW218426   4.225   0.910   2.227 -0.4145 -1.1318  0.3163
 2322SOL     OW18427   1.614   0.710   1.009 -0.1815  0.0773 -0.2121
 2322SOL    HW118428   1.643   0.798   0.985  0.8414 -0.3286 -0.4652
 2322SOL    HW218429   1.696   0.661   1.009 -0.8452 -1.0188 -0.8182
 2323SOL     OW18430   0.026   4.640   9.887  1.1795  0.3913 -0.3238
 2323SOL    HW118431   4.679   4.585   9.923  3.1479 -2.0535 -0.2899
 2323SOL    HW218432   0.082   4.565   9.866  0.2169  0.0938 -1.8892
 2324SOL     OW18433   1.786   2.698   4.144  0.4299  0.3198 -0.5090
 2324SOL    HW118434   1.711   2.746   4.179  0.4105  0.0827 -0.2258
 2324SOL    HW218435   1.848   2.767   4.121  1.6789 -0.8588 -0.6629
 2325SOL     OW18436   0.330   4.268   0.810 -0.4381  0.2333 -0.3373
 2325SOL    HW118437   0.382   4.301   0.737 -0.7254 -1.4381 -1.3088
 2325SOL    HW218438   0.291   4.188   0.775  1.2441 -0.6931 -0.1149
 2326SOL     OW18439   4.658   2.407   2.601 -0.0539 -0.1746 -0.5568
 2326SOL    HW118440   0.007   2.446   2.653  2.7679 -3.4426 -1.9202
 2326SOL    HW218441   4.664   2.321   2.642  0.6544  0.0518 -0.1814
 2327SOL     OW18442   0.116   1.172   7.528 -0.0233  0.2270 -0.3328
 2327SOL    HW118443   0.118   1.216   7.613  4.9796  0.5033 -0.5944
 2327SOL    HW218444   0.207   1.169   7.497  0.1060 -1.0716  0.1668
 2328SOL     OW18445   3.407   3.684  16.745  0.6659  0.2815  0.5386
 2328SOL    HW118446   3.448   3.597  16.750 -2.1443 -1.1948 -1.8757
 2328SOL    HW218447   3.376   3.696  16.834 -2.0416 -0.9349 -0.2146
 2329SOL     OW18448   0.244   3.091   5.053  0.2618 -0.1512  0.2189
 2329SOL    HW118449   0.214   3.164   4.997 -1.0295 -0.3038  0.6964
 2329SOL    HW218450   0.270   3.026   4.988 -2.5799 -1.3498  0.2712
 2330SOL     OW18451   3.143   1.419   9.456 -0.4753 -0.2198  0.3664
 2330SOL    HW118452   3.238   1.411   9.451 -0.3769 -0.8506  2.7989
 2330SOL    HW218453   3.138   1.471   9.537 -2.3989 -0.4908  0.4233
 2331SOL     OW18454   4.143   4.365  13.652  0.3608 -0.1873  0.0879
 2331SOL    HW118455   4.082   4.437  13.668  0.9121  0.3817 -0.3622
 2331SOL    HW218456   4.130   4.345  13.560  1.7755  0.6605 -0.2966
 2332SOL     OW18457   3.377   1.671   8.950 -0.0007  0.0190 -0.6432
 2332SOL    HW118458   3.319   1.709   9.017  1.0050 -1.3855  1.0393
 2332SOL    HW218459   3.423   1.603   8.999 -1.2518 -1.2637 -1.2610
 2333SOL     OW18460   2.138   3.265  11.497 -0.2211 -0.1960  0.2076
 2333SOL    HW118461   2.199   3.331  11.528 -2.2459  1.3207  0.9954
 2333SOL    HW218462   2.198   3.221  11.437  1.9900  1.5300  1.1638
 2334SOL     OW18463   2.955   0.992   6.424 -0.1308 -0.0469  0.1587
 2334SOL    HW118464   2.922   1.073   6.463  0.3850 -0.5027  1.5388
 2334SOL    HW218465   2.979   1.007   6.333  3.3443 -0.6178  0.9760
 2335SOL     OW18466   3.269   2.982   4.633  0.4697 -0.2395 -0.5607
 2335SOL    HW118467   3.296   2.942   4.550  3.0872 -1.8427  1.0688
 2335SOL    HW218468   3.306   2.922   4.697  0.4804  0.5407  0.1641
 2336SOL     OW18469   3.945   0.887   3.155  0.1696  0.1201 -0.0652
 2336SOL    HW118470   3.921   0.812   3.101  0.1800  1.4372 -1.8775
 2336SOL    HW218471   3.919   0.962   3.103 -0.3519 -0.4963 -0.6950
 2337SOL     OW18472   3.077   2.385   1.355  0.0003 -0.2381  0.3320
 2337SOL    HW118473   3.069   2.466   1.305  1.1426 -0.8218 -0.7845
 2337SOL    HW218474   3.079   2.328   1.278  1.3738  0.7944 -0.4014
 2338SOL     OW18475   1.667   2.769   2.752 -0.0062  0.5247  0.1638
 2338SOL    HW118476   1.758   2.778   2.726  0.0539  0.2237  0.2699
 2338SOL    HW218477   1.677   2.690   2.804  1.8196  0.6917  0.0412
 2339SOL     OW18478   4.207   0.861   5.689  0.0295  0.2689  0.5586
 2339SOL    HW118479   4.231   0.883   5.779  1.6921 -0.3932  0.2707
 2339SOL    HW218480   4.164   0.776   5.698 -1.4350  0.9788  0.2884
 2340SOL     OW18481   3.531   3.607   7.948 -0.4465  0.4620 -0.0067
 2340SOL    HW118482   3.445   3.567   7.944 -0.6715  0.8501  0.8934
 2340SOL    HW218483   3.578   3.543   8.001  0.3826 -1.0772 -2.6200
 2341SOL     OW18484   2.406   3.776   5.672  0.3310  0.0118 -0.4444
 2341SOL    HW118485   2.336   3.841   5.679  1.1387  1.0245 -1.7464
 2341SOL    HW218486   2.383   3.718   5.600  3.5729 -1.4178 -0.3336
 2342SOL     OW18487   4.156   4.113   6.936  0.0356 -0.0531 -0.4459
 2342SOL    HW118488   4.150   4.066   6.853 -4.0095 -0.6918  0.2001
 2342SOL    HW218489   4.072   4.098   6.980 -1.0020  2.0186 -1.7001
 2343SOL     OW18490   4.483   1.413  15.983 -0.4351 -0.0250 -0.2125
 2343SOL    HW118491   4.538   1.386  15.909 -1.5210  0.1204 -1.0742
 2343SOL    HW218492   4.449   1.330  16.017  0.3355  0.0591  0.7615
 2344SOL     OW18493   0.119   0.361   4.784  0.3310  0.7465  0.1797
 2344SOL    HW118494   0.126   0.274   4.822 -1.9106  0.6368  0.3324
 2344SOL    HW218495   0.203   0.370   4.739  1.5139 -0.1279  2.1991
 2345SOL     OW18496   3.562   1.664   4.412 -0.5317  0.0487 -0.3845
 2345SOL    HW118497   3.566   1.742   4.356  0.6045 -1.0640 -1.8548
 2345SOL    HW218498   3.469   1.648   4.427 -0.2992 -0.3526  0.6608
 2346SOL     OW18499   0.777   3.462   4.422  0.4476 -0.2125 -0.1149
 2346SOL    HW118500   0.819   3.460   4.508 -2.6362  0.7597  1.4190
 2346SOL    HW218501   0.759   3.370   4.405 -1.2780  0.4260 -1.6984
 2347SOL     OW18502   1.131   1.004  15.048  0.1125 -0.3779  0.0599
 2347SOL    HW118503   1.191   1.032  14.979  0.3919  3.2540  1.8048
 2347SOL    HW218504   1.199   1.008  15.116  0.3596  0.5088 -0.2470
 2348SOL     OW18505   4.529   1.988  17.247  0.2634 -0.0644 -0.1055
 2348SOL    HW118506   4.462   1.979  17.180 -0.2271  1.4134  0.1771
 2348SOL    HW218507   4.497   2.051  17.311  0.7763 -1.1363  1.2037
 2349SOL     OW18508   2.353   4.643   1.399 -0.2685  0.2671  0.3228
 2349SOL    HW118509   2.326   4.579   1.465  1.2359 -1.9189 -1.1549
 2349SOL    HW218510   2.419   4.604   1.341 -1.7697 -1.7782 -0.0416
 2350SOL     OW18511   4.652   0.556   8.678  0.3312  0.3173  0.0192
 2350SOL    HW118512   4.712   0.617   8.720  0.8363 -0.0147 -0.2212
 2350SOL    HW218513   4.579   0.614   8.657  0.1849  0.0802 -0.1304
 2351SOL     OW18514   3.592   3.593  14.720  0.6322  0.3013 -0.0095
 2351SOL    HW118515   3.538   3.666  14.748  1.6605  1.2133 -0.4170
 2351SOL    HW218516   3.518   3.532  14.714 -0.1901  1.3665 -0.5975
 2352SOL     OW18517   1.575   0.087   6.155  0.4696 -0.0250 -0.4289
 2352SOL    HW118518   1.652   0.115   6.205  0.9488  0.3361 -1.3746
 2352SOL    HW218519   1.509   0.086   6.225  1.4935  0.6204  0.5537
 2353SOL     OW18520   3.211   3.794   7.711  0.0910 -0.5814 -0.2319
 2353SOL    HW118521   3.296   3.754   7.691  0.0870 -0.2918 -0.8118
 2353SOL    HW218522   3.254   3.879   7.726  0.3074 -0.7990  0.3817
 2354SOL     OW18523   1.970   4.692   7.077 -0.4510 -0.4332 -0.0699
 2354SOL    HW118524   1.881   4.708   7.109 -1.1991 -0.8031 -1.9840
 2354SOL    HW218525   2.000   4.633   7.146 -0.9145 -1.2130 -0.5289
 2355SOL     OW18526   4.677   3.363   5.136  0.2386 -0.3731 -0.0316
 2355SOL    HW118527   0.028   3.416   5.103 -2.0852  1.8854 -1.6130
 2355SOL    HW218528   4.684   3.399   5.224 -3.4450 -2.8383  1.2628
 2356SOL     OW18529   2.313   2.737  15.950  0.0777 -0.0429 -0.6425
 2356SOL    HW118530   2.336   2.807  15.888  1.3150 -0.4351 -0.6179
 2356SOL    HW218531   2.286   2.677  15.881  0.1573 -0.7171 -0.0775
 2357SOL     OW18532   4.171   0.661   5.290 -0.3399 -0.5257  0.3095
 2357SOL    HW118533   4.194   0.741   5.337  0.4359 -1.5436  1.6789
 2357SOL    HW218534   4.198   0.603   5.361 -0.8539 -2.3888 -1.0252
 2358SOL     OW18535   4.472   1.382   8.566 -0.3405 -0.4205 -0.1846
 2358SOL    HW118536   4.555   1.429   8.562 -1.0269  0.6854 -1.3496
 2358SOL    HW218537   4.421   1.439   8.624  0.5391  0.4921 -0.3062
 2359SOL     OW18538   2.776   3.342  16.281  0.0138  0.2926 -0.1011
 2359SOL    HW118539   2.703   3.402  16.265  0.1820  0.7542  0.8877
 2359SOL    HW218540   2.849   3.395  16.249 -0.7990  1.2057 -0.4609
 2360SOL     OW18541   2.731   3.439   9.438  0.6160 -0.1054 -0.5794
 2360SOL    HW118542   2.803   3.499   9.416 -1.5765  1.9501 -2.0777
 2360SOL    HW218543   2.762   3.408   9.523  1.0702  0.5775 -0.4897
 2361SOL     OW18544   1.631   0.340   1.275  0.0491  0.6606 -0.5094
 2361SOL    HW118545   1.712   0.368   1.232  1.3415 -2.0050  0.2375
 2361SOL    HW218546   1.648   0.362   1.366 -1.9339 -2.1397  0.5284
 2362SOL     OW18547   1.110   3.931   3.136 -0.6165  0.1747 -0.1249
 2362SOL    HW118548   1.147   4.007   3.091  0.7310 -0.0554  0.5842
 2362SOL    HW218549   1.140   3.935   3.227  0.7508 -0.1587 -0.5566
 2363SOL     OW18550   3.766   4.111   4.483  0.5903 -0.5985 -0.0842
 2363SOL    HW118551   3.687   4.058   4.493  0.2222  0.5063  2.8177
 2363SOL    HW218552   3.756   4.153   4.398  1.5134  0.1341  0.1744
 2364SOL     OW18553   1.910   1.323   3.993 -0.4778  0.0661  0.1328
 2364SOL    HW118554   1.864   1.273   3.927 -0.9082  0.0985  0.4094
 2364SOL    HW218555   1.837   1.321   4.054 -1.3088  1.1012 -0.8253
 2365SOL     OW18556   2.641   1.477   4.155  0.1629 -0.3884 -0.3309
 2365SOL    HW118557   2.706   1.505   4.220  0.2630 -0.2556 -0.4878
 2365SOL    HW218558   2.662   1.530   4.078 -0.4015 -1.8860 -1.5220
 2366SOL     OW18559   3.930   1.400   1.938 -0.1366  0.0303 -0.1196
 2366SOL    HW118560   3.972   1.323   1.898 -1.5220 -0.2549 -1.0344
 2366SOL    HW218561   3.984   1.470   1.900 -0.0325  0.1098  0.1766
 2367SOL     OW18562   0.795   0.627   6.019 -0.0820  0.1434  0.5461
 2367SOL    HW118563   0.836   0.623   5.932 -2.3789 -1.5719 -0.4577
 2367SOL    HW218564   0.775   0.720   6.027  0.1456  0.5168 -2.9989
 2368SOL     OW18565   1.809   2.317   9.344 -0.0938  0.4950 -0.0457
 2368SOL    HW118566   1.764   2.284   9.422  2.6035 -0.3365  1.1707
 2368SOL    HW218567   1.882   2.357   9.391  0.8200 -1.4084  0.1455
 2369SOL     OW18568   2.485   3.564   8.627 -0.1564 -0.0626 -0.2716
 2369SOL    HW118569   2.467   3.637   8.568 -0.1002  0.9131  0.9427
 2369SOL    HW218570   2.420   3.587   8.693 -0.0801  2.1267 -0.9728
 2370SOL     OW18571   1.724   2.715   5.195 -0.0794  0.3008 -0.3257
 2370SOL    HW118572   1.813   2.684   5.177 -0.5820 -2.2113  1.4907
 2370SOL    HW218573   1.671   2.638   5.177  1.2314 -0.3166 -1.5896
 2371SOL     OW18574   2.045   2.906   7.778 -0.3060  0.0589  0.0985
 2371SOL    HW118575   1.956   2.938   7.764 -1.2444 -2.1563  1.0346
 2371SOL    HW218576   2.092   2.979   7.737 -2.4976  2.1412  1.2927
 2372SOL     OW18577   2.151   0.595   0.704 -0.2017 -0.4546  0.2282
 2372SOL    HW118578   2.111   0.527   0.759 -1.2962 -1.1549 -1.4636
 2372SOL    HW218579   2.216   0.631   0.765 -0.1607  1.7165 -1.0714
 2373SOL     OW18580   4.380   4.523  13.268 -0.9863 -0.7390 -0.2738
 2373SOL    HW118581   4.432   4.514  13.188 -1.7526  1.6270 -1.0331
 2373SOL    HW218582   4.417   4.600  13.310  0.5961 -1.5894 -0.1316
 2374SOL     OW18583   0.475   3.491   7.530 -0.1662  0.0544  0.3195
 2374SOL    HW118584   0.531   3.498   7.607 -0.2563  1.6704  0.2366
 2374SOL    HW218585   0.455   3.398   7.528  0.6108 -0.0660 -1.6547
 2375SOL     OW18586   3.949   4.501   4.861 -0.2633 -0.5998  0.1761
 2375SOL    HW118587   3.952   4.438   4.789  2.6351 -0.0161 -0.2174
 2375SOL    HW218588   3.855   4.520   4.857 -0.2506 -0.5582  0.0603
 2376SOL     OW18589   2.938   2.931   4.706  0.0330  0.4402 -0.1233
 2376SOL    HW118590   2.889   3.011   4.687  0.2592  0.4579 -0.6361
 2376SOL    HW218591   3.027   2.945   4.675 -0.7089 -0.2229 -2.5427
 2377SOL     OW18592   3.012   1.507   2.798  0.1375  0.7042 -0.1961
 2377SOL    HW118593   3.022   1.446   2.871  1.5004 -0.5127 -1.3884
 2377SOL    HW218594   2.928   1.475   2.763  0.3705 -0.1840  0.0537
 2378SOL     OW18595   1.742   2.188  15.769 -0.7083  0.8402  0.4382
 2378SOL    HW118596   1.649   2.163  15.761 -0.4053  0.7216 -2.5944
 2378SOL    HW218597   1.742   2.257  15.835  0.8638  0.5608  0.7252
 2379SOL     OW18598   3.298   0.894   8.173 -0.6697 -0.3760 -0.4734
 2379SOL    HW118599   3.222   0.837   8.166  0.3081 -1.7475  0.1177
 2379SOL    HW218600   3.348   0.835   8.230  1.0639  0.7927 -0.7805
 2380SOL     OW18601   0.346   3.220   6.209 -0.0507 -0.6837  1.1929
 2380SOL    HW118602   0.406   3.158   6.250 -0.5508 -0.9740  1.4787
 2380SOL    HW218603   0.287   3.154   6.172 -0.8504  0.7501 -0.0985
 2381SOL     OW18604   3.460   2.892   6.669 -0.0817  0.1093  0.0371
 2381SOL    HW118605   3.373   2.874   6.705  0.2845 -0.1673  0.7802
 2381SOL    HW218606   3.438   2.897   6.575  0.4172 -1.4046 -0.1706
 2382SOL     OW18607   0.327   4.611   4.478  0.1829 -0.4715 -0.0788
 2382SOL    HW118608   0.283   4.696   4.476 -0.2885 -0.6682  1.5086
 2382SOL    HW218609   0.285   4.587   4.561 -0.5081 -1.7698 -0.8197
 2383SOL     OW18610   4.145   2.911   2.794 -0.7217  0.3558  0.2768
 2383SOL    HW118611   4.135   2.987   2.852 -3.0903 -0.5061  1.0110
 2383SOL    HW218612   4.211   2.856   2.837  0.8703  1.9280 -0.1508
 2384SOL     OW18613   4.368   0.725   3.159 -0.4871  0.2801  0.3099
 2384SOL    HW118614   4.345   0.640   3.122 -0.8000  0.1991  0.7013
 2384SOL    HW218615   4.316   0.724   3.239  0.0231  0.2677  0.6405
 2385SOL     OW18616   2.385   3.384   9.532  0.2743 -0.5550  0.2438
 2385SOL    HW118617   2.387   3.392   9.627  1.8667 -1.3473  0.2822
 2385SOL    HW218618   2.374   3.290   9.517  1.6971 -0.6218 -0.3627
 2386SOL     OW18619   1.522   2.703   2.076  0.3214 -0.1447 -0.5908
 2386SOL    HW118620   1.430   2.721   2.056  0.3430  0.2544 -0.3416
 2386SOL    HW218621   1.530   2.737   2.165  2.3887 -0.7684 -0.5335
 2387SOL     OW18622   1.547   1.165   3.354 -0.5348  0.3849  0.1794
 2387SOL    HW118623   1.628   1.192   3.309 -0.4905  1.0272  0.6361
 2387SOL    HW218624   1.507   1.107   3.289  3.2085 -0.9850 -0.9214
 2388SOL     OW18625   3.279   2.678   5.988  0.1097  0.0646  0.5290
 2388SOL    HW118626   3.224   2.599   5.979  1.0617 -0.6197  0.7550
 2388SOL    HW218627   3.307   2.661   6.078 -0.7274 -0.4919  0.6872
 2389SOL     OW18628   3.382   1.575  14.754 -0.4517  0.1419  0.0362
 2389SOL    HW118629   3.324   1.571  14.678 -0.5985  2.0394  0.0344
 2389SOL    HW218630   3.396   1.669  14.766  0.5407 -0.1152  0.9766
 2390SOL     OW18631   4.006   2.118   7.866  0.5114  0.6159  0.3169
 2390SOL    HW118632   4.024   2.031   7.903  1.5980  1.0127  0.7040
 2390SOL    HW218633   3.958   2.098   7.785  1.1370 -1.7558  0.5095
 2391SOL     OW18634   0.745   3.865  13.582  0.1106  0.2900  0.5764
 2391SOL    HW118635   0.827   3.882  13.535 -0.7496 -2.7587 -2.0493
 2391SOL    HW218636   0.678   3.851  13.515  1.8452 -1.7311 -0.7181
 2392SOL     OW18637   2.172   3.171   7.350  0.3949  0.9571  0.2735
 2392SOL    HW118638   2.235   3.130   7.290  0.4440 -1.7401  2.2009
 2392SOL    HW218639   2.228   3.192   7.425 -2.0195  2.1761  1.6954
 2393SOL     OW18640   2.258   1.330   0.201 -0.1294  0.3781  0.0762
 2393SOL    HW118641   2.182   1.372   0.241  1.3828  0.5094  2.8260
 2393SOL    HW218642   2.217   1.264   0.143  0.8072  1.0469 -1.3349
 2394SOL     OW18643   2.410   1.317   9.371  0.5355  0.0443  0.1617
 2394SOL    HW118644   2.366   1.401   9.356 -0.5870 -0.5358  0.2552
 2394SOL    HW218645   2.442   1.316   9.281 -2.2332 -1.1243 -0.8029
 2395SOL     OW18646   1.186   0.048  12.521 -0.1886  0.3342  0.0693
 2395SOL    HW118647   1.201   4.693  12.577 -2.0931  0.1331  0.2842
 2395SOL    HW218648   1.242   0.024  12.447 -0.9691  2.1322 -1.1045
 2396SOL     OW18649   3.758   1.673   7.144  0.5553 -0.0801 -0.3137
 2396SOL    HW118650   3.812   1.621   7.204 -0.4201 -1.4223 -0.5920
 2396SOL    HW218651   3.721   1.717   7.221  2.7274 -1.9894  1.8138
 2397SOL     OW18652   1.437   1.844  15.414 -0.1087 -0.2538  0.1114
 2397SOL    HW118653   1.361   1.867  15.467 -0.5234  1.0013 -1.0016
 2397SOL    HW218654   1.427   1.890  15.330  2.4232  0.1138  0.0093
 2398SOL     OW18655   2.529   0.322   2.547 -0.4243  0.2809 -0.0735
 2398SOL    HW118656   2.607   0.266   2.551 -1.1962 -0.9958 -2.7497
 2398SOL    HW218657   2.462   0.254   2.543 -1.8402  1.6797  0.1450
 2399SOL     OW18658   3.409   4.479   4.553  0.0811 -0.3412  0.1317
 2399SOL    HW118659   3.461   4.528   4.490  0.5754 -3.5296 -1.9467
 2399SOL    HW218660   3.415   4.388   4.524  1.6763 -1.1156  2.8904
 2400SOL     OW18661   1.489   2.957   5.529  0.3572  0.2566  0.3077
 2400SOL    HW118662   1.402   2.993   5.543  0.5491  0.5384  0.7478
 2400SOL    HW218663   1.504   2.984   5.438 -2.2307  0.4708 -0.0509
 2401SOL     OW18664   1.105   2.824   5.614 -0.1606  0.1213  0.7242
 2401SOL    HW118665   1.140   2.744   5.652 -1.5499 -0.0163  1.7054
 2401SOL    HW218666   1.022   2.838   5.659 -1.3212  1.3363 -1.7345
 2402SOL     OW18667   4.695   3.459   2.500  0.3728  0.0241 -0.3032
 2402SOL    HW118668   4.700   3.393   2.431 -0.0680  0.4711 -0.7568
 2402SOL    HW218669   0.047   3.512   2.473  0.1376  0.9422  0.8657
 2403SOL     OW18670   4.369   3.369   1.537 -0.2853  0.4626 -0.7215
 2403SOL    HW118671   4.303   3.322   1.589  1.5918 -0.0562  1.2187
 2403SOL    HW218672   4.319   3.394   1.460  3.3624  3.0671 -2.2575
 2404SOL     OW18673   3.584   3.892   4.539 -0.0313 -0.0691  0.2510
 2404SOL    HW118674   3.582   3.829   4.467  0.6318 -0.2969  0.4304
 2404SOL    HW218675   3.495   3.874   4.569  0.3897 -2.3220  0.2101
 2405SOL     OW18676   0.297   2.128  15.666 -0.5182  0.1878 -0.4219
 2405SOL    HW118677   0.308   2.223  15.668 -2.5925  0.3916  0.2282
 2405SOL    HW218678   0.334   2.095  15.748  1.9332  2.6416 -0.5105
 2406SOL     OW18679   2.633   2.939   6.598  0.0803  0.2908 -0.9222
 2406SOL    HW118680   2.591   2.857   6.572  2.0268 -1.5423  1.7786
 2406SOL    HW218681   2.649   2.930   6.692 -0.6624 -3.6415 -1.1627
 2407SOL     OW18682   4.333   0.052  14.663  0.2537 -0.0557 -0.0968
 2407SOL    HW118683   4.295   0.112  14.726  0.9866 -1.2446  1.4769
 2407SOL    HW218684   4.339   0.111  14.588 -0.8959  1.0088  0.6497
 2408SOL     OW18685   1.304   2.420   1.777 -0.7157 -0.0427 -0.0513
 2408SOL    HW118686   1.311   2.426   1.682  2.9770 -0.3647  0.1702
 2408SOL    HW218687   1.387   2.379   1.804 -1.5167 -1.6739 -0.0828
 2409SOL     OW18688   1.203   1.674   2.331 -0.0640  0.4442  0.0896
 2409SOL    HW118689   1.141   1.604   2.312  0.7040 -0.6956  1.8536
 2409SOL    HW218690   1.276   1.662   2.270  0.3832 -0.6945  0.8412
 2410SOL     OW18691   3.564   1.128   2.298  0.0080 -0.6920 -0.3817
 2410SOL    HW118692   3.561   1.137   2.393 -0.7866 -2.0596 -0.2707
 2410SOL    HW218693   3.652   1.096   2.277  0.4186 -1.2663  2.2083
 2411SOL     OW18694   0.409   2.441   3.706 -0.4250  0.0685  0.0364
 2411SOL    HW118695   0.403   2.422   3.800 -1.8894  2.3468  0.4163
 2411SOL    HW218696   0.354   2.369   3.674 -1.1510  1.3821 -1.6513
 2412SOL     OW18697   3.799   3.862   6.421 -0.1444 -0.0860 -0.1661
 2412SOL    HW118698   3.704   3.847   6.419  0.0570 -1.7143  2.6089
 2412SOL    HW218699   3.832   3.784   6.377  2.5959  0.4733  0.8805
 2413SOL     OW18700   4.555   3.173   5.459  0.2044 -0.2239  0.3701
 2413SOL    HW118701   4.487   3.173   5.392  1.9927  0.7086 -1.4598
 2413SOL    HW218702   4.537   3.093   5.508 -0.0036 -1.4434 -1.6694
 2414SOL     OW18703   2.992   0.145   0.412  0.4316 -0.1614  0.6065
 2414SOL    HW118704   3.050   0.077   0.445 -0.1973 -1.1561 -0.3408
 2414SOL    HW218705   3.019   0.137   0.320  0.1595  0.3430  0.4815
 2415SOL     OW18706   0.529   4.692   6.000 -0.1411 -0.1518  0.1854
 2415SOL    HW118707   0.525   0.061   6.027 -1.2283 -0.5239  1.2567
 2415SOL    HW218708   0.555   4.659   6.086  2.0960 -0.6641 -0.6821
 2416SOL     OW18709   1.647   1.215   3.844  0.1148 -0.0398 -0.1682
 2416SOL    HW118710   1.600   1.297   3.831  1.4071  0.4553 -1.6926
 2416SOL    HW218711   1.572   1.155   3.839 -0.2923  0.6007 -1.7563
 2417SOL     OW18712   4.098   0.805   2.134 -0.5878  0.1921  0.1986
 2417SOL    HW118713   4.169   0.787   2.072 -0.2396 -0.2109  0.7108
 2417SOL    HW218714   4.071   0.715   2.153  0.7933 -0.0615  0.9434
 2418SOL     OW18715   2.826   1.515   8.026 -0.0505 -0.1611 -1.1190
 2418SOL    HW118716   2.798   1.500   8.116  0.1918  1.2320 -0.8143
 2418SOL    HW218717   2.866   1.600   8.043 -0.8025  0.0073 -0.2099
 2419SOL     OW18718   2.453   0.553  11.026  0.1202  0.0915 -0.4189
 2419SOL    HW118719   2.470   0.633  10.975  1.9284 -0.2849 -0.4100
 2419SOL    HW218720   2.449   0.584  11.117  0.2306 -0.4250 -0.2372
 2420SOL     OW18721   1.364   2.882   7.520 -0.4002  0.3677  0.3871
 2420SOL    HW118722   1.397   2.817   7.458 -1.5655  0.5248 -0.3983
 2420SOL    HW218723   1.422   2.875   7.596 -0.2932  0.2335  0.2923
 2421SOL     OW18724   1.244   2.470   6.768  0.1141  0.6843  0.8835
 2421SOL    HW118725   1.248   2.448   6.675 -0.4124 -1.9189  1.4910
 2421SOL    HW218726   1.272   2.387   6.807 -0.6994 -0.5238 -1.1080
 2422SOL     OW18727   0.212   3.306   7.305  0.3434 -0.1733  0.4828
 2422SOL    HW118728   0.161   3.294   7.385 -1.1642 -1.3659 -0.6636
 2422SOL    HW218729   0.186   3.392   7.271 -0.0514  0.2309  1.8232
 2423SOL     OW18730   0.658   1.355   3.674  0.7961 -0.5970 -0.0092
 2423SOL    HW118731   0.655   1.305   3.756  1.6342  2.3935  1.8236
 2423SOL    HW218732   0.751   1.339   3.656  0.1902 -1.5098 -2.3129
 2424SOL     OW18733   1.757   4.210   5.994  0.5557 -0.6680  0.1849
 2424SOL    HW118734   1.749   4.220   6.089 -0.1156 -0.0326  0.0680
 2424SOL    HW218735   1.754   4.303   5.972  0.9070 -0.1029  2.5960
 2425SOL     OW18736   4.564   2.907   7.531  0.4664 -0.7611 -0.3406
 2425SOL    HW118737   4.512   2.828   7.518  0.4071 -0.2674 -3.0790
 2425SOL    HW218738   4.611   2.893   7.613 -0.1338 -0.0254  0.1451
 2426SOL     OW18739   1.466   3.518   8.552  0.2291 -0.4174  0.1326
 2426SOL    HW118740   1.438   3.537   8.463 -0.7529  0.6032  0.6528
 2426SOL    HW218741   1.488   3.425   8.550 -0.8783 -0.6822  0.4526
 2427SOL     OW18742   2.205   0.349   8.678 -0.1099  0.2074  0.6243
 2427SOL    HW118743   2.130   0.354   8.737  0.8280 -0.5985  1.8961
 2427SOL    HW218744   2.225   0.439   8.652  1.9254 -0.7384 -1.0728
 2428SOL     OW18745   1.852   0.507   7.771 -0.5043 -0.1140  0.3967
 2428SOL    HW118746   1.777   0.447   7.767 -0.0490 -0.6360 -0.5521
 2428SOL    HW218747   1.824   0.585   7.818  1.0253  0.0300  1.0559
 2429SOL     OW18748   4.491   3.592   0.697  0.0572 -0.4841  0.2191
 2429SOL    HW118749   4.561   3.653   0.677 -1.4921  1.2772  0.1380
 2429SOL    HW218750   4.505   3.538   0.619  3.3939 -0.9387  1.1481
 2430SOL     OW18751   2.830   2.797  13.980 -0.2166  0.1689  0.3001
 2430SOL    HW118752   2.920   2.774  14.000 -0.4441 -1.9024 -1.0645
 2430SOL    HW218753   2.808   2.871  14.037 -0.6854 -1.2990  2.0058
 2431SOL     OW18754   4.472   2.204   7.021  0.2234 -0.1559  0.5085
 2431SOL    HW118755   4.536   2.262   6.979  0.7080  0.2255  1.7748
 2431SOL    HW218756   4.388   2.215   6.976  0.6726  1.7690  0.1634
 2432SOL     OW18757   2.394   0.321   8.907 -0.2540 -0.1181 -0.2060
 2432SOL    HW118758   2.383   0.409   8.944  0.6054 -0.1825  0.1878
 2432SOL    HW218759   2.338   0.331   8.829 -0.4034  1.3594  0.0880
 2433SOL     OW18760   3.481   2.447   7.984 -0.5457 -0.1895 -0.8983
 2433SOL    HW118761   3.565   2.490   7.995 -1.3131  0.8217  0.8727
 2433SOL    HW218762   3.473   2.441   7.888  0.3107 -0.6719 -0.9392
 2434SOL     OW18763   0.465   2.045   9.320  0.2143  0.7297 -0.2816
 2434SOL    HW118764   0.447   2.126   9.369 -0.0776  0.6914 -0.3279
 2434SOL    HW218765   0.385   2.043   9.268  0.1274 -0.1700 -0.0999
 2435SOL     OW18766   2.876   0.749   5.930  0.0363  0.2368  0.2042
 2435SOL    HW118767   2.800   0.695   5.911 -0.1677  1.0374 -1.2343
 2435SOL    HW218768   2.940   0.684   5.958 -0.6610 -0.3825  0.3540
 2436SOL     OW18769   1.808   1.661   8.124 -0.1334 -0.5694  0.3104
 2436SOL    HW118770   1.826   1.690   8.213  1.5698 -2.2535  0.4921
 2436SOL    HW218771   1.745   1.726   8.092 -0.2999  0.2009  2.1917
 2437SOL     OW18772   1.356   3.418   6.347 -0.0752  0.2307  0.0018
 2437SOL    HW118773   1.316   3.332   6.333  1.8946 -0.8653  1.1115
 2437SOL    HW218774   1.412   3.410   6.424 -0.6105 -0.5060  0.3208
 2438SOL     OW18775   0.950   2.058   5.051  0.2722  0.2742 -0.5609
 2438SOL    HW118776   0.960   2.115   4.975 -0.2751 -1.8546 -2.2261
 2438SOL    HW218777   0.888   1.989   5.025  1.8556 -1.3807  0.0743
 2439SOL     OW18778   1.264   3.423   6.661 -0.0079  0.0852 -0.0033
 2439SOL    HW118779   1.235   3.513   6.680 -1.1269 -0.4111  0.6383
 2439SOL    HW218780   1.339   3.419   6.720  1.7274  1.4768 -2.1033
 2440SOL     OW18781   4.269   4.688   8.468  0.2565 -0.1151  0.6481
 2440SOL    HW118782   4.347   0.006   8.508 -0.2360  0.4923  1.0161
 2440SOL    HW218783   4.315   4.612   8.432 -0.3480 -0.0557 -0.2315
 2441SOL     OW18784   1.959   1.570  12.184  0.3879  0.0135 -0.0017
 2441SOL    HW118785   1.876   1.552  12.228  0.5408  2.5099  1.2928
 2441SOL    HW218786   1.941   1.637  12.118 -0.3490  0.1787  0.3740
 2442SOL     OW18787   1.188   0.837   8.846 -0.1979 -0.2180  0.1025
 2442SOL    HW118788   1.264   0.822   8.790  0.5804 -0.2639  1.1898
 2442SOL    HW218789   1.183   0.756   8.897 -4.3474 -0.4046 -0.6040
 2443SOL     OW18790   3.940   2.414   1.024 -0.0390  0.0466  0.3358
 2443SOL    HW118791   3.950   2.336   0.968 -0.2423 -0.9895  1.7467
 2443SOL    HW218792   3.865   2.388   1.077 -1.5123  1.1355 -1.2297
 2444SOL     OW18793   3.058   3.474   0.678  0.7719 -0.3845  0.1278
 2444SOL    HW118794   3.133   3.523   0.644  1.5314 -2.3248 -1.0116
 2444SOL    HW218795   3.057   3.393   0.627  0.8075  0.5384 -1.3191
 2445SOL     OW18796   4.690   0.659   1.623  0.7731 -0.4003 -0.5102
 2445SOL    HW118797   4.624   0.611   1.673 -1.5926  1.0502 -2.2066
 2445SOL    HW218798   0.029   0.707   1.679 -0.3252  0.0379  0.3047
 2446SOL     OW18799   0.559   4.619   8.605 -0.0216  0.0656  0.5717
 2446SOL    HW118800   0.530   4.539   8.649  3.4332 -0.8822  1.1284
 2446SOL    HW218801   0.577   4.676   8.680 -1.4093 -2.0389  2.5116
 2447SOL     OW18802   2.658   2.032   3.347 -0.0879  0.1762 -0.3386
 2447SOL    HW118803   2.678   1.978   3.423  1.2154  1.0797 -0.0439
 2447SOL    HW218804   2.665   1.969   3.276 -0.3583 -0.4209  0.1574
 2448SOL     OW18805   2.145   2.248   9.627 -0.0830 -0.2211 -0.3487
 2448SOL    HW118806   2.101   2.253   9.712  1.3601  1.0848  0.3239
 2448SOL    HW218807   2.095   2.316   9.583 -0.0022 -0.8577 -1.4218
 2449SOL     OW18808   1.922   1.975   6.447 -0.0556  0.0565  0.1874
 2449SOL    HW118809   1.961   2.005   6.529  1.5250  1.0988 -0.9485
 2449SOL    HW218810   1.972   2.016   6.376  0.3658 -1.3602 -0.3405
 2450SOL     OW18811   2.322   0.118   1.712 -0.2843 -0.4392 -0.0391
 2450SOL    HW118812   2.337   0.137   1.805  0.4792  0.1082 -0.2692
 2450SOL    HW218813   2.340   0.025   1.723 -0.1472 -0.6549 -2.2606
 2451SOL     OW18814   4.539   0.406   6.111  0.3904  0.1026  0.8746
 2451SOL    HW118815   4.449   0.411   6.143 -0.1487 -0.3207 -0.5584
 2451SOL    HW218816   4.579   0.449   6.187 -1.4024 -0.8114  2.3373
 2452SOL     OW18817   1.024   3.691   9.328  0.0866 -0.2481  0.4097
 2452SOL    HW118818   1.110   3.715   9.363  0.7952 -0.3325 -1.2554
 2452SOL    HW218819   0.973   3.752   9.382  1.3639 -1.1118  2.6142
 2453SOL     OW18820   2.508   3.749   7.022  0.1686  0.2464  0.2784
 2453SOL    HW118821   2.445   3.742   7.094 -1.3454 -0.1531 -1.0840
 2453SOL    HW218822   2.451   3.782   6.952 -0.1966  0.7300  0.8037
 2454SOL     OW18823   2.071   2.478   4.052  0.1759  0.3286 -0.3910
 2454SOL    HW118824   2.146   2.533   4.027  0.0292  1.7243  2.3050
 2454SOL    HW218825   2.072   2.478   4.148  1.6499 -0.2121 -0.4001
 2455SOL     OW18826   4.343   3.405   7.896  0.5725  0.2591 -0.0882
 2455SOL    HW118827   4.278   3.421   7.827 -1.0059  0.9796  1.5698
 2455SOL    HW218828   4.294   3.440   7.970  1.2289  1.0347 -0.0282
 2456SOL     OW18829   3.526   2.267   0.640  0.0672  0.2414 -0.2202
 2456SOL    HW118830   3.616   2.291   0.616  1.4982 -1.1062  3.6694
 2456SOL    HW218831   3.530   2.178   0.604  2.6699  0.9931 -1.7748
 2457SOL     OW18832   3.652   3.131  12.782 -0.0445 -0.2574  0.6128
 2457SOL    HW118833   3.583   3.193  12.756  0.7866  0.0198 -0.9388
 2457SOL    HW218834   3.661   3.068  12.711  1.6664  2.6928 -1.7844
 2458SOL     OW18835   2.488   4.022   0.742  0.0245  0.3570  0.4326
 2458SOL    HW118836   2.422   4.071   0.792 -1.4671 -1.5951  0.3403
 2458SOL    HW218837   2.553   4.012   0.811 -2.3573  0.2567  2.6562
 2459SOL     OW18838   3.177   3.488  10.043 -0.3245  0.0458 -0.1943
 2459SOL    HW118839   3.251   3.546  10.023  0.0645 -0.0093  1.0633
 2459SOL    HW218840   3.227   3.425  10.094 -0.8519  1.5578  2.2002
 2460SOL     OW18841   2.699   2.781   5.054  0.2409 -0.3048 -0.0517
 2460SOL    HW118842   2.737   2.754   5.137 -0.9051 -1.3385  0.1307
 2460SOL    HW218843   2.713   2.700   5.004  0.9691 -0.4934  0.4589
 2461SOL     OW18844   2.740   3.973   9.359 -0.2371 -0.3848  0.2808
 2461SOL    HW118845   2.811   3.925   9.401  1.6479  2.6515  0.5610
 2461SOL    HW218846   2.722   4.049   9.415 -1.5981 -0.8819  0.5193
 2462SOL     OW18847   1.216   3.285   5.204  0.3470  0.1144  0.1114
 2462SOL    HW118848   1.274   3.236   5.263  1.8904  1.0644 -0.6056
 2462SOL    HW218849   1.222   3.370   5.247 -0.2281 -0.5878  1.6050
 2463SOL     OW18850   2.785   2.717   7.144 -0.6997 -0.5383 -0.0111
 2463SOL    HW118851   2.806   2.810   7.135 -1.1371 -0.5611 -1.3596
 2463SOL    HW218852   2.749   2.712   7.055 -0.5117 -0.3716 -0.0959
 2464SOL     OW18853   2.037   0.587   2.247  0.1497 -0.5483  0.4325
 2464SOL    HW118854   2.083   0.630   2.175 -0.9805  2.5008  1.5291
 2464SOL    HW218855   2.105   0.539   2.294  1.3665 -0.0908 -0.8804
 2465SOL     OW18856   1.921   2.430   5.534 -0.9686 -1.0580  0.3655
 2465SOL    HW118857   2.016   2.413   5.538 -0.6659 -0.0530 -2.1058
 2465SOL    HW218858   1.898   2.387   5.616  4.8448 -2.3692  1.3088
 2466SOL     OW18859   0.309   4.354   7.709  0.1280 -0.1317 -0.7438
 2466SOL    HW118860   0.308   4.259   7.724 -0.5490  0.1215  0.8211
 2466SOL    HW218861   0.400   4.377   7.727  0.1099 -2.1673  1.8942
 2467SOL     OW18862   3.276   4.201   2.824  0.4399 -0.0251  0.0250
 2467SOL    HW118863   3.195   4.220   2.871  0.9114  0.6753  0.5695
 2467SOL    HW218864   3.341   4.187   2.894 -0.3944  1.7474  1.1722
 2468SOL     OW18865   3.498   2.550   8.980  0.3656  0.2772  0.4657
 2468SOL    HW118866   3.469   2.634   9.015 -2.1619 -0.2413 -0.4116
 2468SOL    HW218867   3.552   2.520   9.053  1.9261  1.5921 -0.1636
 2469SOL     OW18868   3.834   0.011   2.506 -0.0360 -0.3732  0.3884
 2469SOL    HW118869   3.856   0.039   2.417  1.3142 -1.6428  0.3313
 2469SOL    HW218870   3.809   0.099   2.534 -1.1199 -0.0362 -1.6302
 2470SOL     OW18871   2.184   1.698  17.582 -0.2047  0.1883 -0.1282
 2470SOL    HW118872   2.195   1.685  17.677 -0.3348 -0.3462 -0.1863
 2470SOL    HW218873   2.183   1.794  17.579 -1.1022  0.2770  2.8113
 2471SOL     OW18874   2.178   3.978   2.548 -0.7855 -0.7044 -0.0869
 2471SOL    HW118875   2.113   4.048   2.548  0.9210  0.8951 -0.2668
 2471SOL    HW218876   2.172   3.940   2.636 -0.9075 -0.6985 -0.0932
 2472SOL     OW18877   0.235   2.790   2.334 -0.5956 -0.3445 -0.0567
 2472SOL    HW118878   0.310   2.850   2.328 -0.4139 -0.7280 -1.6991
 2472SOL    HW218879   0.270   2.712   2.375  1.0286  0.0848 -0.6224
 2473SOL     OW18880   3.720   4.522   8.208 -0.1008  0.3009 -0.0111
 2473SOL    HW118881   3.770   4.599   8.236  1.8346 -0.9614 -0.0398
 2473SOL    HW218882   3.690   4.502   8.297 -1.2658  0.2826 -0.4062
 2474SOL     OW18883   4.466   3.725   4.165 -0.4204 -0.3666 -0.1101
 2474SOL    HW118884   4.551   3.733   4.123  2.0990 -0.0668  5.0870
 2474SOL    HW218885   4.411   3.721   4.087  0.2903  0.5295 -0.6512
 2475SOL     OW18886   3.206   2.580   2.174 -0.1115 -0.0804  0.2427
 2475SOL    HW118887   3.302   2.585   2.169 -0.1898 -0.6806 -1.8793
 2475SOL    HW218888   3.185   2.593   2.082  0.0890  1.1918  0.3751
 2476SOL     OW18889   4.628   3.936   9.048  0.0619 -0.0724  0.0203
 2476SOL    HW118890   4.608   3.991   9.123  2.7860  0.2576  0.4743
 2476SOL    HW218891   4.535   3.917   9.030 -0.1943  1.6131 -0.3672
 2477SOL     OW18892   4.276   2.559   2.119 -0.2567  0.0284 -0.1845
 2477SOL    HW118893   4.350   2.619   2.122 -0.9497  0.7882  1.6669
 2477SOL    HW218894   4.206   2.616   2.087 -1.5411 -1.0237  0.7490
 2478SOL     OW18895   2.442   1.331   2.639  0.8515  0.3026  0.8225
 2478SOL    HW118896   2.455   1.426   2.635  1.4040  0.2595  1.5270
 2478SOL    HW218897   2.503   1.295   2.575  0.5943 -2.0838  1.9359
 2479SOL     OW18898   1.372   1.464  17.172 -0.4332 -0.2344  0.0090
 2479SOL    HW118899   1.296   1.406  17.167  1.0482 -2.2608  1.3079
 2479SOL    HW218900   1.343   1.536  17.116  0.4055  0.4112  0.4036
 2480SOL     OW18901   2.859   3.982   5.001  0.6425  0.3371  0.2105
 2480SOL    HW118902   2.885   4.051   5.062  0.5609 -0.2172  0.8681
 2480SOL    HW218903   2.944   3.968   4.959 -1.3346 -3.0523 -2.6737
 2481SOL     OW18904   1.804   0.302   5.339 -0.2287 -0.1942  0.6575
 2481SOL    HW118905   1.823   0.395   5.327 -0.6243 -0.6702 -3.7026
 2481SOL    HW218906   1.734   0.313   5.404 -1.2587 -1.3380 -0.2476
 2482SOL     OW18907   2.558   3.985   5.095  0.5602  0.7547  0.6425
 2482SOL    HW118908   2.579   4.073   5.064  0.6987  0.5024  0.0238
 2482SOL    HW218909   2.476   3.962   5.051  1.3082  0.9883 -0.8315
 2483SOL     OW18910   1.544   0.379   9.121  0.7293 -0.7466  0.2823
 2483SOL    HW118911   1.513   0.304   9.171  2.0205 -1.6396 -0.2623
 2483SOL    HW218912   1.634   0.386   9.153  0.9726 -2.7358  0.0091
 2484SOL     OW18913   4.090   2.130   5.441  0.1431 -0.3158 -0.2358
 2484SOL    HW118914   4.042   2.160   5.518 -0.7213  0.6726 -1.1550
 2484SOL    HW218915   4.019   2.103   5.382  0.2148 -0.5860 -0.1962
 2485SOL     OW18916   4.574   0.564  13.496  0.3349 -0.1373 -0.4804
 2485SOL    HW118917   4.608   0.652  13.513 -0.4750  0.5822 -2.6417
 2485SOL    HW218918   4.644   0.520  13.449  1.0364  0.2072  0.2444
 2486SOL     OW18919   2.656   1.831   3.858 -0.4490  0.4607 -0.2316
 2486SOL    HW118920   2.714   1.848   3.932 -0.6935  1.4192 -0.2554
 2486SOL    HW218921   2.601   1.909   3.850 -0.4321  0.6034  0.9923
 2487SOL     OW18922   0.676   3.149   1.475  0.9849  0.0744 -0.4965
 2487SOL    HW118923   0.728   3.117   1.549  0.8311  0.1178 -0.3687
 2487SOL    HW218924   0.601   3.176   1.529  1.0431  0.0594 -0.4081
 2488SOL     OW18925   1.401   2.323  16.151 -0.5877 -0.9106 -0.1454
 2488SOL    HW118926   1.439   2.243  16.114 -0.5394 -0.6236 -0.7303
 2488SOL    HW218927   1.349   2.349  16.075 -0.6721  1.7551  0.8202
 2489SOL     OW18928   4.048   1.300  17.583 -0.6699  0.2598 -0.4972
 2489SOL    HW118929   4.105   1.246  17.638  1.8043  1.9310 -1.4164
 2489SOL    HW218930   4.094   1.299  17.499 -0.5861  0.3412 -0.4512
 2490SOL     OW18931   0.050   2.670  16.305  0.2286 -0.1862 -0.5637
 2490SOL    HW118932   0.126   2.727  16.298 -1.1368  2.0170  2.2242
 2490SOL    HW218933   0.025   2.666  16.213 -1.2210  1.5366 -0.2424
 2491SOL     OW18934   1.540   0.972   3.576 -0.2621  0.6357 -0.2935
 2491SOL    HW118935   1.468   0.930   3.529 -0.5926 -0.2871  1.0447
 2491SOL    HW218936   1.489   1.009   3.648  0.0500 -1.9358  1.2695
 2492SOL     OW18937   2.595   1.849  15.054 -0.2412 -0.2787  0.2171
 2492SOL    HW118938   2.624   1.767  15.092 -2.3730 -1.1007  0.0653
 2492SOL    HW218939   2.539   1.812  14.986 -1.2121  0.6290  0.5184
 2493SOL     OW18940   4.257   0.124  17.429  0.2957 -0.2412  0.0502
 2493SOL    HW118941   4.210   0.081  17.357  0.2173 -0.4015  0.1946
 2493SOL    HW218942   4.351   0.117  17.411  0.3412  3.1412 -0.9906
 2494SOL     OW18943   1.768   2.866  10.837 -0.4299  0.4044 -0.2307
 2494SOL    HW118944   1.854   2.904  10.857  0.4040 -1.8675  0.4888
 2494SOL    HW218945   1.760   2.799  10.905  1.3657 -0.5368 -0.9622
 2495SOL     OW18946   2.671   1.248   2.497  0.5685  0.3016  1.0986
 2495SOL    HW118947   2.757   1.229   2.460 -0.4602  0.1948 -1.2246
 2495SOL    HW218948   2.621   1.178   2.455  0.2339  0.6496  0.9128
 2496SOL     OW18949   3.398   0.751   7.050  0.4883  0.5602  0.5496
 2496SOL    HW118950   3.435   0.836   7.073 -0.0981  0.7001  0.9762
 2496SOL    HW218951   3.309   0.762   7.082  0.5927 -0.2370  1.1004
 2497SOL     OW18952   2.403   1.482   7.124  0.2389 -0.0698 -0.0446
 2497SOL    HW118953   2.336   1.429   7.167 -1.6201  0.4650 -2.3213
 2497SOL    HW218954   2.381   1.561   7.174 -2.4084 -2.3887  2.4349
 2498SOL     OW18955   2.878   4.607   1.327  0.1442  0.1481 -0.4769
 2498SOL    HW118956   2.787   4.631   1.306 -1.5184 -3.9515  2.0056
 2498SOL    HW218957   2.911   4.692   1.357 -0.1660  0.6356 -1.5067
 2499SOL     OW18958   1.165   1.838   3.705  0.3461 -0.1106  0.3471
 2499SOL    HW118959   1.232   1.824   3.772  1.6977  1.0534 -0.7787
 2499SOL    HW218960   1.118   1.909   3.748 -2.3634 -0.3762 -2.1615
 2500SOL     OW18961   4.468   0.679  11.440 -0.3391  0.1410 -0.4342
 2500SOL    HW118962   4.528   0.740  11.396 -2.2632 -0.3462 -3.7185
 2500SOL    HW218963   4.421   0.629  11.373  0.7489 -0.2201 -0.9220
 2501SOL     OW18964   4.251   2.721   0.747 -0.3274  0.2201 -0.5098
 2501SOL    HW118965   4.171   2.669   0.740  1.0982 -1.6344 -3.2081
 2501SOL    HW218966   4.249   2.747   0.839  2.3650  0.7653 -0.5990
 2502SOL     OW18967   3.797   0.916   7.788 -0.2881  0.1383  0.4250
 2502SOL    HW118968   3.884   0.882   7.805 -0.0101 -0.1654 -1.6166
 2502SOL    HW218969   3.763   0.914   7.878  0.1652  0.6656  0.6043
 2503SOL     OW18970   3.570   2.732  13.220  0.6688  0.3373 -0.1923
 2503SOL    HW118971   3.496   2.790  13.201 -1.2191 -2.1843 -0.4980
 2503SOL    HW218972   3.596   2.760  13.308 -1.5969 -0.3680  0.6851
 2504SOL     OW18973   2.631   0.296   6.144 -0.3269  0.3534 -0.3041
 2504SOL    HW118974   2.633   0.227   6.210 -0.9825  2.1948  1.6235
 2504SOL    HW218975   2.535   0.300   6.150 -0.4645 -0.7263 -1.6646
 2505SOL     OW18976   0.351   4.066  15.966 -0.1819  0.3857  0.1172
 2505SOL    HW118977   0.418   4.014  15.921  0.4705  1.3295 -0.0172
 2505SOL    HW218978   0.288   4.054  15.895 -1.0365 -1.2437  1.1568
 2506SOL     OW18979   1.649   1.423   2.003  0.2284  0.0976  0.3470
 2506SOL    HW118980   1.620   1.465   1.922 -0.9986  0.7653  1.1389
 2506SOL    HW218981   1.677   1.335   1.976  0.4120  0.3129 -0.1565
 2507SOL     OW18982   1.438   0.624   9.719 -0.0687  0.3301 -0.3650
 2507SOL    HW118983   1.501   0.693   9.738  0.5523  0.1273 -1.6625
 2507SOL    HW218984   1.388   0.656   9.644 -0.8921 -0.9057 -0.3469
 2508SOL     OW18985   0.294   0.449   6.933 -0.1389 -0.3981  0.5754
 2508SOL    HW118986   0.205   0.467   6.902 -0.1787 -0.1558  0.8320
 2508SOL    HW218987   0.315   0.527   6.984  1.5781 -0.0815 -0.6383
 2509SOL     OW18988   3.042   0.440   2.417 -0.2457 -0.0349  0.2030
 2509SOL    HW118989   3.040   0.356   2.463  2.2894  0.5550  1.3821
 2509SOL    HW218990   3.137   0.451   2.412 -0.2406 -0.9164 -1.5924
 2510SOL     OW18991   1.206   3.062   4.272  0.1876 -0.7677 -0.5048
 2510SOL    HW118992   1.116   3.063   4.302  0.4270 -0.0692  0.1977
 2510SOL    HW218993   1.221   3.152   4.242 -1.7870 -0.1817  0.3251
 2511SOL     OW18994   2.959   2.184   2.071  0.1399 -0.3073  0.0895
 2511SOL    HW118995   3.033   2.202   2.129  0.2404  2.5033 -0.9382
 2511SOL    HW218996   2.886   2.226   2.117 -1.2426 -1.3195 -1.2082
 2512SOL     OW18997   1.179   4.424   4.488  0.5690 -0.0392 -0.1841
 2512SOL    HW118998   1.177   4.329   4.481  0.3438  0.0711 -1.6176
 2512SOL    HW218999   1.204   4.446   4.398 -0.0421 -1.2526 -0.6409
 2513SOL     OW19000   1.058   4.202   0.673  0.3746  0.5726  0.0082
 2513SOL    HW119001   1.129   4.195   0.609 -0.3622 -0.4449 -0.6891
 2513SOL    HW219002   1.089   4.278   0.723  0.5173  0.2115  0.4647
 2514SOL     OW19003   1.554   0.675   5.491 -0.0173 -0.1349 -0.0187
 2514SOL    HW119004   1.471   0.688   5.537 -2.1216 -2.4521 -3.1614
 2514SOL    HW219005   1.528   0.699   5.402 -3.3939  0.3920  1.1308
 2515SOL     OW19006   1.851   2.858   4.812  0.3429  0.6435  0.1301
 2515SOL    HW119007   1.772   2.874   4.863  0.7029  2.4780  0.1090
 2515SOL    HW219008   1.893   2.795   4.871  0.1804 -0.9819 -1.4878
 2516SOL     OW19009   2.531   2.237   8.610 -0.0510  0.3606  0.4614
 2516SOL    HW119010   2.521   2.223   8.705  2.7638 -1.2024  0.5299
 2516SOL    HW219011   2.593   2.310   8.611  1.5943 -0.9992 -2.0895
 2517SOL     OW19012   0.470   4.406   9.641  0.0149 -0.1741  0.2630
 2517SOL    HW119013   0.529   4.428   9.569 -0.3691  0.4649  0.1453
 2517SOL    HW219014   0.504   4.318   9.660  3.8990  1.0425 -0.9564
 2518SOL     OW19015   4.596   4.387   3.521  0.2986  0.3414 -0.6390
 2518SOL    HW119016   4.533   4.386   3.594 -0.3669 -0.4041 -1.2165
 2518SOL    HW219017   4.634   4.299   3.525 -0.5137  0.1198  2.6501
 2519SOL     OW19018   4.608   3.155  15.327  0.3251 -0.2478  0.3825
 2519SOL    HW119019   4.701   3.174  15.334  0.5357 -1.6391  1.4739
 2519SOL    HW219020   4.589   3.210  15.251  0.9898 -0.4619  0.0703
 2520SOL     OW19021   1.099   0.506   7.848 -0.4394  0.2709  0.2548
 2520SOL    HW119022   1.082   0.446   7.921 -0.8204 -1.7298 -1.4696
 2520SOL    HW219023   1.052   0.588   7.858  1.7514  1.7738 -1.9410
 2521SOL     OW19024   2.657   0.952   4.305 -0.3427  0.3745 -0.2674
 2521SOL    HW119025   2.697   1.031   4.270 -2.2288  1.3507 -0.2071
 2521SOL    HW219026   2.654   0.890   4.233 -2.2498  0.6608 -0.4260
 2522SOL     OW19027   3.726   1.666  14.061 -0.2280 -0.2059  0.5669
 2522SOL    HW119028   3.731   1.572  14.045 -1.8008 -0.3870  1.1378
 2522SOL    HW219029   3.732   1.662  14.156 -0.3393 -0.7579  0.5541
 2523SOL     OW19030   0.317   0.876   9.885  0.5842  0.2112  0.4030
 2523SOL    HW119031   0.371   0.948   9.852 -0.4416 -0.2913 -2.4114
 2523SOL    HW219032   0.349   0.863   9.974  0.1772 -0.2839  0.4780
 2524SOL     OW19033   2.616   3.888  17.035 -0.1311  0.1351  0.0695
 2524SOL    HW119034   2.606   3.800  17.069 -3.7270  0.9693  1.1164
 2524SOL    HW219035   2.710   3.894  17.019 -0.4188 -2.5255 -2.5882
 2525SOL     OW19036   1.656   1.563  11.397  0.2115  0.2512 -0.0051
 2525SOL    HW119037   1.685   1.644  11.440 -1.7667  0.1992  1.4487
 2525SOL    HW219038   1.616   1.592  11.315  0.6284  0.9527  0.0399
 2526SOL     OW19039   1.981   3.011   4.639 -0.6731 -0.4180 -0.2872
 2526SOL    HW119040   1.937   2.950   4.700  1.9593  0.1940  2.2249
 2526SOL    HW219041   1.903   3.058   4.611 -1.4884 -1.6677 -0.1541
 2527SOL     OW19042   3.925   4.505  10.892  0.0222 -0.5549  0.7948
 2527SOL    HW119043   3.883   4.420  10.880  1.5193 -1.1994  0.2311
 2527SOL    HW219044   3.913   4.531  10.801 -0.5075  0.8442  1.2641
 2528SOL     OW19045   1.037   2.820  17.297 -0.8576  0.0365  0.2273
 2528SOL    HW119046   1.022   2.784  17.385  0.5792 -0.5369  0.2430
 2528SOL    HW219047   0.951   2.859  17.282 -0.1392  1.3609 -0.3780
 2529SOL     OW19048   0.657   1.859  12.169  0.2122 -0.4603  0.4773
 2529SOL    HW119049   0.679   1.789  12.107  0.7055  0.3407 -0.2564
 2529SOL    HW219050   0.565   1.872  12.144 -0.0011  0.6135  1.8072
 2530SOL     OW19051   2.823   4.367   4.563  0.6405 -0.3447  0.2594
 2530SOL    HW119052   2.850   4.428   4.495  2.6400 -2.7941 -1.1512
 2530SOL    HW219053   2.868   4.383   4.646 -3.3110  1.8866  1.9856
 2531SOL     OW19054   0.373   1.494   5.479  0.3345  0.1052 -0.1624
 2531SOL    HW119055   0.343   1.454   5.561  0.8616  0.9439  0.4457
 2531SOL    HW219056   0.385   1.585   5.506 -0.6147  0.3594 -0.6041
 2532SOL     OW19057   2.839   0.518   9.479 -0.2074 -0.5619  0.0152
 2532SOL    HW119058   2.759   0.513   9.531  0.7130 -2.3274  1.2577
 2532SOL    HW219059   2.854   0.424   9.469 -1.1649 -0.5338 -1.7345
 2533SOL     OW19060   1.505   4.034  12.923 -0.4807 -1.1289 -0.4838
 2533SOL    HW119061   1.577   4.009  12.866 -0.0413 -0.1922 -0.3444
 2533SOL    HW219062   1.509   3.972  12.996 -0.2719  0.6401  1.0463
 2534SOL     OW19063   4.084   0.444   3.238 -0.3716 -0.4866 -0.3189
 2534SOL    HW119064   4.049   0.407   3.319  0.9190 -0.7625  0.1038
 2534SOL    HW219065   4.015   0.510   3.227  0.2597  0.2926  0.4595
 2535SOL     OW19066   2.143   2.829   1.831 -0.2327  0.5843 -0.1479
 2535SOL    HW119067   2.233   2.850   1.806  0.0748  2.3471  2.4584
 2535SOL    HW219068   2.118   2.917   1.857  1.0564  0.8253  0.3083
 2536SOL     OW19069   4.642   0.907  15.365  0.3896  0.1892 -0.4803
 2536SOL    HW119070   4.587   0.983  15.346 -0.7788 -1.2739 -3.0305
 2536SOL    HW219071   4.636   0.875  15.275  1.6044 -1.3120 -0.0335
 2537SOL     OW19072   4.554   2.503  11.710 -0.2841 -0.0755 -0.0465
 2537SOL    HW119073   4.462   2.529  11.719 -0.2633  0.7503 -2.1716
 2537SOL    HW219074   4.588   2.523  11.797 -0.9994  0.1882  0.1703
 2538SOL     OW19075   2.510   0.942   3.364  0.9491  0.4313  0.3636
 2538SOL    HW119076   2.532   0.989   3.284 -1.9361  1.1125 -0.0359
 2538SOL    HW219077   2.524   1.013   3.427 -0.6327  0.9354  0.1339
 2539SOL     OW19078   3.904   3.936   6.913  0.6466 -0.0950 -0.4063
 2539SOL    HW119079   3.838   3.900   6.854  0.1622  0.7568 -0.3763
 2539SOL    HW219080   3.984   3.904   6.871  0.9253 -0.6493  0.5478
 2540SOL     OW19081   2.575   3.930   0.977  0.1705 -0.4281  0.0924
 2540SOL    HW119082   2.574   3.835   0.977 -0.8631 -0.4076  0.6585
 2540SOL    HW219083   2.505   3.948   1.040 -0.3675  1.4477 -1.0394
 2541SOL     OW19084   0.379   1.089   9.147 -0.2794  0.3001 -0.0432
 2541SOL    HW119085   0.441   1.021   9.122  0.6702  0.4907  1.7968
 2541SOL    HW219086   0.313   1.035   9.190 -0.0285  0.2462  0.2726
 2542SOL     OW19087   3.832   1.017   5.781  0.0589  0.0516  0.5754
 2542SOL    HW119088   3.771   1.086   5.806 -1.8756 -0.0496 -3.7241
 2542SOL    HW219089   3.894   1.065   5.726  0.0987  0.0860  0.6512
 2543SOL     OW19090   4.466   0.196   8.980  0.5863 -0.3012  0.4316
 2543SOL    HW119091   4.454   0.267   8.917  1.3021 -0.5383  0.0344
 2543SOL    HW219092   4.520   0.232   9.051 -1.1215  2.1818  0.4708
 2544SOL     OW19093   4.458   1.550   1.958 -0.0974 -0.4550  0.2756
 2544SOL    HW119094   4.384   1.504   1.917 -0.8868  0.0617  1.1374
 2544SOL    HW219095   4.495   1.600   1.886 -0.0410 -1.0178 -0.0895
 2545SOL     OW19096   0.676   4.108   3.360 -0.1558 -0.5675  0.9923
 2545SOL    HW119097   0.676   4.055   3.281 -1.5939 -0.3058  0.8077
 2545SOL    HW219098   0.728   4.057   3.422 -0.5184 -0.3301  1.4907
 2546SOL     OW19099   0.228   1.138   9.629  0.1888  0.1620 -0.4758
 2546SOL    HW119100   0.271   1.211   9.585 -0.9373  1.6452  0.9239
 2546SOL    HW219101   0.175   1.109   9.554  0.6524 -1.6139 -0.1203
 2547SOL     OW19102   0.002   1.458   3.284 -0.2369  0.3330 -0.2864
 2547SOL    HW119103   0.083   1.500   3.258  1.5528 -1.4812  2.3238
 2547SOL    HW219104   4.686   1.539   3.318  0.0281  0.8855 -1.3307
 2548SOL     OW19105   3.189   3.234   0.599  0.0343  1.1038 -0.3477
 2548SOL    HW119106   3.212   3.204   0.687 -0.2244  1.4551 -0.1584
 2548SOL    HW219107   3.269   3.224   0.549  1.4682 -1.7749  2.4798
 2549SOL     OW19108   0.111   0.910   8.487 -0.0509 -0.1922  0.1396
 2549SOL    HW119109   0.138   0.966   8.415 -3.2184  2.2815  0.8769
 2549SOL    HW219110   0.175   0.841   8.468  1.0118  0.8913 -0.1590
 2550SOL     OW19111   1.682   0.965   5.390 -0.5689 -0.2439  0.0024
 2550SOL    HW119112   1.715   1.023   5.458  0.7419 -1.1687  0.1440
 2550SOL    HW219113   1.631   0.905   5.444 -1.9569  0.9971  0.0725
 2551SOL     OW19114   3.051   4.632  10.964  0.2428 -0.5090  0.6416
 2551SOL    HW119115   3.052   4.552  10.912 -0.3642  0.4596 -0.8842
 2551SOL    HW219116   2.959   4.651  10.945  0.5823  0.4015 -0.1186
 2552SOL     OW19117   0.109   0.927   2.737 -0.5371 -0.2435  0.6503
 2552SOL    HW119118   0.047   0.856   2.750  0.2564 -0.5371  2.8712
 2552SOL    HW219119   0.103   0.974   2.821  1.0231  1.3567 -0.1297
 2553SOL     OW19120   0.193   3.039   6.745 -0.0822 -0.2027  0.4286
 2553SOL    HW119121   0.151   3.092   6.678  0.3771 -0.9178 -0.4323
 2553SOL    HW219122   0.131   2.967   6.756 -1.4019  0.5571 -2.0556
 2554SOL     OW19123   0.536   1.905  10.579  0.6169  0.0768  0.2834
 2554SOL    HW119124   0.451   1.875  10.613  1.8114 -0.5399  2.7223
 2554SOL    HW219125   0.598   1.858  10.635  0.9230  1.7818  1.3724
 2555SOL     OW19126   4.135   0.699  15.708  0.0763  0.4793 -0.2183
 2555SOL    HW119127   4.230   0.696  15.721 -0.0532  1.7737  0.9533
 2555SOL    HW219128   4.090   0.666  15.786  0.4583 -3.7128 -1.7809
 2556SOL     OW19129   0.287   1.380   0.840  0.2077 -0.4820  0.0340
 2556SOL    HW119130   0.234   1.399   0.762  0.3484  0.1766  0.0922
 2556SOL    HW219131   0.279   1.465   0.883  1.2143 -0.5993  0.4442
 2557SOL     OW19132   1.339   0.321  13.689  0.1992  0.4591 -0.0166
 2557SOL    HW119133   1.251   0.294  13.665  0.5769 -0.5806 -0.2195
 2557SOL    HW219134   1.367   0.244  13.738 -1.2379  0.1776  0.3531
 2558SOL     OW19135   3.675   4.384   5.222  0.7496 -0.4690 -0.1748
 2558SOL    HW119136   3.760   4.407   5.184  0.1121 -0.8879 -1.8817
 2558SOL    HW219137   3.657   4.310   5.164  3.2397  0.7122 -2.4836
 2559SOL     OW19138   1.154   2.695  12.835 -0.2464  0.1485 -0.3040
 2559SOL    HW119139   1.247   2.673  12.836 -0.5652 -1.1977  0.2883
 2559SOL    HW219140   1.131   2.686  12.928 -1.3528 -0.9896 -0.6851
 2560SOL     OW19141   1.162   1.756  13.632  0.3089  0.8091  0.1686
 2560SOL    HW119142   1.070   1.731  13.635  1.2862 -2.6056  1.1407
 2560SOL    HW219143   1.175   1.763  13.726 -0.1841  2.6260  0.1026
 2561SOL     OW19144   0.180   4.499   9.363  0.6288 -0.1498 -0.5083
 2561SOL    HW119145   0.259   4.497   9.309  0.7503 -1.4304 -0.2715
 2561SOL    HW219146   0.116   4.535   9.300  0.5324  2.5060  1.0868
 2562SOL     OW19147   1.825   3.826   7.839 -0.1421  0.5471 -0.6722
 2562SOL    HW119148   1.817   3.820   7.744 -1.2969 -1.2227 -0.4629
 2562SOL    HW219149   1.762   3.756   7.859 -0.8212  1.7837  1.6129
 2563SOL     OW19150   2.858   3.709   3.983  0.8124  0.0164  0.4044
 2563SOL    HW119151   2.886   3.736   3.896  1.3606 -0.7202  0.3524
 2563SOL    HW219152   2.945   3.695   4.020  1.4327  1.9670 -0.2881
 2564SOL     OW19153   1.567   0.196  12.360  0.2091  0.7237 -0.0447
 2564SOL    HW119154   1.562   0.157  12.273 -1.3035  1.8494 -0.4763
 2564SOL    HW219155   1.480   0.237  12.362 -0.1053  0.1168 -1.2498
 2565SOL     OW19156   0.042   1.086   5.860 -0.0459 -0.1805 -0.0065
 2565SOL    HW119157   0.115   1.102   5.801  0.5717  0.4792  0.9411
 2565SOL    HW219158   0.035   0.990   5.856 -1.5860 -0.1076  0.8681
 2566SOL     OW19159   0.215   0.706   4.546 -0.4629 -0.0861  0.1877
 2566SOL    HW119160   0.310   0.712   4.554 -0.4159  0.7619 -1.0488
 2566SOL    HW219161   0.198   0.760   4.623  1.4340 -0.0963  0.6135
 2567SOL     OW19162   1.390   1.609   8.281  0.3854 -0.4095 -0.3132
 2567SOL    HW119163   1.335   1.681   8.311  0.6738 -0.1308 -0.4556
 2567SOL    HW219164   1.476   1.642   8.308 -0.3971  1.9420 -0.7446
 2568SOL     OW19165   4.291   4.678   3.374  0.6759  0.0736 -0.3706
 2568SOL    HW119166   4.381   4.663   3.403  0.7043  0.3072 -0.3349
 2568SOL    HW219167   4.297   4.692   3.279  1.0107  1.0014 -0.2144
 2569SOL     OW19168   2.114   3.145   1.276 -0.1887 -0.1925  0.0582
 2569SOL    HW119169   2.085   3.224   1.229  0.2561  0.1424  0.3450
 2569SOL    HW219170   2.046   3.080   1.259  2.2133 -2.2605 -1.4327
 2570SOL     OW19171   3.991   3.273  12.599 -0.6190 -0.2267  0.0981
 2570SOL    HW119172   4.012   3.297  12.689  1.1347 -0.7856 -0.1709
 2570SOL    HW219173   3.934   3.196  12.603 -0.6600 -0.2371 -0.7480
 2571SOL     OW19174   3.061   4.581   2.481  0.1352 -0.0441 -0.1284
 2571SOL    HW119175   3.004   4.504   2.476 -0.1414  0.1976 -0.7365
 2571SOL    HW219176   3.102   4.582   2.394 -0.3572 -0.4275 -0.3645
 2572SOL     OW19177   2.911   1.868   5.468  0.2254  0.0186  0.0135
 2572SOL    HW119178   2.816   1.870   5.452  0.1250  1.0423  0.7615
 2572SOL    HW219179   2.916   1.912   5.553  3.0962  0.6129 -0.4578
 2573SOL     OW19180   3.810   1.532   4.507 -0.5162 -0.0769  0.1040
 2573SOL    HW119181   3.733   1.586   4.490  0.3081  0.5927 -1.5587
 2573SOL    HW219182   3.827   1.500   4.418 -0.1172  0.7375 -0.1203
 2574SOL     OW19183   3.050   0.370  13.476 -0.4768  0.3660 -0.5249
 2574SOL    HW119184   2.978   0.430  13.456 -0.9019 -0.4717 -1.5260
 2574SOL    HW219185   3.026   0.337  13.562  2.6220  1.4637  0.7415
 2575SOL     OW19186   3.326   1.458   5.137  0.8738  0.1859  0.2542
 2575SOL    HW119187   3.344   1.549   5.163 -1.1963  0.1922  1.7162
 2575SOL    HW219188   3.402   1.416   5.177 -0.4580 -2.2049  0.2785
 2576SOL     OW19189   4.358   3.671   3.923  0.2274 -0.1973  0.4975
 2576SOL    HW119190   4.373   3.609   3.852 -1.4402 -2.1937  1.8868
 2576SOL    HW219191   4.302   3.611   3.973  0.3914 -1.5612 -0.9928
 2577SOL     OW19192   2.199   3.498   1.268  0.1980 -0.3001 -0.2830
 2577SOL    HW119193   2.149   3.463   1.342  0.8557 -1.9528 -0.6177
 2577SOL    HW219194   2.289   3.477   1.293  0.2672  1.1738  0.6887
 2578SOL     OW19195   1.019   2.651   1.069  0.3678  0.1929 -0.4805
 2578SOL    HW119196   0.979   2.719   1.125  1.3454  0.1259  0.2977
 2578SOL    HW219197   1.021   2.702   0.988 -2.9109  0.4248 -0.4192
 2579SOL     OW19198   1.796   1.941   9.989 -0.1597 -0.1242  0.3537
 2579SOL    HW119199   1.791   1.849  10.015 -1.0189  0.7470  3.2394
 2579SOL    HW219200   1.888   1.966   9.997  0.3126 -0.7825 -2.9389
 2580SOL     OW19201   2.515   0.267   2.139 -0.3979  0.2961 -0.2670
 2580SOL    HW119202   2.467   0.252   2.057 -1.2552 -3.1015  0.8541
 2580SOL    HW219203   2.592   0.306   2.099 -0.7147  0.7753 -0.4167
 2581SOL     OW19204   2.802   0.558   9.113  0.4746  0.1764  0.1753
 2581SOL    HW119205   2.791   0.635   9.169  0.7743  0.6083 -0.3698
 2581SOL    HW219206   2.869   0.588   9.053  0.5812 -0.3053  0.0546
 2582SOL     OW19207   2.857   0.165   7.419  0.5887 -0.1209 -0.3973
 2582SOL    HW119208   2.897   0.093   7.371 -0.1075 -0.1414 -0.9350
 2582SOL    HW219209   2.888   0.146   7.508 -0.2215 -0.3941 -0.1798
 2583SOL     OW19210   4.479   1.204  17.476  0.2347  0.1562  0.5588
 2583SOL    HW119211   4.527   1.253  17.409 -0.8441 -0.2211 -0.4882
 2583SOL    HW219212   4.526   1.121  17.465 -0.3892  0.1123 -1.8233
 2584SOL     OW19213   0.140   0.299   5.619 -0.4051  0.0111  0.2723
 2584SOL    HW119214   0.067   0.240   5.637 -0.2240 -0.1679  0.4065
 2584SOL    HW219215   0.100   0.367   5.564  0.6156  0.5400  0.1800
 2585SOL     OW19216   2.049   2.289  12.057 -0.6600 -0.0575  0.6487
 2585SOL    HW119217   1.984   2.342  12.103  1.2045  0.6450  2.4298
 2585SOL    HW219218   2.124   2.320  12.107  1.4818 -1.2939 -1.7830
 2586SOL     OW19219   4.692   0.819   8.218  0.0447 -0.3429  0.1421
 2586SOL    HW119220   0.003   0.790   8.303 -0.5629  0.0528  0.5120
 2586SOL    HW219221   0.041   0.880   8.197 -0.0392 -0.8783 -1.7196
 2587SOL     OW19222   1.967   4.515  10.173 -0.2799  0.5144 -0.4328
 2587SOL    HW119223   1.896   4.451  10.169 -0.7300  0.8384  2.8236
 2587SOL    HW219224   1.918   4.588  10.211 -2.1816 -0.8675 -0.2719
 2588SOL     OW19225   1.343   3.641  11.184  0.7294 -0.4187  0.4603
 2588SOL    HW119226   1.398   3.574  11.143 -1.6047  0.0128 -3.3381
 2588SOL    HW219227   1.405   3.655  11.255  0.4425  0.8778  0.4632
 2589SOL     OW19228   3.441   3.720   0.543  0.1903 -0.3519 -0.0375
 2589SOL    HW119229   3.486   3.635   0.542  0.1079 -0.3885 -1.5441
 2589SOL    HW219230   3.375   3.706   0.474 -1.2146 -0.7055  1.3893
 2590SOL     OW19231   2.254   3.750   3.392  0.0516 -0.4561  0.6594
 2590SOL    HW119232   2.286   3.783   3.308 -3.8297 -2.3055 -1.5097
 2590SOL    HW219233   2.315   3.679   3.412  2.1123  0.9813 -0.5602
 2591SOL     OW19234   0.135   3.023  15.736 -0.2824  0.3188 -0.2275
 2591SOL    HW119235   0.133   3.115  15.710 -1.9985  0.8334  1.6829
 2591SOL    HW219236   0.160   3.035  15.828  0.0081 -3.4967  0.2060
 2592SOL     OW19237   3.750   3.439   8.696  0.1727  1.0221 -0.0509
 2592SOL    HW119238   3.740   3.534   8.710 -0.3057  0.9829 -0.1153
 2592SOL    HW219239   3.661   3.417   8.668  1.4960 -3.3372 -0.7659
 2593SOL     OW19240   2.691   0.771   4.074  0.0186  0.2035  0.7503
 2593SOL    HW119241   2.742   0.691   4.061 -1.2235 -0.7385  1.6873
 2593SOL    HW219242   2.732   0.823   4.005  2.8792  1.3969  3.3405
 2594SOL     OW19243   4.702   1.997   4.966  0.3170 -0.1240  0.0825
 2594SOL    HW119244   0.051   2.039   4.916 -1.4607  0.8396 -1.6412
 2594SOL    HW219245   4.628   2.021   4.911 -0.7037  1.5691  2.1760
 2595SOL     OW19246   2.796   3.043  13.040 -1.1854  0.2366  0.1760
 2595SOL    HW119247   2.829   3.113  13.095 -0.1214  0.5095 -0.7932
 2595SOL    HW219248   2.703   3.060  13.047 -0.6904  2.0951  2.1736
 2596SOL     OW19249   4.144   2.187   6.123 -0.1446  0.3486  0.3814
 2596SOL    HW119250   4.171   2.246   6.193 -0.4208 -0.3392  1.0775
 2596SOL    HW219251   4.186   2.107   6.155  0.4523  0.3963 -0.2861
 2597SOL     OW19252   2.911   1.366   1.199 -0.1144  0.1679  0.1509
 2597SOL    HW119253   2.956   1.311   1.135 -3.4509 -3.7554  1.1114
 2597SOL    HW219254   2.841   1.407   1.148 -0.2192 -1.0034 -0.6543
 2598SOL     OW19255   1.974   2.885   4.148 -0.2250  0.2964  0.2473
 2598SOL    HW119256   1.997   2.902   4.240 -1.5611 -0.6519  0.7489
 2598SOL    HW219257   1.972   2.976   4.119  1.8961  0.9884  2.1868
 2599SOL     OW19258   3.678   1.485   7.676  0.3124 -0.2319  0.0317
 2599SOL    HW119259   3.728   1.528   7.745 -1.9858 -0.8164  2.0585
 2599SOL    HW219260   3.637   1.424   7.738  0.8091 -1.4380 -0.8112
 2600SOL     OW19261   2.298   2.847   5.936 -0.1827 -0.4061 -0.0639
 2600SOL    HW119262   2.359   2.865   5.865 -1.1970 -1.4947 -1.2138
 2600SOL    HW219263   2.285   2.930   5.982  0.8832  0.6089 -1.6310
 2601SOL     OW19264   3.413   1.328  10.194  0.0098 -0.1042  0.2215
 2601SOL    HW119265   3.385   1.259  10.135 -0.2976  0.0429  0.1932
 2601SOL    HW219266   3.414   1.285  10.280  2.6436 -3.3343 -1.4566
 2602SOL     OW19267   3.286   2.142   6.628 -0.2408 -0.1020  0.0875
 2602SOL    HW119268   3.268   2.052   6.655  2.4431 -0.3193  1.1098
 2602SOL    HW219269   3.325   2.127   6.542  1.2559 -2.9698  1.2883
 2603SOL     OW19270   1.782   2.972   7.686 -0.0305  0.1729 -0.1565
 2603SOL    HW119271   1.805   3.038   7.620  0.6378 -0.6703 -0.7686
 2603SOL    HW219272   1.732   3.030   7.743 -0.0250  1.1530 -1.1563
 2604SOL     OW19273   2.340   2.458   4.733  0.1370  0.0256  0.5026
 2604SOL    HW119274   2.429   2.434   4.758  0.7696  0.4639 -1.3465
 2604SOL    HW219275   2.317   2.376   4.688  1.8145 -0.0610 -0.1740
 2605SOL     OW19276   2.224   3.141   5.166 -0.3723  0.3481 -0.0325
 2605SOL    HW119277   2.224   3.045   5.167  1.1368  0.3530  0.3423
 2605SOL    HW219278   2.281   3.156   5.090  0.1819  0.4029  0.3966
 2606SOL     OW19279   4.605   4.695   2.786  0.3412 -0.2845  0.6248
 2606SOL    HW119280   4.557   4.694   2.869 -0.1857  1.5756  0.3213
 2606SOL    HW219281   4.534   0.010   2.735 -1.2422 -3.0782  0.7916
 2607SOL     OW19282   2.520   1.794  17.677  0.3631  0.3464 -0.0947
 2607SOL    HW119283   2.482   1.760  17.596  1.1787 -1.0220  0.0996
 2607SOL    HW219284   2.441   1.822   0.034 -1.0439 -1.2212 -1.5340
 2608SOL     OW19285   1.714   0.238   1.995  0.6643  0.1715  0.0359
 2608SOL    HW119286   1.626   0.255   2.028 -0.6620 -2.1665 -2.2200
 2608SOL    HW219287   1.737   0.314   1.941 -0.8880  0.0460 -0.7961
 2609SOL     OW19288   0.048   1.886  14.543 -0.0051  0.0044  0.1098
 2609SOL    HW119289   0.092   1.851  14.621  1.8961  2.5839  0.2025
 2609SOL    HW219290   0.066   1.978  14.563 -0.0758 -0.4002  2.0747
 2610SOL     OW19291   4.143   3.031   1.976  0.1435  0.1599 -0.2195
 2610SOL    HW119292   4.141   2.950   2.027 -0.1707  1.3885  1.7313
 2610SOL    HW219293   4.216   3.065   2.028 -1.3217  0.9816  1.2866
 2611SOL     OW19294   4.550   0.824   8.971 -0.2510 -0.1402 -0.0153
 2611SOL    HW119295   4.600   0.873   9.037 -1.1044  0.9799 -0.1930
 2611SOL    HW219296   4.627   0.787   8.927  0.5695  0.3719  0.9869
 2612SOL     OW19297   3.812   4.171   7.701  0.7336  0.0367  0.5506
 2612SOL    HW119298   3.898   4.144   7.732  0.0542 -2.2263  0.4250
 2612SOL    HW219299   3.840   4.180   7.610  0.0129  0.4180  0.3718
 2613SOL     OW19300   0.067   4.355   5.489  0.1624 -0.2883  0.1232
 2613SOL    HW119301   0.006   4.426   5.509  0.7752  0.5954 -1.1117
 2613SOL    HW219302   0.036   4.279   5.539 -2.6944  1.2179  0.6422
 2614SOL     OW19303   3.015   0.112   3.782 -0.4194 -0.0766 -0.0625
 2614SOL    HW119304   3.017   0.042   3.848  0.0562  0.3525  0.3731
 2614SOL    HW219305   3.074   0.181   3.812  1.4046 -1.7971  0.3180
 2615SOL     OW19306   3.517   3.792  10.958  0.5228 -0.3206  0.3060
 2615SOL    HW119307   3.602   3.810  10.918 -0.0620  0.7510 -0.4433
 2615SOL    HW219308   3.462   3.861  10.921  0.2060 -0.4164  0.6006
 2616SOL     OW19309   2.181   1.373   7.236 -0.4331 -0.0958  0.2993
 2616SOL    HW119310   2.170   1.333   7.323 -2.5352  2.0082  0.9944
 2616SOL    HW219311   2.136   1.457   7.246 -0.0254 -0.0168  1.5554
 2617SOL     OW19312   3.543   0.335   4.736 -0.3116  0.1753  0.0823
 2617SOL    HW119313   3.498   0.253   4.717 -1.5587  0.6647  0.9877
 2617SOL    HW219314   3.479   0.390   4.781 -0.2651  1.1756 -1.0739
 2618SOL     OW19315   1.923   1.851   5.095 -0.0653 -0.3086  0.0184
 2618SOL    HW119316   1.854   1.857   5.029  1.9453 -2.6326 -2.2798
 2618SOL    HW219317   1.972   1.777   5.059 -0.1153  0.0476 -0.7725
 2619SOL     OW19318   0.400   1.471   2.246 -0.0257  0.0224 -0.1789
 2619SOL    HW119319   0.308   1.447   2.234  0.3706 -0.1735 -2.8310
 2619SOL    HW219320   0.391   1.565   2.262 -0.7264 -0.4010  1.9272
 2620SOL     OW19321   2.148   1.629   1.477 -0.0377  0.3286  0.2727
 2620SOL    HW119322   2.197   1.566   1.425 -1.3013 -0.7474  0.3826
 2620SOL    HW219323   2.220   1.679   1.517  1.9885 -0.3572 -2.5329
 2621SOL     OW19324   1.292   0.340  16.921  0.4725  0.4341 -0.7351
 2621SOL    HW119325   1.238   0.416  16.941 -0.6834 -0.6173  0.1355
 2621SOL    HW219326   1.229   0.270  16.934  0.5430  0.2118 -1.5755
 2622SOL     OW19327   2.754   1.329  14.517  0.0351  0.2824  0.4036
 2622SOL    HW119328   2.712   1.327  14.603 -2.2337 -0.7714 -0.7295
 2622SOL    HW219329   2.758   1.238  14.488  0.0731  0.6685 -0.7925
 2623SOL     OW19330   1.658   2.219  10.262  0.2965 -0.3906 -0.0605
 2623SOL    HW119331   1.716   2.230  10.337  0.9112 -0.7486 -0.4820
 2623SOL    HW219332   1.592   2.279  10.295 -1.7076 -1.2868 -2.4243
 2624SOL     OW19333   3.479   2.275  14.176  0.2985  0.2896 -0.3776
 2624SOL    HW119334   3.390   2.247  14.199  0.9607 -0.8568  0.8011
 2624SOL    HW219335   3.470   2.279  14.081  0.8935 -2.2336 -0.5258
 2625SOL     OW19336   4.295   3.990  12.527  0.3900 -0.4396  0.6729
 2625SOL    HW119337   4.285   4.085  12.518  1.9978 -0.4519 -1.3688
 2625SOL    HW219338   4.250   3.970  12.609 -0.4133 -3.7960 -0.5839
 2626SOL     OW19339   4.521   2.744  13.935  0.2334  0.0088  0.3245
 2626SOL    HW119340   4.535   2.816  13.996 -0.0377 -0.3736  0.8337
 2626SOL    HW219341   4.524   2.792  13.852  3.1652  0.8383  0.9181
 2627SOL     OW19342   1.935   0.791  10.051 -0.0818  0.0147  0.6042
 2627SOL    HW119343   2.025   0.822  10.042 -0.3557  1.1377  1.6540
 2627SOL    HW219344   1.936   0.763   9.960 -0.1833 -0.9038  0.8906
 2628SOL     OW19345   0.969   1.738  14.476  0.1190 -0.2752  0.5421
 2628SOL    HW119346   1.044   1.691  14.511  0.2166  0.5649  1.4494
 2628SOL    HW219347   0.991   1.826  14.506  1.1874 -0.9794  1.8007
 2629SOL     OW19348   1.645   4.354   4.797 -0.2739 -0.0874 -0.0420
 2629SOL    HW119349   1.741   4.353   4.792 -0.2189  0.7763  0.7280
 2629SOL    HW219350   1.624   4.326   4.708  0.8209 -1.1214  0.0181
 2630SOL     OW19351   3.146   4.076   9.413 -0.8554 -0.3075 -0.4760
 2630SOL    HW119352   3.083   4.011   9.382 -1.1988 -0.8894  1.4457
 2630SOL    HW219353   3.084   4.149   9.416  0.8992  1.1303  1.4545
 2631SOL     OW19354   2.536   4.655   3.171  0.8293  0.3547 -0.2681
 2631SOL    HW119355   2.463   4.603   3.136  0.4046  1.4044 -0.9606
 2631SOL    HW219356   2.575   4.591   3.230 -1.4566 -0.8218 -0.0142
 2632SOL     OW19357   2.908   2.833   9.364  0.2646 -0.3249 -0.0216
 2632SOL    HW119358   2.849   2.902   9.333 -0.2362 -0.7057  0.0831
 2632SOL    HW219359   2.899   2.835   9.459 -0.9319 -0.9903 -0.1187
 2633SOL     OW19360   3.189   2.405   3.748 -0.9207 -0.2468 -0.2597
 2633SOL    HW119361   3.164   2.463   3.676 -1.4332  2.1303  1.8333
 2633SOL    HW219362   3.276   2.375   3.720 -0.1631  0.3320  1.4464
 2634SOL     OW19363   4.026   0.011   5.453  0.1205  0.1680 -0.0007
 2634SOL    HW119364   4.049   4.660   5.394  0.6413 -1.4456  2.1916
 2634SOL    HW219365   3.932   0.022   5.445  0.3918  0.6426 -2.3893
 2635SOL     OW19366   0.511   0.698   4.891  0.2229 -0.5379  0.6436
 2635SOL    HW119367   0.444   0.735   4.833  1.9724 -0.6749 -1.4439
 2635SOL    HW219368   0.572   0.771   4.892 -0.1469 -0.1963 -0.8662
 2636SOL     OW19369   4.167   0.363   5.874  0.1468 -0.6343 -0.1619
 2636SOL    HW119370   4.116   0.307   5.815 -0.0674 -1.5391  0.8840
 2636SOL    HW219371   4.235   0.297   5.887  1.3915  0.5220 -0.7462
 2637SOL     OW19372   4.234   0.169   6.373 -0.2267  0.0798  0.0933
 2637SOL    HW119373   4.217   0.077   6.357  0.7710 -0.0162 -0.3451
 2637SOL    HW219374   4.327   0.158   6.358 -0.0278 -0.3203  1.5675
 2638SOL     OW19375   0.040   0.505   0.449 -0.1271 -0.0061  0.0880
 2638SOL    HW119376   0.107   0.440   0.470  1.7783  1.2528 -2.0967
 2638SOL    HW219377   0.015   0.467   0.364 -0.4313  1.8305 -0.6390
 2639SOL     OW19378   1.603   2.316   8.826  0.0707  0.3618  0.0431
 2639SOL    HW119379   1.696   2.293   8.824 -0.1054 -0.3879  0.3542
 2639SOL    HW219380   1.599   2.331   8.920 -1.0211  1.0943 -0.1156
 2640SOL     OW19381   0.088   2.615   5.155 -0.7371  0.0452  0.1599
 2640SOL    HW119382   0.120   2.569   5.078  0.1132 -0.6309  0.9124
 2640SOL    HW219383   4.716   2.607   5.137 -0.6418 -0.6840 -0.0195
 2641SOL     OW19384   2.536   2.292   0.585 -0.5339  0.1148 -0.1086
 2641SOL    HW119385   2.464   2.298   0.647  0.1231  1.5371  0.5017
 2641SOL    HW219386   2.531   2.379   0.546  1.7404  0.2636 -0.0555
 2642SOL     OW19387   1.061   0.585  13.543 -0.3400 -0.2187  0.3775
 2642SOL    HW119388   1.146   0.603  13.584 -0.5367 -1.3614  1.2803
 2642SOL    HW219389   1.035   0.662  13.492  0.1169  0.6006  1.3767
 2643SOL     OW19390   1.706   0.926   4.250 -0.4170  1.0421 -0.0396
 2643SOL    HW119391   1.781   0.957   4.200 -1.3082 -1.6268 -3.0476
 2643SOL    HW219392   1.721   0.832   4.236  0.1377  1.0216  0.7141
 2644SOL     OW19393   0.352   3.462   5.867 -0.3551 -0.2584  0.1095
 2644SOL    HW119394   0.373   3.467   5.774  0.0100  5.6800  0.5382
 2644SOL    HW219395   0.361   3.371   5.896 -2.5163 -0.2501  0.7842
 2645SOL     OW19396   3.506   2.970   9.445 -0.4585 -0.1342  0.0370
 2645SOL    HW119397   3.440   2.903   9.431  0.3505 -0.6106 -1.5376
 2645SOL    HW219398   3.459   3.048   9.473  1.7378  1.5099 -0.8447
 2646SOL     OW19399   1.304   0.566   2.155  0.3543  0.3910  0.2876
 2646SOL    HW119400   1.310   0.597   2.245  0.6756  0.9399  0.0724
 2646SOL    HW219401   1.216   0.529   2.147 -0.6264  2.9713 -0.7213
 2647SOL     OW19402   0.452   0.553   8.795  0.2291  0.1354  0.0660
 2647SOL    HW119403   0.491   0.619   8.853 -1.7281  1.9663 -0.7196
 2647SOL    HW219404   0.361   0.555   8.825 -0.6062  0.3127 -2.5556
 2648SOL     OW19405   0.719   4.093   4.091  0.4743  0.3894 -0.4783
 2648SOL    HW119406   0.740   4.133   4.175  0.2679  0.1428 -0.3099
 2648SOL    HW219407   0.624   4.098   4.104  0.5599 -0.5363  0.4338
 2649SOL     OW19408   1.661   1.738   2.535  0.0900  0.3117  0.0901
 2649SOL    HW119409   1.606   1.699   2.467  0.4849  1.0561 -0.6664
 2649SOL    HW219410   1.674   1.814   2.478 -0.7838  1.5367  1.5339
 2650SOL     OW19411   0.595   4.360   5.298 -0.0379 -0.0147  0.0065
 2650SOL    HW119412   0.595   4.310   5.216  1.1260  1.4704 -0.8948
 2650SOL    HW219413   0.582   4.288   5.360  1.0467  0.3831  0.7069
 2651SOL     OW19414   2.882   3.193   2.487 -0.4978 -0.1710  0.0438
 2651SOL    HW119415   2.949   3.129   2.465  0.3510  0.8957 -0.4660
 2651SOL    HW219416   2.829   3.143   2.549 -0.3269  1.5550  1.5957
 2652SOL     OW19417   4.171   1.438   3.037 -0.7447 -0.0133 -0.1163
 2652SOL    HW119418   4.140   1.431   3.128  2.7176 -1.4379  0.9675
 2652SOL    HW219419   4.243   1.501   3.045 -2.8774  2.5228 -1.1643
 2653SOL     OW19420   1.002   2.292   6.022 -0.0521  0.2156  0.1181
 2653SOL    HW119421   0.915   2.324   5.997 -0.0115 -0.1793 -0.5298
 2653SOL    HW219422   1.017   2.357   6.090 -0.6889  0.2749  0.2075
 2654SOL     OW19423   3.555   3.338  13.769  0.1581  0.1196  0.3746
 2654SOL    HW119424   3.549   3.383  13.684 -1.4510 -1.3795 -0.3114
 2654SOL    HW219425   3.637   3.370  13.806  1.1677  0.1596 -1.8775
 2655SOL     OW19426   4.105   4.525   5.303  0.3414  0.2277 -0.5602
 2655SOL    HW119427   4.137   4.436   5.315  0.1017  0.4798  2.0302
 2655SOL    HW219428   4.060   4.517   5.219  0.0841  0.9183 -0.4900
 2656SOL     OW19429   1.214   2.735  11.627  0.3531  0.2381  0.6200
 2656SOL    HW119430   1.286   2.779  11.674 -0.4250 -0.3987  2.4250
 2656SOL    HW219431   1.145   2.802  11.629  1.2248  1.1530  0.1696
 2657SOL     OW19432   0.061   1.699   4.895  0.5693  0.5143 -0.7844
 2657SOL    HW119433   0.024   1.776   4.939  1.4394 -0.6577  1.9829
 2657SOL    HW219434   0.024   1.711   4.807 -0.7432 -1.6371 -0.5160
 2658SOL     OW19435   3.640   1.244   6.413  0.4867  0.3838  0.1887
 2658SOL    HW119436   3.598   1.190   6.480  0.2574  1.0528  0.5832
 2658SOL    HW219437   3.709   1.286   6.465  3.1520 -0.0641 -3.0151
 2659SOL     OW19438   0.294   2.064   3.119 -0.3375  0.5763  0.0274
 2659SOL    HW119439   0.348   2.018   3.055  0.5089  0.9316  0.4827
 2659SOL    HW219440   0.220   2.004   3.126 -0.2083  0.4339  0.1747
 2660SOL     OW19441   4.436   0.008   0.934  0.3483 -0.3649  0.2861
 2660SOL    HW119442   4.510   0.057   0.970 -0.0758  1.2564 -1.0748
 2660SOL    HW219443   4.462   4.701   0.847 -2.4812  0.4325 -0.8364
 2661SOL     OW19444   3.302   3.906   4.476  0.0550 -0.1728  0.2380
 2661SOL    HW119445   3.301   4.001   4.491  3.2018  0.1264 -1.5829
 2661SOL    HW219446   3.210   3.883   4.464  0.3929 -1.2733 -0.2212
 2662SOL     OW19447   1.013   1.976   8.263 -0.2001 -0.2511 -0.0760
 2662SOL    HW119448   0.945   1.994   8.328 -1.8088 -0.1182 -1.7816
 2662SOL    HW219449   1.069   1.920   8.316 -1.7864 -1.9008 -0.1323
 2663SOL     OW19450   0.555   3.496   3.019 -0.5861  0.3082 -0.0257
 2663SOL    HW119451   0.556   3.576   3.071 -0.4318  0.3289 -0.0615
 2663SOL    HW219452   0.645   3.464   3.017 -0.9967 -0.8100 -0.7817
 2664SOL     OW19453   1.983   4.433   5.757  0.2192  0.2505  0.2257
 2664SOL    HW119454   1.898   4.425   5.713  0.3625  0.7973 -0.1510
 2664SOL    HW219455   2.040   4.401   5.687 -0.3563  2.6267 -1.3213
 2665SOL     OW19456   2.173   0.859   2.608 -0.4473  0.9851 -0.0907
 2665SOL    HW119457   2.085   0.854   2.645 -1.4591  0.8884 -2.4567
 2665SOL    HW219458   2.144   0.886   2.520  0.1553 -0.2730 -0.6848
 2666SOL     OW19459   3.537   3.233  13.024  0.0156 -0.8621 -0.2985
 2666SOL    HW119460   3.490   3.283  12.958 -1.0676 -0.2568  0.9312
 2666SOL    HW219461   3.583   3.179  12.960 -0.0248 -2.3954  0.9320
 2667SOL     OW19462   4.213   4.563   8.944  0.3771  0.2458  0.6620
 2667SOL    HW119463   4.145   4.564   9.011  0.7463  1.1491  1.0280
 2667SOL    HW219464   4.161   4.562   8.864  0.7137  1.9870  0.4129
 2668SOL     OW19465   0.908   2.531  15.463 -0.1426  0.0998  0.5668
 2668SOL    HW119466   0.881   2.474  15.391 -0.0561 -0.5663  1.0637
 2668SOL    HW219467   0.821   2.568  15.479 -0.3820  0.2621 -1.1192
 2669SOL     OW19468   0.328   2.832   0.166 -0.7337 -0.0638  0.4029
 2669SOL    HW119469   0.293   2.909   0.209 -1.4174  0.7279 -1.5780
 2669SOL    HW219470   0.403   2.815   0.223 -0.7550  1.8392  0.9896
 2670SOL     OW19471   3.646   1.825   4.680  0.4187  0.0296  0.6824
 2670SOL    HW119472   3.738   1.799   4.673  0.5936  0.5608  0.9801
 2670SOL    HW219473   3.607   1.782   4.605 -0.2543  0.8308  0.5699
 2671SOL     OW19474   1.949   1.242  13.820 -0.0943  0.3154  0.3454
 2671SOL    HW119475   1.994   1.234  13.736 -0.7027 -2.6994  0.3242
 2671SOL    HW219476   1.858   1.249  13.793 -0.0470 -0.4116  0.0021
 2672SOL     OW19477   4.649   2.108   5.486  0.2057 -0.0045  0.4570
 2672SOL    HW119478   4.673   2.046   5.418  0.5228  0.9023 -0.2507
 2672SOL    HW219479   4.667   2.198   5.460  1.2872 -0.0760  0.9550
 2673SOL     OW19480   3.654   0.680   1.013 -0.2606 -0.4000  0.1047
 2673SOL    HW119481   3.600   0.608   1.048 -0.0954  0.3201  1.8470
 2673SOL    HW219482   3.709   0.698   1.089 -1.2222  2.0327  0.2268
 2674SOL     OW19483   3.376   0.144   4.632 -0.4693  0.3724  0.0275
 2674SOL    HW119484   3.413   0.061   4.601 -1.1527  0.2088 -0.3335
 2674SOL    HW219485   3.290   0.117   4.664  0.0713 -0.3859  0.8364
 2675SOL     OW19486   2.250   4.433   4.794  0.4196  0.2316 -0.0267
 2675SOL    HW119487   2.164   4.394   4.814  1.2649 -2.3170 -1.3547
 2675SOL    HW219488   2.310   4.362   4.818 -1.9427 -1.6469  0.3484
 2676SOL     OW19489   1.684   4.401   9.866 -0.4823  0.0821 -0.6418
 2676SOL    HW119490   1.615   4.336   9.859  0.5344 -0.6249 -3.8238
 2676SOL    HW219491   1.753   4.348   9.906  0.1464  1.2115 -0.2074
 2677SOL     OW19492   1.055   2.357   3.947  0.4071 -0.0491 -0.5831
 2677SOL    HW119493   1.019   2.344   4.034  0.7991  0.4091 -0.3540
 2677SOL    HW219494   0.983   2.379   3.888 -1.2862  0.0093  1.5181
 2678SOL     OW19495   2.976   4.022   8.755 -0.0280 -0.1438  0.0803
 2678SOL    HW119496   2.892   4.065   8.741 -0.8111 -2.4087 -2.0448
 2678SOL    HW219497   3.031   4.096   8.783 -0.4902  0.6234 -1.0182
 2679SOL     OW19498   0.278   4.408   6.287  0.5059 -0.1953  0.5149
 2679SOL    HW119499   0.272   4.426   6.193  0.1361  1.4066  0.8549
 2679SOL    HW219500   0.276   4.500   6.313 -1.7014  0.0147 -0.4539
 2680SOL     OW19501   4.481   3.181   9.235 -0.1995  0.1380  0.4862
 2680SOL    HW119502   4.484   3.249   9.303 -1.1305 -1.2576  1.9098
 2680SOL    HW219503   4.517   3.239   9.168  0.0013  1.3292  1.6265
 2681SOL     OW19504   4.667   3.877   4.332 -0.1617 -0.1740 -0.6129
 2681SOL    HW119505   4.674   3.918   4.246 -0.4241 -1.3636 -1.2081
 2681SOL    HW219506   4.659   3.956   4.385 -0.2460 -0.0147 -0.8673
 2682SOL     OW19507   1.422   4.247   6.295 -0.5138  0.4764  0.2407
 2682SOL    HW119508   1.332   4.252   6.327 -0.7895  2.6989 -0.8651
 2682SOL    HW219509   1.435   4.320   6.234 -2.3412 -0.0435 -0.7767
 2683SOL     OW19510   4.486   4.223   3.232  0.1192  0.5171  0.0963
 2683SOL    HW119511   4.573   4.181   3.234 -0.8745 -1.5621 -0.0160
 2683SOL    HW219512   4.519   4.311   3.247  0.4580  0.9845 -3.4247
 2684SOL     OW19513   2.573   0.847   3.725  0.2693  0.8365 -0.1619
 2684SOL    HW119514   2.629   0.885   3.792 -0.1880  1.5843 -0.2029
 2684SOL    HW219515   2.543   0.926   3.678 -0.2940 -0.0328 -1.2664
 2685SOL     OW19516   3.093   0.859   1.621 -0.1799  0.6075  0.0386
 2685SOL    HW119517   3.167   0.818   1.665 -0.1156  0.2794 -0.3753
 2685SOL    HW219518   3.018   0.811   1.657 -1.2229  0.2456 -2.6000
 2686SOL     OW19519   2.502   2.871   6.249 -0.5017  0.1933 -0.0765
 2686SOL    HW119520   2.475   2.818   6.324  1.2334  0.4039  0.6899
 2686SOL    HW219521   2.521   2.801   6.186  0.9834 -0.0055  0.6095
 2687SOL     OW19522   3.567   0.479   0.167  0.4763  0.5809  0.7439
 2687SOL    HW119523   3.618   0.549   0.126 -0.7067 -0.9677 -3.3304
 2687SOL    HW219524   3.517   0.448   0.091  1.2373  0.4522  0.2897
 2688SOL     OW19525   3.988   1.880   8.763  0.3607  0.2481  0.7970
 2688SOL    HW119526   4.004   1.953   8.823 -0.3924 -0.5574  1.9704
 2688SOL    HW219527   4.043   1.917   8.694 -1.1260 -0.1651 -0.6039
 2689SOL     OW19528   2.650   2.961   2.916 -0.7094 -0.6633  0.1676
 2689SOL    HW119529   2.714   2.979   2.984 -1.0813  0.2201  0.2868
 2689SOL    HW219530   2.602   2.891   2.961 -0.3506 -1.5291 -0.7948
 2690SOL     OW19531   4.414   1.261   4.386 -0.2445 -0.2019 -1.0718
 2690SOL    HW119532   4.387   1.353   4.391  2.5353  0.5014  1.1139
 2690SOL    HW219533   4.448   1.252   4.297  1.9132 -1.7371 -0.0856
 2691SOL     OW19534   3.789   4.258  10.916 -0.1207  0.4383  0.3492
 2691SOL    HW119535   3.873   4.218  10.892 -0.0263  0.4514  0.6518
 2691SOL    HW219536   3.737   4.179  10.928  2.2582 -1.3144 -0.8017
 2692SOL     OW19537   1.224   3.833   5.823  0.3015 -0.4911  0.7107
 2692SOL    HW119538   1.305   3.790   5.850  1.1810  0.6674 -0.1231
 2692SOL    HW219539   1.168   3.762   5.854 -1.0486  0.6802  0.9319
 2693SOL     OW19540   1.102   2.539  16.152  0.0872 -0.0047 -0.4052
 2693SOL    HW119541   1.132   2.500  16.070  2.1553  0.9347 -0.0988
 2693SOL    HW219542   1.132   2.461  16.199  1.3986  0.4254 -0.5300
 2694SOL     OW19543   3.544   1.714   7.586 -0.2891  0.1710 -0.4303
 2694SOL    HW119544   3.568   1.780   7.651 -1.5208  0.0294  0.1724
 2694SOL    HW219545   3.583   1.630   7.610 -1.3680  0.2589  1.6489
 2695SOL     OW19546   2.313   4.688   9.070 -0.5041 -0.5441 -0.1712
 2695SOL    HW119547   2.389   0.023   9.086 -0.3399 -0.8251  0.0381
 2695SOL    HW219548   2.292   4.666   9.161  0.9042  0.2275  0.3444
 2696SOL     OW19549   3.149   3.730  11.949  0.2300  0.2646 -0.2329
 2696SOL    HW119550   3.105   3.733  11.864  0.4438  0.5911 -0.3316
 2696SOL    HW219551   3.223   3.672  11.928 -0.1863 -0.7392  1.0878
 2697SOL     OW19552   3.203   1.263   2.428 -0.3825 -0.1809 -0.0564
 2697SOL    HW119553   3.251   1.292   2.350 -0.3212  0.1358  0.0984
 2697SOL    HW219554   3.268   1.303   2.486 -2.2102 -0.0302  1.8735
 2698SOL     OW19555   2.837   2.628   7.450  0.4299  0.3431  0.1050
 2698SOL    HW119556   2.906   2.610   7.386 -0.8981 -2.9162 -0.4256
 2698SOL    HW219557   2.808   2.717   7.431 -0.8763 -0.0387  0.2698
 2699SOL     OW19558   3.631   0.679  16.256 -0.0756  0.4327 -0.6438
 2699SOL    HW119559   3.725   0.693  16.267 -0.2823  1.5339 -0.1936
 2699SOL    HW219560   3.610   0.761  16.210 -0.9893 -0.2149 -1.3744
 2700SOL     OW19561   0.873   3.110   7.416  0.6505 -0.6547  0.2490
 2700SOL    HW119562   0.943   3.046   7.398  2.1795  0.6862  1.4215
 2700SOL    HW219563   0.858   3.089   7.508 -0.3977 -0.2520  0.1651
 2701SOL     OW19564   3.927   0.851   1.793  0.4797 -0.3524  0.2454
 2701SOL    HW119565   3.991   0.781   1.805 -0.3019 -1.5215 -2.4115
 2701SOL    HW219566   3.902   0.875   1.882  0.4274 -0.3687  0.2354
 2702SOL     OW19567   3.160   3.160   6.051  0.5228 -0.6203 -0.1361
 2702SOL    HW119568   3.177   3.133   6.142  0.9209  0.3486  0.0686
 2702SOL    HW219569   3.218   3.099   6.006 -1.0760 -2.6574  0.5435
 2703SOL     OW19570   3.214   1.199  12.810 -0.2697  0.3825 -0.3579
 2703SOL    HW119571   3.221   1.295  12.814 -1.1259  0.4263  0.1842
 2703SOL    HW219572   3.154   1.169  12.878  0.5213 -0.9098 -0.2436
 2704SOL     OW19573   2.720   4.006  15.910 -0.2026  0.2390  0.3004
 2704SOL    HW119574   2.762   3.967  15.987  0.1969  0.2894  0.1062
 2704SOL    HW219575   2.631   4.005  15.944 -0.0996  4.1473  0.6462
 2705SOL     OW19576   2.255   3.520   1.664  0.4247  0.1923  0.1281
 2705SOL    HW119577   2.205   3.479   1.593  0.3848  0.7017 -0.1328
 2705SOL    HW219578   2.297   3.589   1.614 -0.4992 -0.4346 -1.5181
 2706SOL     OW19579   0.806   2.786   4.431 -0.3539 -0.3279  0.3212
 2706SOL    HW119580   0.862   2.835   4.371  2.5112 -1.5897  2.0240
 2706SOL    HW219581   0.808   2.844   4.508 -1.8785  1.6510 -1.1422
 2707SOL     OW19582   4.405   2.226   9.211 -0.0056  0.2614  0.2499
 2707SOL    HW119583   4.481   2.175   9.186  0.3486  2.1712 -2.6267
 2707SOL    HW219584   4.383   2.251   9.121  0.1345 -0.0179  0.1402
 2708SOL     OW19585   3.869   1.450  14.050  0.3222  0.3365  0.1020
 2708SOL    HW119586   3.833   1.363  14.031 -1.3996  1.1543 -0.3842
 2708SOL    HW219587   3.935   1.459  13.982  0.0671  1.3519 -0.0114
 2709SOL     OW19588   2.122   1.654   3.165  0.4285  0.1225 -0.7046
 2709SOL    HW119589   2.090   1.586   3.225  0.6269 -0.5584 -1.3694
 2709SOL    HW219590   2.083   1.730   3.209  0.4233 -0.3255  0.0685
 2710SOL     OW19591   1.370   2.033   7.993  0.1334  0.5167 -0.0777
 2710SOL    HW119592   1.395   2.107   8.047  0.0376 -1.0700  2.1402
 2710SOL    HW219593   1.445   2.026   7.933  1.8618 -0.0423  2.1780
 2711SOL     OW19594   3.987   2.034  14.284  0.1041  0.1098 -0.0908
 2711SOL    HW119595   3.922   2.092  14.325  0.8044 -0.1149  1.3377
 2711SOL    HW219596   3.932   1.996  14.215 -2.5762  0.4840  1.8470
 2712SOL     OW19597   1.177   0.635   7.389  0.8167  0.0859 -0.3180
 2712SOL    HW119598   1.258   0.645   7.440  0.5735  0.3770  0.0046
 2712SOL    HW219599   1.123   0.709   7.414  0.0919 -1.1122  1.6379
 2713SOL     OW19600   3.093   3.447   8.517 -0.1493  0.0080  0.0325
 2713SOL    HW119601   3.014   3.498   8.499 -0.5797 -0.4451  0.6595
 2713SOL    HW219602   3.103   3.405   8.431  2.0077  1.0809 -0.2542
 2714SOL     OW19603   1.894   1.738  14.041 -0.4104  0.4056  0.0163
 2714SOL    HW119604   1.922   1.650  14.014 -2.9730 -1.1220  2.3357
 2714SOL    HW219605   1.965   1.780  13.993 -0.3977  0.1821 -0.1587
 2715SOL     OW19606   1.915   3.618  15.782 -0.0035 -0.5817  0.2129
 2715SOL    HW119607   2.001   3.578  15.774 -0.5754 -1.6208 -0.8698
 2715SOL    HW219608   1.922   3.699  15.732  1.3004 -1.1772 -0.5405
 2716SOL     OW19609   4.117   1.070   7.912 -0.4922 -0.2847 -0.0069
 2716SOL    HW119610   4.166   1.055   7.831 -0.6062  2.3317 -0.5662
 2716SOL    HW219611   4.037   1.117   7.888 -0.6336 -0.8911 -0.7146
 2717SOL     OW19612   3.834   0.652  17.487  0.3134 -0.1277 -0.3710
 2717SOL    HW119613   3.808   0.560  17.490 -0.4080  0.0942  0.2637
 2717SOL    HW219614   3.771   0.692  17.426 -2.4987 -1.2643  1.7756
 2718SOL     OW19615   0.034   1.651  13.756  0.2659  0.3014  0.3058
 2718SOL    HW119616   0.054   1.637  13.849 -0.5613  0.2801  0.4777
 2718SOL    HW219617   0.083   1.728  13.728 -1.1778  0.6841 -1.1825
 2719SOL     OW19618   2.221   4.472  10.277  0.0445 -0.1723  0.4286
 2719SOL    HW119619   2.269   4.537  10.226  0.0741 -1.0292 -0.6302
 2719SOL    HW219620   2.135   4.498  10.243  1.0342  1.2012 -1.0084
 2720SOL     OW19621   4.154   4.473   9.511  0.0064 -0.5563 -0.4104
 2720SOL    HW119622   4.128   4.532   9.582 -3.1500  2.4520 -4.0667
 2720SOL    HW219623   4.242   4.448   9.538  0.2177  0.2172 -0.3868
 2721SOL     OW19624   0.590   1.931  11.302  0.2631  0.2530  0.8256
 2721SOL    HW119625   0.682   1.911  11.313  0.3769  1.6836  2.5564
 2721SOL    HW219626   0.565   1.972  11.385 -3.1731  0.3413 -0.2203
 2722SOL     OW19627   2.868   4.503  12.307  0.6606 -0.1526  0.3672
 2722SOL    HW119628   2.847   4.415  12.338  0.5137 -0.5773 -0.9192
 2722SOL    HW219629   2.898   4.482  12.219  4.2412  1.4293  1.1964
 2723SOL     OW19630   3.929   4.010   8.936  0.3232 -0.2577 -0.5881
 2723SOL    HW119631   4.017   3.991   8.903  0.7409  2.4655 -1.0823
 2723SOL    HW219632   3.883   4.063   8.871 -2.5089 -1.1607  0.6761
 2724SOL     OW19633   1.173   3.859   6.153  0.6434  0.0625  0.1330
 2724SOL    HW119634   1.140   3.899   6.234 -0.1677  0.3167 -0.3203
 2724SOL    HW219635   1.131   3.917   6.089  1.1919 -1.2502 -1.4296
 2725SOL     OW19636   4.294   0.856   5.937 -0.3252 -0.3887 -0.1151
 2725SOL    HW119637   4.377   0.872   5.982 -1.2707 -0.7763  1.8094
 2725SOL    HW219638   4.278   0.765   5.962  1.1281 -1.7815 -4.3869
 2726SOL     OW19639   3.551   3.924   4.137  0.2599 -0.1655 -0.2360
 2726SOL    HW119640   3.626   3.887   4.090 -0.1994 -0.5920 -0.6281
 2726SOL    HW219641   3.524   3.850   4.191  0.6234  0.4430  0.7824
 2727SOL     OW19642   0.135   3.545  12.570  0.2234 -0.4776  0.4903
 2727SOL    HW119643   0.133   3.459  12.528  0.7921  0.4680 -1.4991
 2727SOL    HW219644   0.067   3.585  12.516  0.7449 -0.7654 -0.3764
 2728SOL     OW19645   4.484   1.348   7.023  0.0289  0.1796  0.4756
 2728SOL    HW119646   4.575   1.369   7.000 -0.1985 -0.4955 -1.0955
 2728SOL    HW219647   4.502   1.272   7.078 -1.2067 -1.5095 -1.4299
 2729SOL     OW19648   0.397   0.855  10.142 -0.1991  0.1023  0.2189
 2729SOL    HW119649   0.454   0.833  10.216  0.2801 -2.2956 -0.8742
 2729SOL    HW219650   0.345   0.921  10.187  1.4908  0.3483  1.8187
 2730SOL     OW19651   2.532   3.696  10.873 -0.4530 -0.0101  0.0371
 2730SOL    HW119652   2.583   3.661  10.800 -2.1372  0.7615 -1.5100
 2730SOL    HW219653   2.567   3.641  10.944  2.1260  1.7716  0.1318
 2731SOL     OW19654   1.089   3.711   6.974  0.1518 -0.1328  0.0090
 2731SOL    HW119655   1.060   3.766   7.046 -0.6398 -1.4445  0.6928
 2731SOL    HW219656   1.147   3.659   7.030 -0.2537 -0.7354 -0.1337
 2732SOL     OW19657   2.343   0.131   5.906 -0.2626  0.5005  0.1261
 2732SOL    HW119658   2.390   0.091   5.979 -2.3263  1.2997  1.8925
 2732SOL    HW219659   2.272   0.068   5.898  0.9029 -0.8699  0.3653
 2733SOL     OW19660   0.373   2.292   7.540 -0.7003  0.1992  0.1540
 2733SOL    HW119661   0.406   2.246   7.617  2.2284 -0.4784 -1.4972
 2733SOL    HW219662   0.427   2.371   7.534 -0.7182  0.1454 -0.6962
 2734SOL     OW19663   3.001   1.606   1.975  0.5889 -0.3352 -0.4280
 2734SOL    HW119664   3.071   1.596   2.039 -0.2979 -0.7121  0.4849
 2734SOL    HW219665   3.039   1.662   1.908  1.5792  1.8215  1.9322
 2735SOL     OW19666   3.900   0.871   4.289  0.0697  0.1294  0.9934
 2735SOL    HW119667   3.861   0.869   4.201  2.4605  0.3984 -0.0778
 2735SOL    HW219668   3.951   0.952   4.292 -0.2351  0.5106 -3.0742
 2736SOL     OW19669   0.697   0.665   3.775  0.0781 -0.1311  0.1611
 2736SOL    HW119670   0.708   0.661   3.680 -1.2198  1.9625 -0.0833
 2736SOL    HW219671   0.674   0.576   3.803  0.2798 -0.2531 -0.0642
 2737SOL     OW19672   0.266   0.266   7.469  0.2414 -0.1027  0.1281
 2737SOL    HW119673   0.299   0.184   7.433  0.0023  0.4733 -1.3937
 2737SOL    HW219674   0.233   0.231   7.552 -0.8659  0.6317  0.0006
 2738SOL     OW19675   4.545   0.778  13.019 -0.1865  0.2554  0.0826
 2738SOL    HW119676   4.626   0.745  13.059 -0.0592  0.9947  0.4279
 2738SOL    HW219677   4.529   0.861  13.063 -0.7579 -0.5603  1.4088
 2739SOL     OW19678   0.340   0.894  16.477 -0.1172  0.0793  0.1191
 2739SOL    HW119679   0.335   0.890  16.382  0.4430  0.3773  0.0767
 2739SOL    HW219680   0.419   0.947  16.487  0.6007 -0.6079 -1.8897
 2740SOL     OW19681   2.649   1.987   8.528  0.3221 -0.3579 -0.5481
 2740SOL    HW119682   2.602   1.977   8.445 -1.2692  3.4935 -0.0907
 2740SOL    HW219683   2.584   2.046   8.566 -1.4429 -1.5424 -1.7037
 2741SOL     OW19684   0.467   4.199   6.097 -0.4589 -0.2217  0.1224
 2741SOL    HW119685   0.474   4.199   6.193  5.7653 -0.1417 -0.2930
 2741SOL    HW219686   0.424   4.116   6.076  0.2095 -0.5672  0.1007
 2742SOL     OW19687   2.507   2.907   5.776 -0.4680  0.1199 -0.1797
 2742SOL    HW119688   2.578   2.910   5.840  0.7684 -1.4891 -1.4456
 2742SOL    HW219689   2.530   2.822   5.737  0.7386  0.9804 -1.3596
 2743SOL     OW19690   1.029   4.684  10.285 -0.0247 -1.0346 -0.0480
 2743SOL    HW119691   0.954   0.020  10.302  0.8168  0.3131 -0.9547
 2743SOL    HW219692   1.098   4.718  10.342 -0.8639  1.0763 -0.2793
 2744SOL     OW19693   3.326   2.649   3.284 -0.1506  0.1377 -0.1994
 2744SOL    HW119694   3.271   2.727   3.277  1.0658  0.8945 -1.3465
 2744SOL    HW219695   3.284   2.593   3.349  0.7543 -0.3237 -0.0060
 2745SOL     OW19696   1.321   3.562  10.674  0.5177  0.1233 -0.2275
 2745SOL    HW119697   1.411   3.548  10.705  0.9565  0.4746 -1.3672
 2745SOL    HW219698   1.312   3.657  10.680  1.5260  0.3344 -2.0610
 2746SOL     OW19699   0.756   2.580   2.112 -0.3808 -0.1765  0.1646
 2746SOL    HW119700   0.723   2.563   2.024 -1.9468  0.6612  0.5876
 2746SOL    HW219701   0.840   2.624   2.096 -0.0017 -0.6161  0.9384
 2747SOL     OW19702   3.948   1.836   8.327 -0.0976  0.4511 -0.1843
 2747SOL    HW119703   3.963   1.826   8.420  0.8851  1.8629 -0.1873
 2747SOL    HW219704   3.852   1.825   8.328  0.1579 -1.6154  0.5503
 2748SOL     OW19705   0.366   3.113   5.814  0.1979  0.0463 -0.0740
 2748SOL    HW119706   0.349   3.075   5.728 -1.0170  1.8984 -0.6538
 2748SOL    HW219707   0.461   3.117   5.821  0.2823 -0.1984 -1.1044
 2749SOL     OW19708   2.159   1.777   6.426 -0.0056 -0.3658 -0.1045
 2749SOL    HW119709   2.162   1.751   6.333 -0.6593 -0.5417 -0.0753
 2749SOL    HW219710   2.127   1.868   6.423  0.9380 -0.0753 -1.4813
 2750SOL     OW19711   4.610   4.373   4.099 -0.0849  0.4770  0.3566
 2750SOL    HW119712   4.591   4.360   4.192 -2.3375 -0.0817 -0.1797
 2750SOL    HW219713   4.624   4.468   4.101  0.3149  0.4652 -1.9724
 2751SOL     OW19714   4.194   2.994  11.066  0.4382 -0.1275 -0.4508
 2751SOL    HW119715   4.274   3.003  11.117  1.3731 -2.1605 -1.5502
 2751SOL    HW219716   4.140   3.068  11.092  0.2406 -0.5078  0.2237
 2752SOL     OW19717   1.044   2.514   8.727 -0.4940 -0.0979 -0.5682
 2752SOL    HW119718   1.111   2.459   8.687  0.1266 -0.2553  0.7038
 2752SOL    HW219719   1.019   2.449   8.793 -0.0257  0.1069 -0.1894
 2753SOL     OW19720   2.081   3.662   8.753 -0.4483  0.2474 -0.5646
 2753SOL    HW119721   1.992   3.698   8.762 -0.6554 -0.2100 -0.7979
 2753SOL    HW219722   2.076   3.642   8.660  0.4648 -0.2704 -0.5023
 2754SOL     OW19723   0.268   0.659   5.823 -0.7353  0.2009 -0.1937
 2754SOL    HW119724   0.345   0.716   5.823 -0.0405 -0.7381  0.7359
 2754SOL    HW219725   0.215   0.725   5.779 -0.5595  0.2425 -0.3428
 2755SOL     OW19726   0.089   0.575   1.929  0.5701 -0.2484 -0.1733
 2755SOL    HW119727   0.124   0.600   2.014  1.7530  2.6766 -1.5130
 2755SOL    HW219728   4.717   0.589   1.943  0.5629  0.1778 -0.6281
 2756SOL     OW19729   0.145   2.109  10.574 -0.0903  0.3363  0.5269
 2756SOL    HW119730   0.189   2.029  10.604  0.4482  0.0493 -1.0459
 2756SOL    HW219731   0.160   2.163  10.651  0.4410 -0.6235  1.0992
 2757SOL     OW19732   4.687   2.392   9.911 -0.0761  0.3527 -0.0200
 2757SOL    HW119733   4.701   2.392  10.006  0.6104  0.0146 -0.1244
 2757SOL    HW219734   0.046   2.438   9.892  0.6145 -0.4164  1.0151
 2758SOL     OW19735   1.984   0.916   6.476 -0.3095 -0.3264  0.1204
 2758SOL    HW119736   1.987   0.858   6.552 -0.7447 -3.2036 -2.0503
 2758SOL    HW219737   1.932   0.863   6.417 -0.4058  1.4668 -1.3903
 2759SOL     OW19738   2.754   0.074  11.786  0.6960  0.3768 -0.6606
 2759SOL    HW119739   2.719   0.142  11.729 -0.6595 -1.4510 -2.0165
 2759SOL    HW219740   2.754   4.719  11.729 -0.6168 -0.0960 -0.0138
 2760SOL     OW19741   1.688   1.429  15.503  0.4114  0.3362  0.0872
 2760SOL    HW119742   1.617   1.494  15.504  0.8913  0.8649  0.2267
 2760SOL    HW219743   1.742   1.468  15.434 -0.4312 -1.0824 -1.3693
 2761SOL     OW19744   1.874   0.920   6.093 -0.1140  0.2167  0.3040
 2761SOL    HW119745   1.813   0.923   6.019 -1.0378 -0.2570  1.0479
 2761SOL    HW219746   1.892   0.826   6.095 -0.4978  0.1564  0.7790
 2762SOL     OW19747   1.455   1.656   4.236 -0.6094 -0.5049  0.0148
 2762SOL    HW119748   1.530   1.714   4.247 -1.4563  0.5645  0.1121
 2762SOL    HW219749   1.397   1.718   4.192  0.4046 -0.2566 -0.9886
 2763SOL     OW19750   3.610   1.996   3.086 -0.2498  0.0443  0.2507
 2763SOL    HW119751   3.520   1.966   3.087 -0.5243  0.8741  0.6557
 2763SOL    HW219752   3.622   2.023   3.177  2.8144 -1.1696  0.2195
 2764SOL     OW19753   0.987   3.733   2.985  0.2790  0.2320 -0.4110
 2764SOL    HW119754   1.035   3.787   3.049 -1.5862 -0.3225  1.4359
 2764SOL    HW219755   1.001   3.772   2.898 -0.4403  2.0617  0.2884
 2765SOL     OW19756   3.727   2.161  12.146 -0.0662 -0.0711  0.4093
 2765SOL    HW119757   3.644   2.124  12.116 -0.7635  1.9140 -0.1091
 2765SOL    HW219758   3.772   2.082  12.177  0.4265 -0.2311 -0.7150
 2766SOL     OW19759   2.462   2.158  12.330  0.5226 -0.3343  0.1787
 2766SOL    HW119760   2.427   2.069  12.324 -1.2912  0.4549 -1.0968
 2766SOL    HW219761   2.450   2.176  12.423 -0.6341 -1.0056  0.1504
 2767SOL     OW19762   4.080   3.166   4.445 -0.2979 -0.3081  0.5054
 2767SOL    HW119763   4.080   3.096   4.380  0.3418  0.9097 -0.7973
 2767SOL    HW219764   3.996   3.210   4.429  0.4508  0.0410 -2.4285
 2768SOL     OW19765   1.341   3.038   5.954  0.2303 -0.0431 -0.0528
 2768SOL    HW119766   1.409   3.006   6.014  0.8138 -0.4433 -0.9344
 2768SOL    HW219767   1.397   3.085   5.892 -0.4179  0.5113 -0.2119
 2769SOL     OW19768   1.373   1.809  10.956  0.2486  0.1049  0.3051
 2769SOL    HW119769   1.401   1.728  10.998  1.3866 -0.2577 -1.1627
 2769SOL    HW219770   1.375   1.869  11.030 -2.3615 -0.1502  0.6104
 2770SOL     OW19771   4.709   1.723  10.146 -0.4799  1.0517  0.6423
 2770SOL    HW119772   0.041   1.786  10.191  1.4633 -1.1872  1.4249
 2770SOL    HW219773   0.041   1.698  10.071 -0.1408 -0.1804  1.3007
 2771SOL     OW19774   0.464   3.160   8.142  0.0345  0.4130  0.6807
 2771SOL    HW119775   0.501   3.160   8.230 -0.8752 -0.6473  1.0622
 2771SOL    HW219776   0.486   3.242   8.098 -1.7251 -1.0172 -2.9250
 2772SOL     OW19777   3.029   3.051   8.958 -0.2131  0.1469 -0.2362
 2772SOL    HW119778   3.103   3.072   9.014 -0.0951  1.9705 -1.0947
 2772SOL    HW219779   3.001   3.142   8.949  1.3161  0.3129 -3.0991
 2773SOL     OW19780   1.881   3.785  16.045  0.1083 -0.3119  0.0505
 2773SOL    HW119781   1.838   3.724  15.984  1.6130 -0.0552 -1.2714
 2773SOL    HW219782   1.830   3.863  16.025  0.3649 -0.2618 -0.4148
 2774SOL     OW19783   2.964   1.125   9.035  0.0510  0.1546 -0.1389
 2774SOL    HW119784   3.032   1.167   8.982 -1.3098  0.1822 -1.8651
 2774SOL    HW219785   2.990   1.166   9.117  2.0646  0.6465 -1.0221
 2775SOL     OW19786   2.685   0.801   6.960 -0.5999  0.0834  0.2773
 2775SOL    HW119787   2.681   0.893   6.933 -0.6201 -0.1879 -0.6489
 2775SOL    HW219788   2.722   0.767   6.879 -1.6432 -1.2629  0.3683
 2776SOL     OW19789   3.438   1.496   1.541  0.4810  0.6166  0.6079
 2776SOL    HW119790   3.394   1.492   1.626  3.7754  1.7511  2.3636
 2776SOL    HW219791   3.367   1.548   1.504  0.0618 -1.2103 -1.1670
 2777SOL     OW19792   4.160   4.679  10.971 -0.0896  0.6181 -0.5888
 2777SOL    HW119793   4.087   4.676  10.910  0.0857 -3.6823 -0.6181
 2777SOL    HW219794   4.196   0.042  10.948  0.7067  0.2831 -0.5612
 2778SOL     OW19795   0.712   2.711   7.558 -0.4567 -0.1419 -0.0748
 2778SOL    HW119796   0.744   2.662   7.634  3.3506  0.6387 -1.1925
 2778SOL    HW219797   0.688   2.798   7.592 -1.1432 -0.1843 -0.4507
 2779SOL     OW19798   1.314   2.041   5.437 -0.3128 -0.6884 -0.4898
 2779SOL    HW119799   1.368   2.103   5.486 -0.2481 -2.6925  2.0090
 2779SOL    HW219800   1.369   1.963   5.434  1.2324  0.3051  1.5607
 2780SOL     OW19801   1.444   4.214   4.129 -0.0043 -0.2612  0.0241
 2780SOL    HW119802   1.357   4.236   4.162  0.2483  0.8718 -0.0635
 2780SOL    HW219803   1.461   4.294   4.078  0.0714  1.1351  2.2569
 2781SOL     OW19804   2.198   4.071   3.436  0.3061  0.4162  0.2395
 2781SOL    HW119805   2.237   4.142   3.384 -1.0338 -0.9931 -2.6522
 2781SOL    HW219806   2.271   4.009   3.447  1.1643  1.7799  2.2345
 2782SOL     OW19807   3.939   3.984   6.116  0.3516  0.2758  0.3208
 2782SOL    HW119808   3.915   3.939   6.035 -1.1334 -0.8213  1.3730
 2782SOL    HW219809   3.974   3.911   6.168 -1.2427 -0.4264  0.4113
 2783SOL     OW19810   1.806   3.134   3.017 -0.0388  0.0421  0.2886
 2783SOL    HW119811   1.788   3.204   3.079 -1.9645  0.7272 -1.0612
 2783SOL    HW219812   1.901   3.142   3.021 -0.2076  1.9008  0.2208
 2784SOL     OW19813   1.834   3.118   6.179  0.2796  0.4751  0.6823
 2784SOL    HW119814   1.891   3.186   6.215  0.2179  0.7795  0.2090
 2784SOL    HW219815   1.849   3.042   6.235  0.2603 -0.9701 -1.2487
 2785SOL     OW19816   1.011   2.321   4.257  0.0529 -0.0847 -0.3210
 2785SOL    HW119817   1.059   2.345   4.336 -0.6430 -1.7048  0.6157
 2785SOL    HW219818   0.960   2.402   4.253  1.8011  1.0405  0.4538
 2786SOL     OW19819   4.630   0.133  11.833 -0.0831  0.0489  0.1793
 2786SOL    HW119820   4.702   0.140  11.896  1.0757 -1.9819 -0.9061
 2786SOL    HW219821   4.592   0.051  11.863  1.2350  0.3619  2.6863
 2787SOL     OW19822   1.103   0.058  13.514 -0.0310 -0.5974 -0.1766
 2787SOL    HW119823   1.042   0.096  13.450  0.9689  0.8797 -0.2579
 2787SOL    HW219824   1.097   0.137  13.567 -0.9981  0.8153 -2.3556
 2788SOL     OW19825   4.318   0.186   9.225  0.6162 -0.8056  0.1840
 2788SOL    HW119826   4.312   0.090   9.222  0.7735 -0.8958  2.5202
 2788SOL    HW219827   4.247   0.207   9.164  2.6856  0.2214 -1.8845
 2789SOL     OW19828   0.204   2.943  16.025  0.7177  0.1038  0.0357
 2789SOL    HW119829   0.150   2.863  16.027 -0.8754  1.1884  0.4467
 2789SOL    HW219830   0.202   2.977  16.115 -0.4647  2.3134 -0.8365
 2790SOL     OW19831   2.921   0.318   4.024 -0.2962 -0.1650 -0.2802
 2790SOL    HW119832   2.994   0.256   4.023 -2.5891 -2.9115  0.6869
 2790SOL    HW219833   2.953   0.405   4.001  0.7461 -0.4020  0.2975
 2791SOL     OW19834   2.060   3.130  12.529 -0.8963  0.1503  0.1075
 2791SOL    HW119835   2.107   3.200  12.483 -0.2228  0.4559  1.2714
 2791SOL    HW219836   2.130   3.067  12.545  0.5128  1.7772  0.3104
 2792SOL     OW19837   0.293   3.219   3.978  0.6983 -0.3485  0.0780
 2792SOL    HW119838   0.305   3.164   3.900  0.3039 -0.5289  0.1447
 2792SOL    HW219839   0.211   3.261   3.952  1.1826  1.2015  1.0818
 2793SOL     OW19840   3.240   2.043   0.819  0.8250 -0.1672  0.1456
 2793SOL    HW119841   3.234   2.065   0.726  1.2938 -1.3296 -0.1572
 2793SOL    HW219842   3.148   2.048   0.844  1.2442 -0.1111  1.7174
 2794SOL     OW19843   1.933   2.621   5.036  0.0472  0.1627 -0.0678
 2794SOL    HW119844   1.953   2.528   5.029 -0.8966 -0.2461  2.8525
 2794SOL    HW219845   2.017   2.662   5.014 -0.4764  1.5209  0.4830
 2795SOL     OW19846   4.318   4.393  14.668 -0.3939  0.1573  0.2385
 2795SOL    HW119847   4.280   4.305  14.672  0.5258 -0.2259  0.3659
 2795SOL    HW219848   4.404   4.370  14.633  0.7049 -1.7700  4.2696
 2796SOL     OW19849   3.139   3.075   4.320 -0.3674  0.4392 -0.0879
 2796SOL    HW119850   3.086   3.003   4.287  0.7219  0.4011 -1.7748
 2796SOL    HW219851   3.182   3.037   4.396 -0.1360 -0.9863 -0.9310
 2797SOL     OW19852   0.460   1.727   6.428 -0.2288  0.0858  0.3354
 2797SOL    HW119853   0.519   1.802   6.429  1.4711 -1.2645  1.6174
 2797SOL    HW219854   0.396   1.764   6.488 -1.4327  2.3741 -2.3506
 2798SOL     OW19855   4.029   3.415   8.574 -0.0997 -0.7409  0.6311
 2798SOL    HW119856   4.106   3.366   8.603 -1.2748 -1.8263  1.9028
 2798SOL    HW219857   4.002   3.443   8.661  0.5454 -0.4505  0.7368
 2799SOL     OW19858   2.973   2.289   4.390  0.2596  0.0428 -0.1335
 2799SOL    HW119859   3.029   2.221   4.351  1.5105  1.3223 -0.5631
 2799SOL    HW219860   2.918   2.313   4.315  0.0540  1.2898  0.4271
 2800SOL     OW19861   4.097   4.652   9.705 -0.3795 -0.6331 -0.0255
 2800SOL    HW119862   4.079   4.643   9.798  1.3513 -2.0652  0.1857
 2800SOL    HW219863   4.042   0.003   9.678 -1.9989 -1.7145  0.3394
 2801SOL     OW19864   0.574   0.972   6.927  0.0886  0.0664 -0.5595
 2801SOL    HW119865   0.591   0.903   6.991 -2.4263  2.0582  2.2745
 2801SOL    HW219866   0.658   1.013   6.905 -0.0409 -0.5890 -2.3239
 2802SOL     OW19867   1.436   3.113   3.065  0.6424 -0.2147 -0.1661
 2802SOL    HW119868   1.502   3.105   2.996  0.1308  1.5794 -0.8521
 2802SOL    HW219869   1.386   3.193   3.049 -0.4553 -0.8969 -0.1666
 2803SOL     OW19870   2.596   3.207   3.300 -0.3441  1.0484 -0.3537
 2803SOL    HW119871   2.564   3.252   3.222 -0.5158  0.5829 -0.5562
 2803SOL    HW219872   2.510   3.176   3.329  0.4951  1.1613  2.2279
 2804SOL     OW19873   1.339   3.647   4.505  0.2103  0.2317  0.5699
 2804SOL    HW119874   1.387   3.565   4.493  0.5371  0.5040  0.0061
 2804SOL    HW219875   1.408   3.705   4.539 -1.3339  2.4285 -0.0534
 2805SOL     OW19876   1.297   1.771   3.293 -0.7900 -0.7812  0.3070
 2805SOL    HW119877   1.297   1.836   3.222  0.4891 -2.6872 -1.4518
 2805SOL    HW219878   1.332   1.695   3.246 -0.9395 -0.6307 -0.0499
 2806SOL     OW19879   3.934   4.327   9.983 -0.9023  0.3654 -0.1421
 2806SOL    HW119880   3.957   4.239   9.954 -0.6065  0.9365 -1.6257
 2806SOL    HW219881   3.841   4.333   9.960 -0.6903  3.1182 -0.2027
 2807SOL     OW19882   3.127   1.266   3.351  0.2688  0.4243  0.0901
 2807SOL    HW119883   3.209   1.261   3.301  0.1965 -0.4113  0.0557
 2807SOL    HW219884   3.058   1.276   3.286  0.9992 -0.1710 -0.7822
 2808SOL     OW19885   0.229   2.114  11.654 -0.1377 -0.0877 -0.3596
 2808SOL    HW119886   0.159   2.170  11.686 -0.0736 -0.6490  0.7638
 2808SOL    HW219887   0.189   2.045  11.600 -2.0608  0.9615 -0.2688
 2809SOL     OW19888   0.603   1.471   4.227  0.0719 -0.0627  0.3505
 2809SOL    HW119889   0.549   1.546   4.252 -0.5275 -0.5501  0.5441
 2809SOL    HW219890   0.553   1.389   4.226 -1.0900  0.6338  0.8727
 2810SOL     OW19891   3.162   0.937   8.755 -0.4534 -0.8287  0.9280
 2810SOL    HW119892   3.235   0.879   8.777  0.4430  0.2894  0.8973
 2810SOL    HW219893   3.111   0.920   8.835 -0.9561  2.0628  1.1939
 2811SOL     OW19894   2.655   2.323   9.226  0.2467 -0.4705  0.3412
 2811SOL    HW119895   2.561   2.342   9.222  0.3318 -0.0681  0.3106
 2811SOL    HW219896   2.702   2.405   9.213 -1.2598  0.2751 -0.3350
 2812SOL     OW19897   1.776   4.209  12.125 -0.0043  0.0065  0.3765
 2812SOL    HW119898   1.786   4.246  12.213 -1.7351  1.9939 -0.2444
 2812SOL    HW219899   1.724   4.279  12.085 -0.9370 -0.7913  0.2061
 2813SOL     OW19900   4.186   0.145  13.552 -0.2100 -0.0745 -0.2859
 2813SOL    HW119901   4.119   0.127  13.486  0.3882  1.0268 -1.1853
 2813SOL    HW219902   4.159   0.231  13.582 -0.3246  0.8327 -3.0168
 2814SOL     OW19903   1.759   0.248   4.142  0.2350  0.4538  0.0252
 2814SOL    HW119904   1.780   0.173   4.199  0.4105  1.3628  1.1456
 2814SOL    HW219905   1.684   0.282   4.191  0.8873  2.7818 -0.6334
 2815SOL     OW19906   2.939   2.793   3.230  0.0490  0.1335 -0.0544
 2815SOL    HW119907   3.019   2.844   3.240  1.3766 -1.5563 -2.1397
 2815SOL    HW219908   2.879   2.862   3.204  1.5440  2.1251  1.7454
 2816SOL     OW19909   2.457   0.350   6.614  0.4038 -0.0727 -0.4269
 2816SOL    HW119910   2.547   0.328   6.636  0.1411  0.9468  1.6833
 2816SOL    HW219911   2.467   0.438   6.578 -1.8354 -0.0411 -0.9417
 2817SOL     OW19912   0.331   0.877   7.523 -0.5325  0.3539  0.1796
 2817SOL    HW119913   0.349   0.936   7.450  1.3039  0.7912  0.9959
 2817SOL    HW219914   0.386   0.802   7.502  0.0178  0.8316 -0.0630
 2818SOL     OW19915   2.401   0.995   7.558  0.0378  0.1237 -0.2557
 2818SOL    HW119916   2.438   1.042   7.483  0.9248 -0.9790 -0.5025
 2818SOL    HW219917   2.448   1.038   7.629 -0.9722 -0.1419  0.5687
 2819SOL     OW19918   2.518   4.093   3.802  0.0049  0.4960 -0.6046
 2819SOL    HW119919   2.454   4.086   3.731 -0.2733  0.4660 -0.3505
 2819SOL    HW219920   2.460   4.116   3.874  0.6684 -2.6948  0.9533
 2820SOL     OW19921   0.303   1.854  10.245 -0.1887  0.6798 -0.2184
 2820SOL    HW119922   0.381   1.809  10.281 -1.0433 -1.4114 -0.9537
 2820SOL    HW219923   0.310   1.820  10.156  0.4634  1.7705 -0.5780
 2821SOL     OW19924   1.449   0.221   7.504  0.0030  0.4878 -0.1022
 2821SOL    HW119925   1.403   0.147   7.544 -0.1818  0.8064  0.2756
 2821SOL    HW219926   1.379   0.284   7.485 -0.4242  0.7304  2.2418
 2822SOL     OW19927   4.652   2.266  15.704 -0.6995 -0.1067  0.2978
 2822SOL    HW119928   4.631   2.282  15.611 -2.1765 -0.6203  0.5446
 2822SOL    HW219929   4.562   2.243  15.728 -1.2832  2.3350  0.4473
 2823SOL     OW19930   1.267   2.960   0.195  0.3510  0.7796 -0.3319
 2823SOL    HW119931   1.234   2.924   0.113 -1.3534  0.5661  0.4477
 2823SOL    HW219932   1.295   2.873   0.223  0.6684  0.0114 -3.0371
 2824SOL     OW19933   2.977   0.971   9.374 -0.2614 -0.3301  0.5556
 2824SOL    HW119934   2.947   0.881   9.361 -1.7750  0.2707 -0.2107
 2824SOL    HW219935   3.069   0.958   9.350 -0.3726 -0.4367  0.1759
 2825SOL     OW19936   2.177   1.600   8.078 -0.5601 -0.0507  0.1837
 2825SOL    HW119937   2.139   1.559   8.156  1.1524 -0.7679  0.6308
 2825SOL    HW219938   2.107   1.597   8.013 -1.4397  0.0847  1.1185
 2826SOL     OW19939   3.786   2.569   5.337 -0.0256  0.1448 -0.4707
 2826SOL    HW119940   3.855   2.506   5.315  1.3426  1.4619  0.0691
 2826SOL    HW219941   3.821   2.609   5.417 -1.2928 -0.0633  0.1923
 2827SOL     OW19942   1.703   0.341   7.399  0.0401 -0.0200  0.1597
 2827SOL    HW119943   1.628   0.297   7.437 -0.5299  2.5923  2.0935
 2827SOL    HW219944   1.704   0.423   7.449  0.4209  0.7013 -1.0425
 2828SOL     OW19945   2.474   3.106   2.166  0.1259 -0.1871 -0.0112
 2828SOL    HW119946   2.434   3.031   2.209 -2.4772  1.8574  1.1520
 2828SOL    HW219947   2.406   3.174   2.172 -1.6636 -1.8332 -1.7610
 2829SOL     OW19948   2.646   1.272  10.919 -0.2696 -0.1319  0.2260
 2829SOL    HW119949   2.726   1.311  10.883 -0.1810  0.9197  1.5631
 2829SOL    HW219950   2.669   1.232  11.003  0.0239 -0.7883 -0.1704
 2830SOL     OW19951   2.954   4.143  14.839  0.5149  0.6466 -0.3652
 2830SOL    HW119952   2.983   4.175  14.754  0.3288  1.0210 -0.2875
 2830SOL    HW219953   2.859   4.145  14.822  0.1791 -3.1395  1.0308
 2831SOL     OW19954   3.524   4.325   6.319 -0.2166 -0.5641 -0.4545
 2831SOL    HW119955   3.547   4.346   6.409  0.3091 -1.0083 -0.4885
 2831SOL    HW219956   3.608   4.326   6.272  1.0088 -2.0716  1.7029
 2832SOL     OW19957   1.037   2.713   7.263 -0.2291  0.1892 -0.8104
 2832SOL    HW119958   1.067   2.783   7.321  0.0919 -1.3332  0.8461
 2832SOL    HW219959   0.978   2.760   7.204 -1.2005 -1.4235 -1.1162
 2833SOL     OW19960   1.823   1.631   8.432 -0.2333 -0.5393  0.3545
 2833SOL    HW119961   1.786   1.544   8.420 -2.9426  0.6942 -0.1359
 2833SOL    HW219962   1.914   1.622   8.403 -0.4406 -1.2576 -0.0476
 2834SOL     OW19963   0.240   3.181  14.713  0.4533 -0.5381 -0.5010
 2834SOL    HW119964   0.317   3.207  14.763  0.6256 -0.2847 -0.8992
 2834SOL    HW219965   0.233   3.097  14.759  0.0895  0.6887  1.6791
 2835SOL     OW19966   0.582   4.477  14.914 -0.7041 -0.0414 -0.0562
 2835SOL    HW119967   0.545   4.475  15.002 -1.3137  0.8726 -0.2886
 2835SOL    HW219968   0.566   4.570  14.897  0.1276  0.6904  3.0509
 2836SOL     OW19969   1.976   4.576   1.322  0.2994  0.1247  0.1732
 2836SOL    HW119970   1.922   4.500   1.299 -0.2809  1.3187 -2.4823
 2836SOL    HW219971   1.910   4.642   1.301  0.3419 -0.5921 -2.2704
 2837SOL     OW19972   1.950   3.610   6.654  0.4299 -0.1887  0.3498
 2837SOL    HW119973   2.032   3.577   6.617 -0.3649 -0.9718 -0.7012
 2837SOL    HW219974   1.889   3.575   6.589 -0.0188  0.1957  0.5682
 2838SOL     OW19975   1.282   0.645  15.341  0.3377  0.0690 -0.4698
 2838SOL    HW119976   1.359   0.680  15.294 -0.5281  1.5699 -0.7732
 2838SOL    HW219977   1.330   0.607  15.414  0.6093  1.4401  0.0692
 2839SOL     OW19978   3.045   2.897   1.076 -0.1583  0.1807 -0.1267
 2839SOL    HW119979   3.075   2.988   1.072  1.4449 -0.1488  4.2215
 2839SOL    HW219980   3.133   2.860   1.065 -0.3344 -0.8878  2.1256
 2840SOL     OW19981   3.851   0.831   1.463  0.1786  0.3016  0.6680
 2840SOL    HW119982   3.946   0.823   1.467  0.3106  1.6142  0.3922
 2840SOL    HW219983   3.826   0.782   1.385  0.7862  0.7833  0.1712
 2841SOL     OW19984   0.294   1.520  15.059 -0.2239 -0.0756 -0.1728
 2841SOL    HW119985   0.209   1.555  15.085 -0.4293 -0.3389 -0.4824
 2841SOL    HW219986   0.352   1.578  15.108 -0.9536  0.8459 -0.3999
 2842SOL     OW19987   2.507   1.567   6.898  0.2969  0.7094 -0.0434
 2842SOL    HW119988   2.475   1.532   6.981  0.4808  2.1442  0.6334
 2842SOL    HW219989   2.435   1.538   6.843  0.7147 -0.0519 -0.1944
 2843SOL     OW19990   2.962   3.379  16.873 -0.4942 -0.1707  0.1070
 2843SOL    HW119991   3.011   3.440  16.928 -2.0391  1.5548 -0.4145
 2843SOL    HW219992   3.025   3.354  16.806 -1.0043 -3.0207  0.6676
 2844SOL     OW19993   3.253   4.123  16.519  0.0077  0.2816 -0.1059
 2844SOL    HW119994   3.318   4.192  16.535  2.3361 -1.8434 -0.5307
 2844SOL    HW219995   3.216   4.115  16.607 -0.6972 -1.2651 -0.5423
 2845SOL     OW19996   2.088   1.777  11.300  0.0591  0.4111  0.3264
 2845SOL    HW119997   2.021   1.713  11.276  0.2157  0.3459  0.0562
 2845SOL    HW219998   2.139   1.733  11.368  0.7510  0.3056 -0.2582
 2846SOL     OW19999   1.454   4.445  14.886 -0.3556  0.0408  0.3054
 2846SOL    HW120000   1.441   4.500  14.962 -1.7429 -0.6166  0.5307
 2846SOL    HW220001   1.425   4.506  14.818 -0.3725 -0.1803  0.1112
 2847SOL     OW20002   0.383   0.217   3.476  0.6358 -0.4623 -0.3270
 2847SOL    HW120003   0.318   0.286   3.493  1.9111  0.6443  0.0600
 2847SOL    HW220004   0.334   0.140   3.505  0.0979 -0.2281 -0.6039
 2848SOL     OW20005   0.189   1.692   2.812  0.4391 -0.3979  0.2978
 2848SOL    HW120006   0.167   1.660   2.724  0.6168 -0.2776  0.2092
 2848SOL    HW220007   0.115   1.673   2.870  1.2116 -1.0389  1.0698
 2849SOL     OW20008   0.157   3.091   9.858  0.2464  0.4133  0.0838
 2849SOL    HW120009   0.200   3.153   9.799  0.4509  0.0083 -0.1929
 2849SOL    HW220010   0.226   3.051   9.911  0.7881 -1.4981 -2.0785
 2850SOL     OW20011   2.969   1.749   3.565 -0.7902 -0.6229 -0.5583
 2850SOL    HW120012   3.017   1.826   3.594 -1.6349 -0.6551  0.9560
 2850SOL    HW220013   2.976   1.702   3.648 -0.0766  1.5096  0.5797
 2851SOL     OW20014   1.216   3.957   9.052 -0.2090 -0.1282 -0.3030
 2851SOL    HW120015   1.203   3.964   9.146 -1.3036  0.0716 -0.4598
 2851SOL    HW220016   1.286   4.020   9.040 -0.6558  0.7909  2.0136
 2852SOL     OW20017   4.386   3.104   5.276 -0.3066  0.1271  0.3250
 2852SOL    HW120018   4.325   3.126   5.205  2.5217  1.7549 -1.5960
 2852SOL    HW220019   4.346   3.028   5.319 -0.7152  0.5028  0.6086
 2853SOL     OW20020   3.169   3.801   2.650  0.4353  0.3546  0.0853
 2853SOL    HW120021   3.244   3.859   2.667  0.1130  0.3608  1.5387
 2853SOL    HW220022   3.191   3.772   2.562 -1.6518  3.1135 -1.3523
 2854SOL     OW20023   3.855   2.698   3.819  0.0411  0.3392  0.8562
 2854SOL    HW120024   3.842   2.788   3.790 -1.3185 -0.3944 -0.8078
 2854SOL    HW220025   3.948   2.708   3.843 -0.0121 -2.4774  2.2906
 2855SOL     OW20026   4.261   2.979   3.207  0.3770  0.0676 -0.1118
 2855SOL    HW120027   4.345   2.941   3.181  0.2994  1.5161 -2.4529
 2855SOL    HW220028   4.279   3.073   3.208  1.6402 -0.1752  0.4100
 2856SOL     OW20029   0.763   4.632  16.900 -0.3233  0.0292 -0.0084
 2856SOL    HW120030   0.761   4.697  16.970 -0.6018  0.3671 -0.3299
 2856SOL    HW220031   0.724   4.562  16.952  0.2997  0.0291  0.4615
 2857SOL     OW20032   3.058   1.166   4.934  0.0723 -0.5988 -0.2920
 2857SOL    HW120033   3.024   1.209   4.855  0.1843 -0.5613 -0.3200
 2857SOL    HW220034   3.152   1.156   4.922 -0.0165 -0.6885 -0.8982
 2858SOL     OW20035   4.040   4.583   2.405  0.3503  0.1333  0.2619
 2858SOL    HW120036   3.960   4.625   2.436  0.4078  0.6156 -0.2399
 2858SOL    HW220037   4.072   4.553   2.490 -1.0940 -0.1138  0.7128
 2859SOL     OW20038   2.628   2.543   0.003  0.5717 -0.0938  0.1347
 2859SOL    HW120039   2.697   2.557  17.628  0.1564  0.8066 -0.1117
 2859SOL    HW220040   2.553   2.511  17.643  1.1723  0.6557 -1.2554
 2860SOL     OW20041   4.239   2.509  16.402 -0.1071  0.1089 -0.3360
 2860SOL    HW120042   4.157   2.551  16.378 -1.1077 -1.3640  0.4879
 2860SOL    HW220043   4.205   2.419  16.404 -0.7375  0.4088  2.0770
 2861SOL     OW20044   3.547   2.602   1.177 -0.2508  0.2949 -0.5825
 2861SOL    HW120045   3.584   2.513   1.170  2.5068  1.5511 -1.9234
 2861SOL    HW220046   3.566   2.627   1.267 -2.0101 -0.8906  0.1129
 2862SOL     OW20047   3.936   3.646   7.880  0.1732 -0.0939 -0.1331
 2862SOL    HW120048   3.884   3.636   7.800  0.5066 -3.3491  0.0632
 2862SOL    HW220049   4.024   3.649   7.840  0.0848  1.1421 -0.2364
 2863SOL     OW20050   2.126   3.283  16.470 -0.0421  0.6745  0.5114
 2863SOL    HW120051   2.036   3.316  16.480 -0.5043 -0.5131  0.2988
 2863SOL    HW220052   2.150   3.254  16.558  0.4194  0.8652  0.4463
 2864SOL     OW20053   0.934   0.682   1.762  0.7393  0.8088 -0.0336
 2864SOL    HW120054   0.967   0.711   1.677 -0.4554  1.4661 -0.2837
 2864SOL    HW220055   0.937   0.745   1.835  2.8130 -0.7673  1.2322
 2865SOL     OW20056   1.429   4.127  12.549 -0.0703 -0.0374 -0.0848
 2865SOL    HW120057   1.367   4.057  12.527 -1.7612  0.6893  2.3166
 2865SOL    HW220058   1.512   4.107  12.507  0.3340 -1.0427  1.1935
 2866SOL     OW20059   2.909   3.552   4.317 -0.0971  0.0559 -0.5434
 2866SOL    HW120060   2.969   3.486   4.283 -1.0371 -0.6914 -0.7441
 2866SOL    HW220061   2.952   3.580   4.397  0.8313 -0.8222 -0.7369
 2867SOL     OW20062   2.272   3.875   9.384 -0.2635  0.3418  0.2649
 2867SOL    HW120063   2.250   3.867   9.477  0.0800 -1.7621  0.1631
 2867SOL    HW220064   2.300   3.784   9.371  0.1382  0.0255  3.4040
 2868SOL     OW20065   2.207   2.499  13.418 -0.1510  0.0025 -0.5526
 2868SOL    HW120066   2.223   2.580  13.466  0.8380  0.0706 -0.9958
 2868SOL    HW220067   2.122   2.479  13.458 -1.0890  0.9126 -2.0922
 2869SOL     OW20068   3.425   2.205  12.093 -0.2644  0.2443 -0.5272
 2869SOL    HW120069   3.432   2.143  12.020 -0.9612  0.6751 -0.9578
 2869SOL    HW220070   3.335   2.233  12.076 -0.1698 -0.3046 -1.9701
 2870SOL     OW20071   2.545   2.107  15.584  0.3764 -0.6318 -0.2525
 2870SOL    HW120072   2.615   2.153  15.629  0.1970 -0.5316 -0.0760
 2870SOL    HW220073   2.545   2.153  15.500  1.4998 -1.6116 -0.7910
 2871SOL     OW20074   4.496   2.095   7.927 -0.3426 -0.0334  0.8750
 2871SOL    HW120075   4.420   2.143   7.895  0.0436  0.0125  0.0073
 2871SOL    HW220076   4.452   2.022   7.969  0.7464 -1.3063 -0.1854
 2872SOL     OW20077   1.033   0.341   3.678  0.1096  0.4913 -0.5628
 2872SOL    HW120078   1.091   0.269   3.654  0.0710  0.0477  0.6913
 2872SOL    HW220079   1.000   0.314   3.764 -1.6237 -1.0549 -1.7199
 2873SOL     OW20080   3.098   1.283   0.216 -0.0843 -0.2081  0.4544
 2873SOL    HW120081   3.068   1.193   0.228  2.1182 -1.0213 -0.1243
 2873SOL    HW220082   3.172   1.262   0.159 -0.1581  0.0160  0.2774
 2874SOL     OW20083   1.474   2.822   2.571  0.0450 -0.0141  0.2208
 2874SOL    HW120084   1.408   2.772   2.618  0.3703 -2.6979 -2.2467
 2874SOL    HW220085   1.548   2.811   2.632 -2.1953 -2.1670  2.5052
 2875SOL     OW20086   0.459   0.621   7.186 -0.0794  0.0560  0.1415
 2875SOL    HW120087   0.372   0.593   7.159 -0.1591  0.6135 -0.1751
 2875SOL    HW220088   0.440   0.639   7.278  1.5803 -0.7617  0.6406
 2876SOL     OW20089   2.244   2.817   8.718 -0.9795 -0.0148  0.3878
 2876SOL    HW120090   2.195   2.873   8.658 -1.8606 -0.1837  0.9478
 2876SOL    HW220091   2.169   2.772   8.757 -1.8864 -0.5066 -1.9491
 2877SOL     OW20092   0.585   1.721   7.595  0.1924  0.0923  0.0412
 2877SOL    HW120093   0.536   1.713   7.513 -2.0227  3.1258  1.0978
 2877SOL    HW220094   0.660   1.665   7.573  0.4546  1.6818 -3.1594
 2878SOL     OW20095   0.763   4.204   6.756 -0.5533 -0.1748  0.5288
 2878SOL    HW120096   0.759   4.299   6.768  2.2432 -0.0104  0.0825
 2878SOL    HW220097   0.812   4.177   6.834  0.0830 -0.9800 -0.1538
 2879SOL     OW20098   3.225   2.277   1.567  0.3217 -0.0978 -0.3676
 2879SOL    HW120099   3.156   2.288   1.502  0.1251  1.4441  0.0896
 2879SOL    HW220100   3.192   2.333   1.638  0.0590 -0.2858 -0.3441
 2880SOL     OW20101   1.158   3.317   3.899 -0.1002 -0.2797 -0.9201
 2880SOL    HW120102   1.069   3.284   3.891 -0.3471 -0.2836  2.1807
 2880SOL    HW220103   1.181   3.272   3.980 -0.6754  0.3081 -0.4376
 2881SOL     OW20104   3.161   3.275   8.698  0.3405  0.0375  0.2408
 2881SOL    HW120105   3.144   3.341   8.631  3.2479  0.0589 -0.4768
 2881SOL    HW220106   3.076   3.266   8.741 -1.2929  3.0437 -2.3754
 2882SOL     OW20107   2.416   0.694  17.363 -0.0772  0.0805  0.3413
 2882SOL    HW120108   2.446   0.733  17.281 -2.9372 -1.5697 -1.4793
 2882SOL    HW220109   2.441   0.606  17.334 -1.0641  0.3150 -1.2709
 2883SOL     OW20110   3.132   3.378   4.040 -0.5570  0.5654  0.0909
 2883SOL    HW120111   3.129   3.473   4.050  0.2725  0.3841  2.1489
 2883SOL    HW220112   3.096   3.342   4.122  1.0073  1.7140  1.2897
 2884SOL     OW20113   1.958   1.905  16.766  0.0522  0.8779  0.1992
 2884SOL    HW120114   1.986   1.821  16.729 -1.0589  0.8620 -0.6227
 2884SOL    HW220115   1.967   1.958  16.687 -2.8238 -1.5317 -1.7487
 2885SOL     OW20116   2.361   3.682   2.930  0.1250 -0.0522  0.0009
 2885SOL    HW120117   2.318   3.627   2.995 -0.5050  0.9317  0.4197
 2885SOL    HW220118   2.452   3.652   2.924  0.1859  0.3965 -1.4530
 2886SOL     OW20119   4.158   0.798   1.395  0.8836 -0.0485 -0.3156
 2886SOL    HW120120   4.169   0.721   1.450 -2.1530 -0.6542 -0.5714
 2886SOL    HW220121   4.168   0.869   1.459  0.4221 -0.9631  0.7683
 2887SOL     OW20122   2.010   1.448   0.244 -0.0905  0.1141 -0.1091
 2887SOL    HW120123   1.991   1.443   0.151  1.0169 -1.5597 -0.2315
 2887SOL    HW220124   1.922   1.455   0.282 -0.5524 -1.4335 -0.8924
 2888SOL     OW20125   1.345   3.426   3.729  0.0512 -0.2753  0.4627
 2888SOL    HW120126   1.418   3.367   3.748 -0.5018 -0.3444  2.3869
 2888SOL    HW220127   1.277   3.383   3.781 -2.1480 -0.4755 -2.5652
 2889SOL     OW20128   4.660   4.344  10.213 -0.8246  0.0273  0.1193
 2889SOL    HW120129   4.574   4.307  10.231 -1.1817  1.4872  1.3610
 2889SOL    HW220130   4.679   4.370  10.303  2.0363 -0.7082 -0.2613
 2890SOL     OW20131   4.127   1.287   3.536 -0.8257 -0.2294  0.0854
 2890SOL    HW120132   4.075   1.206   3.527  0.9499 -1.3276 -0.3168
 2890SOL    HW220133   4.209   1.242   3.558  0.0193  1.5481  0.5513
 2891SOL     OW20134   0.588   2.456   7.947  1.1311  0.4368 -0.5711
 2891SOL    HW120135   0.542   2.375   7.923  2.7807 -1.3689  2.3652
 2891SOL    HW220136   0.611   2.439   8.038 -1.6600 -1.9629 -0.3107
 2892SOL     OW20137   1.054   0.808   0.715 -0.0513 -0.5468 -0.1118
 2892SOL    HW120138   1.081   0.743   0.779 -0.0940 -0.3442  0.1109
 2892SOL    HW220139   1.140   0.847   0.702 -1.4465  2.2592 -0.9905
 2893SOL     OW20140   1.330   4.031   5.693  0.5630 -0.1884  0.0496
 2893SOL    HW120141   1.271   4.006   5.621 -0.4012  1.0507  0.4062
 2893SOL    HW220142   1.305   3.969   5.761 -0.3480  0.4605  0.3203
 2894SOL     OW20143   3.144   3.489   7.152  0.1146 -0.1415  0.4885
 2894SOL    HW120144   3.190   3.409   7.126  1.2918  0.0085  2.1169
 2894SOL    HW220145   3.060   3.467   7.113  0.0007  2.0979 -0.5235
 2895SOL     OW20146   0.714   1.710   6.703 -0.2223  0.6699  0.3270
 2895SOL    HW120147   0.705   1.633   6.647  3.0331  1.4708 -1.2779
 2895SOL    HW220148   0.808   1.712   6.717  0.3820 -3.5794 -3.0587
 2896SOL     OW20149   1.263   1.350   7.363 -0.7018 -0.2361  0.5907
 2896SOL    HW120150   1.304   1.423   7.317 -3.3755 -1.4216 -3.6764
 2896SOL    HW220151   1.303   1.377   7.446  0.4474 -0.8714  0.2333
 2897SOL     OW20152   4.604   4.243  13.599  0.4872  0.6674 -0.3717
 2897SOL    HW120153   4.666   4.219  13.530 -0.9546 -0.3927 -1.3185
 2897SOL    HW220154   4.565   4.323  13.564 -2.8208 -0.2502  1.2376
 2898SOL     OW20155   3.591   3.337  14.201  0.1492  0.1754 -0.1198
 2898SOL    HW120156   3.610   3.320  14.293  2.6171  2.1766 -0.2464
 2898SOL    HW220157   3.672   3.352  14.152  0.7880  1.2410  1.2672
 2899SOL     OW20158   1.531   4.243   0.567  0.1747  0.3370 -0.2222
 2899SOL    HW120159   1.603   4.302   0.544  0.8028 -2.0247 -4.4412
 2899SOL    HW220160   1.593   4.172   0.584 -1.6288 -0.9104  1.1317
 2900SOL     OW20161   2.266   4.434   5.538  0.2397 -0.0353  0.3137
 2900SOL    HW120162   2.335   4.461   5.476 -1.4205  0.7532 -1.1871
 2900SOL    HW220163   2.211   4.395   5.471 -0.3600 -0.9261  1.3396
 2901SOL     OW20164   2.443   0.214  12.072 -0.2289  0.1766  0.2163
 2901SOL    HW120165   2.436   0.309  12.088 -0.1396  0.3705 -0.8938
 2901SOL    HW220166   2.438   0.210  11.977  0.9186  0.5331  0.1418
 2902SOL     OW20167   2.841   2.724   9.747  0.3034  0.3279 -0.9167
 2902SOL    HW120168   2.846   2.811   9.708 -0.7182  0.0046 -1.7575
 2902SOL    HW220169   2.895   2.664   9.695  0.1713 -0.5273 -0.0782
 2903SOL     OW20170   1.291   1.520  15.860  0.9255 -0.4912  0.1027
 2903SOL    HW120171   1.287   1.472  15.777  0.9827  0.0343 -0.2079
 2903SOL    HW220172   1.363   1.469  15.897  1.4430  0.3010  0.1905
 2904SOL     OW20173   2.688   3.836   6.487  0.0143 -0.6067 -0.4619
 2904SOL    HW120174   2.694   3.901   6.558  0.1886  0.3848 -1.3813
 2904SOL    HW220175   2.611   3.784   6.509 -0.3857  0.0542 -0.2784
 2905SOL     OW20176   0.480   1.208  15.695 -0.2799  0.0258 -0.1211
 2905SOL    HW120177   0.456   1.153  15.771 -2.1385  1.9128  0.6419
 2905SOL    HW220178   0.434   1.160  15.626 -0.6100  0.7880 -0.4243
 2906SOL     OW20179   3.841   2.554   1.351 -0.3382  0.2197  0.8768
 2906SOL    HW120180   3.770   2.575   1.412 -1.4989 -0.6443 -0.1674
 2906SOL    HW220181   3.797   2.476   1.317 -0.5460  0.7624 -0.1316
 2907SOL     OW20182   4.185   3.043   4.183  0.3820 -0.3441 -0.6881
 2907SOL    HW120183   4.219   2.975   4.242 -0.8495 -1.0237 -0.7470
 2907SOL    HW220184   4.258   3.104   4.181 -0.5162  0.8198  2.0010
 2908SOL     OW20185   3.226   0.882  10.481  0.7715 -0.2148 -0.0534
 2908SOL    HW120186   3.243   0.792  10.507 -2.7297 -1.1489 -0.9378
 2908SOL    HW220187   3.304   0.919  10.521 -0.1635 -0.0366  1.5956
 2909SOL     OW20188   2.502   4.331  12.361  0.0002  0.4178 -0.1292
 2909SOL    HW120189   2.559   4.302  12.432 -1.0696  0.8305  0.9072
 2909SOL    HW220190   2.557   4.321  12.284 -1.9853  2.4569 -1.8108
 2910SOL     OW20191   2.022   2.556   1.984  0.1408 -0.2305  0.2138
 2910SOL    HW120192   1.974   2.474   1.983  0.4897 -0.4246 -0.5428
 2910SOL    HW220193   2.011   2.601   2.068 -2.0136 -1.7763  0.7520
 2911SOL     OW20194   3.047   1.010   1.151  0.9519 -0.4065 -0.3136
 2911SOL    HW120195   3.029   1.021   1.245 -1.2280  1.5217 -0.9468
 2911SOL    HW220196   3.049   1.104   1.132  2.0674  0.0446  1.9959
 2912SOL     OW20197   0.632   3.441   7.966 -0.3211 -0.2117  0.3246
 2912SOL    HW120198   0.551   3.442   7.914 -0.3208  0.0290  0.3290
 2912SOL    HW220199   0.624   3.531   7.998  2.6539  0.3330 -0.4586
 2913SOL     OW20200   1.562   1.406   2.902 -0.2292 -0.0323  0.1145
 2913SOL    HW120201   1.603   1.482   2.861  0.0112  0.6156  1.5553
 2913SOL    HW220202   1.503   1.390   2.828 -0.4116 -2.3226  0.7652
 2914SOL     OW20203   0.705   2.781   1.302  0.1952  0.1433  0.3051
 2914SOL    HW120204   0.720   2.755   1.393 -0.3605  1.9254  0.8980
 2914SOL    HW220205   0.789   2.811   1.269 -0.6028  0.6709 -1.2665
 2915SOL     OW20206   0.178   3.323  12.901  0.7172  0.0076  0.4846
 2915SOL    HW120207   0.147   3.267  12.830  2.5427 -1.2104  0.6317
 2915SOL    HW220208   0.271   3.335  12.879  0.1762  2.0812 -0.6657
 2916SOL     OW20209   0.838   1.426   5.957  0.4631 -0.6327  0.6213
 2916SOL    HW120210   0.788   1.367   5.900 -0.3148  0.4453  0.1784
 2916SOL    HW220211   0.778   1.442   6.030 -0.0524 -1.1257  0.3071
 2917SOL     OW20212   2.448   3.344  13.842  0.0188  0.5745 -0.3380
 2917SOL    HW120213   2.372   3.368  13.896 -1.0078 -1.6201 -0.8391
 2917SOL    HW220214   2.512   3.332  13.912 -0.8611 -0.1067  0.3453
 2918SOL     OW20215   4.303   2.038   9.542 -0.6705 -0.4521 -0.1157
 2918SOL    HW120216   4.333   2.126   9.565  0.0047 -0.9519  0.9270
 2918SOL    HW220217   4.280   2.000   9.627 -0.6907 -1.3082 -0.5036
 2919SOL     OW20218   0.181   2.963   4.055  0.1450 -0.1647 -0.5159
 2919SOL    HW120219   0.162   3.056   4.062  1.2809  0.3224 -3.9326
 2919SOL    HW220220   0.185   2.944   4.149  1.4201 -0.7130 -0.6652
 2920SOL     OW20221   4.482   4.545   9.277 -0.2328  0.1537  0.1728
 2920SOL    HW120222   4.483   4.561   9.372  0.0355  0.6502  0.0860
 2920SOL    HW220223   4.389   4.570   9.269  0.2772  1.5820 -1.2447
 2921SOL     OW20224   0.871   2.540   7.416  0.4048 -0.1065  0.0886
 2921SOL    HW120225   0.839   2.613   7.468 -3.5733  1.3558 -4.3545
 2921SOL    HW220226   0.872   2.586   7.332 -1.2464  0.2683  0.2633
 2922SOL     OW20227   2.946   0.253   8.048  0.4785 -0.7756  0.1369
 2922SOL    HW120228   2.947   0.167   8.089  1.8535 -0.9543 -0.2769
 2922SOL    HW220229   2.925   0.311   8.122 -1.3090 -0.4841 -0.5974
 2923SOL     OW20230   4.715   2.867   7.090 -1.1121  0.0206 -0.7293
 2923SOL    HW120231   4.674   2.781   7.090 -1.5977  0.2542  0.1935
 2923SOL    HW220232   0.016   2.893   7.000  0.9810 -0.6446 -0.3949
 2924SOL     OW20233   1.062   2.859   4.651 -0.5163  0.0897 -0.1800
 2924SOL    HW120234   1.045   2.783   4.706 -1.9633  1.1203  0.7844
 2924SOL    HW220235   1.082   2.825   4.563 -2.0489 -1.0020 -0.1093
 2925SOL     OW20236   0.152   2.433   9.488 -0.1600 -0.5053  0.0697
 2925SOL    HW120237   0.135   2.364   9.552  0.9592 -2.3375 -1.5992
 2925SOL    HW220238   0.235   2.464   9.524 -0.9319 -0.8338  2.0883
 2926SOL     OW20239   0.809   0.466   7.297  0.0797 -0.0173  0.1160
 2926SOL    HW120240   0.804   0.371   7.310  0.8511 -0.1889 -0.7908
 2926SOL    HW220241   0.804   0.472   7.202 -1.7549 -1.2078  0.1505
 2927SOL     OW20242   0.019   3.958   8.296  0.2043 -0.2213 -0.1431
 2927SOL    HW120243   4.664   3.902   8.287 -0.1069  0.4232 -1.4300
 2927SOL    HW220244   0.056   3.912   8.372 -1.5268  0.3000  1.0194
 2928SOL     OW20245   3.915   3.102   8.839  0.7291  0.2092 -0.1793
 2928SOL    HW120246   3.842   3.094   8.778  0.5600  0.0650  0.0442
 2928SOL    HW220247   3.980   3.048   8.793  0.0639 -1.2792  0.6202
 2929SOL     OW20248   0.674   4.606   9.937 -0.6489  0.4732  0.1510
 2929SOL    HW120249   0.645   4.673   9.999 -1.0863  0.9824 -0.6185
 2929SOL    HW220250   0.741   4.659   9.895  1.9820 -2.9641 -0.0120
 2930SOL     OW20251   3.969   1.589  16.533  0.2438  0.1660 -0.3623
 2930SOL    HW120252   4.028   1.590  16.608  1.1114  1.6988 -1.0694
 2930SOL    HW220253   4.021   1.621  16.459  2.8249  1.6522  2.1060
 2931SOL     OW20254   2.414   3.567  10.479  0.6748 -0.3138  0.7524
 2931SOL    HW120255   2.368   3.529  10.553 -0.6434  1.9433  1.0949
 2931SOL    HW220256   2.378   3.656  10.482  1.3817  0.1113 -2.4982
 2932SOL     OW20257   1.624   3.549  17.635  0.3353  0.1487 -0.3316
 2932SOL    HW120258   1.638   3.607  17.559 -0.9811  2.0630  0.8725
 2932SOL    HW220259   1.592   3.605   0.016  1.0963  0.8737 -0.5516
 2933SOL     OW20260   3.695   4.595   2.696  0.6496 -0.3654 -0.0174
 2933SOL    HW120261   3.666   4.526   2.637 -3.0702  2.4908 -1.4996
 2933SOL    HW220262   3.755   4.638   2.635  0.3352  1.2184  0.8108
 2934SOL     OW20263   2.423   3.154  14.422 -0.1436 -0.2864 -1.0074
 2934SOL    HW120264   2.457   3.197  14.344 -0.8512  0.3014 -0.9945
 2934SOL    HW220265   2.444   3.062  14.409 -0.1426 -0.3940 -0.2944
 2935SOL     OW20266   2.670   2.119   0.248  0.5037  0.7071 -0.4938
 2935SOL    HW120267   2.591   2.158   0.287  0.4596  0.6533 -0.5289
 2935SOL    HW220268   2.655   2.024   0.254 -0.1469  0.8109 -0.4945
 2936SOL     OW20269   4.306   1.230   4.883  0.1973  0.1991 -0.2658
 2936SOL    HW120270   4.226   1.179   4.871 -0.7130  1.6797 -0.5229
 2936SOL    HW220271   4.270   1.318   4.889 -0.4968 -0.0650 -0.6269
 2937SOL     OW20272   1.378   1.949   3.047  0.6572  0.3316 -0.4565
 2937SOL    HW120273   1.422   1.901   2.977  2.3661 -1.0581  1.5852
 2937SOL    HW220274   1.297   1.973   3.001 -0.9082 -1.9797  1.0932
 2938SOL     OW20275   1.644   2.363   9.877  0.7861 -0.3834 -0.2709
 2938SOL    HW120276   1.612   2.449   9.849  0.2472 -0.8673 -1.1704
 2938SOL    HW220277   1.701   2.378   9.952  0.6189  1.2450 -0.4683
 2939SOL     OW20278   3.355   3.106  13.432  0.1263  0.0449  0.3983
 2939SOL    HW120279   3.333   3.174  13.368 -0.1254  0.2608  0.7111
 2939SOL    HW220280   3.275   3.098  13.485 -1.2364 -1.0923 -1.8033
 2940SOL     OW20281   2.309   2.202   5.150 -0.4568 -0.4309 -0.1369
 2940SOL    HW120282   2.227   2.241   5.179 -1.3346 -2.1422 -0.2812
 2940SOL    HW220283   2.289   2.109   5.162 -1.7553  0.1357  2.0691
 2941SOL     OW20284   1.179   1.216   8.663 -0.6187  0.0654 -0.1575
 2941SOL    HW120285   1.100   1.225   8.609  0.1354  0.6214 -1.1594
 2941SOL    HW220286   1.144   1.163   8.735 -1.6078  0.3379 -0.4397
 2942SOL     OW20287   1.744   2.102   3.691  0.3161 -0.6928  0.4767
 2942SOL    HW120288   1.652   2.108   3.715  0.6775  0.0936  1.6515
 2942SOL    HW220289   1.770   2.168   3.626 -1.1686 -2.1117 -1.5255
 2943SOL     OW20290   4.268   0.535   5.524 -0.0731 -0.3692 -0.3231
 2943SOL    HW120291   4.208   0.547   5.597  0.6857 -1.4936  0.4836
 2943SOL    HW220292   4.343   0.522   5.583  1.6462 -1.4566 -2.7760
 2944SOL     OW20293   2.887   4.661  13.167 -0.3296 -0.3449 -0.7998
 2944SOL    HW120294   2.865   4.672  13.260 -0.8861 -0.0260 -0.9763
 2944SOL    HW220295   2.912   4.569  13.163 -0.8898 -0.5123 -0.3880
 2945SOL     OW20296   2.227   3.581   6.928  0.4452  0.3357  0.4174
 2945SOL    HW120297   2.170   3.626   6.990 -0.0183 -1.3839  1.2188
 2945SOL    HW220298   2.239   3.648   6.860 -2.1176  1.7710  1.3848
 2946SOL     OW20299   1.647   2.841   4.976 -1.0086 -0.3806  0.0765
 2946SOL    HW120300   1.675   2.802   5.059  3.6813 -1.1433 -1.8752
 2946SOL    HW220301   1.555   2.816   4.981 -0.7225 -0.9655  2.4878
 2947SOL     OW20302   0.895   4.235   5.419  0.6890 -0.3862  0.3686
 2947SOL    HW120303   0.803   4.211   5.413  1.0828 -1.4640 -1.2895
 2947SOL    HW220304   0.914   4.303   5.354  3.1075 -0.5374  0.9076
 2948SOL     OW20305   1.725   1.432   2.556 -1.3005  0.1135  0.2452
 2948SOL    HW120306   1.786   1.398   2.491 -0.7809 -2.3698  2.0440
 2948SOL    HW220307   1.738   1.524   2.536 -2.0561 -0.1262 -1.3314
 2949SOL     OW20308   1.191   1.890   9.125 -0.5931  0.5399  0.4870
 2949SOL    HW120309   1.173   1.937   9.206  1.5936  1.3008  0.5411
 2949SOL    HW220310   1.285   1.872   9.132 -0.9610 -0.3060  3.1284
 2950SOL     OW20311   2.340   4.305   2.940 -0.3990  0.6628  0.3467
 2950SOL    HW120312   2.286   4.260   3.006  0.5194 -2.1125 -0.8010
 2950SOL    HW220313   2.418   4.329   2.990 -0.2414 -0.7858  0.8105
 2951SOL     OW20314   4.267   2.660   9.194 -0.2007  0.0726  0.0083
 2951SOL    HW120315   4.296   2.732   9.139  0.5333  1.2461  1.9122
 2951SOL    HW220316   4.347   2.617   9.225  0.0871  0.1212 -0.6828
 2952SOL     OW20317   0.546   1.664   8.412  0.5354 -0.1865 -0.2242
 2952SOL    HW120318   0.572   1.686   8.501 -3.2783  1.0237  0.5815
 2952SOL    HW220319   0.528   1.749   8.371  0.1088 -1.1530 -2.0274
 2953SOL     OW20320   4.597   0.347   8.064  0.0402 -0.0623  0.2908
 2953SOL    HW120321   4.565   0.257   8.077 -0.1040 -0.1579 -0.7664
 2953SOL    HW220322   4.683   0.337   8.105 -0.2031 -0.2894  0.7493
 2954SOL     OW20323   4.307   0.450   3.060 -0.0487 -0.1760  0.1709
 2954SOL    HW120324   4.283   0.449   2.967 -0.4616  1.4666  0.2772
 2954SOL    HW220325   4.222   0.437   3.103  0.1920  0.5846  0.8691
 2955SOL     OW20326   0.596   2.402   2.905  1.0642  0.0208  0.3001
 2955SOL    HW120327   0.678   2.352   2.900 -1.4128 -3.8094 -1.9961
 2955SOL    HW220328   0.582   2.395   2.999 -1.0460  2.1459  0.1543
 2956SOL     OW20329   2.734   2.268   2.204  0.9385  0.1506  0.0764
 2956SOL    HW120330   2.674   2.198   2.179  1.2220  0.3520 -1.2088
 2956SOL    HW220331   2.686   2.336   2.156 -0.1888 -0.3880  0.4422
 2957SOL     OW20332   1.677   3.405   2.129 -0.7448 -0.3154  0.4719
 2957SOL    HW120333   1.647   3.330   2.077 -1.3705  0.3050 -0.0476
 2957SOL    HW220334   1.595   3.431   2.170 -0.3002 -0.8876  1.7456
 2958SOL     OW20335   4.470   4.653   4.788 -0.4136 -0.0571  0.5150
 2958SOL    HW120336   4.508   0.018   4.797 -0.5526  0.3567 -2.8022
 2958SOL    HW220337   4.483   4.624   4.878 -0.8734  0.5401  0.7630
 2959SOL     OW20338   3.854   4.328   3.251  0.2577 -0.3564 -0.2495
 2959SOL    HW120339   3.941   4.289   3.244  0.6114  0.1782  1.0664
 2959SOL    HW220340   3.873   4.414   3.289 -0.8973 -0.2613  0.0961
 2960SOL     OW20341   1.853   2.494  13.832 -0.3168 -0.2103  0.1894
 2960SOL    HW120342   1.847   2.485  13.927 -1.1855  1.8063  0.3148
 2960SOL    HW220343   1.776   2.444  13.805 -0.7329 -0.1127  1.2020
 2961SOL     OW20344   3.540   2.727   9.644  0.5473 -0.2064  0.0800
 2961SOL    HW120345   3.489   2.748   9.566 -2.3154  0.0373  1.9760
 2961SOL    HW220346   3.460   2.704   9.692 -0.9037  0.3220 -2.1010
 2962SOL     OW20347   2.470   2.190   8.911 -0.3989  0.1394  0.3380
 2962SOL    HW120348   2.559   2.165   8.936  0.3876 -0.0811 -2.7381
 2962SOL    HW220349   2.475   2.286   8.916 -0.4915  0.0489  2.3222
 2963SOL     OW20350   3.097   2.009   2.595  0.1188  0.1722 -0.1944
 2963SOL    HW120351   3.034   2.009   2.523 -0.1635  0.2691  0.0539
 2963SOL    HW220352   3.046   1.987   2.674  2.6786  0.2041  1.4622
 2964SOL     OW20353   2.136   1.975  17.482  0.0319 -0.2768 -0.1995
 2964SOL    HW120354   2.095   1.913  17.422 -0.1386 -1.3399  1.0010
 2964SOL    HW220355   2.054   2.000  17.524  0.2493 -0.5409  0.3773
 2965SOL     OW20356   1.404   2.141  13.057  0.1997 -1.2952  0.2772
 2965SOL    HW120357   1.362   2.154  12.972  0.0270  0.4689  0.6260
 2965SOL    HW220358   1.490   2.168  13.026  0.4649 -3.3245 -0.7319
 2966SOL     OW20359   2.997   0.094  14.203 -0.0334 -0.4829 -0.0660
 2966SOL    HW120360   2.974   0.141  14.284  2.9613 -0.4596  0.7635
 2966SOL    HW220361   2.922   0.115  14.148 -2.4672 -1.0673  3.0306
 2967SOL     OW20362   4.578   1.935   2.518  0.1948 -0.5044  0.0480
 2967SOL    HW120363   4.593   1.912   2.426 -0.4429 -2.3762  0.4036
 2967SOL    HW220364   4.514   1.867   2.541  2.6642 -3.0003 -0.4059
 2968SOL     OW20365   3.522   0.182   7.950  0.1145 -0.1788  0.1509
 2968SOL    HW120366   3.546   0.254   7.891 -1.2949  0.3957  0.2978
 2968SOL    HW220367   3.594   0.118   7.949 -1.0178 -1.4366 -0.6348
 2969SOL     OW20368   0.428   4.707   8.143 -0.2850  0.2162 -0.0970
 2969SOL    HW120369   0.416   0.067   8.191 -3.0419  0.5881 -1.4334
 2969SOL    HW220370   0.438   4.645   8.216 -1.3090 -1.5221 -1.4331
 2970SOL     OW20371   2.056   2.654  10.108  0.0802 -0.7735  0.0698
 2970SOL    HW120372   2.099   2.659  10.194  0.1317  3.6058 -0.2171
 2970SOL    HW220373   1.994   2.727  10.100  0.9720 -0.0586 -0.3818
 2971SOL     OW20374   4.587   1.629   9.497  0.1092  0.6556 -0.0805
 2971SOL    HW120375   4.673   1.659   9.526 -0.1328  0.7668  0.5352
 2971SOL    HW220376   4.555   1.710   9.457  0.5309 -0.3994 -2.4948
 2972SOL     OW20377   0.253   4.646   6.409 -0.6827 -0.0705  0.3234
 2972SOL    HW120378   0.238   4.662   6.503  1.1105 -0.8521  0.7518
 2972SOL    HW220379   0.207   0.004   6.381 -2.5044 -1.5501 -0.8696
 2973SOL     OW20380   2.781   0.938   0.606 -0.2968 -0.0133  0.0757
 2973SOL    HW120381   2.871   0.951   0.575 -0.0626 -1.4137  0.1522
 2973SOL    HW220382   2.738   0.959   0.523 -0.8288 -0.2162  0.3046
 2974SOL     OW20383   3.906   0.545  16.307 -0.5243 -0.1366  0.6071
 2974SOL    HW120384   3.916   0.623  16.252 -0.4674 -0.7418 -0.2242
 2974SOL    HW220385   3.934   0.579  16.392 -2.2888  2.4541  0.1350
 2975SOL     OW20386   3.074   4.471  16.873  0.3452 -0.2649 -0.8681
 2975SOL    HW120387   2.990   4.516  16.883  0.6619 -0.0647  0.7820
 2975SOL    HW220388   3.064   4.436  16.784 -1.3315 -1.1182 -0.3495
 2976SOL     OW20389   0.775   2.043   5.340  0.4249  0.2603  0.1833
 2976SOL    HW120390   0.752   2.133   5.365  0.5631  1.1755 -2.9023
 2976SOL    HW220391   0.871   2.040   5.342  0.4294  1.1420  1.4447
 2977SOL     OW20392   1.854   2.694  11.677  0.4004  0.2370 -0.1077
 2977SOL    HW120393   1.780   2.672  11.733 -0.5130  0.5924 -1.1911
 2977SOL    HW220394   1.922   2.641  11.720 -0.3626  0.7750  1.7901
 2978SOL     OW20395   1.414   0.603  12.842  0.4889  0.7160 -0.4118
 2978SOL    HW120396   1.449   0.692  12.832 -1.4928  1.5446 -0.1296
 2978SOL    HW220397   1.376   0.607  12.929  1.7512 -1.7874  0.2404
 2979SOL     OW20398   2.080   3.826   1.948  0.3489  0.3546 -0.1431
 2979SOL    HW120399   2.089   3.876   1.866  1.0576 -0.8932 -0.8197
 2979SOL    HW220400   2.157   3.769   1.944  1.2298  1.5231 -0.0167
 2980SOL     OW20401   1.881   0.869  10.331 -0.5467  0.2647  0.1217
 2980SOL    HW120402   1.965   0.875  10.378  0.2101 -0.0421 -1.1711
 2980SOL    HW220403   1.912   0.847  10.243 -2.1606 -0.5199 -0.2409
 2981SOL     OW20404   2.392   3.006   5.416 -0.8016 -0.3157  0.6170
 2981SOL    HW120405   2.377   2.995   5.322 -0.7853 -0.8488  0.6760
 2981SOL    HW220406   2.470   3.061   5.423 -1.6585  1.2822 -2.3956
 2982SOL     OW20407   2.575   2.494   4.188  0.0360 -0.1010  0.0405
 2982SOL    HW120408   2.623   2.559   4.136 -0.0936  1.0035  1.2954
 2982SOL    HW220409   2.588   2.423   4.125  1.7419 -0.7921  1.1787
 2983SOL     OW20410   3.279   0.504   7.805 -0.3237 -0.6648  0.2970
 2983SOL    HW120411   3.311   0.532   7.719  0.4167 -3.1182 -0.2340
 2983SOL    HW220412   3.356   0.519   7.860 -0.3978 -0.3221  0.3078
 2984SOL     OW20413   3.316   2.068  10.946 -0.2360 -0.0815  0.1503
 2984SOL    HW120414   3.346   1.978  10.960  2.8851  1.2927  2.2784
 2984SOL    HW220415   3.317   2.116  11.029 -2.7504 -0.1580  0.2322
 2985SOL     OW20416   1.404   2.093  11.191  0.0904  0.1673 -0.4707
 2985SOL    HW120417   1.468   2.137  11.135  0.5827  2.1378  1.6376
 2985SOL    HW220418   1.331   2.099  11.129 -0.3255  0.1523  0.0227
 2986SOL     OW20419   1.939   2.188  10.204  0.4014 -0.8371  0.1593
 2986SOL    HW120420   1.867   2.246  10.178  1.1899  0.0141 -0.1212
 2986SOL    HW220421   2.005   2.251  10.232 -0.6506  0.6559 -0.7567
 2987SOL     OW20422   3.419   2.685   0.335 -0.3627  0.0553 -0.3115
 2987SOL    HW120423   3.464   2.769   0.331  2.7713 -1.5883  0.4358
 2987SOL    HW220424   3.345   2.711   0.390 -1.3116 -1.7569 -0.7356
 2988SOL     OW20425   3.144   4.441   6.858 -0.0588 -0.7721  0.3610
 2988SOL    HW120426   3.225   4.493   6.848 -0.1148 -0.5157  1.2127
 2988SOL    HW220427   3.161   4.376   6.790 -1.9785 -1.9219  0.9948
 2989SOL     OW20428   2.738   0.594  12.467  0.0139 -0.7161 -0.4330
 2989SOL    HW120429   2.707   0.676  12.427 -2.6912 -0.3675  2.3613
 2989SOL    HW220430   2.826   0.594  12.431 -0.6867 -0.7984 -2.1535
 2990SOL     OW20431   2.798   3.510   5.463 -0.2413 -0.1764 -0.1681
 2990SOL    HW120432   2.741   3.498   5.539  0.6524  2.1478  0.8742
 2990SOL    HW220433   2.791   3.420   5.431 -0.4616 -0.3854  0.4686
 2991SOL     OW20434   0.511   3.714   2.645 -1.2504 -0.5157 -0.0946
 2991SOL    HW120435   0.595   3.716   2.601  0.1140 -1.1103  2.4578
 2991SOL    HW220436   0.481   3.623   2.643  1.4700 -1.4352  1.0783
 2992SOL     OW20437   2.572   3.800   7.829 -0.0797  0.6313  0.0232
 2992SOL    HW120438   2.586   3.874   7.770  1.4091 -0.2519 -0.7484
 2992SOL    HW220439   2.651   3.809   7.884  0.3687 -0.4717 -0.4490
 2993SOL     OW20440   0.391   1.701  11.706  0.1919 -0.1144 -0.1797
 2993SOL    HW120441   0.295   1.695  11.702  0.1548 -1.1935  2.4013
 2993SOL    HW220442   0.396   1.731  11.797  3.2713  1.5346 -0.8825
 2994SOL     OW20443   2.438   0.106   7.036 -0.3521  0.1388  0.1798
 2994SOL    HW120444   2.391   0.162   6.975  0.9016  0.2271 -0.7124
 2994SOL    HW220445   2.485   0.045   6.979  0.4259  1.7054 -0.8675
 2995SOL     OW20446   4.542   3.327   4.882 -0.1560  0.3240  0.2644
 2995SOL    HW120447   4.606   3.394   4.857 -0.7731  0.8942  0.2344
 2995SOL    HW220448   4.559   3.331   4.976  1.4465  0.8149 -0.0375
 2996SOL     OW20449   1.130   3.309  16.137  0.2818 -0.4499 -0.0404
 2996SOL    HW120450   1.140   3.330  16.044  2.2967  4.4949  1.3069
 2996SOL    HW220451   1.177   3.226  16.144  1.3621  0.1656  0.0781
 2997SOL     OW20452   0.834   0.816   3.400 -0.4642 -0.4493 -0.2927
 2997SOL    HW120453   0.755   0.802   3.349 -0.3241  0.6557 -0.8285
 2997SOL    HW220454   0.901   0.821   3.331 -0.7413  0.1812 -0.5149
 2998SOL     OW20455   3.345   2.360   7.375 -0.1431 -0.2706  0.3369
 2998SOL    HW120456   3.341   2.293   7.307 -0.1126 -0.5847  0.6440
 2998SOL    HW220457   3.394   2.431   7.334  0.4754 -0.7952  0.1583
 2999SOL     OW20458   4.428   0.043   3.947 -0.5672 -0.6478  0.3214
 2999SOL    HW120459   4.450   4.702   4.016  1.5686 -1.4171 -1.0611
 2999SOL    HW220460   4.439   0.121   4.002  0.3662  0.5431 -1.5696
 3000SOL     OW20461   3.573   3.140   6.326  0.7934 -0.1197 -0.0249
 3000SOL    HW120462   3.562   3.045   6.316  0.4678  0.2271 -2.9333
 3000SOL    HW220463   3.602   3.158   6.236 -0.7034 -0.1311 -0.5098
 3001SOL     OW20464   2.186   2.674   0.257  0.7745  0.3091  0.2141
 3001SOL    HW120465   2.270   2.711   0.233 -0.5816  0.9556 -3.6040
 3001SOL    HW220466   2.139   2.670   0.174 -0.8630 -1.2099  1.2148
 3002SOL     OW20467   2.174   4.583   8.084  0.2801 -0.8477  0.0982
 3002SOL    HW120468   2.252   4.626   8.118 -0.8271  2.0979 -1.0799
 3002SOL    HW220469   2.122   4.649   8.130 -0.3296 -1.6024  0.4900
 3003SOL     OW20470   3.887   2.915   5.816  0.1515  0.2185  0.1610
 3003SOL    HW120471   3.951   2.921   5.745 -0.3511  0.2554 -0.2933
 3003SOL    HW220472   3.815   2.968   5.781 -1.0821 -1.6899 -0.2394
 3004SOL     OW20473   2.775   1.448   6.869  0.3325  0.2427  0.1288
 3004SOL    HW120474   2.759   1.354   6.865 -1.4550  0.4672  2.5066
 3004SOL    HW220475   2.684   1.477   6.860 -0.1033 -1.2696 -0.2752
 3005SOL     OW20476   0.079   3.229   6.579  0.4056 -0.1087 -0.0156
 3005SOL    HW120477   4.717   3.249   6.537  1.5884  2.0901 -1.3158
 3005SOL    HW220478   0.145   3.270   6.523 -0.7151  2.7638  0.7408
 3006SOL     OW20479   0.213   0.263  14.820  0.6874 -0.3976  0.1376
 3006SOL    HW120480   0.196   0.355  14.840  0.3174 -0.2080 -1.0484
 3006SOL    HW220481   0.162   0.209  14.881  1.8097  0.1079  1.5229
 3007SOL     OW20482   3.052   2.713   1.824  0.2781 -0.4662 -0.0622
 3007SOL    HW120483   2.982   2.766   1.861 -0.6527 -1.1062 -0.8965
 3007SOL    HW220484   3.032   2.714   1.730 -1.5381 -1.2714  0.3056
 3008SOL     OW20485   4.427   2.741   1.391 -0.0654 -0.0575 -0.2964
 3008SOL    HW120486   4.482   2.764   1.317  0.5856  2.3294  0.9402
 3008SOL    HW220487   4.490   2.714   1.458 -1.5889 -1.2080  0.6866
 3009SOL     OW20488   1.568   1.384   4.432 -0.7930 -0.4645 -0.9400
 3009SOL    HW120489   1.514   1.455   4.398  0.2634  0.5103 -0.6140
 3009SOL    HW220490   1.502   1.316   4.428 -0.6728 -0.5233 -1.8006
 3010SOL     OW20491   0.779   2.283   5.152 -0.0047 -0.0428  0.1567
 3010SOL    HW120492   0.812   2.210   5.101  1.1260  0.6343 -0.1007
 3010SOL    HW220493   0.761   2.349   5.085 -1.1061 -1.3814 -0.8533
 3011SOL     OW20494   0.308   3.500   2.891  0.3516 -0.1559 -0.0027
 3011SOL    HW120495   0.344   3.474   2.806 -2.7554 -4.2665 -0.0397
 3011SOL    HW220496   0.377   3.471   2.951  0.3025  3.4346  1.7928
 3012SOL     OW20497   0.433   4.564   8.376 -0.5701 -0.2142 -0.4695
 3012SOL    HW120498   0.473   4.478   8.366  0.2046  0.0002  0.7481
 3012SOL    HW220499   0.466   4.604   8.456 -1.6530 -1.2522  0.4726
 3013SOL     OW20500   4.455   2.005   8.567  0.2938 -0.5466 -0.1908
 3013SOL    HW120501   4.444   2.066   8.640  2.6093 -0.7150  0.3010
 3013SOL    HW220502   4.523   1.950   8.607  0.8242  1.8207  2.1811
 3014SOL     OW20503   1.749   3.839   7.541  0.4415 -0.8438  0.0967
 3014SOL    HW120504   1.754   3.922   7.493 -0.6649 -1.2704 -0.7626
 3014SOL    HW220505   1.656   3.847   7.561  0.5726  0.7175  0.1231
 3015SOL     OW20506   2.564   0.519  13.790 -0.0685 -0.5516 -0.2181
 3015SOL    HW120507   2.606   0.482  13.867 -2.5170  0.5751  1.6452
 3015SOL    HW220508   2.539   0.435  13.751  0.7581 -0.4653 -0.9339
 3016SOL     OW20509   1.038   0.407   6.065 -0.4695 -0.3749 -0.2211
 3016SOL    HW120510   1.021   0.313   6.074  1.5286 -0.7793 -0.8008
 3016SOL    HW220511   0.979   0.424   5.991 -2.2196  2.1620  1.7061
 3017SOL     OW20512   0.132   3.244   5.890  0.2829  0.1386  0.1427
 3017SOL    HW120513   0.222   3.221   5.866 -0.2377 -0.2905 -1.3629
 3017SOL    HW220514   0.092   3.158   5.875 -0.1409  0.4313 -0.3802
 3018SOL     OW20515   2.454   0.410   5.372 -0.1594 -0.4946  0.2155
 3018SOL    HW120516   2.417   0.362   5.297  2.8981 -0.3225 -1.3795
 3018SOL    HW220517   2.435   0.347   5.442 -1.2421 -1.9421 -1.3789
 3019SOL     OW20518   1.766   4.424   3.750  0.2190 -0.4424 -0.0206
 3019SOL    HW120519   1.753   4.518   3.738  2.4416  0.0833  1.6428
 3019SOL    HW220520   1.709   4.393   3.679  2.5242 -1.4873 -1.3995
 3020SOL     OW20521   3.250   1.179   8.902  0.4754  0.0638  0.0933
 3020SOL    HW120522   3.301   1.197   8.981 -0.2322 -2.6339  1.1370
 3020SOL    HW220523   3.303   1.104   8.876 -2.0441 -2.0666  1.0841
 3021SOL     OW20524   1.555   0.453   1.843 -0.2352 -0.4432 -0.0290
 3021SOL    HW120525   1.515   0.515   1.904 -0.0282 -0.3325 -0.0026
 3021SOL    HW220526   1.646   0.463   1.874 -0.9391 -0.2737  1.9830
 3022SOL     OW20527   1.659   0.404   6.978 -0.2744 -0.1633  0.1638
 3022SOL    HW120528   1.718   0.365   7.043  0.7366 -0.5075 -0.9763
 3022SOL    HW220529   1.671   0.496   7.000  0.5182  0.0395 -1.1911
 3023SOL     OW20530   2.699   2.948   8.595 -0.3640  0.7938 -0.1868
 3023SOL    HW120531   2.653   2.910   8.671 -0.5470  1.0045 -0.1901
 3023SOL    HW220532   2.788   2.930   8.623  0.0928 -0.7006 -2.6159
 3024SOL     OW20533   1.990   1.606   2.356  0.6933  0.3318  0.0220
 3024SOL    HW120534   2.014   1.615   2.448  0.4669 -0.4105  0.1538
 3024SOL    HW220535   1.917   1.667   2.343 -1.0833 -2.2382 -2.1098
 3025SOL     OW20536   3.866   0.726   1.204 -0.1607  0.1443 -0.1816
 3025SOL    HW120537   3.918   0.650   1.180 -0.8864 -0.3737 -0.1282
 3025SOL    HW220538   3.924   0.798   1.181 -0.8762  0.4414 -1.0680
 3026SOL     OW20539   4.317   1.208   7.233  0.2663  0.6620  0.1498
 3026SOL    HW120540   4.254   1.137   7.227  1.6384 -0.5564  0.1722
 3026SOL    HW220541   4.399   1.163   7.211 -1.3305 -0.8932 -2.6146
 3027SOL     OW20542   0.257   3.200   2.170  0.4369 -1.0550  0.3500
 3027SOL    HW120543   0.322   3.251   2.121  0.9709 -1.6180  0.4610
 3027SOL    HW220544   0.192   3.183   2.102 -0.3593 -0.8874  1.0717
 3028SOL     OW20545   0.715   0.172  17.528  0.3662 -0.0174 -0.5224
 3028SOL    HW120546   0.637   0.216  17.494  1.8245  1.7376 -1.6368
 3028SOL    HW220547   0.767   0.168  17.447  0.6495  0.7618 -0.3802
 3029SOL     OW20548   2.475   0.325   4.792  0.5738  0.0560  0.2010
 3029SOL    HW120549   2.540   0.327   4.722  1.0277 -2.3386  0.5576
 3029SOL    HW220550   2.536   0.340   4.865  0.1551 -0.2140  0.6044
 3030SOL     OW20551   3.848   3.962   2.303 -0.1927 -0.1432  0.6708
 3030SOL    HW120552   3.942   3.952   2.322 -0.0065 -1.4326 -0.9691
 3030SOL    HW220553   3.866   3.968   2.209 -0.7040 -1.6047  0.4800
 3031SOL     OW20554   4.141   3.915   4.900  0.1883  0.3398 -0.1504
 3031SOL    HW120555   4.124   3.881   4.988  0.4030 -0.2706 -0.3468
 3031SOL    HW220556   4.056   3.896   4.861  0.3060  0.4468 -0.4600
 3032SOL     OW20557   2.555   2.205  10.261  0.4853 -0.3750  0.0367
 3032SOL    HW120558   2.578   2.265  10.190  2.3521 -0.4964  0.5186
 3032SOL    HW220559   2.568   2.120  10.218  0.6420  0.9402 -2.5070
 3033SOL     OW20560   0.546   2.699   4.365  0.1144  0.4249 -0.3104
 3033SOL    HW120561   0.629   2.740   4.388  0.3644 -0.0826 -0.2939
 3033SOL    HW220562   0.539   2.707   4.270  1.4915  3.3363 -0.1468
 3034SOL     OW20563   0.729   4.362  10.233 -0.7873 -0.0015 -0.2075
 3034SOL    HW120564   0.710   4.447  10.273  0.2341 -0.2472  0.8208
 3034SOL    HW220565   0.645   4.335  10.196  0.1326 -1.1631 -1.4470
 3035SOL     OW20566   2.674   1.914   4.515 -0.3488  0.0320 -0.3690
 3035SOL    HW120567   2.611   1.843   4.520  0.1641 -0.2792  1.5895
 3035SOL    HW220568   2.717   1.916   4.601  0.4895 -0.2734 -0.7758
 3036SOL     OW20569   3.374   3.586   3.649 -0.5416  0.1086  0.5145
 3036SOL    HW120570   3.331   3.662   3.686 -1.8151  0.4461 -1.6775
 3036SOL    HW220571   3.291   3.541   3.631 -0.9472  1.3478 -0.6363
 3037SOL     OW20572   1.756   2.498   8.088 -0.5222  0.2138 -0.3546
 3037SOL    HW120573   1.765   2.541   8.174 -3.0822  1.4650 -0.7102
 3037SOL    HW220574   1.774   2.574   8.032  0.6841  1.7835  2.1373
 3038SOL     OW20575   4.539   2.894   3.211  0.3996 -0.5254  0.1031
 3038SOL    HW120576   4.602   2.834   3.251  0.1726 -0.4896  0.5119
 3038SOL    HW220577   4.562   2.970   3.265  1.5599 -1.4831  0.9280
 3039SOL     OW20578   1.418   4.378   6.066  0.6301  0.2898  0.1295
 3039SOL    HW120579   1.440   4.343   5.980 -0.6447 -0.2725  0.0397
 3039SOL    HW220580   1.497   4.431   6.081  0.1569  1.2155 -0.6393
 3040SOL     OW20581   2.212   3.710   4.562  0.2439 -0.4034  0.5610
 3040SOL    HW120582   2.270   3.726   4.636  1.5227 -0.1350 -0.4814
 3040SOL    HW220583   2.226   3.615   4.564  1.4140 -0.3108 -1.8841
 3041SOL     OW20584   2.760   3.801   6.747 -0.4889 -0.7343  0.0189
 3041SOL    HW120585   2.744   3.709   6.726 -1.3924 -0.7226  0.6711
 3041SOL    HW220586   2.711   3.804   6.829 -1.4918 -2.6245 -0.5283
 3042SOL     OW20587   3.694   3.875   7.498 -0.6757  0.0763 -0.2091
 3042SOL    HW120588   3.641   3.869   7.578  0.0818  0.0717  0.2976
 3042SOL    HW220589   3.665   3.958   7.461 -0.0190 -1.5833 -4.4328
 3043SOL     OW20590   0.010   4.214   3.937 -0.5956  0.3257 -0.3058
 3043SOL    HW120591   4.685   4.201   3.855 -0.4445 -1.6796 -0.0817
 3043SOL    HW220592   4.693   4.289   3.982  0.2463 -0.3443  1.5319
 3044SOL     OW20593   4.252   2.351   2.493  0.4804  0.8415  0.3151
 3044SOL    HW120594   4.300   2.270   2.508 -1.6119 -0.4249  0.0274
 3044SOL    HW220595   4.244   2.346   2.398  0.5127  0.3025  0.3448
 3045SOL     OW20596   1.882   1.769   0.097 -0.3603  0.1012 -0.0974
 3045SOL    HW120597   1.930   1.850   0.115 -2.0532  0.7655  1.4115
 3045SOL    HW220598   1.876   1.744   0.189  0.0103  0.8366  0.1233
 3046SOL     OW20599   1.782   2.236   5.337 -0.3721  0.3418  0.6059
 3046SOL    HW120600   1.756   2.313   5.387 -0.4067  0.0378  1.0561
 3046SOL    HW220601   1.694   2.216   5.306 -0.3001 -0.5772  0.9727
 3047SOL     OW20602   1.335   0.488   8.669 -0.2186 -0.3059 -0.0663
 3047SOL    HW120603   1.275   0.440   8.726 -1.0913  1.3750  0.4130
 3047SOL    HW220604   1.418   0.469   8.712  0.0865 -0.6841 -0.8067
 3048SOL     OW20605   4.013   3.769  17.041 -0.5408 -0.5060  0.1108
 3048SOL    HW120606   4.108   3.756  17.037 -0.6748 -0.8827 -1.8392
 3048SOL    HW220607   3.996   3.778  16.947 -0.4565  0.0467  0.1470
 3049SOL     OW20608   0.770   2.561   7.805 -0.0685  0.2007  0.4448
 3049SOL    HW120609   0.688   2.541   7.849 -0.4204  0.7046  0.0213
 3049SOL    HW220610   0.801   2.613   7.879  0.7359 -2.3172  1.8753
 3050SOL     OW20611   2.513   1.586  12.098  0.0937  0.3510  0.1652
 3050SOL    HW120612   2.424   1.612  12.123 -0.4836 -0.3469 -1.1949
 3050SOL    HW220613   2.554   1.534  12.168 -1.0351 -0.3910  0.2807
 3051SOL     OW20614   3.879   0.872  17.650  0.3131 -0.0230 -0.4121
 3051SOL    HW120615   3.869   0.795  17.594 -4.2327 -1.0453  1.8392
 3051SOL    HW220616   3.948   0.914  17.599  1.2374 -1.4513 -0.3347
 3052SOL     OW20617   0.788   0.505   5.737  0.2263 -0.0058 -0.1922
 3052SOL    HW120618   0.716   0.445   5.715  0.4173 -0.7931  1.2946
 3052SOL    HW220619   0.768   0.584   5.687 -0.6559 -1.1399 -1.6472
 3053SOL     OW20620   3.538   1.987   2.271  0.2593 -0.1639 -0.1456
 3053SOL    HW120621   3.546   2.030   2.356  0.8215 -1.6983  0.5706
 3053SOL    HW220622   3.562   2.065   2.222  0.0074 -1.0627 -1.7072
 3054SOL     OW20623   3.029   2.525   7.264 -0.2327 -0.0780 -0.3553
 3054SOL    HW120624   3.051   2.519   7.171  1.0358 -0.2861 -0.0381
 3054SOL    HW220625   2.985   2.441   7.278 -0.6986  0.3492  0.7723
 3055SOL     OW20626   3.912   3.371   3.739  0.0415  0.1415  0.5006
 3055SOL    HW120627   3.836   3.322   3.769 -1.5748  0.7928 -2.5076
 3055SOL    HW220628   3.982   3.338   3.796 -1.6067 -0.4568  2.1712
 3056SOL     OW20629   2.567   4.328   4.383  0.6547  0.2993  0.5688
 3056SOL    HW120630   2.501   4.385   4.423 -0.8800  0.3097 -1.9818
 3056SOL    HW220631   2.645   4.381   4.397 -0.1498  1.5118  0.4069
 3057SOL     OW20632   2.050   4.635   4.450  0.0769  0.7132  0.1867
 3057SOL    HW120633   2.096   4.711   4.484 -0.0303  0.9326 -0.1562
 3057SOL    HW220634   2.107   4.563   4.475  0.2845  0.4861 -0.9267
 3058SOL     OW20635   0.527   1.695   9.563  0.5386 -0.2647  0.5235
 3058SOL    HW120636   0.535   1.621   9.623  0.9178 -2.1879 -1.8746
 3058SOL    HW220637   0.619   1.722   9.556  1.0813 -2.4079 -0.5700
 3059SOL     OW20638   4.610   4.164   7.846 -0.1962 -0.4876 -0.2642
 3059SOL    HW120639   4.621   4.220   7.769  1.0144  0.8261  0.8507
 3059SOL    HW220640   4.702   4.141   7.862  1.6812  5.2030 -2.7470
 3060SOL     OW20641   3.545   3.483   0.648 -0.0701 -0.1190  0.3557
 3060SOL    HW120642   3.538   3.397   0.690 -2.9237  0.3611  0.8037
 3060SOL    HW220643   3.562   3.537   0.726  0.0766 -0.1693  0.3599
 3061SOL     OW20644   1.994   1.201   1.517 -0.2037 -0.3073 -0.3602
 3061SOL    HW120645   2.013   1.258   1.442 -1.1773  1.3566  0.6725
 3061SOL    HW220646   2.002   1.263   1.589 -2.2598  0.5935 -0.8885
 3062SOL     OW20647   2.126   1.874   4.584  0.2590  0.4198  0.0864
 3062SOL    HW120648   2.216   1.905   4.595 -0.0021  0.6790  1.5279
 3062SOL    HW220649   2.124   1.810   4.655  0.2672  0.0144 -0.2835
 3063SOL     OW20650   2.953   0.266   5.173 -0.3232 -0.4220  0.3169
 3063SOL    HW120651   2.891   0.289   5.242  0.7120  1.9894  0.4676
 3063SOL    HW220652   2.959   0.336   5.108 -0.2973 -2.5390 -1.9594
 3064SOL     OW20653   2.006   4.709   3.123  0.9587 -0.2318 -0.2008
 3064SOL    HW120654   1.981   4.722   3.032 -0.4579 -0.0809  0.2164
 3064SOL    HW220655   2.027   0.076   3.150  1.6806 -0.1984 -0.8476
 3065SOL     OW20656   1.190   2.428  13.912  0.1910  0.2101  0.1369
 3065SOL    HW120657   1.283   2.410  13.902  0.3420  2.4643 -2.3291
 3065SOL    HW220658   1.150   2.342  13.927 -0.6203  0.8518  1.6108
 3066SOL     OW20659   4.048   1.609   2.734  0.5253  0.1253  0.8434
 3066SOL    HW120660   3.974   1.552   2.757 -0.2238  1.1222  0.9217
 3066SOL    HW220661   4.075   1.574   2.649  1.1655  0.1588  1.0359
 3067SOL     OW20662   4.357   1.418   9.504 -0.1817  0.1188  0.4124
 3067SOL    HW120663   4.440   1.456   9.532  1.4263 -3.6847  0.7957
 3067SOL    HW220664   4.382   1.342   9.452  0.3522  1.5311 -1.3697
 3068SOL     OW20665   4.672   1.120  10.962 -0.2524  0.5242  0.3118
 3068SOL    HW120666   0.013   1.155  11.025 -1.8533  1.1153  1.5723
 3068SOL    HW220667   4.592   1.121  11.014 -0.8158 -0.6385 -0.5373
 3069SOL     OW20668   3.761   0.918   5.332 -0.0476  1.0282  0.0405
 3069SOL    HW120669   3.784   0.872   5.252  2.5124  1.9600  0.2189
 3069SOL    HW220670   3.825   0.990   5.332  0.4528  0.5828  0.5542
 3070SOL     OW20671   3.815   4.649  16.853  0.3839  0.8634  0.4970
 3070SOL    HW120672   3.748   4.709  16.822  0.7955  1.3360  0.5058
 3070SOL    HW220673   3.758   4.591  16.902 -0.3864 -0.0055 -1.4162
 3071SOL     OW20674   0.427   0.436  15.803 -0.1968  0.5292  0.0729
 3071SOL    HW120675   0.429   0.368  15.736  1.9533  0.2666  0.4009
 3071SOL    HW220676   0.503   0.483  15.770  0.7243  0.7519  2.5248
 3072SOL     OW20677   3.436   4.456  15.651  0.6372 -0.2640  0.3060
 3072SOL    HW120678   3.362   4.444  15.710  0.2474  3.9882  0.7002
 3072SOL    HW220679   3.480   4.526  15.700 -0.5206  0.2921  0.5466
 3073SOL     OW20680   2.633   0.749   7.694 -0.4114 -0.2110  0.3809
 3073SOL    HW120681   2.709   0.751   7.752  0.4792  1.5871 -0.8591
 3073SOL    HW220682   2.661   0.818   7.633 -3.2638 -1.3314 -2.2036
 3074SOL     OW20683   3.213   0.891   9.057 -0.2518 -0.1523  0.5990
 3074SOL    HW120684   3.176   0.882   9.144  0.4938  4.1551  1.3938
 3074SOL    HW220685   3.288   0.950   9.068  0.2658 -0.8591  0.8149
 3075SOL     OW20686   2.383   0.729   3.493 -0.3532 -0.5056  0.7376
 3075SOL    HW120687   2.412   0.809   3.451 -1.6760 -0.8628 -0.8586
 3075SOL    HW220688   2.302   0.705   3.448 -1.8036 -0.1373  3.1106
 3076SOL     OW20689   3.067   3.506   9.542 -0.1257  0.3977  0.0887
 3076SOL    HW120690   3.134   3.573   9.530 -0.2189  0.1502 -1.8236
 3076SOL    HW220691   3.048   3.505   9.636 -1.3558 -0.5958 -0.1613
 3077SOL     OW20692   3.138   3.589   1.955 -0.0732 -0.0245 -0.5325
 3077SOL    HW120693   3.176   3.504   1.978 -0.3815 -0.0389 -0.0647
 3077SOL    HW220694   3.077   3.611   2.025  0.3400  0.0489 -0.1941
 3078SOL     OW20695   3.140   0.155  10.092 -0.4922 -0.4727 -0.4169
 3078SOL    HW120696   3.205   0.184  10.156 -0.8935  1.7727 -1.0460
 3078SOL    HW220697   3.065   0.143  10.151  1.3105  3.6339  2.6979
 3079SOL     OW20698   4.363   2.498   8.340  0.3474 -0.0769 -0.2584
 3079SOL    HW120699   4.326   2.525   8.424  0.1303  0.2846 -0.4711
 3079SOL    HW220700   4.292   2.524   8.282 -2.0601 -2.4184  1.6094
 3080SOL     OW20701   1.110   3.859  10.758 -0.7735  0.2129  0.1822
 3080SOL    HW120702   1.186   3.854  10.700 -0.8971 -1.2478  0.1564
 3080SOL    HW220703   1.101   3.772  10.797  2.0202  0.8159  2.1437
 3081SOL     OW20704   0.529   3.323   9.876  0.0434  0.5490 -0.0745
 3081SOL    HW120705   0.583   3.244   9.873  0.6114  0.9665 -1.0280
 3081SOL    HW220706   0.469   3.300   9.947 -0.3325 -0.2810 -0.6620
 3082SOL     OW20707   4.701   1.399  15.693  0.3154 -0.2475  0.0492
 3082SOL    HW120708   4.699   1.493  15.706  1.2239 -0.1284 -0.7186
 3082SOL    HW220709   4.628   1.387  15.632  0.2087  0.3453  0.0642
 3083SOL     OW20710   0.823   4.141  14.863  0.3767  0.2556  0.8042
 3083SOL    HW120711   0.869   4.118  14.781  0.8866  0.9531  0.8988
 3083SOL    HW220712   0.854   4.070  14.919  0.2292 -1.3483 -1.1477
 3084SOL     OW20713   4.564   0.679   0.593  0.0867  0.2138 -0.2347
 3084SOL    HW120714   4.529   0.597   0.627  1.4413 -0.4494 -0.4240
 3084SOL    HW220715   4.639   0.648   0.542  0.2826 -1.0390  0.8101
 3085SOL     OW20716   0.996   4.191   3.674 -0.3528 -0.3481  0.1872
 3085SOL    HW120717   0.942   4.235   3.608  1.4089 -0.4269 -1.3058
 3085SOL    HW220718   0.981   4.240   3.755 -1.8255 -0.1955 -0.1659
 3086SOL     OW20719   0.121   2.236   3.979  0.0107 -0.1312 -0.4412
 3086SOL    HW120720   0.067   2.277   3.912  0.7468  0.3390 -0.7510
 3086SOL    HW220721   0.178   2.307   4.009  1.1158 -0.7137 -1.1495
 3087SOL     OW20722   0.414   1.178  16.671  0.1174 -0.3188 -0.3099
 3087SOL    HW120723   0.415   1.270  16.696 -1.8880  0.5854 -3.6169
 3087SOL    HW220724   0.387   1.189  16.580  2.9150  1.6774 -0.9031
 3088SOL     OW20725   0.818   0.957   9.034  0.3688  0.6518  0.4857
 3088SOL    HW120726   0.872   1.035   9.048  0.0845  0.5354  2.2874
 3088SOL    HW220727   0.730   0.992   9.016  0.2612 -0.1178 -0.4911
 3089SOL     OW20728   3.662   4.640   3.045 -0.4677  0.2447  0.0842
 3089SOL    HW120729   3.721   4.693   2.992 -0.0210  0.4686  0.8012
 3089SOL    HW220730   3.694   4.556   3.013  0.1321  0.7075 -0.5376
 3090SOL     OW20731   1.520   3.733   8.691 -0.0890  0.2445 -0.3987
 3090SOL    HW120732   1.511   3.647   8.650 -2.1914  0.1348  0.2881
 3090SOL    HW220733   1.586   3.761   8.628 -1.0329  1.2182 -0.9716
 3091SOL     OW20734   1.651   1.545  13.520  0.3909 -0.5360 -0.6577
 3091SOL    HW120735   1.654   1.598  13.440  3.0791 -0.8758 -0.8018
 3091SOL    HW220736   1.558   1.555  13.537  1.1291  0.7501  2.5511
 3092SOL     OW20737   2.927   0.173  17.232 -0.0568 -0.0224  0.3264
 3092SOL    HW120738   2.891   0.141  17.314 -1.7418 -1.1589 -0.8578
 3092SOL    HW220739   2.852   0.185  17.174  0.5801 -1.7340 -0.8591
 3093SOL     OW20740   4.101   2.745   1.903  0.3085  0.0979  0.3461
 3093SOL    HW120741   4.063   2.662   1.877 -1.7771  0.7769  1.2378
 3093SOL    HW220742   4.148   2.773   1.824 -1.8054  1.6670 -0.3600
 3094SOL     OW20743   2.880   4.567   5.369  0.2201 -0.2344  0.1226
 3094SOL    HW120744   2.792   4.585   5.337 -0.0889 -1.9422  0.0212
 3094SOL    HW220745   2.868   4.485   5.416 -0.6846  2.2132  4.1129
 3095SOL     OW20746   0.688   2.719   3.233 -0.3434  0.6729  0.0593
 3095SOL    HW120747   0.607   2.761   3.263 -0.0471  0.9462  0.4732
 3095SOL    HW220748   0.668   2.626   3.239  0.9582  0.0581 -4.6078
 3096SOL     OW20749   1.810   3.490   8.371 -0.2767  0.0595 -0.0037
 3096SOL    HW120750   1.878   3.552   8.398 -2.1465  0.9184  2.6633
 3096SOL    HW220751   1.830   3.406   8.412  0.6143  1.2663  2.0050
 3097SOL     OW20752   0.455   2.559   3.443  0.0116 -0.0217  0.1532
 3097SOL    HW120753   0.499   2.485   3.402  1.1967  0.9753 -0.3886
 3097SOL    HW220754   0.424   2.526   3.527  0.8530 -0.2781  0.3680
 3098SOL     OW20755   1.872   4.537   4.160  0.0743 -0.1480 -0.6184
 3098SOL    HW120756   1.924   4.458   4.172  0.4639 -0.1519 -2.4351
 3098SOL    HW220757   1.900   4.591   4.234  0.7497 -1.5253  0.1199
 3099SOL     OW20758   2.768   4.391  14.773 -0.1018 -0.5064 -0.0181
 3099SOL    HW120759   2.856   4.365  14.801 -0.1951 -1.0070 -0.1939
 3099SOL    HW220760   2.736   4.319  14.719 -2.0618  0.9233 -0.7542
 3100SOL     OW20761   2.747   1.801   2.719  0.0533 -0.0782  0.1056
 3100SOL    HW120762   2.783   1.787   2.807 -3.4367 -2.9391  1.0733
 3100SOL    HW220763   2.669   1.845   2.752  1.8253  2.7762  0.4901
 3101SOL     OW20764   2.274   1.432   7.893  0.3432  0.3879 -0.5942
 3101SOL    HW120765   2.255   1.491   7.966 -0.9304 -0.3931 -0.3073
 3101SOL    HW220766   2.368   1.447   7.897 -0.3018  4.1563  0.3453
 3102SOL     OW20767   2.231   4.577  16.351  0.0895  0.4484 -0.5118
 3102SOL    HW120768   2.277   4.535  16.279  0.0744  0.9585 -0.8149
 3102SOL    HW220769   2.162   4.513  16.368 -0.6891  1.7649  1.3211
 3103SOL     OW20770   3.523   2.426   5.396  0.2370 -0.9126 -0.3645
 3103SOL    HW120771   3.453   2.480   5.432  0.5677 -0.6032 -0.1844
 3103SOL    HW220772   3.562   2.484   5.330  0.5077  0.7540  1.2562
 3104SOL     OW20773   1.017   3.655   3.334 -0.2857  0.2245  0.3200
 3104SOL    HW120774   1.033   3.579   3.389 -2.0503 -1.8066 -2.0081
 3104SOL    HW220775   0.923   3.647   3.321  0.1297 -1.7147 -1.4803
 3105SOL     OW20776   1.301   3.608   2.419 -0.0432  0.3208 -0.0252
 3105SOL    HW120777   1.257   3.669   2.360  1.3978  1.6672  0.3094
 3105SOL    HW220778   1.342   3.672   2.477  0.4927 -1.0341  1.0839
 3106SOL     OW20779   0.986   3.586  12.464 -0.3340  0.0741  0.5387
 3106SOL    HW120780   1.026   3.501  12.480  0.2438  0.3085  0.3194
 3106SOL    HW220781   1.022   3.625  12.384 -0.3599 -0.1719  0.4071
 3107SOL     OW20782   0.349   1.664   7.087  0.1204  0.2391 -0.1436
 3107SOL    HW120783   0.360   1.634   6.997  0.9443 -2.2661  0.8082
 3107SOL    HW220784   0.297   1.744   7.078  3.4813  2.2558 -1.2988
 3108SOL     OW20785   1.374   0.768   8.670 -0.5117  0.1923 -0.7469
 3108SOL    HW120786   1.357   0.785   8.577  1.9553  0.1950 -1.2021
 3108SOL    HW220787   1.384   0.673   8.666  0.0579  0.2566 -0.8616
 3109SOL     OW20788   1.158   0.065   3.438  0.2275  0.3150  0.2833
 3109SOL    HW120789   1.118   0.021   3.364 -2.3039  1.3921  1.0012
 3109SOL    HW220790   1.251   0.055   3.415  0.4392 -1.3107  1.8513
 3110SOL     OW20791   3.357   0.490   4.871 -0.0747 -0.2374 -0.1212
 3110SOL    HW120792   3.311   0.564   4.831 -1.6868  0.0837  2.3585
 3110SOL    HW220793   3.331   0.495   4.963 -2.4582  0.8827 -0.8527
 3111SOL     OW20794   4.448   1.862   8.081 -0.3114  0.4287 -0.1586
 3111SOL    HW120795   4.431   1.768   8.087 -0.1477  0.3610 -0.7582
 3111SOL    HW220796   4.542   1.871   8.092 -0.6153  0.8895  1.9332
 3112SOL     OW20797   1.110   0.564   0.861  0.0386  0.5010 -0.0537
 3112SOL    HW120798   1.089   0.615   0.939 -1.7008  0.9794 -0.8275
 3112SOL    HW220799   1.151   0.484   0.894  0.8775  1.0398  0.1998
 3113SOL     OW20800   2.318   4.196   2.492 -0.3273  0.0630  0.2188
 3113SOL    HW120801   2.296   4.105   2.511 -2.5535  0.5070 -0.2310
 3113SOL    HW220802   2.235   4.242   2.500  0.1852  0.7976  1.3399
 3114SOL     OW20803   2.364   0.653   5.419 -0.0268  0.0702 -0.2669
 3114SOL    HW120804   2.402   0.567   5.405 -1.8100 -0.9976  1.6700
 3114SOL    HW220805   2.270   0.635   5.420  0.2402 -1.3730 -1.6136
 3115SOL     OW20806   1.098   3.414  12.058 -0.0657  0.1334  0.2026
 3115SOL    HW120807   1.077   3.373  12.142 -2.0528  3.9689  1.5638
 3115SOL    HW220808   1.176   3.461  12.088  0.5926 -0.8550  0.0648
 3116SOL     OW20809   4.611   3.399   9.377 -0.2174 -0.4669  0.0002
 3116SOL    HW120810   4.635   3.371   9.465  0.3906  0.7692  0.2306
 3116SOL    HW220811   4.564   3.482   9.389  0.8306 -0.0555  1.3070
 3117SOL     OW20812   3.653   1.519   8.808 -0.5612 -0.6293 -0.0867
 3117SOL    HW120813   3.740   1.535   8.845 -0.1781 -2.3701 -0.2575
 3117SOL    HW220814   3.649   1.424   8.819 -0.7182 -0.8976 -2.5136
 3118SOL     OW20815   3.794   0.009  10.751  0.1370 -0.4653  0.5535
 3118SOL    HW120816   3.722   0.029  10.691  1.3762 -0.4112 -0.9136
 3118SOL    HW220817   3.744   0.014  10.832 -3.3283  0.7808 -1.6301
 3119SOL     OW20818   1.462   2.516   5.803  0.6892 -0.6167  0.3978
 3119SOL    HW120819   1.543   2.483   5.842  2.6814  1.4732 -1.9921
 3119SOL    HW220820   1.491   2.565   5.726 -2.2713 -1.3534 -1.2084
 3120SOL     OW20821   1.915   3.381   7.212  0.0552  0.4660 -0.2447
 3120SOL    HW120822   1.908   3.351   7.303  1.3117 -1.5287 -0.8131
 3120SOL    HW220823   1.824   3.358   7.190 -0.5476  1.8998  0.7434
 3121SOL     OW20824   0.209   3.448   4.146  0.0140 -0.7202  0.2665
 3121SOL    HW120825   0.218   3.528   4.094  1.6352 -0.7973  0.4398
 3121SOL    HW220826   0.123   3.416   4.117 -0.3390  0.6863 -0.2561
 3122SOL     OW20827   3.626   0.192   3.855 -0.0782 -0.8874 -0.4542
 3122SOL    HW120828   3.555   0.256   3.854 -0.7999 -1.6767  0.2737
 3122SOL    HW220829   3.657   0.191   3.946 -2.8183 -0.3589  0.5008
 3123SOL     OW20830   1.227   3.977   4.308  0.4833 -0.2001  0.2646
 3123SOL    HW120831   1.186   3.898   4.273 -0.5366  0.5337 -0.2018
 3123SOL    HW220832   1.317   3.958   4.334  0.8752 -0.8566 -1.5661
 3124SOL     OW20833   3.437   3.433  15.231 -0.0552 -0.5581  0.5613
 3124SOL    HW120834   3.372   3.434  15.160 -1.8748 -0.3273  2.2387
 3124SOL    HW220835   3.381   3.440  15.309  0.3301 -0.8137  0.8604
 3125SOL     OW20836   2.680   4.224   2.396  0.6299 -0.0237  0.5044
 3125SOL    HW120837   2.714   4.138   2.374 -1.5517 -0.2842 -1.8398
 3125SOL    HW220838   2.634   4.208   2.479 -0.9074 -0.0887 -0.3521
 3126SOL     OW20839   2.813   3.595   9.963 -0.1166  0.1970 -0.0637
 3126SOL    HW120840   2.830   3.651  10.039  0.5274  1.5603 -1.2197
 3126SOL    HW220841   2.741   3.540   9.994  0.5595 -0.7573 -0.1633
 3127SOL     OW20842   4.054   2.487  14.880 -0.4850 -0.1162 -0.2832
 3127SOL    HW120843   4.148   2.498  14.897 -0.6800  1.3144 -0.1700
 3127SOL    HW220844   4.039   2.567  14.830  1.3902 -0.2877 -1.1153
 3128SOL     OW20845   2.161   3.645  10.306  0.2243 -0.0588  0.1291
 3128SOL    HW120846   2.240   3.684  10.269  0.7977 -2.6051 -1.2828
 3128SOL    HW220847   2.161   3.690  10.391 -1.4520  3.0238 -1.5004
 3129SOL     OW20848   1.543   1.253  15.671 -0.3191  0.2109  0.3939
 3129SOL    HW120849   1.606   1.295  15.613  0.8816 -1.0866  0.7480
 3129SOL    HW220850   1.471   1.310  15.696 -0.7100 -1.0829  2.2490
 3130SOL     OW20851   2.448   4.408  13.850  0.2725 -0.3678  0.2361
 3130SOL    HW120852   2.383   4.478  13.859  0.0743 -0.4584 -0.4764
 3130SOL    HW220853   2.498   4.420  13.769 -0.3271  2.9880  0.3544
 3131SOL     OW20854   2.434   3.965   3.515  0.5234  0.0214 -0.4520
 3131SOL    HW120855   2.499   3.941   3.448  1.0832 -0.6261  0.3260
 3131SOL    HW220856   2.435   3.884   3.566  0.3682 -1.2594 -2.4738
 3132SOL     OW20857   0.062   2.503   2.360 -0.2927 -0.0677  0.2373
 3132SOL    HW120858   0.075   2.578   2.417  0.7143 -0.3493  0.3872
 3132SOL    HW220859   4.721   2.448   2.408  0.8382 -1.5411  0.0597
 3133SOL     OW20860   0.919   4.676   3.957 -0.2478 -0.3138  0.5227
 3133SOL    HW120861   0.964   4.672   3.873  1.2038 -1.4994  1.3664
 3133SOL    HW220862   0.988   4.700   4.019 -0.0730 -1.1632  0.6452
 3134SOL     OW20863   3.249   2.134   3.650 -0.5063 -0.1565 -0.2998
 3134SOL    HW120864   3.274   2.146   3.558 -0.6184  0.8784 -0.1958
 3134SOL    HW220865   3.283   2.044   3.656 -0.7884 -0.1425  1.4517
 3135SOL     OW20866   1.145   1.142   5.410  0.6714 -0.5912  0.3986
 3135SOL    HW120867   1.231   1.183   5.397  0.0706  0.8078  0.8285
 3135SOL    HW220868   1.095   1.203   5.464  0.2787 -1.0386  0.5318
 3136SOL     OW20869   3.193   1.397   8.462  0.3269 -0.4469 -0.0797
 3136SOL    HW120870   3.235   1.398   8.548 -0.2393 -0.7389  0.1990
 3136SOL    HW220871   3.178   1.303   8.452 -1.1300 -0.1263 -0.8847
 3137SOL     OW20872   2.521   1.624   9.912  0.2095  0.3968 -0.1485
 3137SOL    HW120873   2.616   1.623   9.917  0.0556  0.7570  2.9504
 3137SOL    HW220874   2.503   1.535   9.943  0.1628  0.6700  0.6099
 3138SOL     OW20875   2.669   4.238   3.523  0.1495  0.7037 -0.4901
 3138SOL    HW120876   2.628   4.316   3.561 -1.4296 -0.1002 -0.5470
 3138SOL    HW220877   2.641   4.177   3.591 -1.6574  1.0003 -0.9926
 3139SOL     OW20878   3.092   2.125   3.249  0.2255  0.0393 -0.0450
 3139SOL    HW120879   3.013   2.179   3.250  0.7680  0.8008  1.6514
 3139SOL    HW220880   3.055   2.055   3.302 -0.4244  0.7255  0.4059
 3140SOL     OW20881   2.010   2.976   6.783  0.3982  0.3494 -0.0908
 3140SOL    HW120882   2.001   3.068   6.807  0.2165  0.3373 -0.1142
 3140SOL    HW220883   2.105   2.968   6.794 -0.0530 -3.2169  1.2294
 3141SOL     OW20884   2.372   0.104   7.950  0.1676  0.4794 -0.0738
 3141SOL    HW120885   2.338   0.115   7.861  3.0410  2.4014 -0.8911
 3141SOL    HW220886   2.424   0.182   7.969  0.0130  0.1277  1.8434
 3142SOL     OW20887   2.495   1.100  15.506  0.4776 -0.1394 -0.5112
 3142SOL    HW120888   2.497   1.042  15.582  2.1452  0.4500 -0.1056
 3142SOL    HW220889   2.589   1.116  15.498  0.0327  1.5402 -2.3561
 3143SOL     OW20890   1.502   2.400  16.768 -0.6808 -0.1374  0.2870
 3143SOL    HW120891   1.499   2.305  16.774  3.3132 -0.2278  0.9135
 3143SOL    HW220892   1.456   2.416  16.685  1.6390 -0.7966 -1.1526
 3144SOL     OW20893   2.352   0.109   2.313  0.0815 -0.2504 -0.2984
 3144SOL    HW120894   2.413   0.050   2.357 -1.8375 -1.1999  1.0819
 3144SOL    HW220895   2.407   0.156   2.250 -0.8119 -1.7131 -2.1969
 3145SOL     OW20896   1.371   1.402   7.618 -0.2009  1.3337  0.6174
 3145SOL    HW120897   1.365   1.340   7.690  1.4753  0.5052  0.0497
 3145SOL    HW220898   1.449   1.451   7.644  0.6241 -0.1589  0.9304
 3146SOL     OW20899   0.447   3.615  11.751  0.0781  0.7379 -0.3966
 3146SOL    HW120900   0.372   3.672  11.766 -0.0008  0.9761 -1.6779
 3146SOL    HW220901   0.404   3.540  11.709  2.6187 -0.3320 -1.1544
 3147SOL     OW20902   1.530   2.692   5.500  0.5816 -0.2626 -0.6763
 3147SOL    HW120903   1.479   2.679   5.421  1.8601 -3.2891 -1.0095
 3147SOL    HW220904   1.515   2.785   5.514 -0.6293 -0.1423 -2.8880
 3148SOL     OW20905   0.548   2.855   0.339 -0.0326  0.3930  0.1441
 3148SOL    HW120906   0.595   2.872   0.257  0.1891 -1.3759 -0.1012
 3148SOL    HW220907   0.612   2.795   0.377 -1.7149 -0.9340  0.8650
 3149SOL     OW20908   4.457   1.021   8.690  0.1527 -0.2641 -0.0152
 3149SOL    HW120909   4.470   1.074   8.612  4.3772  0.2141  1.0242
 3149SOL    HW220910   4.369   1.045   8.722  1.5559  3.9228  0.7664
 3150SOL     OW20911   2.346   0.383  15.607  0.2058 -0.1942  0.1310
 3150SOL    HW120912   2.339   0.386  15.702 -1.7245  0.5209 -0.0427
 3150SOL    HW220913   2.288   0.307  15.598 -0.1120  0.1204 -0.4752
 3151SOL     OW20914   3.593   0.697   9.194  0.0727  0.0415 -0.5647
 3151SOL    HW120915   3.526   0.665   9.254  0.3703 -2.8250 -1.7805
 3151SOL    HW220916   3.549   0.763   9.141 -0.4421  0.0928 -0.0706
 3152SOL     OW20917   2.398   2.616   4.513 -0.5455  0.5609 -0.0732
 3152SOL    HW120918   2.313   2.629   4.471 -0.9594  2.8274  1.4638
 3152SOL    HW220919   2.385   2.563   4.592 -2.3687  1.1969  0.0464
 3153SOL     OW20920   4.412   2.528   7.340  0.0079  0.1468  0.4014
 3153SOL    HW120921   4.426   2.437   7.364  1.3866  1.0520  3.0495
 3153SOL    HW220922   4.500   2.560   7.359  0.1309  0.2249 -0.2921
 3154SOL     OW20923   0.369   3.862   7.028  0.1034  0.3346  0.7528
 3154SOL    HW120924   0.365   3.939   6.970 -0.8507  0.6432  1.2391
 3154SOL    HW220925   0.289   3.814   7.009 -0.1825  1.8019 -1.8008
 3155SOL     OW20926   3.303   1.795   6.627  0.1763 -0.0288 -0.2911
 3155SOL    HW120927   3.255   1.823   6.705  1.2236 -1.1204  0.7314
 3155SOL    HW220928   3.222   1.777   6.577  1.4215 -0.2616 -2.2341
 3156SOL     OW20929   0.769   0.741   5.546 -0.4945  0.3134  0.5049
 3156SOL    HW120930   0.719   0.747   5.465 -0.0626  0.7101  0.2666
 3156SOL    HW220931   0.847   0.696   5.513  0.1455  2.1992 -0.5223
 3157SOL     OW20932   3.862   1.714   5.267 -0.1649 -0.6491  0.2590
 3157SOL    HW120933   3.909   1.703   5.183 -1.4948 -1.3703 -0.3803
 3157SOL    HW220934   3.932   1.745   5.324 -0.2616 -0.9401  0.5288
 3158SOL     OW20935   4.473   2.636   4.321  0.1132 -0.4617  0.1334
 3158SOL    HW120936   4.502   2.635   4.230 -1.8969 -1.9925 -0.4937
 3158SOL    HW220937   4.544   2.680   4.368  1.5319 -1.9824 -0.6106
 3159SOL     OW20938   0.717   1.611   2.990  0.8740 -0.1179 -0.5672
 3159SOL    HW120939   0.625   1.632   2.977  0.8821  2.7011  3.8037
 3159SOL    HW220940   0.727   1.558   2.912 -0.2190  1.1011 -1.5343
 3160SOL     OW20941   4.086   4.489  15.014  0.3624  0.4285 -0.1108
 3160SOL    HW120942   4.059   4.451  15.098  0.7627  1.4399  0.4795
 3160SOL    HW220943   4.083   4.408  14.964 -1.0460  0.2210  0.2980
 3161SOL     OW20944   2.414   2.134   8.006  0.0134 -0.5473  0.0011
 3161SOL    HW120945   2.411   2.138   8.102 -2.3896  0.8994 -0.1373
 3161SOL    HW220946   2.373   2.047   8.009  0.8496 -0.9960 -2.0416
 3162SOL     OW20947   1.812   3.761  11.115  0.3144 -0.1775  0.2921
 3162SOL    HW120948   1.851   3.697  11.175  1.1011 -1.4653 -1.5730
 3162SOL    HW220949   1.881   3.828  11.113  0.6416 -0.5220 -0.0006
 3163SOL     OW20950   1.353   0.169   4.756  0.0930 -0.0363 -0.2830
 3163SOL    HW120951   1.329   0.094   4.702  0.0564  1.1600 -1.9442
 3163SOL    HW220952   1.367   0.112   4.831 -0.5800 -0.5883 -0.5828
 3164SOL     OW20953   0.344   4.038   5.403  0.0999 -0.6195 -0.6064
 3164SOL    HW120954   0.307   3.984   5.473  2.3159 -0.5246  0.6382
 3164SOL    HW220955   0.271   4.039   5.341  0.8041 -2.3683 -1.4507
 3165SOL     OW20956   3.434   2.751  17.391 -0.6484 -0.5021 -0.5926
 3165SOL    HW120957   3.456   2.677  17.335  3.4269 -0.1588  0.6301
 3165SOL    HW220958   3.422   2.704  17.473  2.7594 -0.5166 -0.1398
 3166SOL     OW20959   0.430   2.144   7.764  0.4294 -0.2899  0.0796
 3166SOL    HW120960   0.490   2.138   7.838  0.9809  1.3302 -0.2286
 3166SOL    HW220961   0.362   2.200   7.802  1.0053 -0.2317  1.0091
 3167SOL     OW20962   3.970   0.801   7.252  0.4685 -0.5831  0.2679
 3167SOL    HW120963   3.938   0.874   7.304  0.4718 -0.2750 -0.1600
 3167SOL    HW220964   3.889   0.767   7.213  0.1826 -1.4006  1.5626
 3168SOL     OW20965   1.334   3.201   1.029  0.0628 -0.0724 -0.2734
 3168SOL    HW120966   1.250   3.155   1.041  0.5837 -0.5968  1.3440
 3168SOL    HW220967   1.333   3.196   0.934 -0.5120  0.5140 -0.3023
 3169SOL     OW20968   4.168   3.943   7.856 -0.2374  0.2852 -0.5620
 3169SOL    HW120969   4.104   3.970   7.791 -1.2245  1.6052  0.9459
 3169SOL    HW220970   4.219   4.021   7.878 -1.1177  0.6952  0.0022
 3170SOL     OW20971   4.106   2.973   7.339 -0.3236  0.5452  0.4973
 3170SOL    HW120972   4.122   2.879   7.337 -1.4729  0.3629  0.0316
 3170SOL    HW220973   4.155   3.003   7.416 -0.3689 -1.7050  1.3974
 3171SOL     OW20974   0.103   1.474  14.768  0.1316 -0.3738 -0.2434
 3171SOL    HW120975   0.044   1.433  14.831 -0.1080 -0.2864 -0.4101
 3171SOL    HW220976   0.191   1.457  14.801  0.2772 -1.2020 -1.0321
 3172SOL     OW20977   0.060   4.030   4.890  0.2681  0.0714  0.0246
 3172SOL    HW120978   0.085   3.973   4.816 -0.6267 -0.8373  0.4231
 3172SOL    HW220979   0.022   3.964   4.948 -0.2783  0.4871  0.1331
 3173SOL     OW20980   0.683   3.062  10.731  0.6007 -0.0762  0.5309
 3173SOL    HW120981   0.592   3.080  10.757 -0.4200 -1.8421 -1.7836
 3173SOL    HW220982   0.731   3.140  10.756 -1.1085  1.4033 -0.8089
 3174SOL     OW20983   0.859   4.139  10.059  0.5499  0.0097  0.1190
 3174SOL    HW120984   0.901   4.061  10.096  0.7850  0.5825  1.0864
 3174SOL    HW220985   0.822   4.181  10.137  0.3749 -1.0908  0.6314
 3175SOL     OW20986   3.325   3.315  12.015  0.3443 -0.3029  0.3240
 3175SOL    HW120987   3.331   3.400  11.972 -0.9607 -0.9443 -1.1369
 3175SOL    HW220988   3.262   3.272  11.956  1.2163 -0.4231 -0.5182
 3176SOL     OW20989   3.671   1.300   4.754 -0.1529  0.2206 -0.1113
 3176SOL    HW120990   3.587   1.291   4.799 -0.3387 -2.6983 -1.0549
 3176SOL    HW220991   3.706   1.374   4.805  2.0645 -0.4688 -0.6481
 3177SOL     OW20992   3.894   3.455   6.785  0.0100  0.4445 -0.1852
 3177SOL    HW120993   3.827   3.487   6.725  1.5338  1.0970 -1.5369
 3177SOL    HW220994   3.867   3.504   6.863 -2.1302  0.3670 -0.8756
 3178SOL     OW20995   2.950   2.707  16.922  0.0667  0.2005  0.0980
 3178SOL    HW120996   3.001   2.783  16.893  0.6740 -0.2772 -0.0888
 3178SOL    HW220997   2.859   2.728  16.902 -0.9121 -1.3478  2.9927
 3179SOL     OW20998   0.332   2.254   9.013  0.1256 -0.3644  0.3997
 3179SOL    HW120999   0.268   2.195   8.973 -0.4521 -0.5730  1.6419
 3179SOL    HW221000   0.290   2.274   9.096 -0.7201  1.0437 -0.3736
 3180SOL     OW21001   0.854   1.733   7.828 -0.0471  0.2959  0.4213
 3180SOL    HW121002   0.763   1.762   7.829 -1.0329 -2.7921 -0.3358
 3180SOL    HW221003   0.875   1.730   7.922 -2.5378  0.5352  0.9760
 3181SOL     OW21004   0.980   4.609  10.022  0.3904 -0.5992 -0.4038
 3181SOL    HW121005   1.064   4.565  10.010  0.8725  0.4566 -0.9125
 3181SOL    HW221006   0.982   4.620  10.117  0.0950 -2.1605 -0.2200
 3182SOL     OW21007   2.578   4.325   5.036  0.4359  0.0629 -0.4528
 3182SOL    HW121008   2.592   4.312   4.942 -0.3233  3.8862 -1.1025
 3182SOL    HW221009   2.493   4.283   5.043  0.7747 -0.4382  0.5292
 3183SOL     OW21010   3.089   1.741   2.935 -0.5750 -0.1260 -0.6702
 3183SOL    HW121011   3.090   1.666   2.876  1.3516 -1.5701  1.1994
 3183SOL    HW221012   3.000   1.733   2.970 -1.1014  1.1273 -1.7331
 3184SOL     OW21013   2.793   0.176  12.838  0.5105  0.0868  0.2976
 3184SOL    HW121014   2.733   0.221  12.778  2.4517  2.9405  0.4866
 3184SOL    HW221015   2.862   0.159  12.774 -0.0694  2.5949 -1.0049
 3185SOL     OW21016   0.395   3.883   1.351 -0.5198 -0.0437  0.3174
 3185SOL    HW121017   0.393   3.972   1.385 -0.8017  0.8218 -1.9620
 3185SOL    HW221018   0.312   3.848   1.384 -1.2645  0.0353 -1.4508
 3186SOL     OW21019   2.107   3.831   7.584  0.1088  0.4211  0.4005
 3186SOL    HW121020   2.183   3.817   7.641  0.3857 -1.2433 -0.3749
 3186SOL    HW221021   2.054   3.896   7.628  0.0378  1.1123 -0.6965
 3187SOL     OW21022   3.617   4.452  17.479  0.4637  0.5637 -0.0506
 3187SOL    HW121023   3.677   4.437  17.552  1.4108 -0.2008 -0.9911
 3187SOL    HW221024   3.667   4.415  17.407  0.9123 -1.0383  1.0873
 3188SOL     OW21025   0.033   3.339  14.833 -0.3767 -0.6286 -0.7380
 3188SOL    HW121026   0.057   3.430  14.817  0.6349 -0.6049  0.9149
 3188SOL    HW221027   0.110   3.299  14.793  1.1275  0.4551  1.0755
 3189SOL     OW21028   4.185   3.177   7.086  0.4804 -0.3143  0.4779
 3189SOL    HW121029   4.190   3.193   7.181  1.3926 -0.7292  0.4978
 3189SOL    HW221030   4.112   3.234   7.064  0.5650 -0.2911  0.2636
 3190SOL     OW21031   3.795   1.438   6.779  0.2262 -0.5495 -0.2342
 3190SOL    HW121032   3.858   1.499   6.817  0.1190  0.0791 -1.0762
 3190SOL    HW221033   3.844   1.369   6.735 -0.2993 -0.2043 -1.3571
 3191SOL     OW21034   3.546   1.465   7.300 -0.4867  0.4225 -0.0597
 3191SOL    HW121035   3.619   1.423   7.344 -1.3690  1.0545  2.0302
 3191SOL    HW221036   3.511   1.389   7.254 -1.4619  0.7513  0.1399
 3192SOL     OW21037   1.354   2.364   4.471  0.4756 -0.8199 -0.3985
 3192SOL    HW121038   1.412   2.306   4.520  0.6893 -0.5051 -0.2739
 3192SOL    HW221039   1.391   2.343   4.386  0.8440 -0.2458 -0.3850
 3193SOL     OW21040   3.332   3.708  15.121  0.6516  0.1629  0.0360
 3193SOL    HW121041   3.316   3.630  15.067  1.5254 -1.8723  2.7286
 3193SOL    HW221042   3.415   3.741  15.088  0.6750  0.2945  0.2306
 3194SOL     OW21043   2.938   3.459   3.675 -0.1738  0.1682  0.0944
 3194SOL    HW121044   2.951   3.534   3.732 -0.3908 -0.9827  1.6637
 3194SOL    HW221045   2.886   3.493   3.602  0.1209  0.2537 -0.0743
 3195SOL     OW21046   1.807   3.152  12.459 -0.5438 -0.7519  0.2527
 3195SOL    HW121047   1.830   3.171  12.368  2.9758 -0.9774  1.0919
 3195SOL    HW221048   1.898   3.133  12.483  0.1479 -0.7228 -2.3906
 3196SOL     OW21049   1.122   2.860   6.912 -0.1455  0.0433  0.1691
 3196SOL    HW121050   1.188   2.792   6.896 -0.6660  0.0096 -1.8140
 3196SOL    HW221051   1.180   2.935   6.895 -0.6468 -0.1097 -2.2119
 3197SOL     OW21052   3.656   1.496   2.251  0.0510 -0.2807 -0.0341
 3197SOL    HW121053   3.626   1.583   2.224 -0.1133  0.1518  1.5401
 3197SOL    HW221054   3.651   1.440   2.173 -1.8342  0.1651 -0.2346
 3198SOL     OW21055   1.663   4.376  14.546  0.2548  0.6349  0.2617
 3198SOL    HW121056   1.680   4.294  14.592 -2.0011 -1.5045 -2.7338
 3198SOL    HW221057   1.626   4.356  14.460  2.4871  1.6474 -0.9298
 3199SOL     OW21058   4.595   1.766  13.426  0.5486  0.2038 -0.0455
 3199SOL    HW121059   4.589   1.821  13.504  2.2641 -1.3139  1.1780
 3199SOL    HW221060   4.605   1.681  13.470 -2.0262 -0.1343 -0.1190
 3200SOL     OW21061   3.685   4.195   8.545 -0.0342  0.0942  0.1588
 3200SOL    HW121062   3.631   4.116   8.549  1.9438 -1.2220  1.0164
 3200SOL    HW221063   3.619   4.259   8.520  0.5640  0.9483  0.7726
 3201SOL     OW21064   2.833   4.265   1.794  0.6543  0.5733 -0.4816
 3201SOL    HW121065   2.863   4.175   1.803  0.5011  0.8515  2.6505
 3201SOL    HW221066   2.842   4.270   1.699 -0.0947 -0.3398 -0.6090
 3202SOL     OW21067   3.001   3.221  13.164 -0.2743  0.0594 -0.0399
 3202SOL    HW121068   3.091   3.253  13.153  0.0067  0.3712  3.2227
 3202SOL    HW221069   2.976   3.272  13.087  2.0030  1.2366  0.0075
 3203SOL     OW21070   3.969   3.470   1.520  0.1829  0.4279  0.3576
 3203SOL    HW121071   4.052   3.493   1.477 -0.2380  0.4758 -0.4255
 3203SOL    HW221072   3.911   3.478   1.444  3.2599 -0.9331 -2.1728
 3204SOL     OW21073   3.279   0.239   5.703  0.1966 -0.4699 -0.2228
 3204SOL    HW121074   3.327   0.160   5.677  0.4849  0.3955 -2.3547
 3204SOL    HW221075   3.351   0.301   5.713 -0.0754 -0.0459 -0.8895
 3205SOL     OW21076   0.093   0.876   5.699 -0.5474  0.3542 -0.0792
 3205SOL    HW121077   0.004   0.840   5.689 -0.7461  0.5036  1.1100
 3205SOL    HW221078   0.129   0.862   5.612 -1.7047 -0.8988 -0.3702
 3206SOL     OW21079   0.885   3.241   3.957  0.2191 -0.3962 -0.2673
 3206SOL    HW121080   0.799   3.261   3.920  1.0215  0.4476 -1.6569
 3206SOL    HW221081   0.861   3.192   4.036  0.7889 -1.1801 -0.5699
 3207SOL     OW21082   4.627   0.180  14.647 -0.3928 -0.2067 -0.2277
 3207SOL    HW121083   4.594   0.194  14.558 -0.9443 -1.9099 -0.2984
 3207SOL    HW221084   4.589   0.252  14.697  1.0296 -0.7226  1.6230
 3208SOL     OW21085   2.601   1.079   9.753  0.3431  0.6465 -0.5962
 3208SOL    HW121086   2.556   1.069   9.669  1.5821 -0.9024 -1.0888
 3208SOL    HW221087   2.549   1.015   9.802 -1.0478  1.5650 -0.8824
 3209SOL     OW21088   1.307   2.046   2.314  0.0756  0.0137 -0.0176
 3209SOL    HW121089   1.331   2.031   2.223 -0.8376 -1.6498  0.0290
 3209SOL    HW221090   1.369   2.111   2.348  0.9510  0.0117 -1.6456
 3210SOL     OW21091   0.577   3.402  13.242 -0.5594  0.6764  0.1091
 3210SOL    HW121092   0.487   3.370  13.235 -1.3930  2.2129  4.0794
 3210SOL    HW221093   0.584   3.438  13.330 -1.6082 -1.2184  0.9804
 3211SOL     OW21094   4.575   4.345   9.106  0.3127  0.3522 -0.1651
 3211SOL    HW121095   4.548   4.407   9.174 -1.9643 -0.4504 -0.3358
 3211SOL    HW221096   4.562   4.267   9.160  0.5929 -0.9175 -1.9555
 3212SOL     OW21097   2.109   4.704  15.942 -0.2953 -0.3054 -0.7776
 3212SOL    HW121098   2.019   4.686  15.970  0.6813 -3.8360  0.0962
 3212SOL    HW221099   2.150   4.714  16.028  0.9862 -1.1066 -1.3026
 3213SOL     OW21100   0.446   3.226   4.463 -0.0051  0.1452 -0.4573
 3213SOL    HW121101   0.376   3.286   4.438 -0.9435 -0.9260 -0.3907
 3213SOL    HW221102   0.515   3.291   4.476 -1.1982  1.7980 -2.3849
 3214SOL     OW21103   2.006   1.667  15.617 -1.1739  0.2504  0.3266
 3214SOL    HW121104   1.987   1.702  15.530 -1.6278 -0.9567 -0.0627
 3214SOL    HW221105   2.006   1.749  15.665 -0.2697 -1.5344  3.3453
 3215SOL     OW21106   0.895   1.714   7.525 -0.2428  0.1960  0.1271
 3215SOL    HW121107   0.911   1.694   7.618 -1.3214  0.4414  0.3572
 3215SOL    HW221108   0.976   1.758   7.499 -0.2419  0.2509  0.2201
 3216SOL     OW21109   4.685   2.361   6.896 -0.1861  0.3093 -0.3993
 3216SOL    HW121110   4.705   2.291   6.833 -0.9717 -0.3842  0.1234
 3216SOL    HW221111   0.020   2.344   6.971  0.4893  1.6057 -0.6150
 3217SOL     OW21112   1.580   0.594   4.828  0.1877  0.2744  0.1147
 3217SOL    HW121113   1.593   0.561   4.916 -0.6183 -0.9715 -0.2400
 3217SOL    HW221114   1.620   0.523   4.778  3.0200  1.4383  0.7253
 3218SOL     OW21115   2.942   2.011   6.023 -0.2872 -0.5575 -0.3812
 3218SOL    HW121116   2.955   2.055   6.107 -0.4671  1.6677 -1.5208
 3218SOL    HW221117   3.024   2.028   5.976 -1.6763 -0.8718 -2.8990
 3219SOL     OW21118   0.422   0.191  13.876 -0.2059  0.4260 -0.1765
 3219SOL    HW121119   0.369   0.270  13.881 -1.0965 -0.2996  1.6389
 3219SOL    HW221120   0.371   0.137  13.936  0.1622  0.1573 -0.1039
 3220SOL     OW21121   0.192   3.969  10.416  0.1404 -0.4589 -0.2332
 3220SOL    HW121122   0.175   4.046  10.470  1.2436  0.0282 -0.5803
 3220SOL    HW221123   0.215   3.916  10.493  2.2997  1.3266  0.3584
 3221SOL     OW21124   4.129   3.557  10.664  0.1993 -0.2935 -0.1225
 3221SOL    HW121125   4.180   3.637  10.673  1.1433 -1.1245  2.0641
 3221SOL    HW221126   4.066   3.587  10.600  0.1771 -0.4164 -0.1589
 3222SOL     OW21127   4.505   2.009   2.184 -0.1316  0.8069  0.0672
 3222SOL    HW121128   4.561   1.991   2.109  0.3673  0.3477  0.5526
 3222SOL    HW221129   4.497   1.922   2.224  1.8155  0.1968 -0.8849
 3223SOL     OW21130   2.932   0.544  16.216  0.3681  0.2472 -0.2539
 3223SOL    HW121131   3.014   0.580  16.250  0.6348 -0.2904 -0.3348
 3223SOL    HW221132   2.874   0.619  16.229  0.9265  0.4491  1.0406
 3224SOL     OW21133   3.009   3.056   3.468 -0.1410  0.1442  0.1263
 3224SOL    HW121134   3.020   3.092   3.380  0.4103 -3.1113 -1.1425
 3224SOL    HW221135   2.915   3.067   3.475 -0.2289 -0.3405 -0.3008
 3225SOL     OW21136   2.571   2.122   6.172 -0.3780  0.3376 -0.1123
 3225SOL    HW121137   2.523   2.060   6.117 -0.9824  0.9531 -0.2745
 3225SOL    HW221138   2.592   2.072   6.251 -0.3312 -1.0523 -1.0046
 3226SOL     OW21139   4.624   2.106   4.689  0.1525 -0.0546  0.4469
 3226SOL    HW121140   4.593   2.015   4.686 -2.2754  0.7635  0.8993
 3226SOL    HW221141   4.543   2.155   4.682 -0.1239 -0.8249 -1.8042
 3227SOL     OW21142   4.244   3.562  15.881 -0.1257 -0.3794  0.0202
 3227SOL    HW121143   4.339   3.556  15.887 -0.0364  0.7368 -0.2365
 3227SOL    HW221144   4.239   3.499  15.809  0.5813  2.2972 -2.3730
 3228SOL     OW21145   4.207   3.555   2.739 -0.2058  0.8013  0.2265
 3228SOL    HW121146   4.177   3.570   2.649 -1.8433  1.7153  0.9371
 3228SOL    HW221147   4.280   3.616   2.745  2.5741 -2.5825  0.9390
 3229SOL     OW21148   1.176   4.661   7.087  0.3247  0.0962  0.0922
 3229SOL    HW121149   1.164   0.010   7.023 -0.7242 -0.0288  0.1600
 3229SOL    HW221150   1.269   4.668   7.108  0.1223 -0.6669  1.2207
 3230SOL     OW21151   4.249   4.682   4.377  0.1027 -0.7671 -0.4922
 3230SOL    HW121152   4.242   0.053   4.402  1.3069 -1.5206  2.6376
 3230SOL    HW221153   4.240   4.686   4.281 -1.0552 -0.3978 -0.3743
 3231SOL     OW21154   3.482   0.017   4.921 -0.3843  0.5511  0.2085
 3231SOL    HW121155   3.491   4.683   4.998 -0.9599  1.7605  1.1476
 3231SOL    HW221156   3.549   4.703   4.863  1.8155  0.5302  2.7756
 3232SOL     OW21157   0.150   4.602   3.932  0.6186 -0.1563  0.1317
 3232SOL    HW121158   0.172   4.577   4.022  0.9210 -0.2597  0.0256
 3232SOL    HW221159   0.214   4.672   3.923  3.2572 -2.4903  1.1049
 3233SOL     OW21160   1.711   3.984   4.188  0.3666 -0.2357  0.3123
 3233SOL    HW121161   1.784   3.921   4.184  0.1643 -0.4890  0.6223
 3233SOL    HW221162   1.757   4.065   4.209 -0.4107  0.0655  0.8420
 3234SOL     OW21163   4.015   2.504   6.266  0.4072  0.1820  0.1155
 3234SOL    HW121164   3.965   2.425   6.245  0.8522  0.0641 -0.5024
 3234SOL    HW221165   4.001   2.551   6.183 -0.0278  1.7061  1.0445
 3235SOL     OW21166   3.444   3.350  13.271  0.1761 -0.0643  0.3692
 3235SOL    HW121167   3.481   3.327  13.186  1.1634 -2.0328  1.3162
 3235SOL    HW221168   3.359   3.382  13.242  0.4461 -0.7275 -1.1532
 3236SOL     OW21169   2.819   1.178   6.988 -0.1465  0.0583  0.0411
 3236SOL    HW121170   2.806   1.252   7.048  0.0505  1.7702 -2.0011
 3236SOL    HW221171   2.745   1.123   7.011 -0.3074  0.1847 -0.1724
 3237SOL     OW21172   0.485   2.148  12.441 -0.8628  0.5547  0.4454
 3237SOL    HW121173   0.462   2.176  12.530 -1.0462 -0.8473  0.8302
 3237SOL    HW221174   0.556   2.086  12.457  0.8074  2.7294  1.4706
 3238SOL     OW21175   1.463   4.574  14.448  0.0077 -0.0994 -0.0621
 3238SOL    HW121176   1.405   4.542  14.517 -0.6504 -3.8774 -2.3673
 3238SOL    HW221177   1.547   4.538  14.474  0.1970  1.4089  1.3527
 3239SOL     OW21178   3.241   1.535   2.664  0.0067 -0.0497  0.1867
 3239SOL    HW121179   3.295   1.456   2.664  0.6532  0.3917  1.2119
 3239SOL    HW221180   3.158   1.499   2.693  0.0585 -0.5678 -0.3096
 3240SOL     OW21181   1.796   3.634  11.663  0.1805  0.1451  0.2718
 3240SOL    HW121182   1.864   3.662  11.602 -0.5088  2.4206  0.5237
 3240SOL    HW221183   1.784   3.543  11.637  0.2275  1.2235 -3.4969
 3241SOL     OW21184   0.102   0.847   9.719  0.5560  0.1858 -0.0873
 3241SOL    HW121185   0.041   0.914   9.751 -1.1562 -0.3772 -2.0677
 3241SOL    HW221186   0.173   0.870   9.777 -0.9826  0.1212  1.8251
 3242SOL     OW21187   2.152   0.487   3.043 -0.5350 -0.0434 -0.1393
 3242SOL    HW121188   2.209   0.564   3.048 -1.4739  0.5882  0.7648
 3242SOL    HW221189   2.092   0.510   2.973  1.4583  2.4244 -1.0277
 3243SOL     OW21190   4.560   4.656   3.072 -0.1258  0.3435 -0.5222
 3243SOL    HW121191   4.618   4.583   3.049  0.0906  0.5953 -0.7812
 3243SOL    HW221192   4.619   4.695   3.136  0.6871 -0.0351 -1.0374
 3244SOL     OW21193   2.805   4.434   7.634  0.3292 -0.0683 -0.2732
 3244SOL    HW121194   2.854   4.475   7.564  0.1986 -1.4703 -1.1945
 3244SOL    HW221195   2.850   4.349   7.633 -0.3216 -0.3818 -2.1869
 3245SOL     OW21196   1.984   2.036  16.542  0.3674 -0.5877  0.1492
 3245SOL    HW121197   1.911   2.079  16.497 -0.7734 -1.0159  1.6232
 3245SOL    HW221198   2.058   2.064  16.488  0.7236  1.2873  1.6181
 3246SOL     OW21199   2.897   2.250   2.752  0.2148  0.3745 -0.6150
 3246SOL    HW121200   2.907   2.237   2.658 -0.6128  3.2196 -1.1231
 3246SOL    HW221201   2.959   2.185   2.783 -1.6048 -0.4937  1.2433
 3247SOL     OW21202   1.455   4.539   8.503  0.3393 -0.3828 -0.1743
 3247SOL    HW121203   1.488   4.614   8.553  1.4401 -0.9248 -0.0906
 3247SOL    HW221204   1.485   4.463   8.554 -1.2140 -0.1508  1.0795
 3248SOL     OW21205   3.891   2.987   9.963 -0.5328 -0.1988  0.0831
 3248SOL    HW121206   3.947   2.913   9.986  0.5994 -0.3245 -3.0530
 3248SOL    HW221207   3.815   2.933   9.940  0.7963 -2.6011  1.3830
 3249SOL     OW21208   2.338   4.435   4.132  0.2771  0.0103  0.2306
 3249SOL    HW121209   2.286   4.502   4.088 -1.5116 -1.8718 -0.4756
 3249SOL    HW221210   2.280   4.360   4.134  0.1960  0.0469 -0.7314
 3250SOL     OW21211   0.802   1.248  12.921 -0.5031  0.4042 -0.6951
 3250SOL    HW121212   0.779   1.184  12.988  0.6937  0.3541 -0.3321
 3250SOL    HW221213   0.890   1.265  12.955 -0.3159 -3.1545  0.5980
 3251SOL     OW21214   1.563   3.868   9.638 -0.4784  0.7653  0.6316
 3251SOL    HW121215   1.468   3.871   9.650 -0.6905  0.5523 -0.9266
 3251SOL    HW221216   1.567   3.809   9.563  0.8928  3.0434 -1.1010
 3252SOL     OW21217   3.227   2.433   8.950  0.1572 -0.8424  0.1264
 3252SOL    HW121218   3.282   2.511   8.955 -0.1036 -0.6378 -0.2786
 3252SOL    HW221219   3.260   2.404   8.865  0.0921  0.8672 -0.4658
 3253SOL     OW21220   3.785   3.306   8.978 -0.4800  0.0092 -0.3996
 3253SOL    HW121221   3.814   3.236   8.920  2.7328 -1.0477  2.4842
 3253SOL    HW221222   3.786   3.384   8.922 -0.1324  0.3282  0.0431
 3254SOL     OW21223   1.662   3.056   8.544  0.0194 -0.2985 -0.1221
 3254SOL    HW121224   1.649   2.976   8.594  1.0591 -0.8789 -0.7729
 3254SOL    HW221225   1.703   3.020   8.465 -0.7696  1.6371 -1.4163
 3255SOL     OW21226   2.985   0.952   7.743 -0.4150  0.1738  0.1554
 3255SOL    HW121227   3.058   1.015   7.742  1.2885 -1.7832  0.4291
 3255SOL    HW221228   3.023   0.876   7.697  0.6294  1.2664 -0.7901
 3256SOL     OW21229   1.639   3.525  16.562 -0.3656  0.4318  0.1226
 3256SOL    HW121230   1.598   3.512  16.648  0.4116 -0.8060  0.3035
 3256SOL    HW221231   1.672   3.614  16.578  2.8402 -0.8171  0.5134
 3257SOL     OW21232   1.670   0.758   3.363  0.4479 -0.1088 -0.5162
 3257SOL    HW121233   1.685   0.791   3.275 -1.6215  2.6110  0.1628
 3257SOL    HW221234   1.688   0.840   3.409  0.4415 -0.4063  0.0241
 3258SOL     OW21235   3.085   2.515   4.507 -0.2976 -0.2711 -0.4124
 3258SOL    HW121236   3.042   2.437   4.473  2.5569 -1.8368 -0.4628
 3258SOL    HW221237   3.043   2.581   4.452 -1.4458 -0.4677  0.2237
 3259SOL     OW21238   4.611   4.051  12.444 -0.0522 -0.3604 -0.0390
 3259SOL    HW121239   4.698   4.024  12.413 -0.9101 -3.1356 -0.0700
 3259SOL    HW221240   4.592   3.993  12.518 -0.5193  2.2457  1.8621
 3260SOL     OW21241   2.531   3.291   2.860  0.1075 -0.3074 -0.4486
 3260SOL    HW121242   2.619   3.306   2.824  0.9209 -0.9749  1.2728
 3260SOL    HW221243   2.483   3.251   2.787 -0.5261 -0.8782  0.2931
 3261SOL     OW21244   2.871   2.639   0.446 -0.1910  1.1853 -0.0658
 3261SOL    HW121245   2.822   2.594   0.377  0.4674 -0.4150  0.5237
 3261SOL    HW221246   2.835   2.607   0.529 -3.4996  1.0538 -1.5242
 3262SOL     OW21247   2.865   3.977  16.905 -0.2436  0.2164  0.3100
 3262SOL    HW121248   2.946   3.978  16.956 -0.9483  1.2639  1.4126
 3262SOL    HW221249   2.876   4.061  16.860  2.3196 -0.4424 -0.2698
 3263SOL     OW21250   3.823   1.969   6.926 -0.3793 -0.5685  0.1439
 3263SOL    HW121251   3.874   1.945   7.003 -0.9677 -1.9669  0.0964
 3263SOL    HW221252   3.753   1.903   6.928  0.7042 -1.6981  0.9361
 3264SOL     OW21253   2.140   4.113   9.065  0.3778 -0.6745  0.5858
 3264SOL    HW121254   2.048   4.113   9.039  0.3453  1.4478  0.6713
 3264SOL    HW221255   2.126   4.180   9.131  0.1653 -1.3986  1.2666
 3265SOL     OW21256   0.605   0.824  10.901  0.1432  0.0312  0.0405
 3265SOL    HW121257   0.696   0.843  10.881 -0.4072  2.1550 -0.4106
 3265SOL    HW221258   0.582   0.911  10.932 -0.8473  0.1327 -0.9386
 3266SOL     OW21259   4.498   1.455  14.892  0.2335  0.1918 -0.8177
 3266SOL    HW121260   4.434   1.386  14.910 -1.0848  1.5529 -0.2448
 3266SOL    HW221261   4.563   1.394  14.857  0.6608 -0.0592  0.4317
 3267SOL     OW21262   3.176   1.318  16.054  0.1881  0.7179 -0.0082
 3267SOL    HW121263   3.085   1.336  16.078 -0.3042 -0.6150 -0.9321
 3267SOL    HW221264   3.216   1.307  16.141  2.0192  0.8854 -0.8294
 3268SOL     OW21265   0.553   4.053   8.311 -0.9228  0.2774  0.5701
 3268SOL    HW121266   0.642   4.034   8.340 -0.2050  2.9522  0.1131
 3268SOL    HW221267   0.498   4.024   8.385  1.7685  0.6259  2.6965
 3269SOL     OW21268   1.393   4.058   3.868 -0.6806 -0.1535 -0.1017
 3269SOL    HW121269   1.338   3.995   3.821 -1.4544  0.0286  0.5561
 3269SOL    HW221270   1.332   4.131   3.881 -1.8797 -1.4464  1.4933
 3270SOL     OW21271   1.599   1.114   8.290  0.4382 -0.1045  0.0817
 3270SOL    HW121272   1.594   1.152   8.202  3.5828  0.3566  0.0958
 3270SOL    HW221273   1.505   1.099   8.304  0.8416 -2.0293  0.6424
 3271SOL     OW21274   2.329   0.092   2.623 -0.1493  0.3132  0.1326
 3271SOL    HW121275   2.283   0.008   2.633  1.4988 -0.6367 -0.4399
 3271SOL    HW221276   2.256   0.152   2.642 -0.9224 -0.9155  1.0758
 3272SOL     OW21277   3.405   0.463  14.991  0.4339  0.2006  0.5665
 3272SOL    HW121278   3.457   0.449  15.071  0.7953  1.1499  0.4984
 3272SOL    HW221279   3.385   0.557  14.996 -0.0309  0.0762  1.0603
 3273SOL     OW21280   2.240   0.990   5.225 -0.9635  0.4341 -0.2575
 3273SOL    HW121281   2.318   1.003   5.171 -1.1712  0.1627 -0.6218
 3273SOL    HW221282   2.196   0.914   5.187 -1.6463  0.5018  0.3829
 3274SOL     OW21283   1.732   1.967  16.952  0.0525 -0.1554  0.1137
 3274SOL    HW121284   1.779   2.046  16.977 -0.2187  0.0761 -0.1075
 3274SOL    HW221285   1.784   1.934  16.879  0.0849 -1.8768  0.9087
 3275SOL     OW21286   4.019   1.348   7.617  0.0875  0.1719 -0.3265
 3275SOL    HW121287   4.065   1.423   7.654  2.1467 -1.1436 -0.2226
 3275SOL    HW221288   3.948   1.331   7.680  0.6045  0.3235  0.2913
 3276SOL     OW21289   1.037   0.456  15.091  0.0147 -0.5770  0.2952
 3276SOL    HW121290   1.031   0.540  15.045 -1.4400 -1.4356 -1.0765
 3276SOL    HW221291   0.956   0.473  15.140  0.8060  1.9122  0.7545
 3277SOL     OW21292   1.092   3.392   2.466  0.0206  0.3866  0.2053
 3277SOL    HW121293   1.173   3.442   2.458  1.1802 -1.2183  1.9490
 3277SOL    HW221294   1.044   3.417   2.387 -1.4910  2.2007  1.6882
 3278SOL     OW21295   3.850   4.718  11.740 -0.3957  0.3870 -0.0800
 3278SOL    HW121296   3.906   0.036  11.807  1.6377  0.1291 -1.6450
 3278SOL    HW221297   3.768   0.046  11.751  0.4458  1.8741 -0.5046
 3279SOL     OW21298   3.215   1.216  13.139  0.3087 -0.1892 -0.1414
 3279SOL    HW121299   3.148   1.175  13.194  1.5239 -2.0893 -0.0635
 3279SOL    HW221300   3.245   1.132  13.106  1.5957  0.0432  0.4288
 3280SOL     OW21301   0.335   4.136   9.428 -0.1008 -0.2108 -0.5372
 3280SOL    HW121302   0.367   4.047   9.414  0.8904  0.0779 -0.1436
 3280SOL    HW221303   0.401   4.160   9.494 -0.2474 -2.1792  0.3308
 3281SOL     OW21304   0.234   0.525   8.995 -0.1621  0.5567 -0.0197
 3281SOL    HW121305   0.180   0.446   8.984 -0.3055  0.8239 -1.2614
 3281SOL    HW221306   0.249   0.520   9.089  0.3151  0.4299 -0.1059
 3282SOL     OW21307   3.640   0.716  17.293 -0.4464 -0.3943 -0.3666
 3282SOL    HW121308   3.683   0.777  17.232 -2.1134 -0.5534 -1.7038
 3282SOL    HW221309   3.550   0.747  17.294 -0.2799 -0.0486  2.2693
 3283SOL     OW21310   1.151   1.118   6.604 -0.2229 -0.5499  0.2945
 3283SOL    HW121311   1.167   1.089   6.693 -2.0891  0.0671  0.8371
 3283SOL    HW221312   1.130   1.211   6.610 -0.2664 -0.3823 -2.1765
 3284SOL     OW21313   0.292   3.660   7.441  0.7267 -0.3424 -0.2635
 3284SOL    HW121314   0.201   3.652   7.470  0.9662  0.3820  0.6998
 3284SOL    HW221315   0.341   3.585   7.476  1.6964 -0.0407 -0.9726
 3285SOL     OW21316   3.944   4.557   6.315 -0.3669 -0.1100  0.4486
 3285SOL    HW121317   3.937   4.466   6.343 -0.4407  0.5638  2.5665
 3285SOL    HW221318   3.908   4.563   6.226 -1.3106 -0.4920  0.8012
 3286SOL     OW21319   1.551   3.830   4.379  0.5357  0.2235  0.7325
 3286SOL    HW121320   1.600   3.892   4.324 -0.9400 -0.6746 -1.5663
 3286SOL    HW221321   1.596   3.750   4.352 -0.4514  0.1089 -0.5741
 3287SOL     OW21322   3.611   1.724   3.585  0.1520  0.6376  0.0288
 3287SOL    HW121323   3.642   1.701   3.673  1.7367 -0.0729 -0.7249
 3287SOL    HW221324   3.518   1.707   3.594  0.2676  0.2924  0.6183
 3288SOL     OW21325   0.997   1.469  15.200  0.2093  0.1390 -0.2582
 3288SOL    HW121326   0.905   1.458  15.176  0.6323  1.1525 -2.3441
 3288SOL    HW221327   1.038   1.460  15.115  1.1377  2.9233 -0.1136
 3289SOL     OW21328   1.325   0.673   6.824 -0.0614 -0.6218  0.1020
 3289SOL    HW121329   1.363   0.585   6.817 -0.6310 -0.9216  0.7832
 3289SOL    HW221330   1.259   0.677   6.755 -1.1902 -2.0298  1.1107
 3290SOL     OW21331   0.311   1.626   4.074 -0.1893 -0.1508  0.2626
 3290SOL    HW121332   0.217   1.638   4.061 -0.3474 -0.9749  0.6528
 3290SOL    HW221333   0.335   1.560   4.008 -1.6397  0.3123 -0.7260
 3291SOL     OW21334   2.552   1.011   4.564  0.1171 -0.0071  0.8477
 3291SOL    HW121335   2.557   1.000   4.469  2.9259  2.2498  0.7137
 3291SOL    HW221336   2.473   0.959   4.574 -0.2227  0.4741  0.6546
 3292SOL     OW21337   2.341   4.538   9.991  0.3403  0.3046  0.1403
 3292SOL    HW121338   2.356   4.449  10.023  1.1939  0.4280  0.0891
 3292SOL    HW221339   2.247   4.542   9.976  0.4186  3.2124  0.4780
 3293SOL     OW21340   2.720   4.266   6.178  0.0122  0.3054 -0.4564
 3293SOL    HW121341   2.792   4.210   6.207  1.5564  1.6950 -1.6097
 3293SOL    HW221342   2.649   4.244   6.239 -0.2471 -1.2989 -1.3376
 3294SOL     OW21343   2.244   4.160   9.365  0.2999  0.0760  0.3372
 3294SOL    HW121344   2.271   4.069   9.377  1.4485  0.5530  1.3135
 3294SOL    HW221345   2.206   4.199   9.443 -0.3007 -0.7375  0.4496
 3295SOL     OW21346   1.215   0.039  14.934 -0.5521  0.7009  0.0684
 3295SOL    HW121347   1.155   4.710  14.879  1.1034 -0.2345 -0.8920
 3295SOL    HW221348   1.271   4.696  14.976  0.7031 -0.1056 -2.8628
 3296SOL     OW21349   4.021   3.538  10.052  0.2474  0.0970 -0.3754
 3296SOL    HW121350   3.988   3.459  10.095  0.8826  0.0422  0.0068
 3296SOL    HW221351   4.097   3.505  10.005  0.7455  0.4806  0.1665
 3297SOL     OW21352   2.087   4.091   4.769  0.3294  0.3691 -0.1312
 3297SOL    HW121353   2.099   4.080   4.863  0.1468 -1.0646 -0.2811
 3297SOL    HW221354   2.019   4.158   4.771  0.2111  0.2640 -0.8106
 3298SOL     OW21355   4.044   3.619  16.060  0.4696 -0.5659  0.0269
 3298SOL    HW121356   4.110   3.579  16.004 -1.7148 -1.3623 -1.9851
 3298SOL    HW221357   4.110   3.661  16.116 -0.7380  0.1479  0.9216
 3299SOL     OW21358   3.702   2.657   7.253  0.6157 -0.2993 -0.3100
 3299SOL    HW121359   3.743   2.726   7.201  1.9241 -0.2905  0.7261
 3299SOL    HW221360   3.664   2.710   7.323 -0.1911  1.1298 -1.8374
 3300SOL     OW21361   0.531   4.320   5.683 -0.3801  0.4037  0.3743
 3300SOL    HW121362   0.467   4.372   5.635 -1.4920 -0.8964  0.4472
 3300SOL    HW221363   0.509   4.351   5.771 -2.1868  1.0658 -0.3062
 3301SOL     OW21364   2.400   1.171   4.249 -0.2626  0.0136  0.5256
 3301SOL    HW121365   2.312   1.207   4.241 -0.8974 -1.6028  0.2814
 3301SOL    HW221366   2.433   1.199   4.163 -0.7235 -1.6913 -0.2156
 3302SOL     OW21367   0.236   3.797  16.061  0.1983  0.4898  0.1909
 3302SOL    HW121368   0.280   3.815  15.978  0.0221  2.3801  0.4949
 3302SOL    HW221369   0.308   3.786  16.122 -0.6253 -0.4672  0.9777
 3303SOL     OW21370   3.311   0.758   4.312 -0.2603 -0.3414  0.7671
 3303SOL    HW121371   3.282   0.670   4.287 -0.4919  0.2591 -1.0212
 3303SOL    HW221372   3.234   0.793   4.358 -0.8480 -0.3675 -0.2110
 3304SOL     OW21373   3.090   3.908   5.957 -0.0103  0.4625  0.3269
 3304SOL    HW121374   3.128   3.985   5.915 -0.4990  0.7686  0.4555
 3304SOL    HW221375   3.159   3.852   5.922  0.7248  0.5270  1.6444
 3305SOL     OW21376   0.031   4.095   3.026  0.1917  0.1495 -0.0333
 3305SOL    HW121377   0.077   4.083   3.109  0.6597  0.6468 -0.2149
 3305SOL    HW221378   0.055   4.185   3.004  0.2483 -0.2005 -1.3916
 3306SOL     OW21379   2.256   0.467   4.590 -0.7348  0.5551 -0.0958
 3306SOL    HW121380   2.345   0.500   4.606  0.2400 -1.7500 -0.7425
 3306SOL    HW221381   2.250   0.445   4.683  0.7297 -0.2302 -0.1779
 3307SOL     OW21382   0.459   3.537   5.165 -0.6140  0.0366 -0.1609
 3307SOL    HW121383   0.407   3.553   5.244 -1.1238  1.8659 -0.8669
 3307SOL    HW221384   0.525   3.482   5.208 -2.2872 -0.2499  2.0444
 3308SOL     OW21385   0.073   2.728   3.992  0.2245 -0.2269  0.4036
 3308SOL    HW121386   0.109   2.813   4.018 -0.2752  0.0411  0.2166
 3308SOL    HW221387   0.038   2.686   4.071 -0.3801 -1.5217 -0.5517
 3309SOL     OW21388   0.936   1.329   5.426  0.1078  0.2378  0.0242
 3309SOL    HW121389   0.965   1.406   5.377  0.1409  0.7935  0.8945
 3309SOL    HW221390   0.940   1.264   5.357 -0.2946  1.6882 -1.3673
 3310SOL     OW21391   4.472   1.097  16.028 -0.0897  0.0400  0.2207
 3310SOL    HW121392   4.498   1.102  15.936  3.3316  0.0768  1.1938
 3310SOL    HW221393   4.486   1.008  16.059 -2.1853 -0.1930  0.5043
 3311SOL     OW21394   4.329   3.116  10.796  0.5246  0.2711  0.0551
 3311SOL    HW121395   4.265   3.046  10.786 -0.3213  1.0290  0.1737
 3311SOL    HW221396   4.299   3.191  10.745  0.6821  1.2123  1.3360
 3312SOL     OW21397   1.781   1.214  17.507 -0.3439 -0.2472  0.0485
 3312SOL    HW121398   1.750   1.124  17.495 -1.3769 -0.0813  1.4927
 3312SOL    HW221399   1.709   1.254  17.457  1.3956 -0.6500 -2.7809
 3313SOL     OW21400   1.068   2.086   4.397 -0.3768 -0.2383 -0.1361
 3313SOL    HW121401   1.069   2.002   4.353 -1.4925 -2.1239  3.4169
 3313SOL    HW221402   1.066   2.145   4.322  0.7090 -2.6830 -2.0485
 3314SOL     OW21403   3.121   3.259   6.505  0.4844 -0.0298 -0.0591
 3314SOL    HW121404   3.171   3.339   6.488  0.5928  0.2578  1.6384
 3314SOL    HW221405   3.033   3.296   6.515 -0.8335 -2.7394 -1.5218
 3315SOL     OW21406   0.958   3.614   4.892  0.5411 -0.1015 -0.4071
 3315SOL    HW121407   0.956   3.566   4.809 -0.1724 -1.6932  0.5273
 3315SOL    HW221408   0.962   3.540   4.954  1.1150 -0.1762 -0.5321
 3316SOL     OW21409   0.949   1.640   4.285 -0.7349  0.1600 -0.3192
 3316SOL    HW121410   0.868   1.686   4.309  0.0602  1.0629  0.6101
 3316SOL    HW221411   0.935   1.547   4.300 -1.7875  0.4215  0.3889
 3317SOL     OW21412   3.568   1.703   1.231 -0.3090  0.0750 -0.0768
 3317SOL    HW121413   3.515   1.733   1.157 -0.9024 -1.1015 -0.1409
 3317SOL    HW221414   3.535   1.614   1.242 -1.5572  0.6144  0.6637
 3318SOL     OW21415   0.589   0.215   6.882  0.2684  0.3219  1.5614
 3318SOL    HW121416   0.638   0.285   6.925  0.9004  0.2801  0.9122
 3318SOL    HW221417   0.528   0.272   6.835  1.3332  0.2212  0.0774
 3319SOL     OW21418   4.573   2.604   7.016 -0.2671  0.6031 -0.0214
 3319SOL    HW121419   4.609   2.522   6.981  0.6222 -0.0007  2.3261
 3319SOL    HW221420   4.559   2.581   7.107  0.5427 -0.3871 -0.1449
 3320SOL     OW21421   3.202   4.342   4.790  0.5670 -0.1369  0.4047
 3320SOL    HW121422   3.274   4.397   4.818 -0.2077  0.3104  1.5099
 3320SOL    HW221423   3.247   4.258   4.776  2.7514  1.2079 -0.5488
 3321SOL     OW21424   2.451   1.785   7.458  0.1666  0.2776 -0.2371
 3321SOL    HW121425   2.500   1.859   7.495 -1.7012  1.2621  0.2673
 3321SOL    HW221426   2.402   1.757   7.535  0.0661  1.6143  0.1821
 3322SOL     OW21427   2.916   2.259   0.833  0.0685  0.3220  0.2731
 3322SOL    HW121428   2.977   2.294   0.769  0.7536 -1.0352  0.1880
 3322SOL    HW221429   2.874   2.193   0.777 -2.6245  1.0760  1.4117
 3323SOL     OW21430   3.480   2.867   1.981 -0.3932  0.6712 -0.0463
 3323SOL    HW121431   3.465   2.775   2.006  0.0859  0.4725 -0.4876
 3323SOL    HW221432   3.417   2.920   2.030 -0.4137  0.7745 -0.1859
 3324SOL     OW21433   3.338   2.789   9.078 -0.1713  0.0303  0.4371
 3324SOL    HW121434   3.244   2.790   9.098 -0.5037 -1.0302 -1.0829
 3324SOL    HW221435   3.353   2.850   9.006  0.3972  1.4353  1.7604
 3325SOL     OW21436   4.098   3.606  16.471 -0.0360 -0.0803  0.1891
 3325SOL    HW121437   4.107   3.580  16.562  1.2870  1.6541  0.5600
 3325SOL    HW221438   4.051   3.530  16.437  1.6767 -0.7377 -0.6987
 3326SOL     OW21439   3.632   2.998   3.136  0.0207  0.5430  0.0097
 3326SOL    HW121440   3.647   2.910   3.170 -0.1804  0.1604 -0.9091
 3326SOL    HW221441   3.588   3.037   3.212 -1.0888  1.8979 -1.3377
 3327SOL     OW21442   1.908   1.478   2.075 -0.0928  0.0265 -0.1994
 3327SOL    HW121443   1.906   1.557   2.130  1.9595 -0.5417  0.6813
 3327SOL    HW221444   1.814   1.462   2.068 -0.0798 -0.6308  0.9841
 3328SOL     OW21445   4.204   2.089   3.635 -0.2685 -0.1353 -0.6625
 3328SOL    HW121446   4.288   2.097   3.681 -1.0900  0.6926  0.7134
 3328SOL    HW221447   4.196   2.161   3.572  0.2560 -1.0778 -1.7868
 3329SOL     OW21448   2.392   1.881   9.929  0.1094  0.1533 -0.0965
 3329SOL    HW121449   2.386   1.855  10.021 -0.2312  0.9119  0.0890
 3329SOL    HW221450   2.444   1.806   9.899 -0.6230 -0.0566 -0.8480
 3330SOL     OW21451   3.933   2.532   7.639  0.0488 -0.7417 -0.3508
 3330SOL    HW121452   3.847   2.509   7.604  0.1143 -0.4830 -0.6783
 3330SOL    HW221453   3.976   2.541   7.554 -1.1021  0.6926 -0.7797
 3331SOL     OW21454   4.350   2.741   2.851 -0.2900 -0.2585 -0.2837
 3331SOL    HW121455   4.421   2.804   2.858 -0.0888 -0.3880 -1.1881
 3331SOL    HW221456   4.389   2.684   2.785  0.7939 -0.8857  0.8830
 3332SOL     OW21457   0.590   4.230   5.056  0.3671  0.9248  0.1914
 3332SOL    HW121458   0.645   4.173   5.001 -1.6419  0.2993 -1.1453
 3332SOL    HW221459   0.529   4.267   4.992  1.1935  0.9430 -0.5917
 3333SOL     OW21460   3.865   1.060   0.798 -0.3888  0.1876 -0.6028
 3333SOL    HW121461   3.836   1.070   0.888 -1.7108  0.7774 -1.0925
 3333SOL    HW221462   3.919   0.983   0.814 -1.2636 -0.3872 -0.4103
 3334SOL     OW21463   4.286   4.559   2.812 -0.2244  0.3642  0.2610
 3334SOL    HW121464   4.365   4.504   2.808 -1.0334 -0.7618 -0.1014
 3334SOL    HW221465   4.257   4.538   2.901  0.1275 -0.4487  0.1849
 3335SOL     OW21466   3.498   1.663   8.653 -0.0455 -0.7197 -0.2229
 3335SOL    HW121467   3.426   1.659   8.716 -0.2096  0.4485 -0.3444
 3335SOL    HW221468   3.558   1.610   8.706  1.2545  0.5090 -0.4645
 3336SOL     OW21469   0.868   2.407   0.319  0.4074  0.1185 -0.2500
 3336SOL    HW121470   0.854   2.500   0.337  1.4674  0.2401 -0.0768
 3336SOL    HW221471   0.935   2.381   0.382  1.7360 -1.5313 -2.3578
 3337SOL     OW21472   0.242   1.548   3.194  0.2669  0.2999  0.1032
 3337SOL    HW121473   0.312   1.483   3.197  0.3675  0.4481  0.9886
 3337SOL    HW221474   0.248   1.593   3.279  1.1226 -0.3838  0.3989
 3338SOL     OW21475   4.065   0.887   3.788  0.1252 -0.2970 -0.0984
 3338SOL    HW121476   4.091   0.915   3.875 -2.1708  1.6297 -0.0493
 3338SOL    HW221477   3.992   0.833   3.817  0.9604 -0.1683  2.2018
 3339SOL     OW21478   4.095   2.880   7.779  0.2415 -0.3596 -0.0326
 3339SOL    HW121479   4.007   2.904   7.749 -0.2969 -1.7101  0.4937
 3339SOL    HW221480   4.092   2.791   7.814 -1.0105 -0.2279  0.1862
 3340SOL     OW21481   0.046   1.195   6.819  0.3655  0.2712 -0.0522
 3340SOL    HW121482   0.076   1.278   6.781  1.3159 -0.6641 -1.3556
 3340SOL    HW221483   0.112   1.170   6.883 -1.5092  1.0855  2.1759
 3341SOL     OW21484   2.730   2.498  12.875 -0.0977 -0.9502  0.2061
 3341SOL    HW121485   2.675   2.556  12.928 -0.2697 -0.9799  0.0631
 3341SOL    HW221486   2.775   2.448  12.943 -2.3779 -2.0751  0.8800
 3342SOL     OW21487   3.117   1.314   6.084 -0.3401  0.0583  0.4882
 3342SOL    HW121488   3.053   1.314   6.155 -0.9138 -0.4311 -0.0297
 3342SOL    HW221489   3.098   1.398   6.042  0.5165 -0.2249 -0.4934
 3343SOL     OW21490   4.564   1.439   1.122 -0.3705  0.3453 -0.2625
 3343SOL    HW121491   4.494   1.375   1.116 -0.7096  0.7396 -0.4785
 3343SOL    HW221492   4.546   1.483   1.039  0.2813  3.3898  1.1957
 3344SOL     OW21493   3.234   3.222   7.037 -0.1156 -0.0315  0.0824
 3344SOL    HW121494   3.150   3.207   6.994  1.2112 -2.0366 -1.8551
 3344SOL    HW221495   3.254   3.136   7.073 -1.4821  0.0419  1.0219
 3345SOL     OW21496   3.921   3.148   2.361 -0.4433 -0.0108  0.3512
 3345SOL    HW121497   3.905   3.079   2.297  2.2776 -0.2465 -0.0695
 3345SOL    HW221498   3.870   3.115   2.436 -0.2528 -2.0359 -0.4305
 3346SOL     OW21499   4.248   3.602   5.692  0.2358 -0.0246 -0.6450
 3346SOL    HW121500   4.235   3.678   5.635 -0.8917  0.4826  0.2929
 3346SOL    HW221501   4.303   3.551   5.633  2.1613  0.3822  0.7907
 3347SOL     OW21502   2.128   1.153   3.685 -0.2466 -0.3480  0.2104
 3347SOL    HW121503   2.036   1.176   3.681  0.0278  0.5038 -1.2252
 3347SOL    HW221504   2.154   1.159   3.777 -0.8437  0.0632  0.3514
 3348SOL     OW21505   0.245   2.289   2.351  0.0976 -0.3356 -0.2730
 3348SOL    HW121506   0.180   2.358   2.364  1.3633  1.0108 -1.1169
 3348SOL    HW221507   0.198   2.216   2.391  0.5552  0.1356  1.1182
 3349SOL     OW21508   4.714   1.842   8.064  0.4337  0.7404  0.0977
 3349SOL    HW121509   0.027   1.836   7.975 -3.7094  0.2972 -1.5144
 3349SOL    HW221510   0.033   1.765   8.104 -1.5292 -0.1117  0.4643
 3350SOL     OW21511   4.364   1.879  14.925 -0.1789  0.1553  0.2226
 3350SOL    HW121512   4.365   1.972  14.948  0.1046 -0.3029  1.9933
 3350SOL    HW221513   4.301   1.872  14.853 -0.4048  1.8025  0.2514
 3351SOL     OW21514   0.594   3.122   7.347  0.2668  0.3646  0.4654
 3351SOL    HW121515   0.557   3.094   7.431  2.6246  2.0380  2.0327
 3351SOL    HW221516   0.685   3.112   7.373  0.0971 -0.8147  0.6350
 3352SOL     OW21517   1.903   3.022   0.393 -0.5107  0.0116 -0.3538
 3352SOL    HW121518   1.925   3.029   0.300 -0.9177 -0.7360 -0.5044
 3352SOL    HW221519   1.925   2.932   0.418  0.6067 -0.2557 -2.2898
 3353SOL     OW21520   1.450   1.779   4.826  0.4424 -0.2070  0.1825
 3353SOL    HW121521   1.396   1.856   4.839 -1.2546 -1.4459  0.3976
 3353SOL    HW221522   1.407   1.727   4.893  0.7604 -1.8765 -0.9191
 3354SOL     OW21523   3.830   1.678  11.056 -0.3745 -0.1628  0.1571
 3354SOL    HW121524   3.822   1.772  11.073 -1.2455 -0.0589 -0.8488
 3354SOL    HW221525   3.766   1.668  10.986  1.5806 -0.8060 -1.5120
 3355SOL     OW21526   0.934   2.990  11.334 -0.7276 -0.1578  0.1370
 3355SOL    HW121527   0.876   3.058  11.299 -0.8329 -0.4840 -0.3118
 3355SOL    HW221528   1.014   2.996  11.280 -0.1603  0.5248  1.0601
 3356SOL     OW21529   3.709   0.698  10.284 -0.0555 -0.4282 -0.0621
 3356SOL    HW121530   3.657   0.772  10.316  0.7291  0.4112 -0.7110
 3356SOL    HW221531   3.638   0.637  10.269 -1.7494  1.7155 -0.7299
 3357SOL     OW21532   3.509   2.424   9.425  0.1815  0.1000  1.0585
 3357SOL    HW121533   3.458   2.444   9.503 -2.1416 -1.8726  0.0556
 3357SOL    HW221534   3.438   2.437   9.362  0.1389 -2.1535  0.6179
 3358SOL     OW21535   0.593   4.698  13.905  0.0120 -0.5218 -0.1784
 3358SOL    HW121536   0.563   0.062  13.876  0.2893 -0.6964 -0.9765
 3358SOL    HW221537   0.515   4.642  13.903 -1.1323  1.1231 -1.5278
 3359SOL     OW21538   1.733   1.677   1.557 -0.0485  0.0981 -0.0252
 3359SOL    HW121539   1.717   1.742   1.626 -3.5244  2.6869 -3.2952
 3359SOL    HW221540   1.679   1.602   1.582  0.7947 -0.6495 -0.4197
 3360SOL     OW21541   4.294   1.719   3.905 -0.3392 -0.2388  0.4000
 3360SOL    HW121542   4.352   1.776   3.854  1.9271 -2.9878 -0.0618
 3360SOL    HW221543   4.269   1.661   3.834  1.3432 -0.4615 -0.0207
 3361SOL     OW21544   3.291   0.543   2.403 -0.2655  0.6898  0.3071
 3361SOL    HW121545   3.375   0.504   2.380 -1.2484 -0.6168 -1.0205
 3361SOL    HW221546   3.307   0.605   2.474 -0.7002  1.0266  0.1159
 3362SOL     OW21547   4.198   4.703   7.225 -0.2922  0.5147 -0.1312
 3362SOL    HW121548   4.132   4.633   7.228  0.2596  0.1116  2.5630
 3362SOL    HW221549   4.256   4.666   7.158  1.1168  1.4051  0.5942
 3363SOL     OW21550   0.273   2.651   5.880 -0.2780 -0.4515  0.2292
 3363SOL    HW121551   0.290   2.693   5.796 -0.6655  0.5576  0.6610
 3363SOL    HW221552   0.261   2.733   5.927  0.2195 -0.7129  0.8208
 3364SOL     OW21553   4.532   0.769   7.544 -0.1413  0.4732 -0.4788
 3364SOL    HW121554   4.556   0.794   7.633  2.7352  1.5619 -1.5386
 3364SOL    HW221555   4.464   0.702   7.554 -1.0869  0.9796 -3.6063
 3365SOL     OW21556   1.597   2.850   7.197 -0.0683  0.2811  0.2716
 3365SOL    HW121557   1.627   2.878   7.284 -2.0759 -2.2210  1.7791
 3365SOL    HW221558   1.627   2.760   7.209 -0.1477  0.2182 -0.0081
 3366SOL     OW21559   0.158   3.895   5.182  0.2845 -0.0738 -0.1269
 3366SOL    HW121560   0.120   3.847   5.109 -1.8151  0.5929  0.5282
 3366SOL    HW221561   0.082   3.951   5.194  0.7079  0.4416  0.1944
 3367SOL     OW21562   0.349   3.009   7.646 -0.3637  0.6171  0.2555
 3367SOL    HW121563   0.283   3.002   7.577  0.1981  0.8818 -0.3073
 3367SOL    HW221564   0.341   2.933   7.703  0.2419  0.4587  0.1348
 3368SOL     OW21565   2.054   4.349   4.256  0.3256  0.8668  0.1910
 3368SOL    HW121566   2.099   4.295   4.191 -0.6244  0.7257 -0.3348
 3368SOL    HW221567   2.119   4.352   4.327 -0.6328 -1.8836  1.2066
 3369SOL     OW21568   4.530   1.524   0.845  0.2954 -0.2121 -0.0917
 3369SOL    HW121569   4.571   1.476   0.773  1.3847  2.4292 -1.2056
 3369SOL    HW221570   4.441   1.489   0.844  1.0094 -2.0010 -1.2168
 3370SOL     OW21571   2.556   2.465   3.612 -0.0508  0.8373 -0.2072
 3370SOL    HW121572   2.585   2.426   3.529  2.4476  1.3507  0.4284
 3370SOL    HW221573   2.461   2.456   3.611  0.0786 -0.7024  0.8804
 3371SOL     OW21574   3.091   3.265   7.536 -0.0916 -0.4229  0.3021
 3371SOL    HW121575   3.146   3.324   7.484 -1.0465  0.3194  0.1182
 3371SOL    HW221576   3.007   3.270   7.489  0.0082  0.4693  0.2229
 3372SOL     OW21577   2.930   0.488   6.553  0.0846  0.8687 -1.2003
 3372SOL    HW121578   2.951   0.576   6.519  0.3190  1.5171  0.6292
 3372SOL    HW221579   3.008   0.472   6.606 -0.3275  2.1551 -0.2026
 3373SOL     OW21580   2.214   1.830  13.331  0.8788  0.1489  0.1111
 3373SOL    HW121581   2.207   1.869  13.243  0.3915  0.8892  0.4822
 3373SOL    HW221582   2.306   1.801  13.332  0.7660 -0.3363 -3.4140
 3374SOL     OW21583   4.364   2.137  11.819  0.4402  0.3716 -0.8977
 3374SOL    HW121584   4.358   2.207  11.754  2.5906 -0.0331 -1.5598
 3374SOL    HW221585   4.277   2.141  11.858  0.1212 -1.4514 -1.4119
 3375SOL     OW21586   3.046   0.231   9.848 -0.0564  0.0321  0.3616
 3375SOL    HW121587   3.072   0.183   9.927 -2.1438 -1.8341 -0.0933
 3375SOL    HW221588   3.001   0.306   9.886  0.9887  0.4442  0.7876
 3376SOL     OW21589   4.123   4.109  13.765  0.0340  0.5428 -0.3837
 3376SOL    HW121590   4.199   4.063  13.731  0.6863  0.4511  1.2276
 3376SOL    HW221591   4.143   4.193  13.723  1.8015 -0.0761 -0.7710
 3377SOL     OW21592   0.643   3.323   8.530 -0.3606 -0.1008  0.3345
 3377SOL    HW121593   0.618   3.327   8.622 -2.7420 -0.1167 -0.3098
 3377SOL    HW221594   0.682   3.410   8.526  0.7960 -0.5490  1.4851
 3378SOL     OW21595   1.029   0.180   0.407 -0.6386  0.1727  0.5841
 3378SOL    HW121596   1.077   0.137   0.477  0.1840 -0.8311 -0.5856
 3378SOL    HW221597   1.013   0.267   0.444 -0.1853  0.3528  0.3664
 3379SOL     OW21598   3.885   0.360  14.976 -0.0524  0.2809  0.4011
 3379SOL    HW121599   3.845   0.274  14.992  2.7947 -1.3712 -1.3911
 3379SOL    HW221600   3.921   0.340  14.890 -1.2604  0.8119 -0.2325
 3380SOL     OW21601   4.276   1.210  11.716 -0.8845 -0.4584  0.0457
 3380SOL    HW121602   4.181   1.196  11.711 -1.1860  0.7872  2.1665
 3380SOL    HW221603   4.306   1.124  11.745 -0.9651  0.1670  1.9955
 3381SOL     OW21604   2.507   1.325   6.298  0.1224  0.0210  0.0191
 3381SOL    HW121605   2.440   1.291   6.357 -0.3664 -2.3409 -1.9031
 3381SOL    HW221606   2.576   1.357   6.356  0.7746  0.2112 -0.8633
 3382SOL     OW21607   1.487   1.148  11.033  0.1026  0.6632 -0.1359
 3382SOL    HW121608   1.493   1.239  11.063  1.6228  1.1778 -1.9520
 3382SOL    HW221609   1.530   1.110  11.109  3.2768  1.6358 -1.4499
 3383SOL     OW21610   2.902   4.380   2.470 -0.1075  0.3352  0.2198
 3383SOL    HW121611   2.826   4.325   2.450  1.1681 -0.7755 -1.5887
 3383SOL    HW221612   2.913   4.367   2.565 -1.3509  1.8934  0.5591
 3384SOL     OW21613   0.871   2.935   6.863 -0.3072  0.1713  0.0055
 3384SOL    HW121614   0.963   2.918   6.884 -0.2958  1.2709  0.8230
 3384SOL    HW221615   0.881   2.922   6.768 -1.4995  1.2199 -0.2580
 3385SOL     OW21616   3.383   1.231   3.266  1.1292  0.1264 -0.2225
 3385SOL    HW121617   3.455   1.262   3.321  1.0066 -2.4022  1.3368
 3385SOL    HW221618   3.423   1.168   3.206  2.8627 -1.3906  2.5265
 3386SOL     OW21619   4.305   0.961   4.331 -0.2002  0.1676  0.2091
 3386SOL    HW121620   4.263   1.043   4.360  0.1888  0.8531 -1.1513
 3386SOL    HW221621   4.400   0.976   4.323 -0.2551  0.5832  0.2956
 3387SOL     OW21622   3.200   4.464  15.813  0.2633 -0.4886  0.1157
 3387SOL    HW121623   3.163   4.534  15.759  2.3484 -0.4963 -1.3448
 3387SOL    HW221624   3.132   4.399  15.827 -0.3753 -0.0036 -0.7292
 3388SOL     OW21625   1.432   0.471   0.157 -0.7235  0.2538  0.5179
 3388SOL    HW121626   1.395   0.451   0.072  0.4011  2.5214 -0.5014
 3388SOL    HW221627   1.469   0.555   0.130 -0.1951  0.0568  0.6248
 3389SOL     OW21628   0.791   0.649   9.715  0.4182 -0.0237  0.2686
 3389SOL    HW121629   0.837   0.660   9.798 -1.2050  1.9949  0.8764
 3389SOL    HW221630   0.706   0.622   9.749 -1.2783  3.3186 -1.3282
 3390SOL     OW21631   0.778   0.025  10.523  0.2303  0.3534 -0.0457
 3390SOL    HW121632   0.792   4.668  10.577 -0.8162 -0.0816 -0.4104
 3390SOL    HW221633   0.768   0.097  10.585  0.1965  0.1880  0.1426
 3391SOL     OW21634   2.420   2.637   5.424  0.1482 -0.5092  0.3350
 3391SOL    HW121635   2.435   2.551   5.385  2.8902 -0.1704  0.6068
 3391SOL    HW221636   2.421   2.695   5.348  0.5329 -0.4194  0.4068
 3392SOL     OW21637   2.866   4.078  14.538 -0.1724 -0.2739  0.1788
 3392SOL    HW121638   2.813   4.085  14.617  1.0060  0.5457  0.9073
 3392SOL    HW221639   2.931   4.147  14.553 -1.6437  1.1866 -0.2157
 3393SOL     OW21640   0.428   1.902  12.619  0.1307 -0.4645  0.6340
 3393SOL    HW121641   0.344   1.924  12.659  1.0172  1.2080  1.6233
 3393SOL    HW221642   0.475   1.869  12.696 -0.6543 -0.3601  1.1536
 3394SOL     OW21643   1.563   4.480   7.007 -0.3748 -0.1710  0.2590
 3394SOL    HW121644   1.635   4.430   6.970  0.4991 -0.8217  2.8045
 3394SOL    HW221645   1.491   4.443   6.957  0.3394 -0.4704 -0.5338
 3395SOL     OW21646   2.495   4.185  15.449 -0.1168 -0.6116  0.0674
 3395SOL    HW121647   2.428   4.149  15.390  2.2054 -2.7864 -1.2477
 3395SOL    HW221648   2.459   4.165  15.535 -1.0511 -0.6141 -0.3186
 3396SOL     OW21649   4.672   2.451   2.103  0.3263  0.1766  0.5621
 3396SOL    HW121650   4.687   2.474   2.195  0.4216 -0.8240  0.7922
 3396SOL    HW221651   4.658   2.358   2.118 -0.2406 -0.0174 -1.1235
 3397SOL     OW21652   0.464   3.155  14.889 -0.0460  0.3753  0.3759
 3397SOL    HW121653   0.552   3.154  14.926  0.2370  2.1485 -0.2312
 3397SOL    HW221654   0.442   3.062  14.891 -0.6956  0.5835  2.4051
 3398SOL     OW21655   2.734   0.119  13.559 -0.6885 -0.2088 -0.0424
 3398SOL    HW121656   2.798   0.176  13.603  1.1489 -2.9501  0.8649
 3398SOL    HW221657   2.787   0.042  13.538  0.6401  0.5602  0.4859
 3399SOL     OW21658   4.409   0.874   2.560  0.3949 -0.1686 -0.2096
 3399SOL    HW121659   4.403   0.858   2.654 -0.9104 -0.7181 -0.3879
 3399SOL    HW221660   4.356   0.954   2.548 -0.7603 -0.8810  0.1516
 3400SOL     OW21661   0.742   4.610  17.226 -0.1791 -0.3906  0.1154
 3400SOL    HW121662   0.767   4.699  17.247  0.2157 -0.2842 -0.7991
 3400SOL    HW221663   0.770   4.559  17.302  2.4931 -0.3266 -0.8418
 3401SOL     OW21664   4.224   4.617   9.272  0.0165 -0.3056  0.0353
 3401SOL    HW121665   4.194   4.599   9.361 -0.3966  1.7543  0.3307
 3401SOL    HW221666   4.139   4.603   9.230  0.0952  0.4444 -0.3847
 3402SOL     OW21667   2.607   0.671   8.063 -0.1923 -0.1436 -0.0099
 3402SOL    HW121668   2.570   0.641   7.979  1.6944  0.4006 -1.0414
 3402SOL    HW221669   2.699   0.663   8.041 -0.3849  0.3034 -0.9842
 3403SOL     OW21670   3.426   1.419  11.576 -0.1572  0.1993 -0.1909
 3403SOL    HW121671   3.348   1.373  11.607  1.0777 -1.2679  0.7453
 3403SOL    HW221672   3.427   1.496  11.633  0.7915 -0.6915  1.0066
 3404SOL     OW21673   2.787   3.123   0.946 -0.4017 -0.5033 -0.5007
 3404SOL    HW121674   2.857   3.189   0.947  0.2936 -1.2638  2.2058
 3404SOL    HW221675   2.711   3.181   0.958  0.1860  0.1257  0.2259
 3405SOL     OW21676   3.687   0.838   4.425  0.2954  0.6180 -0.3128
 3405SOL    HW121677   3.712   0.851   4.517  2.7248 -0.7077 -0.7823
 3405SOL    HW221678   3.770   0.849   4.378 -0.8224 -1.4923 -2.7722
 3406SOL     OW21679   2.771   1.281   5.794  0.3948 -0.0782 -0.0207
 3406SOL    HW121680   2.833   1.212   5.771 -0.1807 -0.2270 -1.1196
 3406SOL    HW221681   2.828   1.355   5.814 -0.5800  0.2933  1.3975
 3407SOL     OW21682   4.318   2.726   6.975 -0.4484 -0.0438  0.4061
 3407SOL    HW121683   4.338   2.781   6.900  2.2159 -1.0488  0.3600
 3407SOL    HW221684   4.404   2.721   7.018 -0.8282 -1.0480  1.0557
 3408SOL     OW21685   1.330   4.360   8.132  0.9515  0.6977  0.1724
 3408SOL    HW121686   1.272   4.382   8.204  0.7106  2.6948 -0.6282
 3408SOL    HW221687   1.331   4.450   8.099  1.3954  0.8205  0.5165
 3409SOL     OW21688   3.137   2.348   5.877  0.6556  0.0377  0.7343
 3409SOL    HW121689   3.140   2.255   5.900 -0.7750 -0.0101  0.6928
 3409SOL    HW221690   3.117   2.345   5.784  2.3032 -1.2488  0.4131
 3410SOL     OW21691   4.573   1.653   4.238  0.1986 -0.4458  0.2301
 3410SOL    HW121692   4.532   1.609   4.313  0.1746  0.9968  1.0492
 3410SOL    HW221693   4.492   1.673   4.192  1.1971  0.3689 -1.1520
 3411SOL     OW21694   2.904   2.678   6.010 -0.0270  0.2157 -0.4654
 3411SOL    HW121695   2.967   2.721   6.069  2.3720 -1.8738 -1.5170
 3411SOL    HW221696   2.927   2.586   6.019 -1.5931 -0.2372 -1.2854
 3412SOL     OW21697   2.098   2.212   0.617  0.1922 -0.4114 -0.0507
 3412SOL    HW121698   2.036   2.199   0.689  2.0570  1.4900  1.9091
 3412SOL    HW221699   2.132   2.301   0.612  1.6734 -0.9135  1.3928
 3413SOL     OW21700   3.924   1.360  15.988  0.3568  0.1848  0.3681
 3413SOL    HW121701   3.866   1.421  16.032  1.2182  0.2487  1.3983
 3413SOL    HW221702   3.985   1.414  15.937 -0.4115 -2.1743 -3.0906
 3414SOL     OW21703   0.145   2.324   4.380  0.1852 -0.0022 -0.1604
 3414SOL    HW121704   0.086   2.255   4.350  0.7311 -0.4371 -0.2289
 3414SOL    HW221705   0.148   2.312   4.475 -1.6552 -2.8200 -0.4583
 3415SOL     OW21706   0.525   4.059  10.806 -0.6358 -0.8798 -0.3594
 3415SOL    HW121707   0.555   4.033  10.893  1.9320  1.0519 -0.6784
 3415SOL    HW221708   0.594   4.117  10.773 -1.0954 -0.0375  0.1666
 3416SOL     OW21709   1.755   0.175   3.853 -0.6910 -0.4467  0.1038
 3416SOL    HW121710   1.788   0.246   3.799  0.3624 -0.3379  0.8698
 3416SOL    HW221711   1.773   0.207   3.941 -0.1451 -2.8548  0.8816
 3417SOL     OW21712   1.012   3.595   5.314 -0.5912  0.0155  0.4449
 3417SOL    HW121713   1.003   3.682   5.274 -1.4693 -0.9800 -1.5232
 3417SOL    HW221714   1.105   3.576   5.301 -0.6731 -1.5447  2.2500
 3418SOL     OW21715   1.092   2.728  15.438  0.0382  0.2116 -0.1443
 3418SOL    HW121716   1.041   2.647  15.445  1.4365 -0.2843  3.9223
 3418SOL    HW221717   1.032   2.777  15.381  0.4000 -0.5745 -1.2107
 3419SOL     OW21718   3.759   3.211   9.689  0.2918 -0.2740 -0.4061
 3419SOL    HW121719   3.845   3.224   9.728 -0.4089  1.9585  0.3685
 3419SOL    HW221720   3.763   3.277   9.620 -0.4717  0.3745  0.1727
 3420SOL     OW21721   2.327   3.017   7.168  0.1900 -0.1813  0.0058
 3420SOL    HW121722   2.356   3.070   7.093 -0.2005 -1.9023 -1.3495
 3420SOL    HW221723   2.384   2.941   7.164 -1.0503 -1.1077  0.0178
 3421SOL     OW21724   2.590   3.116   8.402  0.7658  0.5864 -0.4622
 3421SOL    HW121725   2.606   3.200   8.447  1.2936  1.6631 -2.6738
 3421SOL    HW221726   2.631   3.049   8.456  2.1278  1.5290 -0.3168
 3422SOL     OW21727   0.364   0.941  10.751  0.1281  0.0788 -0.4891
 3422SOL    HW121728   0.434   0.974  10.694  1.0001 -0.9346  0.0053
 3422SOL    HW221729   0.414   0.891  10.815  0.1895  2.9187  1.6494
 3423SOL     OW21730   1.048   0.992   1.575 -0.0969  0.6994  0.0403
 3423SOL    HW121731   1.064   0.898   1.582 -0.7116  0.4869 -1.3036
 3423SOL    HW221732   1.135   1.022   1.602 -0.1152  1.1145 -0.3545
 3424SOL     OW21733   2.783   0.247   2.529  0.4041  0.6531  0.1716
 3424SOL    HW121734   2.802   0.169   2.476  2.2606  2.0438 -1.1954
 3424SOL    HW221735   2.831   0.223   2.608 -0.0016 -3.2373 -0.7153
 3425SOL     OW21736   4.230   2.878   4.808 -0.1344 -0.1204  0.7368
 3425SOL    HW121737   4.267   2.810   4.865  1.8000 -0.2304 -0.6401
 3425SOL    HW221738   4.305   2.919   4.765 -0.2148 -0.4424  0.2894
 3426SOL     OW21739   4.684   4.112  11.675 -0.7892 -0.0243 -0.0941
 3426SOL    HW121740   0.009   4.029  11.683  0.3979  0.7870  1.3362
 3426SOL    HW221741   0.023   4.172  11.717  1.9689 -2.7490 -0.1686
 3427SOL     OW21742   4.428   4.002   8.788 -0.2113  0.0174 -0.3653
 3427SOL    HW121743   4.413   4.027   8.697 -2.6062  2.4221  0.7008
 3427SOL    HW221744   4.444   4.087   8.829 -0.2981 -0.6372  1.0138
 3428SOL     OW21745   1.962   0.034   2.644  0.3249  0.8252  0.7485
 3428SOL    HW121746   1.977   0.076   2.729  0.9092 -0.1207  1.1238
 3428SOL    HW221747   2.001   0.096   2.582 -0.3293  0.1882 -0.2938
 3429SOL     OW21748   4.116   1.866   3.213  0.5914 -0.4661  0.8746
 3429SOL    HW121749   4.107   1.957   3.242  1.4709 -0.2850  0.6161
 3429SOL    HW221750   4.028   1.835   3.230 -0.7480  1.4204 -2.5487
 3430SOL     OW21751   2.960   3.810  17.319 -0.1423 -0.3265 -0.2613
 3430SOL    HW121752   2.934   3.897  17.348  2.3564 -0.5295  2.6027
 3430SOL    HW221753   2.913   3.757  17.383  1.6573 -0.5541  0.8773
 3431SOL     OW21754   2.732   3.037   2.659  0.4591 -0.0540  0.3455
 3431SOL    HW121755   2.648   3.001   2.629  1.3596 -2.4054  0.6924
 3431SOL    HW221756   2.716   3.024   2.753  2.0515  1.7972  0.8570
 3432SOL     OW21757   3.272   1.688   3.144 -0.3778 -0.1589 -0.1825
 3432SOL    HW121758   3.258   1.594   3.131 -0.4647  0.1811 -2.5527
 3432SOL    HW221759   3.210   1.716   3.076 -0.7575  1.6917  0.9286
 3433SOL     OW21760   4.170   3.133   9.024  0.0648  0.2691 -0.5086
 3433SOL    HW121761   4.170   3.129   9.120  0.6591  1.8591 -0.4373
 3433SOL    HW221762   4.084   3.101   8.998 -0.7506 -1.1712  3.9513
 3434SOL     OW21763   1.086   4.415   2.882 -0.1849  0.2128  0.7154
 3434SOL    HW121764   1.172   4.400   2.843 -0.8530 -1.0826 -0.2727
 3434SOL    HW221765   1.039   4.336   2.857  0.3589  0.1056  0.0316
 3435SOL     OW21766   1.526   0.269   5.109  0.2404 -0.7654  0.1355
 3435SOL    HW121767   1.572   0.353   5.111 -3.5573  1.3793 -2.1252
 3435SOL    HW221768   1.434   0.296   5.105  0.1809 -1.0956 -0.7825
 3436SOL     OW21769   2.669   1.069   7.945  0.5176  0.2164 -0.2343
 3436SOL    HW121770   2.728   1.006   7.987  0.8655  0.6629 -0.0496
 3436SOL    HW221771   2.588   1.018   7.935  0.0359  0.6855  1.1803
 3437SOL     OW21772   3.069   2.598   7.757 -0.4325  0.4230  0.3228
 3437SOL    HW121773   3.127   2.542   7.705  3.8722  2.1701  3.1551
 3437SOL    HW221774   3.077   2.565   7.846  0.3971  2.9226  1.1943
 3438SOL     OW21775   4.336   2.555   0.545 -0.8496  0.0382  0.3848
 3438SOL    HW121776   4.297   2.583   0.628  2.3845  1.7687  1.3242
 3438SOL    HW221777   4.315   2.627   0.486  0.4249 -0.4557 -0.6650
 3439SOL     OW21778   3.398   4.204   4.457 -0.0477 -0.1024 -0.4005
 3439SOL    HW121779   3.331   4.218   4.389  0.2542  0.7937 -0.5165
 3439SOL    HW221780   3.483   4.205   4.413 -0.1283  0.4706 -0.5438
 3440SOL     OW21781   2.944   4.712  12.137 -0.4025  0.0981  0.1077
 3440SOL    HW121782   2.893   4.658  12.197 -1.4275  1.0298  0.0834
 3440SOL    HW221783   2.946   0.064  12.197  1.0535 -0.4525  0.7190
 3441SOL     OW21784   1.504   3.479   4.885  0.7150  0.1538  0.0376
 3441SOL    HW121785   1.559   3.558   4.891  1.3937 -0.2028 -1.4957
 3441SOL    HW221786   1.417   3.508   4.861 -0.2649 -3.6931 -1.0473
 3442SOL     OW21787   1.996   0.141   2.892 -0.0491 -0.1966 -0.3346
 3442SOL    HW121788   1.956   0.203   2.953 -0.0600 -0.2162 -0.3215
 3442SOL    HW221789   2.075   0.188   2.866  0.8765 -0.5759  1.8290
 3443SOL     OW21790   2.481   0.665   4.199 -0.2122 -0.3258  0.2827
 3443SOL    HW121791   2.433   0.747   4.211  0.0572 -0.1465  0.1453
 3443SOL    HW221792   2.555   0.701   4.150  0.0557  0.6766  1.4072
 3444SOL     OW21793   0.317   0.655   1.825  0.4497  0.7058  0.5479
 3444SOL    HW121794   0.309   0.728   1.764  0.3511  1.0284  0.9524
 3444SOL    HW221795   0.225   0.639   1.846  0.0851  0.7912 -0.9605
 3445SOL     OW21796   3.176   1.669  15.489 -0.1752  0.1333 -0.6833
 3445SOL    HW121797   3.183   1.580  15.524 -1.7379 -0.0546 -0.8658
 3445SOL    HW221798   3.220   1.719  15.558 -1.6753  2.5918 -1.5290
 3446SOL     OW21799   3.297   1.753   3.419 -0.2443 -0.0921  0.2511
 3446SOL    HW121800   3.271   1.781   3.331  0.1235  0.4510  0.3150
 3446SOL    HW221801   3.253   1.668   3.422  0.4878 -0.5206 -1.2506
 3447SOL     OW21802   1.109   1.487   6.308 -0.6811 -0.6177  0.8047
 3447SOL    HW121803   1.135   1.579   6.299 -1.0496 -0.3439  2.4521
 3447SOL    HW221804   1.166   1.455   6.238 -0.2316  0.3571  0.7289
 3448SOL     OW21805   4.504   4.207  12.748  0.0993 -0.3877 -0.0525
 3448SOL    HW121806   4.461   4.233  12.667 -0.1754  1.5177  0.6965
 3448SOL    HW221807   4.460   4.258  12.816 -0.3240  2.4042 -2.4045
 3449SOL     OW21808   4.619   3.272   9.610  0.2838 -0.1503  0.1901
 3449SOL    HW121809   4.548   3.241   9.666  2.1487  0.0727  2.6491
 3449SOL    HW221810   4.681   3.199   9.603 -2.8989 -2.6077 -2.8570
 3450SOL     OW21811   2.136   3.984   5.247  0.4845  0.0859  0.2899
 3450SOL    HW121812   2.109   4.061   5.297 -0.4423 -0.0030 -0.0610
 3450SOL    HW221813   2.051   3.941   5.238  0.0398  0.9416  0.3559
 3451SOL     OW21814   0.698   4.450  15.933 -0.1585  0.0602 -0.8714
 3451SOL    HW121815   0.639   4.419  15.864  0.8137 -1.3756 -1.0528
 3451SOL    HW221816   0.646   4.527  15.956  0.4862  0.0881  0.5301
 3452SOL     OW21817   3.856   4.668  12.351  0.0252 -0.2757  0.1446
 3452SOL    HW121818   3.817   0.024  12.392 -0.6809 -1.0755  1.0047
 3452SOL    HW221819   3.867   4.618  12.433  1.6799  1.8734  1.2267
 3453SOL     OW21820   3.645   1.044  15.131 -0.0120 -0.1357  0.5429
 3453SOL    HW121821   3.637   1.109  15.061 -1.4234 -1.2921 -0.3828
 3453SOL    HW221822   3.587   1.078  15.200 -0.2632 -0.3438  0.4336
 3454SOL     OW21823   1.471   3.685   5.823  0.4292  0.3053  0.0035
 3454SOL    HW121824   1.554   3.711   5.861  0.0484  0.0368  1.0147
 3454SOL    HW221825   1.481   3.720   5.734 -0.9252 -0.2463 -0.3716
 3455SOL     OW21826   1.928   1.657   6.147 -0.1551  0.3409 -0.4595
 3455SOL    HW121827   1.869   1.584   6.129 -0.6681  0.4405  0.8135
 3455SOL    HW221828   1.910   1.681   6.238 -0.4738 -0.8275 -0.2204
 3456SOL     OW21829   4.490   4.544   4.514  0.5260  0.1293  0.7274
 3456SOL    HW121830   4.408   4.583   4.482  0.2717 -1.2895 -0.3280
 3456SOL    HW221831   4.485   4.560   4.608  0.4605 -0.0444  0.7536
 3457SOL     OW21832   0.898   4.240   3.911  0.0423  0.3425 -0.2289
 3457SOL    HW121833   0.825   4.182   3.933  0.6988 -1.0321 -1.6752
 3457SOL    HW221834   0.922   4.285   3.992  0.3044 -1.0684  0.4699
 3458SOL     OW21835   2.365   4.181   7.877 -0.4774 -0.0154  0.4619
 3458SOL    HW121836   2.438   4.215   7.825 -0.4603 -0.9404 -0.1231
 3458SOL    HW221837   2.378   4.228   7.960 -0.0344  1.3211 -0.3631
 3459SOL     OW21838   1.674   4.654  10.597 -0.4993 -0.1687 -0.2613
 3459SOL    HW121839   1.748   4.714  10.602 -0.6824  0.0051  0.4503
 3459SOL    HW221840   1.716   4.584  10.647 -1.3170 -0.4659  0.0107
 3460SOL     OW21841   0.091   2.510   4.190  0.6515  0.0577  0.0654
 3460SOL    HW121842   4.721   2.489   4.175  0.9806  0.3967 -2.4552
 3460SOL    HW221843   0.123   2.439   4.246  0.3049 -1.0415 -1.1359
 3461SOL     OW21844   0.437   4.122   7.955  0.1546 -0.3768  0.2912
 3461SOL    HW121845   0.420   4.216   7.959 -1.6134 -0.6025 -1.8086
 3461SOL    HW221846   0.363   4.096   7.900 -0.1399 -0.0044  0.5128
 3462SOL     OW21847   3.592   1.067   6.912 -0.6414  0.1717  0.1743
 3462SOL    HW121848   3.497   1.063   6.920 -0.4380 -1.6094  1.9074
 3462SOL    HW221849   3.611   1.158   6.934  0.6831 -0.4865  1.7502
 3463SOL     OW21850   3.946   0.663  14.700 -0.1783  0.2632 -0.9261
 3463SOL    HW121851   3.862   0.640  14.741 -0.1535  1.7643 -0.0446
 3463SOL    HW221852   4.014   0.617  14.749  0.8652  1.2728 -1.4393
 3464SOL     OW21853   0.095   4.639   6.769  0.0226  0.1147  0.3878
 3464SOL    HW121854   0.072   4.676   6.855 -3.0960 -0.8316 -0.0392
 3464SOL    HW221855   0.152   4.710   6.739 -0.5734  1.0122  1.3839
 3465SOL     OW21856   0.072   3.064   9.538  0.5097  0.1678  0.3845
 3465SOL    HW121857   0.161   3.093   9.559  1.0904 -0.1841 -1.6027
 3465SOL    HW221858   0.087   2.976   9.573  2.5466  0.5489  0.4379
 3466SOL     OW21859   1.608   3.572   7.239  0.0155  0.0608 -0.3318
 3466SOL    HW121860   1.560   3.513   7.180  1.5614  1.9783 -3.5192
 3466SOL    HW221861   1.645   3.514   7.306 -2.1233 -0.9212 -0.0018
 3467SOL     OW21862   2.953   1.634   3.190  0.2065 -0.1309  0.8734
 3467SOL    HW121863   2.958   1.543   3.159  2.4543  0.1475  0.4501
 3467SOL    HW221864   2.858   1.632   3.201 -0.0308  1.3489 -0.8693
 3468SOL     OW21865   2.175   1.740   6.976  0.4303  0.2346  0.2715
 3468SOL    HW121866   2.235   1.695   7.035 -0.2556  1.2270  1.7302
 3468SOL    HW221867   2.092   1.747   7.024  1.2854 -1.7196  2.0082
 3469SOL     OW21868   4.178   3.854   8.550  0.1416 -0.4161 -0.0070
 3469SOL    HW121869   4.192   3.881   8.459  2.2665 -0.7869  0.2167
 3469SOL    HW221870   4.083   3.866   8.549  0.3487  1.2841  0.4647
 3470SOL     OW21871   4.239   3.995  17.647  0.5724  0.5792 -0.2931
 3470SOL    HW121872   4.162   4.010  17.592 -0.8679  1.6803  2.0186
 3470SOL    HW221873   4.244   4.083  17.684 -0.7631  0.3024  0.5358
 3471SOL     OW21874   2.362   0.607   6.475  0.0111  0.0401 -0.3225
 3471SOL    HW121875   2.417   0.667   6.526 -1.2887  0.2978  0.7855
 3471SOL    HW221876   2.371   0.641   6.386 -0.1073  1.8466  0.3579
 3472SOL     OW21877   0.529   2.401  16.581  0.0183  0.6170 -0.1815
 3472SOL    HW121878   0.537   2.325  16.524 -1.4503 -0.6435  1.3029
 3472SOL    HW221879   0.531   2.470  16.515  2.6535 -0.1757 -0.9575
 3473SOL     OW21880   3.184   2.838  16.553  0.0010  0.7387 -0.1089
 3473SOL    HW121881   3.111   2.854  16.494  0.5086 -1.6179 -1.3493
 3473SOL    HW221882   3.175   2.745  16.577  1.8285  0.7448  0.5895
 3474SOL     OW21883   4.102   0.536  17.589 -0.0050  0.0276 -0.3143
 3474SOL    HW121884   4.033   0.601  17.574 -1.1150 -1.1772 -0.3124
 3474SOL    HW221885   4.087   0.460  17.534 -1.9166  0.0362  0.2116
 3475SOL     OW21886   4.406   2.603  12.821  0.2499  0.5562  0.5036
 3475SOL    HW121887   4.419   2.518  12.862  1.1990 -0.7340 -2.4513
 3475SOL    HW221888   4.375   2.658  12.893  0.4933 -0.4215  1.3592
 3476SOL     OW21889   1.007   3.780  14.203  0.4511  0.3839  0.3578
 3476SOL    HW121890   1.002   3.696  14.157  1.1846 -0.2316  1.4002
 3476SOL    HW221891   0.926   3.818  14.168  1.1310  0.8447 -0.7247
 3477SOL     OW21892   4.091   0.377   2.386 -0.0430  0.1993  0.3186
 3477SOL    HW121893   4.010   0.428   2.385 -0.7585 -0.9200 -0.3276
 3477SOL    HW221894   4.085   0.321   2.464 -1.3215 -1.5635 -1.0187
 3478SOL     OW21895   0.928   0.421  15.719 -0.4275 -0.2361  0.1374
 3478SOL    HW121896   0.962   0.437  15.631 -0.5216  1.6580  0.4582
 3478SOL    HW221897   0.901   0.330  15.705 -0.1736 -0.2669 -0.1362
 3479SOL     OW21898   1.586   0.707   0.571  0.2075 -0.3639  0.4337
 3479SOL    HW121899   1.658   0.658   0.611  2.1128  1.1885 -1.0708
 3479SOL    HW221900   1.607   0.800   0.566 -1.1309  0.0073  1.6975
 3480SOL     OW21901   1.397   2.678   1.276 -0.5960  0.2025 -0.2712
 3480SOL    HW121902   1.309   2.691   1.310  0.7541  1.1206  2.8657
 3480SOL    HW221903   1.452   2.694   1.353 -1.1957  0.4295  0.1121
 3481SOL     OW21904   0.138   3.088   8.582  0.4985  0.1792  0.1990
 3481SOL    HW121905   0.078   3.014   8.594 -0.1941  0.5204 -1.1633
 3481SOL    HW221906   0.155   3.102   8.676 -3.9167  0.4800  0.9461
 3482SOL     OW21907   2.625   3.405   7.527  0.1185 -0.3186 -0.0261
 3482SOL    HW121908   2.647   3.495   7.551 -1.5905  0.0119  0.3275
 3482SOL    HW221909   2.681   3.366   7.594  0.0716  1.4403  1.0481
 3483SOL     OW21910   3.704   3.911   3.443  0.3397  0.4465 -0.2352
 3483SOL    HW121911   3.656   3.830   3.424  1.3153  0.1803 -1.5438
 3483SOL    HW221912   3.792   3.903   3.407  0.8834 -1.0746  1.4358
 3484SOL     OW21913   1.667   1.853   9.675  0.2663 -0.0639  0.0793
 3484SOL    HW121914   1.692   1.779   9.731 -2.2117 -1.3118 -0.4522
 3484SOL    HW221915   1.668   1.924   9.739 -2.1300  0.3813 -0.3924
 3485SOL     OW21916   4.022   0.110  13.861  0.0748 -0.6150  0.2825
 3485SOL    HW121917   4.053   0.179  13.920  2.0900  1.2424 -2.8909
 3485SOL    HW221918   4.108   0.074  13.836  1.0564  2.3031 -0.6086
 3486SOL     OW21919   3.334   4.185   7.860  0.0971  0.3665 -0.7315
 3486SOL    HW121920   3.255   4.171   7.912  0.5674  0.0771 -0.0775
 3486SOL    HW221921   3.356   4.276   7.878  0.6337  0.8410 -3.8533
 3487SOL     OW21922   2.008   1.554  13.877  0.0887  0.4616  0.6734
 3487SOL    HW121923   2.061   1.485  13.836  1.3691  0.9912  1.4405
 3487SOL    HW221924   1.962   1.581  13.797  0.3724  0.3786  0.4825
 3488SOL     OW21925   1.112   1.354   3.937  0.0060  0.2525  0.5244
 3488SOL    HW121926   1.114   1.345   3.842  2.5871  1.2553  0.4843
 3488SOL    HW221927   1.074   1.442   3.943  0.6075  0.3405  3.3168
 3489SOL     OW21928   2.185   0.079  16.203 -0.2592  0.1922 -0.9366
 3489SOL    HW121929   2.200   0.165  16.241 -0.0253 -0.2833  0.0370
 3489SOL    HW221930   2.166   0.015  16.271 -1.0990 -0.5309 -1.8391
 3490SOL     OW21931   0.086   3.453   5.636 -0.2392 -0.3563 -0.4493
 3490SOL    HW121932   0.100   3.419   5.724  1.1068  1.0127 -0.1417
 3490SOL    HW221933   0.175   3.456   5.601 -0.5276 -1.7080 -1.3197
 3491SOL     OW21934   4.722   0.467   6.922  0.0446  0.1404 -0.1670
 3491SOL    HW121935   4.646   0.513   6.886 -0.4281 -0.9640 -0.6173
 3491SOL    HW221936   4.678   0.424   6.995 -0.3731 -1.6538 -1.4618
 3492SOL     OW21937   2.854   1.162   4.175 -0.0327 -0.5339 -0.1848
 3492SOL    HW121938   2.907   1.086   4.153  1.3659  0.5049 -0.4108
 3492SOL    HW221939   2.863   1.217   4.098 -0.0791 -1.7181 -1.0234
 3493SOL     OW21940   1.603   0.130   4.511  0.0845 -0.3246 -0.3911
 3493SOL    HW121941   1.549   0.207   4.530  2.5475  1.1257  0.6416
 3493SOL    HW221942   1.612   0.090   4.597  1.4099 -0.6817 -0.6866
 3494SOL     OW21943   2.587   2.711  14.062 -0.3416  0.6962  0.5731
 3494SOL    HW121944   2.588   2.626  14.106 -0.4773  0.2401 -0.3097
 3494SOL    HW221945   2.678   2.719  14.031 -1.1869  3.0636 -1.2463
 3495SOL     OW21946   1.577   2.319   6.089 -0.0687 -0.2057  0.2837
 3495SOL    HW121947   1.627   2.241   6.114 -0.9775 -1.5193 -1.9579
 3495SOL    HW221948   1.639   2.358   6.028 -2.2426  2.5415 -0.1896
 3496SOL     OW21949   1.372   4.519   9.208  0.2458  0.1874 -0.1120
 3496SOL    HW121950   1.377   4.463   9.286  1.3513 -0.3269 -0.5556
 3496SOL    HW221951   1.463   4.536   9.182  0.7824  0.2224  1.7880
 3497SOL     OW21952   2.549   3.551  15.279 -0.1768  0.7026  0.4177
 3497SOL    HW121953   2.620   3.530  15.340 -0.8059  1.9972  1.5759
 3497SOL    HW221954   2.598   3.584  15.204 -0.4443  2.7365  1.1551
 3498SOL     OW21955   0.325   0.534  12.523 -0.0614 -0.1143 -0.4843
 3498SOL    HW121956   0.395   0.481  12.562 -0.7085 -0.3590  0.3464
 3498SOL    HW221957   0.247   0.480  12.539  0.3657 -0.8711 -0.9342
 3499SOL     OW21958   0.010   4.024   8.686 -0.2215  0.0752 -0.6053
 3499SOL    HW121959   4.664   3.982   8.739  2.2653 -0.7823  1.9032
 3499SOL    HW221960   0.088   3.972   8.707 -0.2337 -0.2371 -1.3404
 3500SOL     OW21961   1.736   4.319  10.590  0.8713  0.3464 -0.2951
 3500SOL    HW121962   1.796   4.291  10.521 -1.1462 -2.3436 -0.9562
 3500SOL    HW221963   1.795   4.352  10.657 -1.3016  0.7538  1.4082
 3501SOL     OW21964   1.105   0.332   4.488  0.2253 -0.0615 -0.5496
 3501SOL    HW121965   1.186   0.282   4.498  0.4422  0.2071 -0.9584
 3501SOL    HW221966   1.087   0.360   4.398  2.1989  1.7823 -0.3817
 3502SOL     OW21967   4.493   1.726   7.568  0.7295  0.0121 -0.1302
 3502SOL    HW121968   4.400   1.721   7.543  0.6465 -1.7402  0.4759
 3502SOL    HW221969   4.513   1.632   7.560 -0.5048 -0.3664  1.2232
 3503SOL     OW21970   3.156   4.466   9.277 -0.3928  0.1820 -0.3809
 3503SOL    HW121971   3.090   4.501   9.216 -0.4730  0.3876 -0.1764
 3503SOL    HW221972   3.225   4.533   9.277  0.1487 -0.3945  0.6978
 3504SOL     OW21973   3.035   0.530   5.935  0.2154  0.4925  0.5479
 3504SOL    HW121974   2.987   0.514   6.016  0.6316  0.0781  0.7117
 3504SOL    HW221975   3.006   0.461   5.877  0.6258  2.4843 -2.0305
 3505SOL     OW21976   0.385   2.485  16.823  0.6330 -0.3458 -0.1943
 3505SOL    HW121977   0.422   2.485  16.735 -0.2596 -0.3175 -0.5636
 3505SOL    HW221978   0.371   2.391  16.837  1.1027 -0.3603  0.1747
 3506SOL     OW21979   1.070   3.629   5.879 -0.1618 -0.0542 -0.0396
 3506SOL    HW121980   1.103   3.539   5.884  2.5769  0.9024 -0.9232
 3506SOL    HW221981   1.019   3.623   5.960 -0.8190  1.9824 -0.3171
 3507SOL     OW21982   4.275   0.575   7.121 -0.2495  0.8754 -0.3247
 3507SOL    HW121983   4.195   0.599   7.169 -0.2822  0.1594 -0.0194
 3507SOL    HW221984   4.275   0.482   7.141  0.7796  1.4003  2.2036
 3508SOL     OW21985   3.413   4.150   4.709  0.1501 -0.4880 -0.8147
 3508SOL    HW121986   3.452   4.065   4.727  1.1375  0.4859  1.7248
 3508SOL    HW221987   3.413   4.147   4.614 -3.4018 -2.0264 -0.7650
 3509SOL     OW21988   4.161   1.970   4.509 -0.3491  0.5046  0.1872
 3509SOL    HW121989   4.184   2.054   4.469 -0.2361 -0.0867 -0.9834
 3509SOL    HW221990   4.245   1.923   4.502 -0.0068  1.0154  0.8958
 3510SOL     OW21991   4.592   4.646  12.028 -0.0649  0.1817  0.2294
 3510SOL    HW121992   4.521   4.633  12.090 -2.3030 -1.3294 -2.6937
 3510SOL    HW221993   4.601   4.563  11.981 -0.3307  0.1910  0.1620
 3511SOL     OW21994   3.110   0.727   8.487  0.2203 -0.2224 -0.1140
 3511SOL    HW121995   3.121   0.807   8.539 -1.8808 -1.0950  1.6611
 3511SOL    HW221996   3.155   0.657   8.534  4.0251  0.7939 -2.2072
 3512SOL     OW21997   4.221   1.197  13.049  0.3121 -0.1601 -0.3414
 3512SOL    HW121998   4.283   1.229  12.984 -0.3036  1.1808 -0.2828
 3512SOL    HW221999   4.147   1.166  12.997 -1.7994  1.7432  1.5054
 3513SOL     OW22000   3.471   1.108   6.117 -0.2246  0.3966  0.3749
 3513SOL    HW122001   3.388   1.120   6.164  0.1919  1.5341  0.8154
 3513SOL    HW222002   3.504   1.197   6.109  1.0730 -0.3437 -2.5492
 3514SOL     OW22003   1.342   2.382   6.175 -0.1649  0.0380 -0.3809
 3514SOL    HW122004   1.429   2.373   6.135  0.1952 -2.3009  0.9367
 3514SOL    HW222005   1.374   2.380   6.265 -2.3990  1.9266  0.4324
 3515SOL     OW22006   2.033   1.512   4.299  0.0436  0.3493  0.4919
 3515SOL    HW122007   2.042   1.606   4.289  0.4791  0.0856 -1.5944
 3515SOL    HW222008   1.944   1.487   4.272 -0.1614 -0.1338  1.6114
 3516SOL     OW22009   0.323   2.413  10.848  0.1666 -0.2991  0.0928
 3516SOL    HW122010   0.251   2.476  10.845  1.4852  1.1120 -1.5842
 3516SOL    HW222011   0.284   2.354  10.913  1.6306 -0.7072  0.5980
 3517SOL     OW22012   4.035   1.599   5.506  0.5567 -0.1579  0.2951
 3517SOL    HW122013   4.041   1.550   5.424 -2.5171 -0.5484  0.3057
 3517SOL    HW222014   4.114   1.653   5.515 -0.2007  0.6946  1.8582
 3518SOL     OW22015   2.895   0.251   9.446  0.0419 -0.8552  0.1283
 3518SOL    HW122016   2.880   0.191   9.519 -1.1380 -1.4924 -0.6494
 3518SOL    HW222017   2.929   0.184   9.387  0.2402  0.2602 -1.0171
 3519SOL     OW22018   1.968   2.804   8.800  0.2335 -0.3085  0.1418
 3519SOL    HW122019   1.879   2.782   8.776 -0.8804  2.1870  1.9352
 3519SOL    HW222020   1.956   2.877   8.861 -1.2228  0.6686 -1.3146
 3520SOL     OW22021   1.646   0.506   5.090  0.3140  0.1184 -0.3173
 3520SOL    HW122022   1.612   0.556   5.164  0.9088 -1.7988  1.2491
 3520SOL    HW222023   1.738   0.520   5.112  0.3206  0.2655 -0.4440
 3521SOL     OW22024   2.876   2.893   0.278  0.4178 -0.8055 -0.0359
 3521SOL    HW122025   2.866   2.809   0.324 -1.9769  0.5800  1.9464
 3521SOL    HW222026   2.892   2.957   0.347  0.2348  2.0527 -2.6665
 3522SOL     OW22027   0.684   1.446  11.097 -0.0726  0.5905  0.2087
 3522SOL    HW122028   0.686   1.450  11.192 -2.8876  0.0377  0.2744
 3522SOL    HW222029   0.691   1.353  11.079 -5.1155  0.3473 -0.4814
 3523SOL     OW22030   0.482   2.103   4.143  0.8461 -0.1676  0.2398
 3523SOL    HW122031   0.429   2.075   4.218 -0.2001  0.1035 -0.3984
 3523SOL    HW222032   0.444   2.049   4.074  1.1962  1.5030 -1.2568
 3524SOL     OW22033   3.659   0.820   0.760  0.0831 -0.0152  0.0761
 3524SOL    HW122034   3.655   0.790   0.851 -0.2022  0.5886  0.2682
 3524SOL    HW222035   3.747   0.856   0.766 -0.3560  0.7051  2.1614
 3525SOL     OW22036   2.962   3.970   7.865  0.0627  0.0845  0.0038
 3525SOL    HW122037   2.925   3.966   7.776 -0.7686 -0.4014  0.3730
 3525SOL    HW222038   2.919   3.889   7.892 -0.1605  1.1474  2.8593
 3526SOL     OW22039   3.672   1.442   5.307 -0.3913  0.4142  0.7413
 3526SOL    HW122040   3.702   1.533   5.300 -2.4234  0.8167 -2.2158
 3526SOL    HW222041   3.751   1.403   5.269 -2.2832 -0.8639 -1.8204
 3527SOL     OW22042   3.775   1.967   1.970 -0.7196  0.6334  0.9398
 3527SOL    HW122043   3.796   1.882   2.010  1.8696  1.1310  0.6363
 3527SOL    HW222044   3.855   2.012   1.997  0.1088 -1.6077  2.2597
 3528SOL     OW22045   4.721   3.721   4.057  0.9718 -0.0070  0.5275
 3528SOL    HW122046   0.084   3.717   4.012  1.2310  0.3157  0.9919
 3528SOL    HW222047   4.710   3.815   4.066 -1.3197 -0.3532  1.3214
 3529SOL     OW22048   2.106   3.334   7.687  0.4160 -0.1809  0.0067
 3529SOL    HW122049   2.168   3.407   7.687  2.2439 -1.7305 -1.4389
 3529SOL    HW222050   2.029   3.372   7.730 -0.7989  0.7707 -3.0180
 3530SOL     OW22051   2.243   2.028   9.522  0.0506 -0.0876 -1.0764
 3530SOL    HW122052   2.187   1.961   9.562 -0.9396  1.2622 -0.2158
 3530SOL    HW222053   2.213   2.102   9.574  2.6572 -1.4986  2.4849
 3531SOL     OW22054   3.138   3.724   4.026  0.4155  0.1834  0.0617
 3531SOL    HW122055   3.174   3.744   3.939 -1.1456 -1.1822 -0.8867
 3531SOL    HW222056   3.184   3.793   4.074  1.6741 -0.4167 -0.2726
 3532SOL     OW22057   3.986   1.948  17.403 -0.4741  0.6677 -0.1536
 3532SOL    HW122058   3.899   1.959  17.365 -1.4620  1.4289  2.2735
 3532SOL    HW222059   3.954   1.906  17.483  1.5496  0.2284  0.4427
 3533SOL     OW22060   0.794   4.000  13.029 -0.0613  0.0665  0.2745
 3533SOL    HW122061   0.725   3.993  12.963 -0.1405  2.2107  0.1478
 3533SOL    HW222062   0.733   3.984  13.101  0.6852  1.9082  1.3140
 3534SOL     OW22063   1.848   3.213   4.315  0.0016  0.0639 -0.4216
 3534SOL    HW122064   1.904   3.164   4.254 -0.4991 -2.2064  0.9340
 3534SOL    HW222065   1.791   3.141   4.342 -0.8592  1.0336  0.3348
 3535SOL     OW22066   3.109   0.855  14.983  0.3346 -0.4180  0.4232
 3535SOL    HW122067   3.040   0.790  14.999  0.0976 -0.0530  0.8752
 3535SOL    HW222068   3.057   0.935  14.982  0.8873 -0.0581  1.5779
 3536SOL     OW22069   2.835   2.668   1.316  0.1934 -0.1918 -0.0076
 3536SOL    HW122070   2.800   2.735   1.257 -0.8632 -0.8161 -0.1031
 3536SOL    HW222071   2.892   2.630   1.250 -0.5075 -2.0737  0.4749
 3537SOL     OW22072   1.813   2.293   6.364  0.0916  0.6608 -0.1500
 3537SOL    HW122073   1.781   2.381   6.342  2.2603  0.9598 -2.0738
 3537SOL    HW222074   1.886   2.275   6.306  1.5520  1.8826  1.2914
 3538SOL     OW22075   2.903   2.521  17.631  0.2703 -0.0945 -0.5437
 3538SOL    HW122076   2.935   2.600  17.676 -3.4218  0.7541  0.5558
 3538SOL    HW222077   2.986   2.474  17.634  0.0859 -0.3041  1.0416
 3539SOL     OW22078   4.406   1.488   9.013  0.3101  0.3371  0.0491
 3539SOL    HW122079   4.398   1.549   9.086 -0.2189 -2.0845  2.0092
 3539SOL    HW222080   4.474   1.531   8.962 -0.3317  1.3048  0.0133
 3540SOL     OW22081   1.113   2.637   4.408 -0.5898  0.4061  0.4661
 3540SOL    HW122082   1.203   2.633   4.441 -0.3527  1.5422 -0.0162
 3540SOL    HW222083   1.068   2.589   4.477  1.0359  0.8225  1.8320
 3541SOL     OW22084   1.789   4.588  14.683 -0.0211  0.4478  0.1738
 3541SOL    HW122085   1.731   4.513  14.664  1.5860 -0.4697 -1.1053
 3541SOL    HW222086   1.870   4.563  14.638  0.3358 -0.9981  1.6241
 3542SOL     OW22087   1.743   3.050   3.782  0.4800  0.0125 -0.2566
 3542SOL    HW122088   1.788   3.130   3.807 -2.3282  1.1624  1.0285
 3542SOL    HW222089   1.714   3.014   3.865 -1.9052 -1.2286 -1.6234
 3543SOL     OW22090   4.629   4.079   6.933 -0.4119  0.0700 -0.3879
 3543SOL    HW122091   4.567   4.073   7.006  0.4596 -0.0090  0.3357
 3543SOL    HW222092   4.665   3.990   6.942 -0.1525  0.2090 -0.0928
 3544SOL     OW22093   4.232   1.587   0.662 -0.0310  0.0850  0.2365
 3544SOL    HW122094   4.202   1.497   0.652  0.1523  0.1058 -0.5206
 3544SOL    HW222095   4.155   1.613   0.712 -1.0463 -2.2564 -0.0863
 3545SOL     OW22096   4.687   2.745   1.947 -0.0806 -0.1859 -0.4117
 3545SOL    HW122097   4.614   2.717   2.002 -0.2542  0.6791 -0.2057
 3545SOL    HW222098   4.691   2.666   1.892 -1.1136 -0.2317 -0.4316
 3546SOL     OW22099   2.721   1.669   5.626 -0.1529 -0.0959  0.2787
 3546SOL    HW122100   2.637   1.716   5.628 -0.8316 -1.3265  0.4322
 3546SOL    HW222101   2.761   1.698   5.708  0.9595  0.4927 -0.4816
 3547SOL     OW22102   0.488   1.140   3.519  0.1325 -0.1214  0.7640
 3547SOL    HW122103   0.571   1.187   3.529 -0.7485  1.7025 -0.3815
 3547SOL    HW222104   0.524   1.054   3.538 -1.5938 -0.6146  1.7809
 3548SOL     OW22105   3.604   3.725  15.053 -0.2315 -0.3979 -0.2030
 3548SOL    HW122106   3.698   3.714  15.065 -0.1059  2.5774  1.4196
 3548SOL    HW222107   3.591   3.739  14.959 -0.4483 -1.5218 -0.3376
 3549SOL     OW22108   3.420   0.472   5.156  0.0646  0.2015 -0.2439
 3549SOL    HW122109   3.460   0.387   5.139  1.6935  0.8616  0.3089
 3549SOL    HW222110   3.450   0.489   5.245  0.3541 -2.6400  0.1872
 3550SOL     OW22111   0.679   4.626   2.586  0.2645  0.0023  0.7806
 3550SOL    HW122112   0.671   4.689   2.514  0.1905 -1.3945 -0.4218
 3550SOL    HW222113   0.723   4.674   2.657 -0.7774  1.1619  0.6413
 3551SOL     OW22114   1.905   2.708   6.524 -0.4434 -0.2137 -0.7242
 3551SOL    HW122115   1.981   2.681   6.576 -1.3212  0.2967  0.8561
 3551SOL    HW222116   1.911   2.643   6.454  0.1591 -1.1941  0.2309
 3552SOL     OW22117   4.314   0.594   8.192  0.0488 -0.1619  0.3943
 3552SOL    HW122118   4.302   0.535   8.118  1.6786 -1.8507  1.4919
 3552SOL    HW222119   4.401   0.626   8.168  0.4558 -1.0058  0.7609
 3553SOL     OW22120   4.001   3.169  13.902  0.5339  0.4269 -0.0787
 3553SOL    HW122121   3.995   3.135  13.991 -1.0370 -1.4460 -0.9231
 3553SOL    HW222122   4.062   3.107  13.861 -0.6116  0.1111 -1.2992
 3554SOL     OW22123   2.163   3.065   6.336  0.6996 -0.1540 -0.4362
 3554SOL    HW122124   2.108   3.144   6.335 -2.7646 -2.5230 -0.0661
 3554SOL    HW222125   2.103   2.994   6.360 -1.0648  1.1201 -0.9940
 3555SOL     OW22126   2.446   3.778   8.478  0.0786  0.1088 -0.0085
 3555SOL    HW122127   2.426   3.763   8.385 -1.6132 -0.0256  0.3658
 3555SOL    HW222128   2.386   3.851   8.497  0.0649 -0.2935  1.4979
 3556SOL     OW22129   2.873   0.813   3.137  0.5908  0.2515  0.1859
 3556SOL    HW122130   2.903   0.875   3.203  1.4298 -0.8000  0.7902
 3556SOL    HW222131   2.794   0.785   3.183 -0.7387  0.8072 -1.7226
 3557SOL     OW22132   4.133   3.111   9.358  0.1630 -0.0154  0.5119
 3557SOL    HW122133   4.137   3.015   9.361 -1.4537 -0.2068 -2.9194
 3557SOL    HW222134   4.038   3.126   9.354  0.3805  1.3846  0.6297
 3558SOL     OW22135   3.280   1.778  13.200  0.0427  0.0153  0.0214
 3558SOL    HW122136   3.281   1.861  13.247  1.0418  0.0466 -0.0591
 3558SOL    HW222137   3.268   1.704  13.260  0.0540 -0.3307 -0.4031
 3559SOL     OW22138   1.982   3.336   4.994 -0.6530  0.1097  0.4587
 3559SOL    HW122139   1.889   3.351   5.008 -0.9094 -0.3552 -0.8165
 3559SOL    HW222140   2.002   3.256   5.042 -0.2246  1.8332  3.1815
 3560SOL     OW22141   1.022   0.338   1.065 -0.2274  0.2575  0.3102
 3560SOL    HW122142   1.061   0.406   1.119  0.0475 -0.0364  0.4827
 3560SOL    HW222143   1.052   0.257   1.106  1.6823 -0.6961 -2.9509
 3561SOL     OW22144   1.593   2.472  10.355  0.4837 -0.2931  0.7280
 3561SOL    HW122145   1.680   2.503  10.379  0.2720  0.4372  0.5762
 3561SOL    HW222146   1.548   2.489  10.438 -0.6643  0.2356  0.0074
 3562SOL     OW22147   4.651   1.587   9.159 -0.0220 -0.2336  0.6333
 3562SOL    HW122148   4.635   1.672   9.118  0.7455 -0.5082 -0.2219
 3562SOL    HW222149   4.565   1.566   9.195 -0.4780  0.6805  0.0850
 3563SOL     OW22150   1.306   3.506   4.038 -0.3101 -0.0696  0.8448
 3563SOL    HW122151   1.354   3.445   3.981  0.5409  1.5770 -0.1849
 3563SOL    HW222152   1.251   3.536   3.965  1.1224  0.4857 -0.0012
 3564SOL     OW22153   2.138   2.260   5.486  0.0396 -0.1192 -0.1158
 3564SOL    HW122154   2.131   2.181   5.539  0.8383  0.3284  0.6630
 3564SOL    HW222155   2.230   2.278   5.509  0.4667 -0.5564 -1.4958
 3565SOL     OW22156   1.624   0.647   1.642  0.6434 -0.2681 -0.0129
 3565SOL    HW122157   1.574   0.593   1.703 -0.3549 -0.8804 -1.3497
 3565SOL    HW222158   1.708   0.641   1.688  0.9783  3.0933 -0.2220
 3566SOL     OW22159   3.606   3.295   4.191  0.8071  0.8680  0.0717
 3566SOL    HW122160   3.585   3.387   4.201 -4.1854 -0.4259  1.4486
 3566SOL    HW222161   3.521   3.263   4.164  1.4545 -0.9722  0.1676
 3567SOL     OW22162   4.391   0.505  13.001 -0.2156  0.1645  0.0622
 3567SOL    HW122163   4.401   0.587  12.951 -2.3757 -0.3521 -1.2347
 3567SOL    HW222164   4.371   0.543  13.086  2.1093 -0.4507  0.8881
 3568SOL     OW22165   1.031   1.307   9.284  0.2506  0.0544 -0.1140
 3568SOL    HW122166   1.101   1.368   9.309 -0.8494  1.0587  0.5018
 3568SOL    HW222167   1.026   1.252   9.363 -2.1617 -2.1613 -1.8341
 3569SOL     OW22168   0.699   3.881   5.454 -0.0671  0.4041 -0.1163
 3569SOL    HW122169   0.792   3.902   5.441 -0.2887  0.2737 -1.9076
 3569SOL    HW222170   0.658   3.967   5.452  2.0995  1.4434 -0.7451
 3570SOL     OW22171   1.367   4.631  12.352  0.4027  0.0674 -0.1131
 3570SOL    HW122172   1.325   4.645  12.267  0.5182 -2.3054 -0.5632
 3570SOL    HW222173   1.373   4.535  12.347 -0.7003 -0.0002 -0.2660
 3571SOL     OW22174   3.629   2.935   0.593 -0.0948  0.3474  0.0745
 3571SOL    HW122175   3.682   2.876   0.539  0.3449  2.5827 -1.9275
 3571SOL    HW222176   3.660   3.020   0.562 -0.2794  0.4800  0.2606
 3572SOL     OW22177   4.394   2.645  13.295  0.5524  0.4159  0.3100
 3572SOL    HW122178   4.423   2.678  13.210 -1.8158  0.3288 -0.5231
 3572SOL    HW222179   4.408   2.552  13.275  2.3452  1.0024 -1.1392
 3573SOL     OW22180   0.638   2.994   6.002 -0.1323 -0.4059  0.1963
 3573SOL    HW122181   0.719   2.944   5.985 -2.2069 -3.0293 -2.0260
 3573SOL    HW222182   0.604   2.983   5.913 -2.7126  1.7644  0.9468
 3574SOL     OW22183   3.826   0.571   3.254  0.2270 -0.2669  0.1309
 3574SOL    HW122184   3.739   0.538   3.278  0.1783 -2.0661 -2.5134
 3574SOL    HW222185   3.823   0.592   3.160 -0.5963 -3.4075 -0.5455
 3575SOL     OW22186   3.398   0.251   4.184 -0.4376  0.1737  0.3644
 3575SOL    HW122187   3.459   0.307   4.136 -0.1669  1.8931  2.7090
 3575SOL    HW222188   3.382   0.307   4.260 -0.7039 -0.3135  0.6644
 3576SOL     OW22189   3.768   0.350  16.182  0.2949 -0.4755 -0.6719
 3576SOL    HW122190   3.717   0.337  16.262  1.3227 -1.9527 -0.2507
 3576SOL    HW222191   3.819   0.427  16.208 -0.2845 -0.5381  0.6165
 3577SOL     OW22192   1.077   1.246  12.105 -0.2239 -0.0560  0.0085
 3577SOL    HW122193   1.164   1.255  12.144 -0.0579 -0.9889 -0.1525
 3577SOL    HW222194   1.056   1.157  12.130  1.0805 -0.4479 -0.2674
 3578SOL     OW22195   0.510   1.316  15.422  0.3065 -0.4840 -0.6999
 3578SOL    HW122196   0.568   1.242  15.405  2.5597  1.4459 -1.3298
 3578SOL    HW222197   0.527   1.323  15.516 -0.0555 -2.3699 -0.4879
 3579SOL     OW22198   4.061   0.206   4.375  0.2537  0.4812  0.1830
 3579SOL    HW122199   4.058   0.150   4.453 -1.0448 -0.9118 -0.8789
 3579SOL    HW222200   4.093   0.287   4.415  0.4772 -0.6408  2.2983
 3580SOL     OW22201   1.139   0.069  17.283 -0.1590  0.0371  0.0832
 3580SOL    HW122202   1.152   4.718  17.222  4.2804  0.8732  0.0268
 3580SOL    HW222203   1.214   0.076  17.342 -0.2073 -2.6554  0.4498
 3581SOL     OW22204   2.717   0.392   2.307  0.3760 -0.0200 -0.1961
 3581SOL    HW122205   2.637   0.347   2.282  1.3216 -1.5384 -0.4528
 3581SOL    HW222206   2.747   0.364   2.393  1.3614 -1.4977 -1.0161
 3582SOL     OW22207   4.567   0.169   3.722 -0.5185 -0.2151 -0.4299
 3582SOL    HW122208   4.522   0.149   3.805  1.5213  0.5303  0.8620
 3582SOL    HW222209   4.510   0.238   3.689  0.1902  0.1057 -0.9735
 3583SOL     OW22210   0.086   3.853   7.860  0.2149 -0.0990  0.6695
 3583SOL    HW122211   4.716   3.857   7.886  0.0525 -0.3363  0.1313
 3583SOL    HW222212   0.124   3.892   7.939 -2.3835  2.9637  0.3814
 3584SOL     OW22213   0.610   2.081  13.632  0.4663 -0.6011 -0.0502
 3584SOL    HW122214   0.652   2.164  13.610 -2.5720  0.8705 -0.3846
 3584SOL    HW222215   0.519   2.107  13.617 -0.3973 -2.6967  1.4786
 3585SOL     OW22216   0.623   3.301   4.987 -0.2698  0.0222 -0.2296
 3585SOL    HW122217   0.608   3.320   5.079  1.4669 -0.2768  0.1098
 3585SOL    HW222218   0.617   3.391   4.956  1.8815 -0.2038 -1.3238
 3586SOL     OW22219   4.047   3.935   2.883 -0.0280  0.1876 -0.4241
 3586SOL    HW122220   3.988   3.991   2.933 -0.7881 -0.9508 -0.0611
 3586SOL    HW222221   4.112   3.999   2.854  1.2203 -0.8032  0.1841
 3587SOL     OW22222   2.617   3.070   1.923  0.1252  0.2622 -0.8453
 3587SOL    HW122223   2.579   3.077   1.835  0.6920  2.0617 -0.9435
 3587SOL    HW222224   2.544   3.087   1.983  0.2947  1.6158 -1.0219
 3588SOL     OW22225   0.010   1.104   9.450  0.0179 -0.0240 -0.2954
 3588SOL    HW122226   4.698   1.194   9.454 -1.8569 -0.8497  2.2965
 3588SOL    HW222227   4.690   1.069   9.528  0.1949  0.2860 -0.0601
 3589SOL     OW22228   4.109   1.549   8.019 -0.6406  0.1958  0.0360
 3589SOL    HW122229   4.145   1.503   8.095 -0.7466 -1.7306 -1.1035
 3589SOL    HW222230   4.019   1.567   8.048 -1.4332 -1.0022 -1.7697
 3590SOL     OW22231   4.134   1.335   5.816 -0.3812 -0.3123  0.3669
 3590SOL    HW122232   4.111   1.404   5.877  0.2689 -2.2712  2.8498
 3590SOL    HW222233   4.144   1.256   5.871  0.3767 -0.5920 -0.1833
 3591SOL     OW22234   1.370   4.379   5.029 -0.0637 -0.0943 -0.0183
 3591SOL    HW122235   1.340   4.350   5.116 -0.6689 -0.9491 -0.5116
 3591SOL    HW222236   1.283   4.412   5.006  0.3829 -0.3168 -1.9573
 3592SOL     OW22237   4.579   1.643   3.582  0.9582  0.1943 -0.1864
 3592SOL    HW122238   4.583   1.590   3.662 -0.0420 -1.0058 -0.9292
 3592SOL    HW222239   4.508   1.704   3.601  0.4156  0.3290 -2.6302
 3593SOL     OW22240   0.526   4.603   7.221  0.1642  0.1109  0.6768
 3593SOL    HW122241   0.568   4.546   7.286  0.2644  0.3831  0.8527
 3593SOL    HW222242   0.554   4.690   7.250 -0.5574  0.6382 -0.2327
 3594SOL     OW22243   0.127   3.751   4.953 -0.1253  0.3378 -0.7538
 3594SOL    HW122244   0.099   3.662   4.930  1.0385 -0.2662  0.1529
 3594SOL    HW222245   0.195   3.757   4.886  1.8562  0.3561  1.2263
 3595SOL     OW22246   0.376   4.138   4.637 -0.1088  0.0995  0.1534
 3595SOL    HW122247   0.433   4.108   4.565 -1.5014 -0.3565 -0.7651
 3595SOL    HW222248   0.358   4.054   4.679 -0.5416  0.0192 -0.1918
 3596SOL     OW22249   1.408   3.258   2.793 -0.6027 -0.3197  0.0516
 3596SOL    HW122250   1.468   3.191   2.826  0.2079  0.7619  0.7661
 3596SOL    HW222251   1.389   3.227   2.704 -0.3876  0.4005 -0.2496
 3597SOL     OW22252   0.202   4.179  16.201 -0.0883  0.0749 -0.3353
 3597SOL    HW122253   0.162   4.233  16.133 -0.9654 -2.9546 -2.2322
 3597SOL    HW222254   0.244   4.119  16.139 -0.0646 -0.0166 -0.2293
 3598SOL     OW22255   3.061   2.461   0.273 -0.3525  0.0364 -0.0507
 3598SOL    HW122256   2.970   2.434   0.267 -0.2657  0.3729 -2.9304
 3598SOL    HW222257   3.069   2.487   0.365 -0.1484  1.1669 -0.3764
 3599SOL     OW22258   2.184   3.210  13.240 -0.3602  0.1605 -0.9679
 3599SOL    HW122259   2.096   3.175  13.258  0.0604 -0.9278 -1.0547
 3599SOL    HW222260   2.241   3.189  13.314  0.3643  1.7832 -1.0634
 3600SOL     OW22261   2.906   3.576   2.135  0.7817 -0.2847  0.1465
 3600SOL    HW122262   2.860   3.646   2.181  1.2313 -0.8083  1.4045
 3600SOL    HW222263   2.933   3.529   2.214  3.5251 -1.7363 -1.6369
 3601SOL     OW22264   3.115   0.438   2.952  0.0444 -0.0983  0.6829
 3601SOL    HW122265   3.145   0.354   2.988 -1.4137  0.3674  2.9999
 3601SOL    HW222266   3.031   0.452   2.994 -1.1730 -0.4880 -1.6453
 3602SOL     OW22267   3.009   0.512   5.031 -0.0814 -0.1265  0.3486
 3602SOL    HW122268   3.000   0.604   5.004  0.3101 -0.3918 -0.6800
 3602SOL    HW222269   3.051   0.529   5.116  2.8650 -0.7079 -0.9942
 3603SOL     OW22270   1.826   1.118   3.183  0.2414  0.3428  0.1588
 3603SOL    HW122271   1.837   1.031   3.223  1.1894  0.7102  0.6824
 3603SOL    HW222272   1.881   1.100   3.107 -0.8442 -0.1656 -0.5077
 3604SOL     OW22273   3.999   1.347  16.344  0.0443 -0.0049  0.2343
 3604SOL    HW122274   4.025   1.387  16.427  0.0631 -0.1757  0.3106
 3604SOL    HW222275   4.053   1.393  16.280  2.8867 -2.4022  0.9055
 3605SOL     OW22276   4.414   3.233   6.344 -0.0180  0.2931 -0.3399
 3605SOL    HW122277   4.509   3.237   6.332 -0.2170 -0.2442 -2.0213
 3605SOL    HW222278   4.394   3.274   6.260  0.8683  1.8149  0.1859
 3606SOL     OW22279   0.195   3.104  15.337  0.0749 -0.5120  0.2308
 3606SOL    HW122280   0.209   3.009  15.334  1.8264 -0.1808 -1.7514
 3606SOL    HW222281   0.233   3.133  15.254 -0.3629 -1.7406 -0.3994
 3607SOL     OW22282   2.356   2.956   7.884 -0.3275 -0.2039 -0.0479
 3607SOL    HW122283   2.379   3.038   7.838  0.1236 -1.0377 -1.3142
 3607SOL    HW222284   2.273   2.942   7.837  0.8480  0.9433 -2.5010
 3608SOL     OW22285   3.247   4.574  17.057 -0.5544  0.3785 -0.0931
 3608SOL    HW122286   3.197   4.540  16.983 -3.3578  0.1815  1.8585
 3608SOL    HW222287   3.197   4.649  17.088 -0.2697  0.8009 -0.6660
 3609SOL     OW22288   4.079   0.566   7.321  0.0254  0.0981 -0.1633
 3609SOL    HW122289   3.994   0.524   7.331 -1.1588  2.3652 -0.6209
 3609SOL    HW222290   4.050   0.655   7.299 -1.7760 -0.3352  0.4725
 3610SOL     OW22291   3.000   4.441  12.069  0.1678 -0.6204 -0.4161
 3610SOL    HW122292   3.095   4.442  12.064  0.2741 -3.7011  0.8564
 3610SOL    HW222293   2.972   4.524  12.031 -0.1898 -0.0375  1.1144
 3611SOL     OW22294   1.479   3.857   7.544  0.2841  0.1826  0.6679
 3611SOL    HW122295   1.403   3.915   7.536 -0.6604 -1.3235 -1.0805
 3611SOL    HW222296   1.440   3.770   7.551 -0.2486  0.2239 -1.8978
 3612SOL     OW22297   1.979   4.465  16.323  0.1120  0.1499  0.0713
 3612SOL    HW122298   1.979   4.560  16.308  4.4510  0.3445  1.3260
 3612SOL    HW222299   1.985   4.436  16.232 -0.0075 -0.2730  0.1988
 3613SOL     OW22300   3.437   0.492   6.955  0.2027  0.4438  0.2714
 3613SOL    HW122301   3.436   0.582   6.986 -2.1262  0.6255 -0.3644
 3613SOL    HW222302   3.401   0.499   6.866 -0.8395 -2.2093  0.4849
 3614SOL     OW22303   1.993   3.276   0.486 -0.1445  0.3513 -0.1772
 3614SOL    HW122304   1.906   3.315   0.469 -0.6899 -1.2672 -1.0086
 3614SOL    HW222305   1.979   3.188   0.453  0.3588 -0.0901  0.7974
 3615SOL     OW22306   1.948   2.885   1.636 -0.2087  0.3971  0.9577
 3615SOL    HW122307   2.038   2.914   1.654 -0.3513  1.3010  0.2190
 3615SOL    HW222308   1.968   2.801   1.595 -2.8561  0.8171 -1.1459
 3616SOL     OW22309   4.694   2.370   3.766  0.0399  0.0696  0.0027
 3616SOL    HW122310   4.609   2.410   3.780 -0.8082 -1.1142 -1.7985
 3616SOL    HW222311   4.675   2.324   3.684 -2.7489  0.5509  0.3934
 3617SOL     OW22312   3.121   2.135  10.302 -0.5344 -0.5255  0.3223
 3617SOL    HW122313   3.209   2.118  10.269 -0.3813 -0.8211  0.8779
 3617SOL    HW222314   3.141   2.211  10.357 -1.0720  0.9379 -1.4886
 3618SOL     OW22315   1.741   2.621   8.332 -0.0757  0.7138 -0.1315
 3618SOL    HW122316   1.785   2.696   8.292  0.5929  0.8612  0.8570
 3618SOL    HW222317   1.808   2.603   8.398  1.1108 -1.1008 -1.8612
 3619SOL     OW22318   3.084   4.634  13.877 -0.0005  0.4208 -0.1841
 3619SOL    HW122319   3.162   4.579  13.879 -0.9093 -0.7741  1.7451
 3619SOL    HW222320   3.041   4.609  13.959 -0.5274 -0.3108 -0.6804
 3620SOL     OW22321   2.363   0.974  11.507  0.2478  0.0276 -0.6129
 3620SOL    HW122322   2.411   0.905  11.551  0.8601  1.8499  1.5859
 3620SOL    HW222323   2.306   0.927  11.446 -2.3251  0.3310  1.5128
 3621SOL     OW22324   1.131   1.044   9.346  0.0789 -0.0318 -0.5234
 3621SOL    HW122325   1.060   0.989   9.380 -0.2009  0.7038  0.0633
 3621SOL    HW222326   1.145   1.004   9.260  2.2060 -1.3187  0.3962
 3622SOL     OW22327   4.585   2.866  13.660 -0.4375 -0.4256  0.6717
 3622SOL    HW122328   4.641   2.943  13.654 -1.4786  0.1784 -1.1570
 3622SOL    HW222329   4.516   2.892  13.599  0.8395 -1.4312 -1.2084
 3623SOL     OW22330   3.990   0.827   0.854  0.1512 -0.2123  0.0708
 3623SOL    HW122331   4.073   0.783   0.835  0.3248 -0.4072  1.3168
 3623SOL    HW222332   3.988   0.812   0.948 -0.7357  0.3543  0.1381
 3624SOL     OW22333   1.660   4.100  10.092 -0.0648  0.2287 -0.5739
 3624SOL    HW122334   1.662   4.022  10.035 -0.1999  0.8433 -1.4166
 3624SOL    HW222335   1.571   4.088  10.124  0.2344 -2.4597 -0.6822
 3625SOL     OW22336   1.168   3.023   2.764 -0.4703  0.3545 -0.1417
 3625SOL    HW122337   1.082   3.057   2.789 -1.0449 -0.1309 -1.4541
 3625SOL    HW222338   1.186   3.003   2.856 -1.1915  0.0473 -0.0610
 3626SOL     OW22339   2.775   0.084   2.108  0.4736  0.6388 -0.4465
 3626SOL    HW122340   2.717   0.034   2.050 -1.2991  2.8479 -0.5941
 3626SOL    HW222341   2.747   0.044   2.191  0.9077  0.8487 -0.2042
 3627SOL     OW22342   0.733   0.612   2.493 -0.6464 -0.4546 -0.2149
 3627SOL    HW122343   0.806   0.598   2.433 -1.3055 -0.2107 -1.0728
 3627SOL    HW222344   0.783   0.655   2.562 -0.8461  0.4044 -0.6154
 3628SOL     OW22345   2.719   1.340   6.123 -0.1008 -0.2199  0.2597
 3628SOL    HW122346   2.634   1.343   6.165 -0.1256 -0.9696  0.2773
 3628SOL    HW222347   2.711   1.308   6.032 -0.4600  1.1353 -0.1738
 3629SOL     OW22348   1.932   1.452   7.681 -0.2239 -0.6497 -0.3503
 3629SOL    HW122349   2.015   1.449   7.633 -0.3237 -0.1527 -0.5486
 3629SOL    HW222350   1.943   1.531   7.734 -1.5059 -0.6607 -0.0489
 3630SOL     OW22351   3.303   3.078  11.070  0.4237 -0.1104 -0.0662
 3630SOL    HW122352   3.362   3.113  11.137  0.0143  0.8165 -0.1998
 3630SOL    HW222353   3.365   3.052  11.002  0.6622 -1.6334  0.7292
 3631SOL     OW22354   3.088   1.308   2.112  0.0311  0.7308  0.2517
 3631SOL    HW122355   3.183   1.308   2.102 -0.2095 -2.3915 -1.9197
 3631SOL    HW222356   3.064   1.243   2.046  0.9842 -1.9307  2.4986
 3632SOL     OW22357   4.580   2.414   7.608 -0.8951 -0.0532  0.1034
 3632SOL    HW122358   4.606   2.470   7.681 -1.4163  2.3374 -1.5437
 3632SOL    HW222359   4.662   2.377   7.573 -0.2132  1.8356 -0.3274
 3633SOL     OW22360   4.066   2.307   9.568  0.0104 -0.2558 -0.0409
 3633SOL    HW122361   4.136   2.298   9.504  1.4191 -0.7937  1.5682
 3633SOL    HW222362   4.094   2.387   9.612 -1.2093  0.3869 -0.4442
 3634SOL     OW22363   3.317   0.005   4.323 -0.3191 -0.0835 -0.3757
 3634SOL    HW122364   3.338   0.092   4.291 -2.6077  1.1709  1.4887
 3634SOL    HW222365   3.405   4.697   4.342 -0.6241 -1.6638 -1.4519
 3635SOL     OW22366   0.913   1.662   2.400  0.1806  0.1641 -0.4808
 3635SOL    HW122367   0.825   1.634   2.372  0.2272  1.1141 -1.5716
 3635SOL    HW222368   0.914   1.747   2.357 -0.6632  0.1440 -0.5504
 3636SOL     OW22369   2.508   1.923   8.293 -0.5671 -0.0733  0.3479
 3636SOL    HW122370   2.425   1.971   8.291 -0.9368 -0.6897  0.6107
 3636SOL    HW222371   2.500   1.879   8.209  3.0179  0.6276 -0.3590
 3637SOL     OW22372   2.125   4.360   5.981  0.1869  0.3484 -0.4478
 3637SOL    HW122373   2.097   4.439   6.028  1.3096  0.7868 -0.5111
 3637SOL    HW222374   2.060   4.362   5.911  0.3883  3.1884 -0.5723
 3638SOL     OW22375   0.182   0.613   7.669  0.1299 -0.3399 -0.2508
 3638SOL    HW122376   0.137   0.689   7.632 -0.9480  0.7561  3.3424
 3638SOL    HW222377   0.148   0.546   7.610 -2.0930 -0.0193  0.6541
 3639SOL     OW22378   0.905   3.010  14.338  0.6988 -0.2274 -0.3456
 3639SOL    HW122379   0.906   3.070  14.412  2.2264  0.1445 -0.6725
 3639SOL    HW222380   0.851   3.057  14.275 -0.6754 -0.9493  0.2994
 3640SOL     OW22381   3.052   2.139   7.619 -0.2597 -0.4550 -0.1559
 3640SOL    HW122382   3.085   2.230   7.621  0.1807 -0.5768 -1.5394
 3640SOL    HW222383   3.034   2.127   7.526 -1.1569  1.9183 -0.2902
 3641SOL     OW22384   2.544   4.058   8.857 -0.0182 -0.4948 -0.0326
 3641SOL    HW122385   2.505   4.103   8.932  0.8000  1.4474 -0.7832
 3641SOL    HW222386   2.614   4.012   8.905 -0.5294 -0.3484  0.8594
 3642SOL     OW22387   1.884   0.790  17.372  0.7256 -0.1542  0.5453
 3642SOL    HW122388   1.975   0.812  17.352  1.0590 -2.1591 -0.1342
 3642SOL    HW222389   1.887   0.699  17.341 -1.4231 -0.2896  0.7617
 3643SOL     OW22390   4.360   0.241   3.467 -0.0845  0.3890  0.1259
 3643SOL    HW122391   4.350   0.150   3.438  0.7815  0.5836 -0.7880
 3643SOL    HW222392   4.288   0.256   3.528 -0.9366 -2.2313 -0.2097
 3644SOL     OW22393   4.024   4.258  14.855 -0.2966 -0.3155  0.0909
 3644SOL    HW122394   4.020   4.172  14.897  1.7304 -0.5098 -0.0764
 3644SOL    HW222395   4.085   4.244  14.782 -0.4657 -2.1585  0.3045
 3645SOL     OW22396   2.552   1.680   4.915  0.1114 -0.1527 -0.1166
 3645SOL    HW122397   2.498   1.626   4.857 -0.6155  0.7524 -0.2923
 3645SOL    HW222398   2.630   1.627   4.930  0.4967  0.5602  0.4212
 3646SOL     OW22399   2.146   0.098   6.595  0.2316  0.3046  0.4315
 3646SOL    HW122400   2.081   0.039   6.633  1.7411 -1.4613  0.3079
 3646SOL    HW222401   2.213   0.043   6.553  1.2528  1.2545  0.8253
 3647SOL     OW22402   0.188   2.353   9.220  0.7504  0.2188  0.2872
 3647SOL    HW122403   0.098   2.358   9.189  1.4515  1.5965 -1.5018
 3647SOL    HW222404   0.176   2.383   9.310  1.3234 -0.4052  0.5722
 3648SOL     OW22405   2.352   2.124   2.726 -0.3242 -0.1361  0.6124
 3648SOL    HW122406   2.283   2.184   2.753  0.2900  1.4816 -1.4011
 3648SOL    HW222407   2.434   2.173   2.737  0.7539 -1.8305  0.1797
 3649SOL     OW22408   2.125   4.284   3.967  0.5161  0.5132  0.3331
 3649SOL    HW122409   2.146   4.345   3.897  1.0397 -0.3881 -0.3051
 3649SOL    HW222410   2.198   4.224   3.948 -0.7078 -0.2977 -1.8521
 3650SOL     OW22411   4.701   2.995   5.853  0.0466  0.0814  0.4421
 3650SOL    HW122412   0.041   2.922   5.862 -0.0725 -0.0339  0.3202
 3650SOL    HW222413   4.646   2.970   5.779  1.7639  0.0617 -0.8207
 3651SOL     OW22414   3.354   1.293   2.677  0.2411 -0.0944  0.3724
 3651SOL    HW122415   3.364   1.234   2.752 -2.7249 -0.9738  0.0566
 3651SOL    HW222416   3.445   1.291   2.647 -0.4532 -0.4779 -1.6894
 3652SOL     OW22417   2.114   4.374   2.805  0.3236 -0.6601  0.2597
 3652SOL    HW122418   2.139   4.467   2.799 -1.7298 -0.1775 -0.7380
 3652SOL    HW222419   2.185   4.341   2.860  0.6175 -2.1572 -1.0446
 3653SOL     OW22420   2.826   2.116   9.632  0.0709 -0.2713 -0.3266
 3653SOL    HW122421   2.830   2.130   9.727 -1.6434 -3.1699  0.1506
 3653SOL    HW222422   2.739   2.150   9.614 -0.3916 -0.8648  0.7630
 3654SOL     OW22423   2.623   2.381   5.530 -0.0196  0.5178 -0.0014
 3654SOL    HW122424   2.719   2.381   5.527 -0.1086  0.4787 -2.4273
 3654SOL    HW222425   2.619   2.311   5.466  2.1828  0.2091  0.1993
 3655SOL     OW22426   4.555   2.485   4.919  0.1552  0.0392 -0.0693
 3655SOL    HW122427   4.584   2.482   4.828 -1.6319 -0.1287 -0.6394
 3655SOL    HW222428   4.556   2.395   4.952  0.5768 -0.7611 -2.2121
 3656SOL     OW22429   0.476   2.259   9.511  0.0280  0.5853 -0.0348
 3656SOL    HW122430   0.469   2.354   9.510 -2.5947  0.4058  1.2625
 3656SOL    HW222431   0.475   2.252   9.606 -0.0075 -0.6285 -0.1274
 3657SOL     OW22432   2.325   4.413   8.586 -0.2692  0.1538  0.4089
 3657SOL    HW122433   2.268   4.481   8.620  0.8652  1.6741 -0.7344
 3657SOL    HW222434   2.256   4.347   8.595 -0.0104  0.1193  2.1530
 3658SOL     OW22435   4.359   2.587   4.637  0.2279  0.1666 -0.2089
 3658SOL    HW122436   4.302   2.597   4.712  0.2661 -0.5537 -0.0864
 3658SOL    HW222437   4.429   2.648   4.661 -0.2329 -0.2530  2.1087
 3659SOL     OW22438   2.793   0.484  11.206 -0.2460 -0.1661  0.1486
 3659SOL    HW122439   2.708   0.445  11.183 -0.8045 -0.2563  2.4126
 3659SOL    HW222440   2.840   0.430  11.142  0.6441  1.6153 -0.6861
 3660SOL     OW22441   2.605   2.608  17.415  0.8072 -0.1058 -0.2257
 3660SOL    HW122442   2.634   2.686  17.462 -0.6126  0.2533  0.0516
 3660SOL    HW222443   2.603   2.640  17.325  2.6443 -0.0155 -0.2281
 3661SOL     OW22444   1.467   0.635   7.527 -0.3386 -0.4382  0.2810
 3661SOL    HW122445   1.557   0.605   7.525 -0.2136  0.0204 -1.9627
 3661SOL    HW222446   1.421   0.586   7.595 -3.6017  3.6523  1.0328
 3662SOL     OW22447   0.937   0.859   8.730 -0.2123 -0.5907  0.0277
 3662SOL    HW122448   1.021   0.883   8.769 -0.2315  0.6662 -0.7057
 3662SOL    HW222449   0.912   0.796   8.798  0.6447 -2.1708 -1.1268
 3663SOL     OW22450   1.793   4.370   0.622  0.0774  0.1115 -0.4878
 3663SOL    HW122451   1.844   4.447   0.594 -1.2705  1.5859  1.0804
 3663SOL    HW222452   1.804   4.315   0.545  0.4990  1.8846 -1.7073
 3664SOL     OW22453   0.320   4.247   6.510 -0.2251  0.3625  0.1745
 3664SOL    HW122454   0.363   4.174   6.466 -1.1350  0.9598 -1.6758
 3664SOL    HW222455   0.302   4.316   6.447  1.3761 -0.4679 -1.1918
 3665SOL     OW22456   1.465   0.007  10.809  0.0792 -0.0511 -0.2634
 3665SOL    HW122457   1.539   4.679  10.775  0.8278  0.4109  0.6940
 3665SOL    HW222458   1.448   0.055  10.728 -1.4550 -0.7966 -0.3787
 3666SOL     OW22459   3.823   3.240   4.358 -0.0894 -0.5204 -0.1554
 3666SOL    HW122460   3.740   3.272   4.322  1.4156  0.1182 -3.0866
 3666SOL    HW222461   3.801   3.153   4.392 -1.1046 -0.2613 -0.1526
 3667SOL     OW22462   1.969   3.794  13.205 -0.5386 -0.3877 -0.5288
 3667SOL    HW122463   1.874   3.811  13.206 -0.4323  0.3157 -1.6787
 3667SOL    HW222464   1.996   3.780  13.295 -0.9477 -0.5892 -0.4383
 3668SOL     OW22465   2.945   4.692   7.272 -0.4311 -0.4143 -0.4200
 3668SOL    HW122466   2.958   4.615   7.327 -0.6957 -0.6135 -0.6350
 3668SOL    HW222467   3.026   4.683   7.222  0.3940  0.3569  0.7707
 3669SOL     OW22468   0.910   2.355   7.704  0.3851 -0.6487 -0.1938
 3669SOL    HW122469   0.870   2.431   7.748  0.3255 -1.5765  1.3568
 3669SOL    HW222470   0.934   2.305   7.782  0.7443 -0.1108  0.0453
 3670SOL     OW22471   2.629   3.100   5.300 -0.0920 -0.2873 -0.2422
 3670SOL    HW122472   2.669   3.029   5.250  1.0361 -0.0567  0.3237
 3670SOL    HW222473   2.714   3.144   5.308 -0.1065 -0.3694  0.3673
 3671SOL     OW22474   2.056   1.455   3.333 -0.0503  1.1343  0.4902
 3671SOL    HW122475   2.107   1.381   3.300  0.5396  1.6423  0.2663
 3671SOL    HW222476   2.102   1.473   3.415  0.5983  0.5001  0.2660
 3672SOL     OW22477   3.653   0.835  10.056 -0.1036  0.4434 -0.0454
 3672SOL    HW122478   3.711   0.759  10.056  0.1656  0.6480 -0.6986
 3672SOL    HW222479   3.566   0.808  10.084  0.2407 -0.5713  0.0302
 3673SOL     OW22480   3.833   3.999  17.102 -0.2968 -0.4909 -0.6290
 3673SOL    HW122481   3.913   3.946  17.110 -0.9097 -1.1461  1.2235
 3673SOL    HW222482   3.773   3.935  17.065 -1.6153 -0.6969  1.8479
 3674SOL     OW22483   2.977   2.297   3.530  0.1072  0.5735 -0.5408
 3674SOL    HW122484   3.056   2.260   3.571  0.9574  1.1374 -1.6655
 3674SOL    HW222485   3.002   2.327   3.443  1.0171  0.9582 -0.1401
 3675SOL     OW22486   2.873   4.280   8.103  0.3243  0.1024 -0.1531
 3675SOL    HW122487   2.830   4.341   8.043  0.9422 -1.2232 -1.9408
 3675SOL    HW222488   2.812   4.206   8.101  0.3598  0.1127 -2.0439
 3676SOL     OW22489   1.680   4.700   4.074 -0.5028  0.4356  0.1706
 3676SOL    HW122490   1.743   4.644   4.120 -0.9331 -0.8458 -0.7983
 3676SOL    HW222491   1.704   4.687   3.982  0.5167 -0.4134  0.5586
 3677SOL     OW22492   0.161   3.894   4.667 -0.2702 -0.2832  0.3987
 3677SOL    HW122493   0.124   3.812   4.634  0.9178 -0.1984 -1.1405
 3677SOL    HW222494   0.249   3.856   4.672  0.2028  1.0481  1.9204
 3678SOL     OW22495   1.248   2.109   8.913  0.4261 -0.4745  0.3684
 3678SOL    HW122496   1.316   2.042   8.910  0.4739 -0.3806 -0.6273
 3678SOL    HW222497   1.189   2.062   8.972 -1.1524  0.3350 -0.5737
 3679SOL     OW22498   2.784   2.957   1.166  0.6600  0.4437 -0.2914
 3679SOL    HW122499   2.868   2.924   1.134 -0.3079 -1.5246 -0.7901
 3679SOL    HW222500   2.766   3.025   1.102 -2.2665 -1.1566 -1.1223
 3680SOL     OW22501   0.506   0.394   5.130 -0.0618  0.4032 -0.4333
 3680SOL    HW122502   0.548   0.308   5.117  0.7232  0.4891  1.3889
 3680SOL    HW222503   0.518   0.416   5.223 -3.3727 -1.1703  0.3699
 3681SOL     OW22504   1.097   1.159   8.030 -0.4866  0.6446  0.2545
 3681SOL    HW122505   1.119   1.183   7.941  0.5591  1.1968  0.6690
 3681SOL    HW222506   1.015   1.206   8.045 -0.5345  0.8696 -0.7378
 3682SOL     OW22507   0.128   4.407  17.127 -0.0549 -0.7358 -0.0606
 3682SOL    HW122508   0.156   4.346  17.196 -2.5230  0.0140  1.6217
 3682SOL    HW222509   0.190   4.479  17.142  0.0491 -0.6603 -0.8955
 3683SOL     OW22510   0.217   0.956   8.187  0.2160 -0.5599  0.1541
 3683SOL    HW122511   0.265   1.036   8.165 -1.5538  0.0808 -1.3534
 3683SOL    HW222512   0.285   0.895   8.159 -1.8653 -3.3856  1.1931
 3684SOL     OW22513   1.817   2.176   2.590 -0.3880  0.1800  0.2722
 3684SOL    HW122514   1.862   2.207   2.511 -2.1634  1.4434 -0.2365
 3684SOL    HW222515   1.867   2.219   2.659  0.8075 -1.2152  0.2862
 3685SOL     OW22516   4.548   3.936  12.687  0.7378 -0.0290  0.3729
 3685SOL    HW122517   4.532   4.030  12.697  0.4561  0.0312 -0.7464
 3685SOL    HW222518   4.490   3.901  12.755 -0.5909  2.0435  0.2984
 3686SOL     OW22519   2.380   1.396   8.237 -0.2179 -0.3695  0.4222
 3686SOL    HW122520   2.414   1.308   8.247 -0.3745 -0.3946  0.7371
 3686SOL    HW222521   2.334   1.396   8.321 -4.0437 -1.9682 -1.6965
 3687SOL     OW22522   1.620   3.673   3.809 -0.3996  0.0935  0.6515
 3687SOL    HW122523   1.663   3.606   3.863  1.1154  1.2242  0.8675
 3687SOL    HW222524   1.682   3.667   3.736  0.6802  1.0264  1.4720
 3688SOL     OW22525   1.759   0.657   7.104  0.0918 -0.2295  0.4010
 3688SOL    HW122526   1.776   0.744   7.068 -2.2148  0.3692  0.7230
 3688SOL    HW222527   1.844   0.622   7.130 -0.1643  0.5138  2.2098
 3689SOL     OW22528   0.474   4.705   6.840  0.0094 -0.3317 -0.3401
 3689SOL    HW122529   0.540   0.052   6.855 -2.5263  1.4247  2.8476
 3689SOL    HW222530   0.411   4.720   6.911 -2.3362 -1.3041 -2.2349
 3690SOL     OW22531   1.282   1.190   2.471 -0.3908 -0.2989 -0.6964
 3690SOL    HW122532   1.248   1.198   2.382 -0.2687 -0.9923 -0.8109
 3690SOL    HW222533   1.246   1.105   2.497 -0.2082 -0.8151 -2.1188
 3691SOL     OW22534   3.275   2.644   4.162 -0.3280 -0.3333 -0.1868
 3691SOL    HW122535   3.338   2.642   4.090 -2.4541 -0.3136 -2.0609
 3691SOL    HW222536   3.240   2.555   4.150 -0.6139 -0.2280 -0.1322
 3692SOL     OW22537   0.792   0.766   6.712  0.5431 -0.3370  0.2661
 3692SOL    HW122538   0.805   0.816   6.793  1.9091  0.4266 -0.4114
 3692SOL    HW222539   0.871   0.795   6.666 -1.2863  1.3572 -1.8420
 3693SOL     OW22540   2.984   2.420   9.321 -0.3447  0.3544  0.1298
 3693SOL    HW122541   2.912   2.481   9.307 -0.6527 -0.5125 -2.0411
 3693SOL    HW222542   2.977   2.358   9.249 -1.0187  0.6304 -0.0452
 3694SOL     OW22543   1.006   3.784   2.670 -0.0488 -0.6302 -0.8033
 3694SOL    HW122544   0.950   3.844   2.621  2.8428  0.4783 -2.7733
 3694SOL    HW222545   1.092   3.825   2.661 -0.4485  0.0437 -1.5191
 3695SOL     OW22546   0.258   2.320   3.050  0.3634 -0.5669 -0.4079
 3695SOL    HW122547   0.252   2.227   3.071 -1.0872 -1.2464 -3.8828
 3695SOL    HW222548   0.337   2.319   2.996  0.9420  0.2670  0.4239
 3696SOL     OW22549   3.610   2.243   6.305 -0.0841 -0.1269  0.2456
 3696SOL    HW122550   3.636   2.151   6.307 -0.4518 -0.2567 -0.7744
 3696SOL    HW222551   3.594   2.263   6.397 -0.4531 -1.0813  0.3923
 3697SOL     OW22552   3.696   1.258   5.981 -0.5765  0.5185  0.0820
 3697SOL    HW122553   3.746   1.273   6.061 -2.0614 -0.7700  1.2534
 3697SOL    HW222554   3.690   1.341   5.934 -3.1780 -0.7996 -1.8874
 3698SOL     OW22555   2.530   2.533  10.317  0.1550  0.1645 -1.0742
 3698SOL    HW122556   2.492   2.591  10.384  0.9284  0.8833 -1.2665
 3698SOL    HW222557   2.467   2.555  10.248 -2.1468  0.1989  1.0233
 3699SOL     OW22558   1.500   4.285  10.685  0.0007  0.0480 -0.9336
 3699SOL    HW122559   1.513   4.194  10.712  3.0284  1.6450  2.9482
 3699SOL    HW222560   1.586   4.292  10.644  0.0066 -0.4082 -1.0061
 3700SOL     OW22561   2.105   4.577   8.678  0.8546 -0.1022  0.6155
 3700SOL    HW122562   2.094   4.672   8.674  3.5993  0.2496  1.2462
 3700SOL    HW222563   2.095   4.562   8.772  0.7152  3.8394  1.2099
 3701SOL     OW22564   0.363   0.315  11.480 -0.3270 -0.7342 -0.3056
 3701SOL    HW122565   0.285   0.322  11.426  1.2967 -3.2365 -3.0040
 3701SOL    HW222566   0.400   0.403  11.485 -1.9821  0.0548 -1.9557
 3702SOL     OW22567   2.953   2.061  14.623  0.3821 -0.0615 -0.3666
 3702SOL    HW122568   2.936   2.102  14.539 -0.4569 -1.3667 -0.8264
 3702SOL    HW222569   2.864   2.030  14.639  1.3487 -1.6123  2.1868
 3703SOL     OW22570   3.285   2.833   1.002  0.1728  0.4612  0.2340
 3703SOL    HW122571   3.373   2.853   1.034  0.3251 -0.5908  0.4667
 3703SOL    HW222572   3.310   2.747   0.971 -3.1892 -0.0204 -1.1637
 3704SOL     OW22573   3.375   2.385   9.691 -0.0195  0.3496 -0.2308
 3704SOL    HW122574   3.298   2.352   9.646  1.1209 -0.1142 -1.8643
 3704SOL    HW222575   3.412   2.308   9.735 -3.0729 -0.6923  0.4491
 3705SOL     OW22576   3.346   2.550   1.020 -0.3369 -0.1604  0.6433
 3705SOL    HW122577   3.375   2.474   0.970  0.6143  1.1929 -0.8477
 3705SOL    HW222578   3.428   2.574   1.063  0.0155 -2.6326  1.3422
 3706SOL     OW22579   1.264   1.058   4.971 -0.5606  0.0506 -0.5329
 3706SOL    HW122580   1.234   1.146   4.993  1.7057  0.5822  0.4151
 3706SOL    HW222581   1.288   1.027   5.058  0.3734  0.4430 -0.6543
 3707SOL     OW22582   0.688   2.672   2.594  0.2752  1.0167  0.5592
 3707SOL    HW122583   0.727   2.584   2.594  3.7183  2.5761 -0.5274
 3707SOL    HW222584   0.704   2.700   2.504  0.8800  0.0030  0.3464
 3708SOL     OW22585   1.328   2.102   5.151 -0.2076 -0.1209 -0.0270
 3708SOL    HW122586   1.305   2.049   5.227 -1.1850  0.0277 -0.2251
 3708SOL    HW222587   1.266   2.174   5.160  0.7181  0.7860 -0.8810
 3709SOL     OW22588   0.823   0.008   7.420 -0.2771 -0.3187  1.0725
 3709SOL    HW122589   0.734   4.693   7.422  0.2833 -1.6851  1.2076
 3709SOL    HW222590   0.818   0.092   7.466 -2.2421 -0.1268  0.4990
 3710SOL     OW22591   2.619   0.231  12.632 -0.2146 -0.0526 -0.4973
 3710SOL    HW122592   2.575   0.174  12.568 -1.5143 -2.8027  2.8219
 3710SOL    HW222593   2.689   0.266  12.576  0.0133  0.4126  0.0846
 3711SOL     OW22594   4.134   1.086   5.916 -0.0393  0.2245  0.3677
 3711SOL    HW122595   4.093   1.099   6.001  1.1189 -0.3419  1.0201
 3711SOL    HW222596   4.187   1.009   5.939 -0.8957  0.0795  1.8276
 3712SOL     OW22597   1.831   2.013   5.825  0.3389  0.0764 -0.4659
 3712SOL    HW122598   1.787   1.931   5.807 -0.1051  0.3177 -0.4803
 3712SOL    HW222599   1.803   2.049   5.741 -0.9537 -0.7557 -0.3848
 3713SOL     OW22600   0.518   2.272  10.685 -0.2421 -0.2456  0.6006
 3713SOL    HW122601   0.443   2.326  10.710 -1.3104 -0.8831 -1.2295
 3713SOL    HW222602   0.489   2.181  10.691 -0.0764 -0.5952 -3.7215
 3714SOL     OW22603   2.045   0.810   4.600 -0.1430 -0.2921 -0.1703
 3714SOL    HW122604   1.959   0.853   4.598  0.9354  1.8439 -0.3147
 3714SOL    HW222605   2.021   0.729   4.645  0.1730 -0.9425 -1.1921
 3715SOL     OW22606   0.093   0.215  14.293  0.2100  0.5232  0.6456
 3715SOL    HW122607   0.143   0.248  14.368  1.4243  0.6106 -0.2015
 3715SOL    HW222608   0.006   0.230  14.329  0.2885  0.8927  0.6815
 3716SOL     OW22609   0.330   2.562   2.475 -0.2168  0.3936  0.1301
 3716SOL    HW122610   0.325   2.479   2.427 -0.1788  0.3353  0.2262
 3716SOL    HW222611   0.379   2.545   2.555  2.0897 -0.3350 -1.4396
 3717SOL     OW22612   3.942   3.772  16.702  0.1971 -0.1702  0.2578
 3717SOL    HW122613   3.982   3.840  16.648 -0.8114  0.8274  0.7764
 3717SOL    HW222614   4.021   3.719  16.717  0.8801  0.6496 -0.4588
 3718SOL     OW22615   3.116   0.801  11.237  0.2808 -0.5489  0.0495
 3718SOL    HW122616   3.151   0.781  11.324  0.2968 -1.5114 -0.1751
 3718SOL    HW222617   3.088   0.890  11.256 -1.0504 -1.1738  1.0660
 3719SOL     OW22618   0.366   3.694   9.895 -0.2326 -0.2128  0.0270
 3719SOL    HW122619   0.384   3.774   9.945 -0.7481 -0.1553  0.1180
 3719SOL    HW222620   0.431   3.625   9.906 -1.3216 -1.4321 -1.2822
 3720SOL     OW22621   1.908   3.827   5.200 -0.1407  0.3609  0.7626
 3720SOL    HW122622   1.893   3.733   5.201  0.2865  0.2787 -0.4905
 3720SOL    HW222623   1.853   3.861   5.269 -0.9942  0.3060  0.1071
 3721SOL     OW22624   2.587   3.315  14.577 -0.1166 -0.0486  0.5554
 3721SOL    HW122625   2.616   3.380  14.513 -2.3918  0.8066  0.3951
 3721SOL    HW222626   2.511   3.270  14.540 -0.2943  2.3079 -1.9230
 3722SOL     OW22627   1.659   4.710   4.765 -0.0711 -0.0739 -0.3828
 3722SOL    HW122628   1.695   0.067   4.805 -0.5554  0.2045 -0.4992
 3722SOL    HW222629   1.742   4.664   4.748 -0.0183 -0.5146  1.0814
 3723SOL     OW22630   0.925   1.655  12.055  0.7459  0.2598 -0.7821
 3723SOL    HW122631   0.931   1.751  12.060 -0.9501  0.1790  2.6621
 3723SOL    HW222632   1.016   1.633  12.033  1.3987  2.1967 -0.0542
 3724SOL     OW22633   1.883   2.536   8.759 -0.2038 -0.0618  0.0281
 3724SOL    HW122634   1.870   2.442   8.773 -1.2821  0.0053 -0.5307
 3724SOL    HW222635   1.951   2.556   8.824  1.2416 -2.6323 -0.6880
 3725SOL     OW22636   2.411   0.687   7.300 -0.1823 -0.3250 -0.2969
 3725SOL    HW122637   2.435   0.659   7.388  1.9422  3.0210  0.1881
 3725SOL    HW222638   2.331   0.735   7.320  2.2713  3.1440  1.1954
 3726SOL     OW22639   0.381   2.235   1.122  0.4481  0.4329 -0.4434
 3726SOL    HW122640   0.290   2.263   1.126 -0.0627 -1.3162  0.2060
 3726SOL    HW222641   0.407   2.274   1.038  1.6571  0.1649 -0.2004
 3727SOL     OW22642   0.785   1.610   8.856  0.4194 -0.5905 -0.3857
 3727SOL    HW122643   0.777   1.514   8.853 -0.1404 -0.5415 -0.4617
 3727SOL    HW222644   0.837   1.617   8.935  0.7693  0.4211 -0.7074
 3728SOL     OW22645   4.609   3.956   5.126 -0.1460 -0.2404  0.3445
 3728SOL    HW122646   4.640   4.012   5.197 -0.2007  0.1117  0.0953
 3728SOL    HW222647   4.516   3.981   5.123  0.4584  1.9089 -0.6144
 3729SOL     OW22648   4.330   4.000   8.202 -0.6696 -0.3679  0.2115
 3729SOL    HW122649   4.406   3.984   8.259 -1.6940 -0.1798  1.6416
 3729SOL    HW222650   4.282   4.053   8.265  0.6694  0.6502  0.3766
 3730SOL     OW22651   4.347   4.035   5.068 -0.1472  0.6105 -0.8567
 3730SOL    HW122652   4.307   3.980   5.136 -2.1427  0.3376 -2.2546
 3730SOL    HW222653   4.280   4.029   5.000  1.9094  2.1946 -2.9963
 3731SOL     OW22654   4.241   1.124   3.016  0.3029  0.0150 -0.3319
 3731SOL    HW122655   4.228   1.218   3.003  2.3862  0.3227 -0.1401
 3731SOL    HW222656   4.327   1.114   2.974 -0.4925 -0.7642 -1.8190
 3732SOL     OW22657   2.702   4.420   3.312 -0.2606  0.7594 -0.0401
 3732SOL    HW122658   2.789   4.445   3.280  0.4948 -0.7256  0.8644
 3732SOL    HW222659   2.721   4.408   3.405 -0.6774  1.2298  0.1067
 3733SOL     OW22660   2.912   1.881   9.269 -0.2693 -0.1251  0.4922
 3733SOL    HW122661   2.911   1.866   9.364  0.4147  1.5015  0.7658
 3733SOL    HW222662   2.855   1.958   9.268  1.2291  1.0055  1.3668
 3734SOL     OW22663   0.902   1.883   6.388  0.4267 -0.5758 -0.5974
 3734SOL    HW122664   0.909   1.791   6.364 -0.5815 -0.7973 -0.0006
 3734SOL    HW222665   0.960   1.918   6.320  1.5711 -0.0796  0.6475
 3735SOL     OW22666   0.196   2.763   9.994  0.0407 -0.2201  0.0180
 3735SOL    HW122667   0.155   2.737  10.076  0.9794 -0.0975  0.5335
 3735SOL    HW222668   0.241   2.841  10.025 -0.0902 -0.2748  0.3396
 3736SOL     OW22669   2.132   2.704   4.800 -0.3513 -0.1786 -0.5115
 3736SOL    HW122670   2.200   2.671   4.741  2.2589  0.5584  2.0889
 3736SOL    HW222671   2.053   2.667   4.761  0.5818 -1.8483 -0.8010
 3737SOL     OW22672   3.757   0.195   4.119 -0.3033  0.1327  0.5885
 3737SOL    HW122673   3.730   0.275   4.164  2.1681  2.1969 -1.5857
 3737SOL    HW222674   3.837   0.220   4.072  0.0821 -1.6955  0.2832
 3738SOL     OW22675   4.567   4.573  17.689 -0.5399 -0.4056  0.1545
 3738SOL    HW122676   4.609   4.565   0.084  0.0101  0.8625  0.0122
 3738SOL    HW222677   4.634   4.531  17.635 -0.9912 -0.7410 -0.1521
 3739SOL     OW22678   0.650   1.327   5.539 -0.6121 -0.2326  0.6129
 3739SOL    HW122679   0.688   1.393   5.596  1.2419  0.1149 -1.0093
 3739SOL    HW222680   0.721   1.329   5.474 -0.7077 -0.1034  0.5128
 3740SOL     OW22681   1.290   0.880   7.016  0.2177  0.2234 -0.8367
 3740SOL    HW122682   1.365   0.845   7.063  1.3932 -0.0900 -2.9658
 3740SOL    HW222683   1.271   0.803   6.963  0.6474 -0.5837  0.1906
 3741SOL     OW22684   0.687   0.130   3.966  0.7063  0.4746 -0.2820
 3741SOL    HW122685   0.771   0.083   3.964 -0.0775 -0.9139 -0.6087
 3741SOL    HW222686   0.626   0.063   3.936  0.5747  0.3798  0.1889
 3742SOL     OW22687   1.290   4.306   7.223  0.2950  0.3091  0.3825
 3742SOL    HW122688   1.283   4.238   7.156  0.6317  0.6601 -0.0121
 3742SOL    HW222689   1.352   4.261   7.279  2.7474 -1.1644 -3.4967
 3743SOL     OW22690   4.263   0.631   4.836  0.5139  0.2370  0.1609
 3743SOL    HW122691   4.280   0.574   4.911 -0.6048 -0.0433  0.2085
 3743SOL    HW222692   4.272   0.567   4.765  1.0419 -0.8882  1.2307
 3744SOL     OW22693   3.062   3.341  17.470  0.1438  0.0763 -0.5179
 3744SOL    HW122694   3.003   3.358  17.397 -1.7731  2.1258  1.5243
 3744SOL    HW222695   3.020   3.273  17.523  0.6900 -0.1474 -0.3685
 3745SOL     OW22696   2.611   3.520   4.313  0.0205  0.1910  0.5374
 3745SOL    HW122697   2.632   3.443   4.260 -1.4142  1.4281 -1.8180
 3745SOL    HW222698   2.697   3.552   4.339  1.2160 -1.8834 -0.7950
 3746SOL     OW22699   2.042   3.605   7.956 -0.2437  0.2025 -0.1102
 3746SOL    HW122700   2.061   3.699   7.951  1.0979 -0.0484  0.0776
 3746SOL    HW222701   2.056   3.589   8.050  0.0617  2.1093  0.1564
 3747SOL     OW22702   0.499   2.652   2.188 -0.1061 -0.1425 -0.2782
 3747SOL    HW122703   0.417   2.617   2.153  1.2304 -1.3818 -2.1561
 3747SOL    HW222704   0.571   2.620   2.133 -0.6560  0.6222 -1.4377
 3748SOL     OW22705   3.052   2.559   9.879 -0.5633 -0.3173 -0.5887
 3748SOL    HW122706   3.003   2.533   9.957  0.4158 -0.1270  0.0963
 3748SOL    HW222707   2.991   2.626   9.849  1.2921  0.5098 -2.5941
 3749SOL     OW22708   0.740   4.007   7.700  0.5783  0.5889  0.7649
 3749SOL    HW122709   0.697   4.045   7.623  3.0827 -1.4088 -1.5987
 3749SOL    HW222710   0.754   4.083   7.756  0.4124  2.3946 -1.6277
 3750SOL     OW22711   3.451   1.589   6.490  0.3968 -0.1403  0.4861
 3750SOL    HW122712   3.409   1.510   6.456 -0.4650 -0.0418  1.3203
 3750SOL    HW222713   3.381   1.629   6.542  0.0565  0.1325 -0.1645
 3751SOL     OW22714   2.779   4.113   4.508  0.8251  0.0755  0.3282
 3751SOL    HW122715   2.792   4.208   4.508 -2.4250  0.5150 -1.4711
 3751SOL    HW222716   2.749   4.107   4.598  0.1727  0.5534  0.1427
 3752SOL     OW22717   0.279   3.671   5.311 -0.5069  0.4457  0.3563
 3752SOL    HW122718   0.248   3.749   5.265 -0.5614  0.9072  1.1828
 3752SOL    HW222719   0.288   3.701   5.402 -0.8948 -0.9422  0.8486
 3753SOL     OW22720   0.734   0.209   5.409  0.0900 -0.0437 -0.5075
 3753SOL    HW122721   0.713   0.135   5.466 -1.6685  1.2086  0.4749
 3753SOL    HW222722   0.705   0.186   5.320  2.8486 -1.1397 -1.1434
 3754SOL     OW22723   4.205   2.108  17.464 -0.0256 -0.4316  0.0040
 3754SOL    HW122724   4.126   2.063  17.434 -1.3323  1.2555  0.9053
 3754SOL    HW222725   4.213   2.065  17.549 -0.2552  0.5856  0.5358
 3755SOL     OW22726   1.047   2.013   6.572 -0.0740 -1.1208 -0.3919
 3755SOL    HW122727   0.995   1.970   6.505 -2.5919  0.2079  0.7306
 3755SOL    HW222728   1.072   2.088   6.517  0.5120 -0.7575  0.3647
 3756SOL     OW22729   0.618   2.407   8.235  0.1015  0.8312  0.4151
 3756SOL    HW122730   0.637   2.313   8.233  0.9105  0.9822  1.2419
 3756SOL    HW222731   0.691   2.442   8.285  1.8684 -1.6475 -0.4239
 3757SOL     OW22732   2.379   1.498  16.415 -0.1225  0.1409 -0.0340
 3757SOL    HW122733   2.454   1.527  16.363  1.0364 -1.6262  0.6496
 3757SOL    HW222734   2.343   1.585  16.432  2.2138  0.5638  2.6184
 3758SOL     OW22735   4.376   3.473  13.456 -0.1134  0.0578  0.3100
 3758SOL    HW122736   4.336   3.443  13.374  0.5404 -1.9913  0.7316
 3758SOL    HW222737   4.445   3.533  13.431 -0.2051 -0.4897 -1.2936
 3759SOL     OW22738   3.781   0.684  13.803 -0.2404  0.0462  0.3685
 3759SOL    HW122739   3.778   0.767  13.851  0.8579  1.7933 -2.6029
 3759SOL    HW222740   3.690   0.653  13.805  0.1153 -1.0323 -0.4252
 3760SOL     OW22741   0.717   1.977   2.905  0.4954 -0.1136  0.2542
 3760SOL    HW122742   0.790   1.918   2.888 -1.8276 -2.3347 -1.8234
 3760SOL    HW222743   0.636   1.927   2.917 -0.8433  1.5964 -1.5385
 3761SOL     OW22744   2.313   3.045   5.659  0.4123 -0.4600  0.1421
 3761SOL    HW122745   2.334   3.010   5.572 -0.6780  1.3256 -0.8356
 3761SOL    HW222746   2.371   2.992   5.714  0.7035 -0.4428 -0.1454
 3762SOL     OW22747   3.067   3.173   2.903 -0.3628  0.6925  0.3747
 3762SOL    HW122748   3.155   3.145   2.877 -0.6656  0.1587 -0.0972
 3762SOL    HW222749   3.005   3.123   2.850 -2.0047  0.9055  2.0799
 3763SOL     OW22750   3.705   1.525   5.867  0.1066  0.7493  0.5668
 3763SOL    HW122751   3.712   1.614   5.833  0.3138  0.3493 -0.4295
 3763SOL    HW222752   3.771   1.484   5.812 -2.0600 -2.4595  0.3604
 3764SOL     OW22753   3.295   2.659   9.737 -0.2404  0.3190 -0.1301
 3764SOL    HW122754   3.217   2.648   9.793 -0.8546 -1.2967 -1.2823
 3764SOL    HW222755   3.329   2.570   9.732  1.3509  0.8787  0.7790
 3765SOL     OW22756   4.237   1.351  15.714  0.4922  0.1840  0.5749
 3765SOL    HW122757   4.157   1.389  15.751  0.9671  0.1017  1.6709
 3765SOL    HW222758   4.199   1.286  15.655 -0.8856  0.0109  1.6585
 3766SOL     OW22759   1.340   2.554   4.775  0.1255  0.0743  0.3764
 3766SOL    HW122760   1.298   2.576   4.858  0.4902 -1.0735  0.8670
 3766SOL    HW222761   1.413   2.503   4.810  0.8154  1.4747  0.9915
 3767SOL     OW22762   1.150   4.000   9.329 -0.0631 -0.2635 -0.4212
 3767SOL    HW122763   1.113   4.050   9.402  1.9234  1.0968 -0.3540
 3767SOL    HW222764   1.175   3.918   9.372 -0.7307 -0.1794  0.1269
 3768SOL     OW22765   2.063   0.841  12.086  0.3460  0.0069  0.1635
 3768SOL    HW122766   2.103   0.776  12.029  2.2754  0.8932  0.4885
 3768SOL    HW222767   2.060   0.789  12.167 -0.7110 -2.6559 -1.5964
 3769SOL     OW22768   4.523   4.550   5.745  0.2221  0.3212  0.3372
 3769SOL    HW122769   4.611   4.565   5.778  0.0182  0.4571  0.8291
 3769SOL    HW222770   4.477   4.624   5.785  2.3684  2.1219 -0.6011
 3770SOL     OW22771   2.995   0.550   3.648  0.2972 -0.4650 -0.3243
 3770SOL    HW122772   2.933   0.623   3.646 -0.1341 -0.8805 -1.9113
 3770SOL    HW222773   2.941   0.471   3.652  1.5667 -1.2955  0.5601
 3771SOL     OW22774   0.427   4.368   4.347 -0.5233 -0.5296  0.0625
 3771SOL    HW122775   0.384   4.437   4.398  1.2312 -0.3088  1.2298
 3771SOL    HW222776   0.436   4.415   4.264 -1.5581  1.1237  0.8845
 3772SOL     OW22777   3.913   0.785  11.925 -0.1070  0.1870  0.3974
 3772SOL    HW122778   3.983   0.807  11.987 -0.5352  0.6657  0.7086
 3772SOL    HW222779   3.958   0.723  11.868  2.0349  0.0038  2.3031
 3773SOL     OW22780   2.604   2.740   8.385  0.1244 -0.2594  0.6793
 3773SOL    HW122781   2.639   2.822   8.421 -0.2169  0.8706 -1.6086
 3773SOL    HW222782   2.521   2.722   8.428  0.5586 -0.9977  1.2119
 3774SOL     OW22783   4.528   3.299   1.985  0.3140  0.2195  0.0640
 3774SOL    HW122784   4.461   3.364   2.005 -0.0445  0.4288 -1.8472
 3774SOL    HW222785   4.542   3.314   1.892 -0.4972 -1.1074 -0.2680
 3775SOL     OW22786   3.415   3.323   2.929 -0.2827 -0.5029  0.6321
 3775SOL    HW122787   3.469   3.366   2.863 -0.3689  0.4823  1.2079
 3775SOL    HW222788   3.449   3.234   2.924 -0.6054 -0.6665  1.4160
 3776SOL     OW22789   1.049   2.024   6.853  0.0629  0.3634  0.2121
 3776SOL    HW122790   1.144   2.031   6.836  0.1573  0.3617  0.7535
 3776SOL    HW222791   1.018   2.013   6.763  0.1549 -0.5797  0.2969
 3777SOL     OW22792   3.027   0.885   6.693  0.1091 -0.2464  0.3503
 3777SOL    HW122793   2.937   0.869   6.666  0.4994 -1.3250 -0.2991
 3777SOL    HW222794   3.037   0.811   6.752 -1.6773  0.4033  1.4484
 3778SOL     OW22795   4.586   1.190  10.716 -0.2335  0.8488  0.0280
 3778SOL    HW122796   4.651   1.227  10.657  0.1823  0.8455  0.4889
 3778SOL    HW222797   4.632   1.190  10.800 -1.9057  0.6389  0.9668
 3779SOL     OW22798   1.493   0.884   7.369 -0.0554  0.0353 -0.3305
 3779SOL    HW122799   1.456   0.840   7.446  0.7143 -0.6788 -0.3695
 3779SOL    HW222800   1.487   0.972   7.406 -0.3962  0.0153 -0.3382
 3780SOL     OW22801   4.722   1.382  12.398 -0.2833  0.3235  0.4928
 3780SOL    HW122802   0.039   1.468  12.414 -0.7694  0.4186  1.2044
 3780SOL    HW222803   4.641   1.405  12.445 -1.4588 -0.7209 -0.9979
 3781SOL     OW22804   1.696   0.995  17.381  0.0189  0.4301  0.2816
 3781SOL    HW122805   1.763   0.928  17.396  3.4120  3.5124 -1.0136
 3781SOL    HW222806   1.713   1.023  17.291  2.3938  2.0779  1.2342
 3782SOL     OW22807   3.758   0.919  13.495  0.5715  0.3176  0.0658
 3782SOL    HW122808   3.842   0.933  13.449 -0.3248 -1.8247 -2.1970
 3782SOL    HW222809   3.754   0.991  13.558 -0.1670  2.1367 -2.0819
 3783SOL     OW22810   4.127   0.178   2.208  0.1030 -0.4300  0.1927
 3783SOL    HW122811   4.143   0.266   2.242 -0.8685  0.6136 -2.0558
 3783SOL    HW222812   4.039   0.166   2.244  0.1546 -1.9889 -0.2028
 3784SOL     OW22813   0.346   3.628   6.375  0.1536 -0.6734  0.2030
 3784SOL    HW122814   0.306   3.545   6.401 -2.4079  0.4403 -0.1594
 3784SOL    HW222815   0.315   3.637   6.285  0.5175  0.8316  0.2320
 3785SOL     OW22816   3.235   4.335   2.591  0.3729 -0.1586 -0.7481
 3785SOL    HW122817   3.177   4.408   2.612  0.6184  0.3423 -1.8412
 3785SOL    HW222818   3.261   4.300   2.677  0.8682  2.6163  0.2287
 3786SOL     OW22819   1.159   0.564   3.764 -0.4789  0.3999  0.0409
 3786SOL    HW122820   1.120   0.586   3.849  0.8614 -1.2391  1.0917
 3786SOL    HW222821   1.122   0.483   3.729  1.8513 -0.5582 -0.1938
 3787SOL     OW22822   1.079   0.131   0.149  0.0789  0.0191 -0.9028
 3787SOL    HW122823   1.032   0.170   0.222 -1.8780 -1.6109 -1.2668
 3787SOL    HW222824   1.080   0.037   0.168  0.3872  0.3381  0.5828
 3788SOL     OW22825   2.657   0.429   7.746  0.1589 -0.4642  0.4342
 3788SOL    HW122826   2.695   0.354   7.791 -0.3321 -0.9090  0.1132
 3788SOL    HW222827   2.733   0.475   7.711  0.1740 -1.3356 -0.7066
 3789SOL     OW22828   3.585   4.691   7.645 -0.4634  0.2542  0.3836
 3789SOL    HW122829   3.495   4.694   7.675 -1.2738 -0.7859 -1.9904
 3789SOL    HW222830   3.626   4.615   7.686 -0.1861 -0.0563 -0.4644
 3790SOL     OW22831   0.397   4.137   3.477 -0.5982  0.1594  0.3240
 3790SOL    HW122832   0.480   4.141   3.429 -0.3292  1.8891  0.9653
 3790SOL    HW222833   0.403   4.218   3.526 -1.5217 -0.3692  1.3211
 3791SOL     OW22834   0.285   2.390   6.009  0.2694 -0.4109 -0.0465
 3791SOL    HW122835   0.377   2.407   5.989  0.0251  0.6104 -0.2938
 3791SOL    HW222836   0.246   2.470   5.974 -0.3551 -0.8259 -0.3001
 3792SOL     OW22837   3.813   1.215   8.214  0.0316  0.3935 -0.2741
 3792SOL    HW122838   3.831   1.185   8.304  2.6541  1.7500 -0.3598
 3792SOL    HW222839   3.776   1.301   8.233 -3.6879 -1.1448 -0.5110
 3793SOL     OW22840   2.731   0.288   9.874  0.5192  0.3849  0.0110
 3793SOL    HW122841   2.791   0.330   9.935  0.5255  0.2057  0.1288
 3793SOL    HW222842   2.788   0.234   9.820 -1.0635  0.4719 -1.7673
 3794SOL     OW22843   3.718   3.711  16.563  0.2618 -0.1110 -0.2217
 3794SOL    HW122844   3.794   3.721  16.620 -0.7243 -0.5426  1.1657
 3794SOL    HW222845   3.650   3.756  16.613  0.4714 -1.0224  0.8659
 3795SOL     OW22846   3.786   1.231   3.717  0.2373 -0.4720  0.1658
 3795SOL    HW122847   3.742   1.147   3.725 -0.0436 -0.5087 -1.9190
 3795SOL    HW222848   3.867   1.205   3.672 -0.0758 -1.0529 -0.0538
 3796SOL     OW22849   3.202   4.278   4.175  0.3125 -0.6961  0.0032
 3796SOL    HW122850   3.127   4.290   4.117  0.1201 -2.6839 -0.1636
 3796SOL    HW222851   3.169   4.264   4.263 -2.0507 -0.5522 -0.8592
 3797SOL     OW22852   2.382   3.727   6.535 -0.0815 -0.4971  0.3032
 3797SOL    HW122853   2.305   3.685   6.496 -0.6926 -0.8013  1.8346
 3797SOL    HW222854   2.361   3.737   6.628  1.8471 -1.7075  0.8837
 3798SOL     OW22855   0.826   3.802   9.878  0.4093  0.1705 -0.0593
 3798SOL    HW122856   0.765   3.739   9.841 -0.8358  0.4632  1.5000
 3798SOL    HW222857   0.880   3.832   9.805  0.1075  0.0640 -0.3245
 3799SOL     OW22858   2.522   4.047   0.287  0.2589 -0.1167  0.0992
 3799SOL    HW122859   2.584   4.025   0.356  0.2252  0.0131  0.1711
 3799SOL    HW222860   2.455   4.092   0.340  0.9912 -1.0534  1.8324
 3800SOL     OW22861   2.908   4.692   6.361 -0.3513 -0.3294 -0.6560
 3800SOL    HW122862   2.890   0.058   6.327  0.5713  0.1722  0.1402
 3800SOL    HW222863   2.884   4.635   6.288  1.1807 -1.4330 -0.3035
 3801SOL     OW22864   4.271   4.097   3.367 -0.2508 -0.1414 -0.2624
 3801SOL    HW122865   4.291   4.082   3.459 -1.4579 -0.1244 -0.0074
 3801SOL    HW222866   4.339   4.158   3.338  0.5219 -0.1918  1.4557
 3802SOL     OW22867   3.705   3.364  11.431 -0.3920  0.5503 -0.8854
 3802SOL    HW122868   3.661   3.401  11.507  1.3969 -0.9761  0.8967
 3802SOL    HW222869   3.791   3.405  11.438 -0.0045 -0.6336  1.2735
 3803SOL     OW22870   3.932   2.599   8.715 -0.1754  0.2081 -0.0555
 3803SOL    HW122871   3.860   2.578   8.655  0.4931  0.2549 -0.8861
 3803SOL    HW222872   4.002   2.621   8.654  3.0597  0.0164  3.6167
 3804SOL     OW22873   0.749   2.183   0.247 -0.2456 -0.1316  0.0891
 3804SOL    HW122874   0.804   2.261   0.253 -0.9945  0.3431  0.7887
 3804SOL    HW222875   0.802   2.135   0.184 -1.1581 -1.8310  0.6059
 3805SOL     OW22876   0.773   4.111   2.647  0.1973  0.1147  0.0882
 3805SOL    HW122877   0.734   4.175   2.588  2.4502 -0.5412 -2.0992
 3805SOL    HW222878   0.692   4.064   2.668 -0.4290  1.4893  0.8123
 3806SOL     OW22879   1.883   2.955  13.526  0.6660  0.1226  0.4650
 3806SOL    HW122880   1.973   2.976  13.550  0.8574 -1.2459  0.9489
 3806SOL    HW222881   1.903   2.951  13.433  0.8600  0.6739  0.4858
 3807SOL     OW22882   2.999   2.676   8.387  0.4237  0.5089 -0.3855
 3807SOL    HW122883   2.910   2.654   8.415 -0.2911  1.1223 -2.1757
 3807SOL    HW222884   3.037   2.589   8.397 -2.8216 -0.9123 -0.3344
 3808SOL     OW22885   2.636   2.350   7.292 -0.6981 -0.0538  0.2514
 3808SOL    HW122886   2.645   2.362   7.197 -0.8421  0.7942  0.3476
 3808SOL    HW222887   2.727   2.353   7.321 -0.0095 -1.4516 -1.7417
 3809SOL     OW22888   2.077   1.624   6.717  0.1093 -1.0730  0.4554
 3809SOL    HW122889   2.085   1.634   6.812  0.6792  1.9788  0.1044
 3809SOL    HW222890   2.089   1.530   6.705  1.7495 -0.8668  0.4797
 3810SOL     OW22891   1.719   2.107   3.061  0.1190  0.0148  0.3533
 3810SOL    HW122892   1.626   2.126   3.075  0.6390  1.8052  1.4728
 3810SOL    HW222893   1.738   2.075   3.149 -0.6645  2.3698  1.3831
 3811SOL     OW22894   3.209   4.611   4.012 -0.1972 -0.3828  0.2753
 3811SOL    HW122895   3.277   4.678   4.021  0.3451 -0.7534 -1.0520
 3811SOL    HW222896   3.202   4.585   4.104  3.4278 -2.3938  0.0025
 3812SOL     OW22897   1.980   3.709   3.383  0.7002 -0.5104  0.5821
 3812SOL    HW122898   1.947   3.710   3.294 -1.2251 -0.2371  1.3091
 3812SOL    HW222899   2.072   3.736   3.380  1.3557 -2.7220  0.6112
 3813SOL     OW22900   0.291   2.610   8.399  0.2443 -0.0542 -0.4475
 3813SOL    HW122901   0.350   2.633   8.470  1.3542 -3.5587 -0.2503
 3813SOL    HW222902   0.318   2.675   8.334 -0.1415  1.0062  0.4603
 3814SOL     OW22903   3.743   2.358   5.557 -0.4164 -0.2059  0.4779
 3814SOL    HW122904   3.680   2.386   5.492 -0.1124  1.0228  0.7241
 3814SOL    HW222905   3.800   2.295   5.512 -2.8816 -1.8937 -0.3104
 3815SOL     OW22906   2.112   0.855   2.067 -0.1396 -0.5062 -0.0892
 3815SOL    HW122907   2.122   0.917   1.995  1.8309  0.5705  1.1251
 3815SOL    HW222908   2.202   0.824   2.074 -0.2880 -1.2247 -1.3204
 3816SOL     OW22909   1.319   3.389   8.879 -0.6722  0.2628  0.7085
 3816SOL    HW122910   1.297   3.378   8.971 -2.7441 -2.7585 -0.1418
 3816SOL    HW222911   1.257   3.456   8.849 -0.3018  0.4543  0.3704
 3817SOL     OW22912   0.861   1.355  12.017 -0.0652  0.3776  0.6073
 3817SOL    HW122913   0.885   1.447  12.015 -2.7730  1.0559 -0.0661
 3817SOL    HW222914   0.946   1.318  12.041  0.1125 -0.4832 -1.3266
 3818SOL     OW22915   0.905   1.054   0.660 -0.2652 -0.2108 -0.5561
 3818SOL    HW122916   0.949   0.972   0.682  2.2685  0.9447 -1.2304
 3818SOL    HW222917   0.894   1.066   0.565  0.8942 -1.0146 -0.7833
 3819SOL     OW22918   1.079   1.330  12.970 -0.1710  0.2921 -0.3593
 3819SOL    HW122919   1.133   1.369  12.901 -0.3225 -0.5207 -0.9359
 3819SOL    HW222920   1.140   1.273  13.018 -0.9386 -1.9649 -2.0716
 3820SOL     OW22921   3.571   0.492   7.362 -0.4633  0.4307  0.3473
 3820SOL    HW122922   3.652   0.544   7.360 -0.6006  0.7015  1.8868
 3820SOL    HW222923   3.601   0.404   7.386 -3.8510 -0.5254  1.0330
 3821SOL     OW22924   4.596   1.874   9.380  0.1855  0.2783  0.5011
 3821SOL    HW122925   4.683   1.847   9.408 -0.8306 -0.4424  2.9323
 3821SOL    HW222926   4.604   1.963   9.415 -0.6810  0.4668  0.2308
 3822SOL     OW22927   1.897   2.577  15.192  0.4562 -0.5662 -0.3212
 3822SOL    HW122928   1.852   2.537  15.266  2.0846 -0.3152  0.7806
 3822SOL    HW222929   1.911   2.498  15.139  1.6624 -0.1198 -0.6566
 3823SOL     OW22930   0.074   2.442   1.478  0.8195  0.4691  0.3465
 3823SOL    HW122931   0.048   2.351   1.492  1.4136  0.0817 -1.1252
 3823SOL    HW222932   0.169   2.432   1.471  0.8797  1.1566  0.1938
 3824SOL     OW22933   4.535   0.309   3.102 -0.0141  0.5356  0.7664
 3824SOL    HW122934   4.462   0.371   3.099  0.2820  0.9396  1.7626
 3824SOL    HW222935   4.564   0.325   3.192 -3.0916  0.5836  1.7564
 3825SOL     OW22936   2.664   4.323   2.132  0.1139  0.0855 -0.4105
 3825SOL    HW122937   2.672   4.296   2.223 -0.7993 -1.1546 -0.6919
 3825SOL    HW222938   2.578   4.293   2.104  0.0516  0.0077 -0.1280
 3826SOL     OW22939   4.339   2.285   4.056  0.6781 -0.3212  0.1051
 3826SOL    HW122940   4.289   2.212   4.092  0.9450  0.6574  2.4162
 3826SOL    HW222941   4.266   2.347   4.048 -0.0174 -1.1561 -0.0273
 3827SOL     OW22942   2.294   2.164  14.504 -0.6556 -0.1278 -0.1146
 3827SOL    HW122943   2.255   2.086  14.466  0.4200 -0.7573  0.0678
 3827SOL    HW222944   2.370   2.131  14.552 -1.3698  0.1890  1.2459
 3828SOL     OW22945   2.937   2.484   8.999  0.1238 -0.3710  0.4189
 3828SOL    HW122946   2.930   2.579   8.987 -1.3351 -0.4822  0.3028
 3828SOL    HW222947   3.031   2.472   8.986 -0.0094 -0.3679 -0.5917
 3829SOL     OW22948   0.534   3.034   6.276  0.2755  0.2632  0.3706
 3829SOL    HW122949   0.586   3.022   6.197 -0.7239  1.5160 -0.4833
 3829SOL    HW222950   0.603   3.013   6.339  0.8234 -1.1005 -0.6936
 3830SOL     OW22951   1.799   3.356  17.633  0.4589 -0.0614  0.3105
 3830SOL    HW122952   1.729   3.419  17.647 -0.8842 -1.7283  1.0348
 3830SOL    HW222953   1.874   3.408  17.663  0.1828  1.2284 -1.2475
 3831SOL     OW22954   2.078   4.123   6.486 -0.0848 -0.1126 -0.0763
 3831SOL    HW122955   2.065   4.156   6.575  0.4238  0.1873 -0.1080
 3831SOL    HW222956   1.990   4.096   6.462  0.6475 -0.1930 -2.6007
 3832SOL     OW22957   2.897   0.082  10.243 -0.0286 -0.3942  0.3339
 3832SOL    HW122958   2.916   0.051  10.332 -1.4052  0.9450  1.0910
 3832SOL    HW222959   2.876   0.175  10.255  0.4886 -0.3287  0.7216
 3833SOL     OW22960   4.355   0.937  13.770  0.3748 -0.0123 -0.2631
 3833SOL    HW122961   4.348   1.032  13.779  1.6899 -0.1082  1.8898
 3833SOL    HW222962   4.411   0.922  13.847  1.4566  0.9918 -0.8497
 3834SOL     OW22963   3.491   0.954   4.286  0.0645  0.1342  0.3133
 3834SOL    HW122964   3.435   0.880   4.310 -0.2584  0.3099  0.1032
 3834SOL    HW222965   3.566   0.931   4.340 -1.1103  1.4907  2.4905
 3835SOL     OW22966   4.220   0.853   8.269  0.0933 -0.1284 -0.7015
 3835SOL    HW122967   4.258   0.888   8.188 -1.6562 -1.1804 -1.9655
 3835SOL    HW222968   4.258   0.767   8.252 -0.7998 -0.6342 -0.0938
 3836SOL     OW22969   3.761   4.684   5.375  0.0477  0.3224  0.0920
 3836SOL    HW122970   3.669   4.674   5.351 -0.2126  2.6536  0.1008
 3836SOL    HW222971   3.769   4.627   5.452 -1.9522  0.6268  0.5363
 3837SOL     OW22972   1.326   0.311   6.079 -0.4830 -0.2577  0.3222
 3837SOL    HW122973   1.311   0.237   6.020 -1.4324 -0.1143  0.3892
 3837SOL    HW222974   1.245   0.360   6.072 -1.0120 -1.4007 -1.6221
 3838SOL     OW22975   1.604   2.738  11.778  0.0055 -0.0334  0.0752
 3838SOL    HW122976   1.553   2.817  11.794 -1.2284 -0.8116 -0.0578
 3838SOL    HW222977   1.541   2.669  11.799  1.8116 -1.0322  2.2284
 3839SOL     OW22978   1.128   2.806  16.080 -0.7448  0.1455  0.2030
 3839SOL    HW122979   1.059   2.791  16.016  0.7816  1.4233 -1.7645
 3839SOL    HW222980   1.113   2.744  16.151 -3.1489  0.0463 -0.4133
 3840SOL     OW22981   0.911   0.941  17.230 -0.0703  0.2354 -0.2913
 3840SOL    HW122982   0.822   0.953  17.264  0.4738  0.4134  1.0735
 3840SOL    HW222983   0.961   0.973  17.305 -0.9299 -0.8873  0.7687
 3841SOL     OW22984   1.769   1.898   5.311  0.0874  0.4710  0.3851
 3841SOL    HW122985   1.774   1.993   5.322 -0.6257  0.2907  2.2796
 3841SOL    HW222986   1.829   1.884   5.238  0.0912 -1.5886  0.7798
 3842SOL     OW22987   3.173   2.657   6.393  0.1706 -0.1200 -0.2662
 3842SOL    HW122988   3.209   2.610   6.319  0.6713  1.0439 -0.7583
 3842SOL    HW222989   3.119   2.593   6.439  2.5025 -0.7469  1.5953
 3843SOL     OW22990   4.475   0.981  17.127 -0.0189 -0.0516 -0.0631
 3843SOL    HW122991   4.519   1.066  17.127 -0.4611  0.1653 -1.2963
 3843SOL    HW222992   4.514   0.941  17.049 -0.1066 -0.6612  0.2038
 3844SOL     OW22993   2.016   1.632   1.879 -0.0764 -0.9550  0.0616
 3844SOL    HW122994   2.065   1.679   1.946  1.3816 -0.6229 -1.2493
 3844SOL    HW222995   1.965   1.569   1.930  1.8045 -1.6398  1.0790
 3845SOL     OW22996   3.901   0.776  16.163 -0.0072 -0.3641 -0.3940
 3845SOL    HW122997   3.982   0.826  16.151  0.4724 -1.1000 -0.2163
 3845SOL    HW222998   3.853   0.811  16.088 -0.7622 -0.0451  0.2527
 3846SOL     OW22999   3.905   3.548   5.924  0.3309  0.4300 -0.2166
 3846SOL    HW123000   3.861   3.551   5.839  2.1752 -1.8019 -1.2550
 3846SOL    HW223001   3.840   3.494   5.969  0.7180 -1.5491 -2.0110
 3847SOL     OW23002   0.681   1.358   6.880  0.1302 -0.3973 -0.1134
 3847SOL    HW123003   0.738   1.430   6.907 -0.8431  0.5774 -0.6494
 3847SOL    HW223004   0.720   1.288   6.932 -0.8668 -1.6643 -1.0761
 3848SOL     OW23005   2.996   0.273  16.173  0.0802  0.0800 -0.7818
 3848SOL    HW123006   2.946   0.349  16.201  0.3339  0.4502 -1.3434
 3848SOL    HW223007   2.941   0.236  16.104 -1.3022  1.0006 -0.1689
 3849SOL     OW23008   4.042   4.203   7.854 -0.1205 -0.3165 -0.2174
 3849SOL    HW123009   4.102   4.231   7.785 -0.5878 -1.1271 -0.9461
 3849SOL    HW223010   4.064   4.260   7.928 -1.2257 -1.2026  0.8092
 3850SOL     OW23011   3.091   2.078   0.098  0.4074  0.2136  0.0618
 3850SOL    HW123012   3.138   2.141   0.153 -1.1657  1.1421  0.3406
 3850SOL    HW223013   3.057   2.135   0.029 -2.5517 -0.9018  0.5867
 3851SOL     OW23014   1.709   1.272  13.616  0.7402 -0.0455 -0.0991
 3851SOL    HW123015   1.641   1.205  13.626  1.0602 -0.2637  0.7023
 3851SOL    HW223016   1.657   1.351  13.626  0.4450 -0.3739  1.0423
 3852SOL     OW23017   4.537   3.716   5.020  0.6434 -0.3078  0.2220
 3852SOL    HW123018   4.473   3.712   5.092 -3.2526  0.1480 -3.2233
 3852SOL    HW223019   4.589   3.791   5.048 -1.2433  0.9665  0.3107
 3853SOL     OW23020   1.708   2.573   7.157 -0.4513  0.2789 -0.3531
 3853SOL    HW123021   1.730   2.520   7.233  0.6162  0.6220 -0.4262
 3853SOL    HW223022   1.679   2.505   7.096 -1.9210 -1.1106  1.8819
 3854SOL     OW23023   2.526   1.836  15.914  0.5097 -0.1185  0.1995
 3854SOL    HW123024   2.514   1.863  16.005  3.6747  0.5962  0.4027
 3854SOL    HW223025   2.456   1.771  15.906  0.0154  0.2373  1.7176
 3855SOL     OW23026   0.787   2.333  13.628 -0.3163  0.1009 -0.2343
 3855SOL    HW123027   0.736   2.364  13.554  2.6022  2.1815 -1.3627
 3855SOL    HW223028   0.857   2.398  13.633  0.2917 -0.5038 -1.0493
 3856SOL     OW23029   3.216   2.409   7.605  0.1575 -0.6048  0.0350
 3856SOL    HW123030   3.290   2.388   7.661 -1.5952  1.0054  2.9620
 3856SOL    HW223031   3.253   2.388   7.519 -0.7727 -0.6445 -0.3565
 3857SOL     OW23032   0.922   2.451  14.644  0.0503 -0.1666  0.1946
 3857SOL    HW123033   0.885   2.475  14.559  1.4417  2.0639  0.2165
 3857SOL    HW223034   0.913   2.538  14.684 -2.1768  1.1613 -3.1862
 3858SOL     OW23035   0.631   0.393   4.173  0.2519  0.2136  0.3334
 3858SOL    HW123036   0.709   0.419   4.124 -0.4767  0.9844 -0.4174
 3858SOL    HW223037   0.674   0.341   4.241 -0.3682 -2.4791 -1.3165
 3859SOL     OW23038   2.421   3.206   7.742  0.1792 -0.2222  0.3821
 3859SOL    HW123039   2.511   3.182   7.721  0.1730 -1.0939  1.3809
 3859SOL    HW223040   2.413   3.298   7.716 -0.9941 -0.8704 -1.6035
 3860SOL     OW23041   1.892   1.916  10.291 -0.0346 -0.5296  0.0731
 3860SOL    HW123042   1.903   2.007  10.261 -0.5197 -1.2763 -2.3451
 3860SOL    HW223043   1.972   1.897  10.339 -0.8635  0.7855  1.9617
 3861SOL     OW23044   3.464   0.643   0.689  0.2061 -0.3266 -0.1870
 3861SOL    HW123045   3.538   0.692   0.725 -0.8981  0.3634  1.0930
 3861SOL    HW223046   3.453   0.700   0.612  0.6479  0.5860  0.4260
 3862SOL     OW23047   2.769   0.698   1.013 -0.1549 -0.9594 -0.3610
 3862SOL    HW123048   2.775   0.666   0.923  1.2229  0.3352 -0.7365
 3862SOL    HW223049   2.683   0.667   1.039 -0.3055 -1.2903 -1.2462
 3863SOL     OW23050   3.495   0.362   2.653  0.2560  0.3009 -0.2915
 3863SOL    HW123051   3.532   0.427   2.713 -1.3993  0.0279  1.0163
 3863SOL    HW223052   3.445   0.307   2.714  0.7769  0.1465 -0.0096
 3864SOL     OW23053   2.360   3.375   3.606  0.3393 -0.1443  0.4026
 3864SOL    HW123054   2.288   3.380   3.669  0.0358 -0.2083  0.0595
 3864SOL    HW223055   2.367   3.281   3.626  1.4279 -0.5250 -1.7981
 3865SOL     OW23056   1.039   0.648   5.560 -0.3365 -0.1316  0.3269
 3865SOL    HW123057   1.059   0.640   5.654  1.1253  0.7871  0.0907
 3865SOL    HW223058   0.995   0.565   5.543 -1.4344  0.9145 -1.9729
 3866SOL     OW23059   4.235   2.330   2.845 -0.0769  0.1603 -0.7223
 3866SOL    HW123060   4.162   2.370   2.892 -1.6646 -1.5015 -1.7309
 3866SOL    HW223061   4.259   2.410   2.798 -0.5444 -0.3579 -1.8523
 3867SOL     OW23062   1.056   2.044   3.910 -0.1150 -0.9173 -0.4888
 3867SOL    HW123063   1.124   2.068   3.973 -0.0482  0.5276 -1.1224
 3867SOL    HW223064   0.981   2.043   3.969 -0.9519  4.0406 -1.5099
 3868SOL     OW23065   2.968   2.760   0.045  0.6888  0.3194 -0.2263
 3868SOL    HW123066   2.940   2.835   0.097  0.4092  0.9019 -1.2279
 3868SOL    HW223067   3.063   2.767   0.037  0.7970 -1.1562 -0.3542
 3869SOL     OW23068   3.970   2.796  10.147  0.7549  0.2388  0.6121
 3869SOL    HW123069   3.969   2.832  10.235  1.4578 -0.2310  0.8159
 3869SOL    HW223070   3.929   2.711  10.165 -1.7389  1.1300 -0.7870
 3870SOL     OW23071   1.566   1.311  17.320  0.7308 -0.1331 -0.1538
 3870SOL    HW123072   1.571   1.312  17.224 -1.0812 -1.0845 -0.2628
 3870SOL    HW223073   1.515   1.392  17.328 -2.5210 -2.2012  0.1066
 3871SOL     OW23074   2.735   3.064  10.839 -0.1211 -0.2998 -0.2889
 3871SOL    HW123075   2.823   3.068  10.801 -1.1329  0.2420 -2.5683
 3871SOL    HW223076   2.695   2.990  10.793 -0.8079  1.0437 -1.8587
 3872SOL     OW23077   2.292   0.546  12.923  0.2903 -0.3854  0.3825
 3872SOL    HW123078   2.362   0.484  12.904  0.4474 -0.4544  1.1736
 3872SOL    HW223079   2.224   0.481  12.943 -1.9654  1.4102 -1.4167
 3873SOL     OW23080   0.977   0.032   4.386  0.3002  0.1675 -0.0285
 3873SOL    HW123081   0.938   4.673   4.352 -0.0114 -0.9220  2.9189
 3873SOL    HW223082   0.920   0.100   4.349 -0.9172 -0.7337  0.1592
 3874SOL     OW23083   1.134   4.391   6.977 -0.0595  0.1439 -0.1063
 3874SOL    HW123084   1.209   4.405   7.034  0.0325 -1.0988  0.0832
 3874SOL    HW223085   1.095   4.478   6.986 -0.6200  0.0020 -1.0689
 3875SOL     OW23086   3.887   3.507  12.475  0.8108  0.2908  0.5037
 3875SOL    HW123087   3.861   3.522  12.566 -0.0117 -0.4886  0.4011
 3875SOL    HW223088   3.919   3.417  12.479 -2.3581 -0.9408 -2.0116
 3876SOL     OW23089   0.873   1.846  16.393  0.0454  0.0801  0.0838
 3876SOL    HW123090   0.895   1.931  16.432 -2.3990  0.4981  0.5365
 3876SOL    HW223091   0.783   1.855  16.364 -0.1505  1.2039  1.0543
 3877SOL     OW23092   3.263   3.545   7.923 -0.0850  0.1623 -0.1684
 3877SOL    HW123093   3.207   3.575   7.996 -0.5598  2.7343 -1.5785
 3877SOL    HW223094   3.196   3.518   7.861 -2.9049  0.7173  2.5997
 3878SOL     OW23095   4.047   3.733   5.140  0.3404 -0.5620  0.7586
 3878SOL    HW123096   3.998   3.654   5.115  1.3791 -0.7728 -0.5700
 3878SOL    HW223097   3.990   3.800   5.177  1.3804  0.1402  1.0742
 3879SOL     OW23098   1.750   0.031   8.516 -0.7766 -0.2578  0.1740
 3879SOL    HW123099   1.677   0.093   8.512 -0.3425  0.1654 -1.3131
 3879SOL    HW223100   1.819   0.090   8.488  1.6085 -3.4018 -0.6417
 3880SOL     OW23101   3.531   0.787   4.969  0.4528  0.5251 -1.1807
 3880SOL    HW123102   3.485   0.850   5.025  2.2693 -0.0953  1.0149
 3880SOL    HW223103   3.484   0.705   4.986  2.1100 -0.9786 -3.8823
 3881SOL     OW23104   4.167   0.989   3.233  0.4152 -0.1838 -0.3978
 3881SOL    HW123105   4.075   0.970   3.217  0.2547  0.6859 -0.4941
 3881SOL    HW223106   4.176   1.046   3.156 -1.2986  0.3457 -0.1888
 3882SOL     OW23107   1.494   1.617  15.543 -0.2805  0.0332  0.0313
 3882SOL    HW123108   1.425   1.615  15.610 -0.2882  1.2956  0.0637
 3882SOL    HW223109   1.497   1.708  15.515  2.9537  0.1818  0.9258
 3883SOL     OW23110   0.906   2.030  12.521 -0.1466  0.0679 -0.2846
 3883SOL    HW123111   0.830   1.982  12.555 -0.1900  0.0300 -0.4326
 3883SOL    HW223112   0.862   2.090  12.461  0.3906  0.8835  0.1297
 3884SOL     OW23113   4.354   1.583   6.463 -0.0531 -0.2526  0.2269
 3884SOL    HW123114   4.325   1.493   6.444  0.4756 -0.0832 -1.3259
 3884SOL    HW223115   4.288   1.621   6.521  0.4238 -2.4127  2.1720
 3885SOL     OW23116   1.867   1.775  13.123 -0.0500  0.4104  0.3596
 3885SOL    HW123117   1.900   1.863  13.141  2.7719 -0.0897 -2.3181
 3885SOL    HW223118   1.836   1.779  13.033 -0.9654  1.4538  0.7236
 3886SOL     OW23119   4.645   2.128   2.712  0.0567  0.1695  0.5314
 3886SOL    HW123120   4.609   2.049   2.673  0.8025 -0.3058  0.7959
 3886SOL    HW223121   4.692   2.085   2.783 -1.6742 -0.7709  1.0836
 3887SOL     OW23122   2.021   3.583   2.118 -0.1068 -0.6549  0.1700
 3887SOL    HW123123   2.034   3.545   2.205  2.4887 -0.1324  0.0204
 3887SOL    HW223124   2.106   3.577   2.074  0.4325 -2.7206  1.4790
 3888SOL     OW23125   1.308   3.824  10.603  0.4609  0.0960 -0.3076
 3888SOL    HW123126   1.363   3.898  10.577 -1.2385  0.6166 -2.3753
 3888SOL    HW223127   1.253   3.815  10.526 -3.0784  0.6328  2.1520
 3889SOL     OW23128   2.251   2.240   2.050  0.2743  0.2642  0.0527
 3889SOL    HW123129   2.296   2.198   2.123 -1.9936 -1.8666  0.2044
 3889SOL    HW223130   2.202   2.168   2.010  1.2754 -0.4944  0.1747
 3890SOL     OW23131   1.291   4.262   0.450 -0.0286  0.4288  0.0388
 3890SOL    HW123132   1.286   4.358   0.442  1.3807  0.2877 -2.4494
 3890SOL    HW223133   1.374   4.252   0.496 -1.4249 -4.1977  1.5291
 3891SOL     OW23134   0.858   3.982   6.584 -0.3368 -0.5071 -0.4720
 3891SOL    HW123135   0.859   3.933   6.665  1.7021 -1.6669 -1.2014
 3891SOL    HW223136   0.823   4.060   6.627  0.7083  0.9832 -2.2818
 3892SOL     OW23137   2.446   0.742  14.756  0.0224  0.4394 -0.2727
 3892SOL    HW123138   2.360   0.761  14.794  0.8715  0.6611  1.5314
 3892SOL    HW223139   2.489   0.702  14.831 -0.2967 -1.5108 -1.1278
 3893SOL     OW23140   2.296   2.391   8.553 -0.2277  0.1261 -0.5646
 3893SOL    HW123141   2.360   2.320   8.555 -1.6953 -1.2927 -3.4231
 3893SOL    HW223142   2.264   2.396   8.643 -1.3518 -0.0433 -0.9589
 3894SOL     OW23143   2.661   4.662   4.296 -0.1698  0.0048 -0.4246
 3894SOL    HW123144   2.573   4.637   4.321  0.2360 -1.0773 -0.0776
 3894SOL    HW223145   2.649   4.674   4.201  0.9683  3.2420 -0.1385
 3895SOL     OW23146   3.324   4.504   8.641  0.6062 -0.2819 -0.4266
 3895SOL    HW123147   3.230   4.496   8.662  1.0536 -0.0171  1.6953
 3895SOL    HW223148   3.350   4.412   8.642 -2.7053 -1.2632 -3.3931
 3896SOL     OW23149   0.885   3.334  11.725 -0.0581  0.2103 -0.3553
 3896SOL    HW123150   0.903   3.315  11.633 -0.9746 -0.8555 -0.3172
 3896SOL    HW223151   0.839   3.416  11.714  1.0476  0.8112 -0.4721
 3897SOL     OW23152   0.611   1.832   7.090  0.2724  0.3313 -0.6698
 3897SOL    HW123153   0.642   1.770   7.024 -1.9515 -0.3104 -1.1198
 3897SOL    HW223154   0.691   1.875   7.119  0.5719 -0.5605 -0.1606
 3898SOL     OW23155   2.977   0.427   8.267  0.3842  0.0173 -0.2897
 3898SOL    HW123156   2.885   0.444   8.286  1.1559  0.7695  2.7629
 3898SOL    HW223157   3.010   0.390   8.349  0.6733  0.0747 -0.3799
 3899SOL     OW23158   4.164   2.828  16.467 -0.3662  0.4950 -0.1507
 3899SOL    HW123159   4.133   2.839  16.377 -0.1305 -1.4529 -0.4596
 3899SOL    HW223160   4.098   2.863  16.527  2.6968  0.5853  3.1323
 3900SOL     OW23161   0.806   0.556   6.327 -0.5551 -0.3415  0.5789
 3900SOL    HW123162   0.895   0.577   6.299 -0.3023 -0.4384  1.3053
 3900SOL    HW223163   0.753   0.594   6.257 -0.4906  0.2682  0.8613
 3901SOL     OW23164   3.841   2.610  16.448 -0.0693 -0.1172 -0.3076
 3901SOL    HW123165   3.816   2.702  16.441  0.6354  0.0338 -0.7894
 3901SOL    HW223166   3.887   2.595  16.365 -2.3637 -0.2027 -1.5727
 3902SOL     OW23167   3.488   0.817   0.440  0.6812 -0.0995 -0.3429
 3902SOL    HW123168   3.580   0.808   0.462  0.1349  0.3107  2.0919
 3902SOL    HW223169   3.474   0.906   0.406 -1.3968 -1.1662 -2.2981
 3903SOL     OW23170   2.250   1.035   3.464  0.2970 -0.9764  0.0261
 3903SOL    HW123171   2.211   1.108   3.415  1.1585  0.3906  1.3850
 3903SOL    HW223172   2.202   1.035   3.547  2.3828 -0.8242  1.2218
 3904SOL     OW23173   3.621   4.606   7.993 -0.5868 -0.5866 -0.3759
 3904SOL    HW123174   3.694   4.587   7.934 -0.1021 -1.2304  0.4202
 3904SOL    HW223175   3.657   4.572   8.075  1.2691  0.7692 -0.6281
 3905SOL     OW23176   2.953   0.042   2.893 -0.3670  0.2516  0.0634
 3905SOL    HW123177   2.966   4.670   2.881  2.1091  0.6308 -0.2005
 3905SOL    HW223178   2.881   0.048   2.956 -0.2231  0.9479  0.1577
 3906SOL     OW23179   3.545   0.053   8.998  0.4918 -0.0635  0.0750
 3906SOL    HW123180   3.597   0.124   9.036  0.8565 -1.3906  2.0566
 3906SOL    HW223181   3.605   4.716   8.952  1.8763 -0.1921  2.0377
 3907SOL     OW23182   2.395   1.055  14.711 -0.4636 -0.3889  0.1189
 3907SOL    HW123183   2.344   0.986  14.669 -0.5951 -1.0741  1.4077
 3907SOL    HW223184   2.375   1.128  14.652  1.3237  0.2413  0.2986
 3908SOL     OW23185   1.278   3.341  10.857 -0.1179 -0.2165 -0.2049
 3908SOL    HW123186   1.324   3.370  10.936 -1.7624  2.5104 -0.2118
 3908SOL    HW223187   1.284   3.415  10.796 -0.2803 -1.7270 -2.0630
 3909SOL     OW23188   0.542   4.482   2.186 -0.4245  0.9957  0.3657
 3909SOL    HW123189   0.494   4.520   2.260 -0.3241  1.4725  0.1913
 3909SOL    HW223190   0.477   4.442   2.129 -0.8277  1.0861  0.7582
 3910SOL     OW23191   3.717   1.370  15.172 -0.0968 -0.1711 -0.0991
 3910SOL    HW123192   3.690   1.330  15.254  2.4176 -2.5603 -0.4544
 3910SOL    HW223193   3.717   1.292  15.117  0.3209 -0.6568  0.6024
 3911SOL     OW23194   0.279   1.852   6.600 -0.0514 -0.0012 -0.3439
 3911SOL    HW123195   0.283   1.946   6.584  2.1513 -0.0705 -0.1492
 3911SOL    HW223196   0.207   1.834   6.540 -0.9999 -0.4980  0.9382
 3912SOL     OW23197   3.843   2.148   5.327 -0.4151 -0.4636 -0.0422
 3912SOL    HW123198   3.807   2.217   5.273 -2.1888 -2.3385 -1.2349
 3912SOL    HW223199   3.770   2.086   5.320  1.3749 -2.4001 -1.5405
 3913SOL     OW23200   1.367   1.599   8.824 -0.1433 -0.2164  0.4654
 3913SOL    HW123201   1.413   1.517   8.841  1.6468  0.6690 -0.0536
 3913SOL    HW223202   1.342   1.622   8.914  0.8639  2.7950 -0.0363
 3914SOL     OW23203   1.513   0.206   8.595  0.2027 -0.5486 -0.3718
 3914SOL    HW123204   1.545   0.292   8.570 -1.3497  0.0688 -0.2474
 3914SOL    HW223205   1.436   0.203   8.538  0.6922  1.3198 -1.1288
 3915SOL     OW23206   4.351   1.544   4.359  0.2718 -0.3557 -0.0615
 3915SOL    HW123207   4.278   1.516   4.304 -0.3482  0.9331  0.1096
 3915SOL    HW223208   4.304   1.589   4.429  1.6152  1.0337 -0.0458
 3916SOL     OW23209   2.027   3.521  13.681  0.0430 -0.4344 -0.4918
 3916SOL    HW123210   1.970   3.530  13.757  0.3857  3.6489 -0.7231
 3916SOL    HW223211   2.004   3.435  13.644  1.4175  0.4881 -3.5351
 3917SOL     OW23212   2.912   2.277   7.359  0.3096 -0.9425 -0.2620
 3917SOL    HW123213   2.989   2.230   7.328  1.0935 -1.3862  2.3711
 3917SOL    HW223214   2.856   2.200   7.376 -0.0748 -0.5247  0.3935
 3918SOL     OW23215   2.114   1.776   3.538  0.0931 -0.3231  0.1961
 3918SOL    HW123216   2.034   1.733   3.509 -0.9226  2.1090 -0.6243
 3918SOL    HW223217   2.130   1.832   3.462 -1.5451  2.3955  1.8619
 3919SOL     OW23218   1.952   2.920  10.364 -0.5343  0.0463  0.2920
 3919SOL    HW123219   2.022   2.918  10.429  1.0387 -0.4848 -1.4243
 3919SOL    HW223220   1.888   2.871  10.416 -0.6648 -1.4977 -1.3217
 3920SOL     OW23221   1.538   1.026  14.449  0.0887  0.0779 -0.4269
 3920SOL    HW123222   1.450   1.061  14.464  0.6290  1.1379  0.2598
 3920SOL    HW223223   1.558   0.981  14.531  0.3774  0.7853 -0.1053
 3921SOL     OW23224   4.014   1.548   6.283 -0.1318 -0.2145  0.4088
 3921SOL    HW123225   4.048   1.461   6.303  2.5809  0.9781  1.1106
 3921SOL    HW223226   3.993   1.584   6.369  1.7616 -0.2992  0.9070
 3922SOL     OW23227   2.815   2.642   5.285 -0.2694 -0.2784  0.0859
 3922SOL    HW123228   2.803   2.550   5.261 -1.2240  0.6667 -3.1072
 3922SOL    HW223229   2.811   2.641   5.380  0.9868  0.0739  0.1460
 3923SOL     OW23230   2.926   3.617   2.919 -0.2517  0.0805 -0.1473
 3923SOL    HW123231   2.964   3.611   2.831  1.3227 -2.2181  0.6813
 3923SOL    HW223232   2.995   3.666   2.963 -1.8239  1.4138  0.8192
 3924SOL     OW23233   0.609   2.686  13.548  0.3735  0.1673 -0.2321
 3924SOL    HW123234   0.576   2.598  13.533 -0.9242  0.7704 -1.0095
 3924SOL    HW223235   0.626   2.710  13.457  0.8755  2.2448  0.4147
 3925SOL     OW23236   2.349   1.145   9.598 -0.1449  0.1678  0.3385
 3925SOL    HW123237   2.309   1.066   9.563 -0.5751  0.3716  0.3747
 3925SOL    HW223238   2.376   1.190   9.518 -0.2779 -1.4900 -0.6338
 3926SOL     OW23239   0.166   1.498   6.484  0.6501 -0.4007 -0.4609
 3926SOL    HW123240   0.181   1.510   6.391  2.5622 -1.6003 -0.3067
 3926SOL    HW223241   0.075   1.524   6.495  0.5037 -1.0871 -0.0513
 3927SOL     OW23242   4.330   2.599   8.648  0.2330 -0.1277  0.3597
 3927SOL    HW123243   4.346   2.589   8.742  2.5956  0.4097  0.0080
 3927SOL    HW223244   4.418   2.618   8.617  0.0314  1.5513  0.8356
 3928SOL     OW23245   4.134   4.537  12.461 -0.0878 -0.0588 -0.2141
 3928SOL    HW123246   4.226   4.555  12.482 -0.6580  1.9274  0.6272
 3928SOL    HW223247   4.091   4.590  12.529  0.2494  1.6837 -1.3716
 3929SOL     OW23248   4.077   4.231   4.822  0.2222  0.2364 -0.0131
 3929SOL    HW123249   4.093   4.148   4.776 -1.1538 -0.6519  1.1026
 3929SOL    HW223250   4.156   4.285   4.821  0.3254  0.1211  1.7000
 3930SOL     OW23251   0.959   0.156   6.144  0.3363 -0.2047  0.3355
 3930SOL    HW123252   0.958   0.061   6.139  0.0552 -0.1707 -0.2311
 3930SOL    HW223253   0.872   0.165   6.183  0.9205  1.2521  1.2964
 3931SOL     OW23254   4.041   2.543   0.799  0.2426 -0.0172 -0.1031
 3931SOL    HW123255   3.962   2.598   0.800 -0.1844 -0.6454  0.1441
 3931SOL    HW223256   4.026   2.479   0.868 -1.9102 -0.5763 -1.0723
 3932SOL     OW23257   1.918   2.647   3.458 -0.6018  0.2396 -0.4721
 3932SOL    HW123258   1.913   2.743   3.457 -1.3262  0.2063  0.1439
 3932SOL    HW223259   1.828   2.622   3.437 -0.2682 -2.0460  0.9107
 3933SOL     OW23260   1.411   4.559  10.523 -0.3784  0.2505  0.3769
 3933SOL    HW123261   1.420   4.478  10.574  1.5230 -0.3045 -0.8391
 3933SOL    HW223262   1.500   4.589  10.543  0.4852 -2.3250  0.3862
 3934SOL     OW23263   2.034   0.349   7.445  0.0398  0.1253  0.5036
 3934SOL    HW123264   1.941   0.337   7.460 -0.2580 -0.3159 -1.6351
 3934SOL    HW223265   2.058   0.417   7.508  0.1714 -0.1734  0.7799
 3935SOL     OW23266   4.172   1.052   8.473 -0.1393  0.2625  0.6642
 3935SOL    HW123267   4.172   1.135   8.521 -1.3781 -0.5689  2.0670
 3935SOL    HW223268   4.263   1.063   8.443 -0.0421  0.5824  1.0715
 3936SOL     OW23269   0.523   0.318   7.186  0.4127 -0.1568  0.1277
 3936SOL    HW123270   0.510   0.409   7.212 -0.9705 -0.9794  2.3068
 3936SOL    HW223271   0.591   0.332   7.120 -0.9954 -0.6927 -1.4064
 3937SOL     OW23272   4.538   0.774   0.273  0.7522 -0.0688  0.3673
 3937SOL    HW123273   4.542   0.786   0.368  0.5862  0.4121  0.3106
 3937SOL    HW223274   4.493   0.691   0.260  2.7295 -1.2159  0.7008
 3938SOL     OW23275   0.839   2.530  16.287 -0.4650 -0.0107 -0.3423
 3938SOL    HW123276   0.784   2.539  16.209 -2.2959 -0.3379  0.9136
 3938SOL    HW223277   0.925   2.546  16.247 -0.2320 -0.1949  0.0812
 3939SOL     OW23278   0.015   0.518   5.007  0.5378 -0.0005  0.3781
 3939SOL    HW123279   0.011   0.488   4.916 -0.0027 -1.3555  0.8511
 3939SOL    HW223280   0.108   0.498   5.019  0.6597  1.0085  1.1082
 3940SOL     OW23281   2.688   0.908   6.684 -0.0815 -0.1900 -0.3352
 3940SOL    HW123282   2.597   0.930   6.663 -0.2476 -0.9836 -0.4470
 3940SOL    HW223283   2.727   0.905   6.597  0.4352 -1.3604 -0.0553
 3941SOL     OW23284   2.777   1.895   8.741  0.3502  0.3094  0.5051
 3941SOL    HW123285   2.735   1.940   8.668  1.5881  1.2384  0.3812
 3941SOL    HW223286   2.774   1.805   8.707  0.2777  0.3311  0.4548
 3942SOL     OW23287   1.915   3.429  17.375  0.2945  0.1018 -0.5042
 3942SOL    HW123288   1.856   3.373  17.325 -0.7043 -1.3851  2.3171
 3942SOL    HW223289   1.877   3.426  17.463  0.8829 -0.8729 -0.2820
 3943SOL     OW23290   4.025   1.106  12.101 -0.1489  0.0584  0.1471
 3943SOL    HW123291   4.095   1.157  12.142 -0.0009 -0.5527  0.6562
 3943SOL    HW223292   4.057   1.020  12.128  1.0187  0.5300  0.2709
 3944SOL     OW23293   0.396   2.237  13.578 -0.0144  0.7193  0.0611
 3944SOL    HW123294   0.384   2.298  13.651 -1.6757  2.2897 -1.5248
 3944SOL    HW223295   0.314   2.188  13.584  0.3721 -0.3705 -4.1021
 3945SOL     OW23296   1.021   3.152   0.223 -0.4399 -0.4142 -0.1334
 3945SOL    HW123297   1.109   3.126   0.197  0.6537  1.4938  1.6557
 3945SOL    HW223298   1.002   3.186   0.136 -1.4347 -0.7468 -0.0478
 3946SOL     OW23299   0.912   2.790   6.256  0.0040  0.4134  0.5186
 3946SOL    HW123300   0.931   2.698   6.276 -1.0654 -0.6629 -3.4564
 3946SOL    HW223301   0.818   2.805   6.271  0.1529  1.8542 -0.1010
 3947SOL     OW23302   0.996   0.764  12.495  0.6673 -0.3034  0.0466
 3947SOL    HW123303   1.056   0.786  12.566 -1.0275 -1.9183  1.9901
 3947SOL    HW223304   0.986   0.846  12.448 -1.7166  0.0227  1.0701
 3948SOL     OW23305   2.327   0.286  10.113 -0.0437 -0.0288  0.2443
 3948SOL    HW123306   2.266   0.213  10.118 -1.3195  0.9563 -0.8499
 3948SOL    HW223307   2.339   0.300  10.207  0.4111 -0.6182  0.2745
 3949SOL     OW23308   1.553   2.321   7.387 -0.1523  0.1766  0.3335
 3949SOL    HW123309   1.623   2.351   7.445  0.3916 -2.5308  1.0834
 3949SOL    HW223310   1.476   2.367   7.420 -1.2513 -0.2207 -1.6543
 3950SOL     OW23311   4.566   3.477   6.747  0.4993  0.4326  0.2881
 3950SOL    HW123312   4.610   3.561   6.759 -1.5487  1.1244  2.8402
 3950SOL    HW223313   4.621   3.434   6.813  0.5953  1.2549  0.7374
 3951SOL     OW23314   1.021   1.065   5.721 -0.2981  0.5515 -0.5124
 3951SOL    HW123315   0.995   1.070   5.628 -2.2545  2.5939  0.1386
 3951SOL    HW223316   1.099   1.011   5.712 -0.9474 -0.5738  0.5694
 3952SOL     OW23317   0.174   3.561   9.349  0.1108 -0.0424 -0.5490
 3952SOL    HW123318   0.156   3.654   9.362 -0.0397 -0.4379  2.0184
 3952SOL    HW223319   0.179   3.527   9.439  0.3960  1.7978  0.1174
 3953SOL     OW23320   0.672   3.268   2.570  0.4654  0.4401  0.5847
 3953SOL    HW123321   0.764   3.257   2.544  1.0594  1.7124  2.0945
 3953SOL    HW223322   0.633   3.297   2.488 -0.2144 -0.4053  0.6142
 3954SOL     OW23323   0.983   2.831  13.392 -0.5599  0.4600  0.3609
 3954SOL    HW123324   1.015   2.912  13.432  1.5382  0.1483 -0.6675
 3954SOL    HW223325   0.934   2.882  13.328 -0.7439 -1.5892 -1.1363
 3955SOL     OW23326   1.856   2.448  10.078 -0.0395 -0.3042  0.6881
 3955SOL    HW123327   1.918   2.495  10.133  1.4688 -1.1937 -0.2665
 3955SOL    HW223328   1.918   2.395  10.028  2.0589  1.4906  1.3733
 3956SOL     OW23329   4.678   2.879   4.396  0.4388  0.2061  0.1569
 3956SOL    HW123330   4.721   2.794   4.391  1.6043  0.8812 -1.2837
 3956SOL    HW223331   0.025   2.917   4.452  1.9194  1.2928 -2.4267
 3957SOL     OW23332   3.129   2.038   4.745 -0.0586 -0.1140  0.1976
 3957SOL    HW123333   3.146   2.014   4.836  4.1638 -3.5365 -1.4870
 3957SOL    HW223334   3.106   2.130   4.737  1.2497  0.2256  0.4302
 3958SOL     OW23335   3.630   3.824  17.010 -0.2338 -0.8954  0.2730
 3958SOL    HW123336   3.546   3.780  16.997 -0.6471 -0.2549  0.8121
 3958SOL    HW223337   3.653   3.832  16.917 -0.4812  2.4244  0.5242
 3959SOL     OW23338   2.824   0.151   8.445  0.3405  0.1016  0.7756
 3959SOL    HW123339   2.884   0.083   8.475  0.0004 -1.7135 -2.6620
 3959SOL    HW223340   2.742   0.103   8.454  0.1356 -0.1596 -2.3963
 3960SOL     OW23341   0.534   2.120   2.061 -0.0380 -0.1653  0.3921
 3960SOL    HW123342   0.587   2.071   2.125  0.4643  1.0148  0.8789
 3960SOL    HW223343   0.540   2.207   2.100 -0.1100 -0.3606  0.8478
 3961SOL     OW23344   4.522   0.823  16.245  0.8033 -0.2641 -0.1977
 3961SOL    HW123345   4.467   0.829  16.167  0.8965 -0.1273 -0.2527
 3961SOL    HW223346   4.522   0.729  16.264 -0.2826 -0.1359  0.4371
 3962SOL     OW23347   1.448   3.618  14.961  0.5112  0.1684  0.2778
 3962SOL    HW123348   1.483   3.636  14.873  0.0312  1.0498  0.2753
 3962SOL    HW223349   1.508   3.672  15.012  0.8991  0.3782 -0.4047
 3963SOL     OW23350   0.965   4.521   4.607 -1.0498 -0.1141  0.0283
 3963SOL    HW123351   1.043   4.469   4.587 -0.0306  1.4142  0.0524
 3963SOL    HW223352   0.925   4.549   4.525 -1.6896 -0.2428  0.2891
 3964SOL     OW23353   2.993   3.082   0.488 -0.2593 -0.0375  0.0652
 3964SOL    HW123354   3.050   3.148   0.529 -1.9001  1.9087 -0.8102
 3964SOL    HW223355   3.009   3.002   0.538  1.1875 -0.0532 -0.4064
 3965SOL     OW23356   1.085   0.017   9.343  0.1059 -0.3135 -0.0140
 3965SOL    HW123357   1.070   4.649   9.375  2.7540 -1.1760 -1.1876
 3965SOL    HW223358   1.024   0.070   9.394  1.9847  0.1886  1.7034
 3966SOL     OW23359   1.618   1.657   7.340  0.1848 -0.7202 -0.1076
 3966SOL    HW123360   1.670   1.716   7.284  0.0568  1.3829  1.9866
 3966SOL    HW223361   1.608   1.712   7.418 -0.4934  1.6441 -1.8574
 3967SOL     OW23362   0.634   2.146   6.172  0.9683  0.3269 -0.5103
 3967SOL    HW123363   0.712   2.159   6.225  0.8212  0.3420 -0.2950
 3967SOL    HW223364   0.634   2.221   6.112 -1.5390  0.4220 -0.4096
 3968SOL     OW23365   4.712   0.026   6.233  0.6753  0.2365  0.5047
 3968SOL    HW123366   4.699   0.076   6.313 -0.4167 -0.9694  1.0683
 3968SOL    HW223367   4.709   4.660   6.270 -0.8341 -0.5100 -1.4016
 3969SOL     OW23368   1.851   1.391   3.155  0.1168  0.4967  0.6786
 3969SOL    HW123369   1.836   1.301   3.127 -1.5181  0.4512  1.7279
 3969SOL    HW223370   1.873   1.380   3.248  1.7783 -1.7814  0.0250
 3970SOL     OW23371   2.143   2.877   8.365  0.8073 -0.5031 -0.0247
 3970SOL    HW123372   2.177   2.962   8.394  0.9621 -0.8541  0.8061
 3970SOL    HW223373   2.213   2.858   8.302  0.3150 -2.0335 -0.1003
 3971SOL     OW23374   0.239   0.982  12.989 -0.4228 -0.3053  0.6557
 3971SOL    HW123375   0.255   1.062  13.039  0.4749 -0.2833  0.3231
 3971SOL    HW223376   0.144   0.994  12.985 -0.5351 -1.0412  1.0453
 3972SOL     OW23377   2.078   2.088   2.876 -0.3081 -0.1014 -0.1937
 3972SOL    HW123378   2.074   2.031   2.799 -1.9511 -1.6683  1.0537
 3972SOL    HW223379   2.128   2.159   2.835 -0.6408  0.2361 -0.0045
 3973SOL     OW23380   3.824   0.479   2.435 -0.5001  0.6670 -0.1556
 3973SOL    HW123381   3.815   0.449   2.345  0.8879  1.0015 -0.4053
 3973SOL    HW223382   3.771   0.557   2.419 -1.1390  0.2530 -0.0861
 3974SOL     OW23383   4.471   3.090  15.625 -0.5115 -0.1133  0.4892
 3974SOL    HW123384   4.535   3.109  15.556  0.4463  1.0657  1.7014
 3974SOL    HW223385   4.388   3.098  15.578 -1.1957  0.3452  1.7874
 3975SOL     OW23386   3.127   2.972  11.819  0.0210  0.0630  0.4771
 3975SOL    HW123387   3.109   3.055  11.863  1.3506  0.8873 -0.5450
 3975SOL    HW223388   3.214   2.982  11.781 -1.3153  0.8919 -2.3552
 3976SOL     OW23389   3.950   2.868  12.162 -0.6743 -0.0545 -0.3717
 3976SOL    HW123390   4.004   2.937  12.123 -0.7706  0.0043 -0.4016
 3976SOL    HW223391   4.018   2.817  12.205 -1.4465  0.2030  1.1568
 3977SOL     OW23392   3.360   3.380  17.446 -0.4603  0.1723 -0.2448
 3977SOL    HW123393   3.396   3.355  17.531 -0.4817  0.0089 -0.2836
 3977SOL    HW223394   3.268   3.356  17.456 -0.3366 -1.1531 -2.2462
 3978SOL     OW23395   0.042   2.739  15.991 -0.2327 -0.1758  0.3717
 3978SOL    HW123396   4.690   2.762  15.935 -0.3115 -0.7479  0.2440
 3978SOL    HW223397   0.078   2.670  15.935 -0.4631 -1.2236  1.5018
 3979SOL     OW23398   2.968   0.753  10.332 -0.0076 -0.0568 -0.2307
 3979SOL    HW123399   2.916   0.684  10.374  1.6647 -0.2938  1.4849
 3979SOL    HW223400   2.929   0.767  10.246  0.3601  0.5819 -0.2859
 3980SOL     OW23401   1.218   2.575   2.425 -0.2976 -0.0148 -0.3043
 3980SOL    HW123402   1.216   2.485   2.392 -1.1758 -0.6340  1.4299
 3980SOL    HW223403   1.213   2.566   2.520 -2.0541 -1.4656 -0.5239
 3981SOL     OW23404   0.750   2.923   8.603  0.5930 -0.1994 -0.1070
 3981SOL    HW123405   0.774   3.010   8.637  1.0873  0.2802 -1.6731
 3981SOL    HW223406   0.819   2.870   8.642 -2.9098 -3.0629  2.1534
 3982SOL     OW23407   3.305   1.362   6.624 -0.1202  0.7934 -0.2370
 3982SOL    HW123408   3.294   1.273   6.591 -0.7907  1.0222 -0.6209
 3982SOL    HW223409   3.219   1.376   6.662  0.0259  0.4763  0.2032
 3983SOL     OW23410   1.408   3.983   6.822 -0.1453 -0.7013 -0.3203
 3983SOL    HW123411   1.414   3.984   6.727  0.1226  1.3587 -0.2813
 3983SOL    HW223412   1.426   3.889   6.830  1.0142 -0.3767  0.8677
 3984SOL     OW23413   3.454   1.437  12.269 -0.2108  0.2836  0.3980
 3984SOL    HW123414   3.485   1.405  12.354 -0.8319 -1.9879 -0.2316
 3984SOL    HW223415   3.368   1.472  12.294 -1.4085 -0.8753 -2.1415
 3985SOL     OW23416   3.658   3.026   8.486 -0.3256  0.6130  0.4865
 3985SOL    HW123417   3.728   2.970   8.520 -0.5117 -1.4819 -2.4739
 3985SOL    HW223418   3.708   3.105   8.470  1.2875 -0.9240 -2.1772
 3986SOL     OW23419   2.422   0.498   6.104  0.0250  0.0946 -0.1272
 3986SOL    HW123420   2.346   0.458   6.063 -0.4770  1.6593 -0.7357
 3986SOL    HW223421   2.414   0.591   6.081  1.9965  0.5920  1.1933
 3987SOL     OW23422   2.412   0.514  12.007 -0.1976  0.2266  0.2695
 3987SOL    HW123423   2.371   0.453  11.945  0.0291 -0.7936  1.1112
 3987SOL    HW223424   2.389   0.592  11.957  0.3177 -0.3464 -0.8773
 3988SOL     OW23425   3.636   2.634  12.294 -0.4443 -0.3665 -0.0619
 3988SOL    HW123426   3.553   2.627  12.341  0.3622  0.7414  1.5127
 3988SOL    HW223427   3.659   2.541  12.286  0.2975 -0.1232 -0.7815
 3989SOL     OW23428   1.650   2.709  15.014  0.0284 -0.0983  0.3383
 3989SOL    HW123429   1.723   2.683  15.071 -2.1986 -1.0058  2.8011
 3989SOL    HW223430   1.697   2.754  14.944 -1.3164 -0.3997 -0.7656
 3990SOL     OW23431   0.424   3.431   2.085 -0.0917  0.1498  0.6546
 3990SOL    HW123432   0.426   3.381   2.003 -2.9009 -1.2028  1.4150
 3990SOL    HW223433   0.340   3.475   2.073  0.1611  0.7696  1.2246
 3991SOL     OW23434   1.502   4.162   3.610  0.2008  0.1140  0.1481
 3991SOL    HW123435   1.498   4.138   3.702  0.1724 -0.7201 -0.0730
 3991SOL    HW223436   1.408   4.171   3.592  0.3012  1.4168  0.2251
 3992SOL     OW23437   3.835   2.313   2.397  0.4521 -0.0418  0.9351
 3992SOL    HW123438   3.743   2.339   2.389  0.5052  0.0009  0.4299
 3992SOL    HW223439   3.879   2.384   2.349  0.8302 -1.6130 -1.0403
 3993SOL     OW23440   4.223   4.203   9.346 -1.0341 -0.2472 -0.3369
 3993SOL    HW123441   4.183   4.289   9.350 -0.8402 -0.1660 -0.1485
 3993SOL    HW223442   4.216   4.166   9.258  2.9035 -0.2850 -0.6076
 3994SOL     OW23443   4.006   4.457   1.877 -0.3001  0.1616 -0.3843
 3994SOL    HW123444   3.977   4.443   1.967  2.2145  0.3453  0.4675
 3994SOL    HW223445   3.970   4.542   1.851  1.8446  0.6100 -1.8807
 3995SOL     OW23446   4.130   0.777  17.345 -0.4973 -0.4570  0.1640
 3995SOL    HW123447   4.090   0.844  17.400  1.4246 -0.0750  1.1143
 3995SOL    HW223448   4.221   0.768  17.373 -0.8541 -0.7674  1.2234
 3996SOL     OW23449   2.793   1.499   2.111 -0.6634 -0.3073  0.2519
 3996SOL    HW123450   2.857   1.538   2.050 -0.8838 -0.1239  0.1370
 3996SOL    HW223451   2.787   1.418   2.061  1.0063  0.7839 -1.7350
 3997SOL     OW23452   0.718   1.130   6.348 -0.3664  0.1763 -0.2971
 3997SOL    HW123453   0.680   1.216   6.367 -0.0449  0.0264  1.0614
 3997SOL    HW223454   0.696   1.072   6.421  0.4952 -0.0657 -0.2381
 3998SOL     OW23455   1.736   2.368   0.687  0.1770  0.1640 -0.5105
 3998SOL    HW123456   1.669   2.427   0.653 -0.9215 -0.6743  0.2237
 3998SOL    HW223457   1.815   2.400   0.643  0.6839 -1.5968 -0.8580
 3999SOL     OW23458   3.848   2.736  10.775 -0.7515 -0.8009  0.1474
 3999SOL    HW123459   3.792   2.764  10.847  0.9006  0.0692  1.0753
 3999SOL    HW223460   3.902   2.815  10.765 -1.7171 -0.1728 -0.1551
 4000SOL     OW23461   1.411   2.586  11.907 -0.3709  0.8466 -0.4705
 4000SOL    HW123462   1.466   2.529  11.961 -0.4652  2.3295  1.1684
 4000SOL    HW223463   1.330   2.535  11.904  1.3502 -1.9081  0.4792
 4001SOL     OW23464   4.371   3.821   5.533  0.2763 -0.8656 -0.0609
 4001SOL    HW123465   4.359   3.830   5.439  0.9505  1.2249  0.0490
 4001SOL    HW223466   4.365   3.915   5.550  1.5461 -0.9827  1.0678
 4002SOL     OW23467   4.664   0.748   4.761 -0.0200  0.6749 -0.2571
 4002SOL    HW123468   4.673   0.714   4.850 -0.5830 -1.1930 -0.9233
 4002SOL    HW223469   4.648   0.837   4.795  0.8810  0.8100 -0.2045
 4003SOL     OW23470   0.928   1.331   3.639  0.0654  0.0032 -0.3688
 4003SOL    HW123471   0.960   1.412   3.678  0.1202 -0.2211  0.0505
 4003SOL    HW223472   1.014   1.290   3.628 -0.0423 -0.2176 -0.3826
 4004SOL     OW23473   3.824   4.705   7.203  0.0118 -0.0988 -0.7830
 4004SOL    HW123474   3.734   0.015   7.195 -0.3342 -1.1935 -1.2684
 4004SOL    HW223475   3.874   0.064   7.191  0.1815 -0.3797 -1.9783
 4005SOL     OW23476   2.475   2.029   3.758 -0.5170  0.1935 -0.2645
 4005SOL    HW123477   2.391   1.990   3.736  0.7174 -2.0121 -1.0523
 4005SOL    HW223478   2.453   2.112   3.800  1.4591  0.8787 -0.5678
 4006SOL     OW23479   3.641   4.342   9.982  0.1708 -0.5106 -0.5934
 4006SOL    HW123480   3.569   4.379   9.931  0.1593 -0.4349 -0.5221
 4006SOL    HW223481   3.610   4.253   9.997 -0.5443 -0.2253 -0.3766
 4007SOL     OW23482   1.083   1.357   1.783 -0.1204 -0.3724  0.7057
 4007SOL    HW123483   1.063   1.266   1.803 -1.0644 -0.6892 -1.6822
 4007SOL    HW223484   1.058   1.357   1.691  0.4345  1.8360  0.5540
 4008SOL     OW23485   4.289   4.386   0.491 -0.4535  0.0995 -0.3416
 4008SOL    HW123486   4.211   4.353   0.449 -0.5687  0.0188 -0.0658
 4008SOL    HW223487   4.257   4.402   0.580  1.0964 -1.4295  0.5024
 4009SOL     OW23488   2.409   3.753  12.304  0.6544  0.2161 -0.2880
 4009SOL    HW123489   2.425   3.662  12.281  0.0360  0.0655 -0.1013
 4009SOL    HW223490   2.318   3.742  12.329  0.2877 -0.4501 -1.8884
 4010SOL     OW23491   1.920   4.603   2.423 -0.5671 -0.2412  0.3710
 4010SOL    HW123492   1.934   4.660   2.498 -2.1509 -0.0515  0.5095
 4010SOL    HW223493   1.839   4.643   2.391  0.5566  0.9814 -0.9357
 4011SOL     OW23494   2.667   3.608  17.153  0.6035 -0.1669 -0.2500
 4011SOL    HW123495   2.581   3.618  17.192  1.3697 -1.7919  1.8505
 4011SOL    HW223496   2.657   3.544  17.083 -0.6042 -0.4215  0.1641
 4012SOL     OW23497   4.659   0.842  10.569 -0.1969  0.2753 -0.5738
 4012SOL    HW123498   4.682   0.880  10.654 -3.0129  2.7847 -0.9319
 4012SOL    HW223499   0.014   0.847  10.512  0.3138 -2.2364 -0.1196
 4013SOL     OW23500   3.139   2.264   8.581 -0.6058  0.3875 -1.0460
 4013SOL    HW123501   3.161   2.175   8.606 -1.2627  0.4606 -0.1709
 4013SOL    HW223502   3.209   2.323   8.608 -1.5549  2.2616 -2.6818
 4014SOL     OW23503   2.274   1.293   9.819  0.0054  0.5770  0.3282
 4014SOL    HW123504   2.212   1.338   9.761  1.9404  1.5539 -1.0186
 4014SOL    HW223505   2.307   1.230   9.755 -1.3034 -0.1028  0.3191
 4015SOL     OW23506   2.268   2.973   0.357  0.2012 -0.2729 -0.4087
 4015SOL    HW123507   2.254   3.037   0.427 -0.7448 -1.0442  0.0989
 4015SOL    HW223508   2.220   3.004   0.280 -0.9535 -1.3676 -0.1182
 4016SOL     OW23509   0.972   2.656   4.820 -0.5482  0.1735 -0.4726
 4016SOL    HW123510   0.876   2.664   4.824 -0.7534 -2.3390 -0.1710
 4016SOL    HW223511   0.982   2.585   4.756  4.0600  0.5375 -0.1442
 4017SOL     OW23512   1.713   2.103   9.799 -0.3443 -0.3948  0.1096
 4017SOL    HW123513   1.694   2.192   9.830  1.4744  0.1512 -0.3298
 4017SOL    HW223514   1.742   2.057   9.877  1.3176  0.6109  0.1056
 4018SOL     OW23515   4.108   0.613   5.768 -0.1302 -0.6031 -0.1225
 4018SOL    HW123516   4.105   0.521   5.793  1.2304 -0.8052 -0.7215
 4018SOL    HW223517   4.077   0.645   5.853  1.2965 -1.4958  0.7418
 4019SOL     OW23518   3.181   1.640   9.222 -0.2205 -0.2020 -0.2906
 4019SOL    HW123519   3.188   1.641   9.318 -0.8266  0.9602 -0.2533
 4019SOL    HW223520   3.109   1.702   9.209  1.0597  1.6268  1.3202
 4020SOL     OW23521   1.780   2.087   7.929 -0.4866  0.9928 -0.2035
 4020SOL    HW123522   1.850   2.099   7.865 -0.6742 -1.7736 -0.9117
 4020SOL    HW223523   1.726   2.164   7.912 -0.1426  1.3347  0.2371
 4021SOL     OW23524   0.821   0.493  15.268 -0.2900  0.2342 -0.0281
 4021SOL    HW123525   0.785   0.427  15.327 -1.1620 -1.0589 -2.0048
 4021SOL    HW223526   0.886   0.543  15.317  0.2144  0.2209 -0.6879
 4022SOL     OW23527   0.057   4.494   4.452 -0.0038 -0.2770 -0.1561
 4022SOL    HW123528   4.694   4.514   4.492 -0.2027 -1.4352 -0.0200
 4022SOL    HW223529   0.079   4.404   4.477  2.4875  0.5859  0.8098
 4023SOL     OW23530   1.776   3.554   6.998  0.3300 -0.2992  0.1245
 4023SOL    HW123531   1.840   3.541   7.068  0.1950 -0.4602  0.2173
 4023SOL    HW223532   1.779   3.466   6.961 -0.0176  0.5202 -1.8614
 4024SOL     OW23533   2.815   3.152   9.308  0.2791 -0.4720 -0.4017
 4024SOL    HW123534   2.741   3.100   9.279  0.4295  0.7241 -2.9315
 4024SOL    HW223535   2.778   3.240   9.303  0.5572 -0.2121  2.4602
 4025SOL     OW23536   3.365   3.219   5.437 -0.7278 -0.0419 -0.2984
 4025SOL    HW123537   3.455   3.186   5.427  0.2864  2.6012  0.1403
 4025SOL    HW223538   3.321   3.152   5.489 -0.1333 -0.6612 -0.5852
 4026SOL     OW23539   4.573   3.182   7.590  0.3914  0.1231 -0.5359
 4026SOL    HW123540   4.605   3.095   7.567  0.5726 -0.4136  1.7285
 4026SOL    HW223541   4.648   3.240   7.580  1.4994 -1.7163 -2.8413
 4027SOL     OW23542   3.753   0.317   9.594  0.8336  0.2703  0.0739
 4027SOL    HW123543   3.820   0.343   9.530  3.7459 -1.7381  2.2825
 4027SOL    HW223544   3.696   0.392   9.580 -1.6535 -1.9237 -1.5281
 4028SOL     OW23545   4.652   0.732   2.794  0.0698  0.0791  0.0476
 4028SOL    HW123546   4.641   0.655   2.738  0.3817 -0.5164  0.8042
 4028SOL    HW223547   4.561   0.759   2.781  0.5295  0.9782 -1.2543
 4029SOL     OW23548   2.561   1.784   5.183  0.1580  0.1766 -0.2123
 4029SOL    HW123549   2.610   1.733   5.248 -1.4441  0.1531  1.0018
 4029SOL    HW223550   2.531   1.717   5.121 -2.6514  0.0364  1.2783
 4030SOL     OW23551   4.270   0.006   2.377 -0.1407  0.4359 -0.1451
 4030SOL    HW123552   4.229   0.044   2.299 -0.2084  0.8230  0.0761
 4030SOL    HW223553   4.212   4.652   2.384  0.1274  0.2962  0.5388
 4031SOL     OW23554   0.969   4.489   8.159  0.0641  0.2068  0.1503
 4031SOL    HW123555   0.954   4.500   8.065  1.2394 -3.4476 -0.4790
 4031SOL    HW223556   0.979   4.581   8.183  1.3456 -0.0915  0.8058
 4032SOL     OW23557   4.401   1.001  13.126  0.7295 -0.5183  0.6276
 4032SOL    HW123558   4.355   0.920  13.107  1.1345 -1.3561  3.1368
 4032SOL    HW223559   4.345   1.076  13.112  0.9971 -0.1540  1.4808
 4033SOL     OW23560   3.872   2.254  14.093 -0.0574 -0.2343 -0.0399
 4033SOL    HW123561   3.854   2.238  14.185 -0.2509 -0.0523 -0.0460
 4033SOL    HW223562   3.961   2.287  14.084 -1.2087  2.3501 -1.7989
 4034SOL     OW23563   3.721   2.492   8.569 -0.1516  0.6913 -0.3791
 4034SOL    HW123564   3.675   2.458   8.646 -2.5464  0.2110 -2.0294
 4034SOL    HW223565   3.654   2.551   8.534 -1.5204 -1.0408 -0.7119
 4035SOL     OW23566   0.386   2.940   0.600 -0.2564  0.0478  0.0427
 4035SOL    HW123567   0.400   2.885   0.523 -2.6681  0.3546 -0.6046
 4035SOL    HW223568   0.339   2.883   0.660 -0.2969  0.4804  0.4292
 4036SOL     OW23569   2.666   4.122   3.005 -0.1559 -0.6392  0.7128
 4036SOL    HW123570   2.761   4.116   3.014  0.0225  0.4274 -0.3732
 4036SOL    HW223571   2.639   4.046   2.953  0.1329  1.0888 -1.9473
 4037SOL     OW23572   3.674   2.872   9.043  0.5549 -0.2046 -0.8178
 4037SOL    HW123573   3.601   2.917   9.086  0.9172 -0.0104 -0.4004
 4037SOL    HW223574   3.699   2.935   8.976  0.0313  0.0976 -0.7321
 4038SOL     OW23575   0.577   1.402   0.893  0.1899  0.1392  0.1598
 4038SOL    HW123576   0.484   1.382   0.879  0.2917  0.2569 -0.6644
 4038SOL    HW223577   0.617   1.424   0.809  2.0659 -0.8470  0.8041
 4039SOL     OW23578   0.434   2.014  10.829  0.1153 -0.3028 -0.0606
 4039SOL    HW123579   0.440   2.022  10.924  2.9205 -3.0778 -0.0164
 4039SOL    HW223580   0.487   1.936  10.812 -1.6657 -1.2634 -1.2612
 4040SOL     OW23581   0.688   4.191   6.347 -0.2557 -0.5119  0.0244
 4040SOL    HW123582   0.698   4.182   6.253 -1.4355 -1.9089  0.0307
 4040SOL    HW223583   0.775   4.226   6.366 -0.7103  0.4315  0.3485
 4041SOL     OW23584   3.829   1.840   2.643  0.1734 -0.0539 -0.2413
 4041SOL    HW123585   3.878   1.761   2.618 -0.1407 -0.0052 -0.9889
 4041SOL    HW223586   3.890   1.879   2.706  1.1442  0.9766 -1.8256
 4042SOL     OW23587   2.257   2.241  10.286 -0.0903  0.3518  1.0450
 4042SOL    HW123588   2.262   2.154  10.247 -1.8168  1.7668 -2.2771
 4042SOL    HW223589   2.341   2.237  10.332  0.2723 -2.2045  0.1553
 4043SOL     OW23590   4.116   3.850   6.770  0.0660 -0.3174 -0.5365
 4043SOL    HW123591   4.176   3.776   6.778 -1.0808 -1.3233 -1.2801
 4043SOL    HW223592   4.119   3.853   6.675 -0.3334 -0.0278 -0.5402
 4044SOL     OW23593   1.281   0.012  11.017 -0.0231  0.0247  0.7116
 4044SOL    HW123594   1.363   0.006  10.967 -0.6492  1.3355 -0.4722
 4044SOL    HW223595   1.226   4.710  10.942  1.4320  0.3772 -0.4873
 4045SOL     OW23596   4.553   1.335   2.824  0.1660  0.4587  0.3511
 4045SOL    HW123597   4.572   1.290   2.741 -0.2539  2.5084 -0.8540
 4045SOL    HW223598   4.511   1.414   2.789 -1.4957 -0.1830  0.8707
 4046SOL     OW23599   0.105   1.747   5.360  0.4759  0.0122 -0.2570
 4046SOL    HW123600   0.184   1.784   5.321 -0.7294  1.1920 -1.5707
 4046SOL    HW223601   0.131   1.659   5.330 -0.4204 -0.0634 -0.8180
 4047SOL     OW23602   3.627   3.762   1.827 -0.0251  0.5847  0.6378
 4047SOL    HW123603   3.693   3.819   1.787  1.0823 -0.1566  1.4129
 4047SOL    HW223604   3.546   3.808   1.802  0.7711  0.2424 -2.4544
 4048SOL     OW23605   2.910   2.195   1.766 -0.5419 -0.1433 -0.5012
 4048SOL    HW123606   2.907   2.175   1.859 -0.8942 -0.2373 -0.5351
 4048SOL    HW223607   2.995   2.239   1.769 -0.4545 -0.3221 -0.3897
 4049SOL     OW23608   3.142   1.349   7.044  0.0630  0.1273  0.2843
 4049SOL    HW123609   3.075   1.293   7.082  0.7236 -1.1348 -0.4166
 4049SOL    HW223610   3.129   1.434   7.087 -1.3041 -0.2211  0.5474
 4050SOL     OW23611   4.109   1.521   8.908 -0.1127 -0.2214  0.3988
 4050SOL    HW123612   4.205   1.513   8.915 -0.0628 -0.5790 -0.7180
 4050SOL    HW223613   4.102   1.595   8.848  1.3829 -1.7118 -1.6234
 4051SOL     OW23614   0.395   3.488   7.863 -0.4951  0.0304 -0.5678
 4051SOL    HW123615   0.342   3.533   7.797 -2.4763 -0.0692  0.9270
 4051SOL    HW223616   0.339   3.411   7.879 -1.6966  0.8951 -0.5947
 4052SOL     OW23617   2.446   0.598   9.254 -0.0995 -0.4070 -0.2659
 4052SOL    HW123618   2.452   0.692   9.271  0.0172  0.0080 -2.5555
 4052SOL    HW223619   2.478   0.563   9.337 -3.1254  0.9909  1.4892
 4053SOL     OW23620   0.041   2.756   3.276 -0.0660  0.0234 -0.1128
 4053SOL    HW123621   0.022   2.678   3.328 -0.5960 -0.0112 -0.3581
 4053SOL    HW223622   0.127   2.727   3.247 -0.1391 -0.0994 -0.2034
 4054SOL     OW23623   0.156   1.064   7.125 -0.2377  0.2424 -0.1259
 4054SOL    HW123624   0.162   0.972   7.149  1.3782  0.0615 -1.2462
 4054SOL    HW223625   0.240   1.076   7.082  0.5941 -1.2342  1.1147
 4055SOL     OW23626   2.200   0.794  10.110  0.3279  0.0261 -0.3878
 4055SOL    HW123627   2.293   0.775  10.119  0.5795  2.6281  2.5176
 4055SOL    HW223628   2.213   0.888  10.095 -0.1342 -0.2205 -2.2434
 4056SOL     OW23629   0.111   2.012   0.907  0.4388 -0.2659  0.3037
 4056SOL    HW123630   0.107   2.072   0.981  2.8589 -0.9415  0.9939
 4056SOL    HW223631   0.059   2.059   0.842  1.9610  0.9597 -0.0137
 4057SOL     OW23632   2.559   3.270   9.315  0.1283  0.3132  0.3664
 4057SOL    HW123633   2.482   3.254   9.369 -1.0327  0.2924 -1.2905
 4057SOL    HW223634   2.597   3.346   9.360  0.6850 -0.7681  1.7393
 4058SOL     OW23635   2.891   4.137   1.548 -0.4937  0.4902 -0.2745
 4058SOL    HW123636   2.926   4.225   1.528 -0.0254  0.4754  0.4866
 4058SOL    HW223637   2.803   4.139   1.511 -1.6327  1.6442  2.4850
 4059SOL     OW23638   1.357   0.066   8.020  0.7217  0.0993  0.0326
 4059SOL    HW123639   1.318   4.720   7.965 -1.9757  2.3678 -0.8465
 4059SOL    HW223640   1.314   0.045   8.103  1.6448 -1.1348  0.1937
 4060SOL     OW23641   1.790   3.784   6.845  0.1198  0.0494 -0.4754
 4060SOL    HW123642   1.833   3.758   6.764  1.6198  0.5904  0.1558
 4060SOL    HW223643   1.789   3.698   6.887 -2.9384  1.5234  2.5274
 4061SOL     OW23644   3.514   3.918   1.421  0.0757 -0.3117 -0.1274
 4061SOL    HW123645   3.439   3.958   1.377 -0.4704  0.2322  1.2939
 4061SOL    HW223646   3.466   3.877   1.492  0.7271  2.0487  1.6662
 4062SOL     OW23647   2.387   0.017   7.369  0.7828 -0.0106  0.0890
 4062SOL    HW123648   2.302   0.031   7.412  1.1673 -0.2032  0.9116
 4062SOL    HW223649   2.428   4.695   7.444  1.1824  0.2616  0.0260
 4063SOL     OW23650   1.207   0.769   5.365  0.0565 -0.0913  0.4811
 4063SOL    HW123651   1.116   0.795   5.348  0.1974  0.7427  0.9954
 4063SOL    HW223652   1.184   0.717   5.442  1.0778 -1.4703 -0.1477
 4064SOL     OW23653   0.309   3.975   9.796 -0.0616  0.2744  0.2161
 4064SOL    HW123654   0.233   3.923   9.769 -0.5406  0.9101  0.3235
 4064SOL    HW223655   0.367   3.912   9.838  0.5988  0.5899 -0.2217
 4065SOL     OW23656   0.869   4.616   7.939 -0.3734 -0.1421  0.1640
 4065SOL    HW123657   0.817   4.542   7.908 -0.2978 -0.4409  0.7466
 4065SOL    HW223658   0.809   4.671   7.989 -1.6027 -1.8460  0.5493
 4066SOL     OW23659   0.161   1.183   6.191  0.2601 -0.4902 -0.4075
 4066SOL    HW123660   0.221   1.246   6.232  0.1349  0.3962 -1.5810
 4066SOL    HW223661   0.143   1.241   6.117  0.9827  1.8696  1.2498
 4067SOL     OW23662   0.674   3.267   5.541 -0.1965  0.1758  0.3688
 4067SOL    HW123663   0.610   3.307   5.599 -0.1548 -0.1144  0.6192
 4067SOL    HW223664   0.727   3.345   5.527  2.1755 -1.4949 -0.0394
 4068SOL     OW23665   0.326   3.791  11.924  0.1698  0.1649  0.6507
 4068SOL    HW123666   0.350   3.866  11.977 -1.7147  1.5504 -0.4516
 4068SOL    HW223667   0.313   3.730  11.997 -1.7684 -0.7153 -0.4299
 4069SOL     OW23668   2.562   3.280   2.507  0.0734  0.0366  0.3790
 4069SOL    HW123669   2.542   3.311   2.419 -2.3245 -1.6748  0.3325
 4069SOL    HW223670   2.650   3.242   2.509 -0.5111 -1.3217  0.2735
 4070SOL     OW23671   0.062   3.396   9.151  0.4327 -0.2669  0.1590
 4070SOL    HW123672   4.721   3.379   9.222 -0.6416 -0.6740 -0.9015
 4070SOL    HW223673   0.106   3.470   9.193  0.3459  1.0420 -2.1085
 4071SOL     OW23674   3.618   3.861   8.055  0.3625  0.6966  0.1912
 4071SOL    HW123675   3.694   3.912   8.025  0.4694  0.3075 -0.1920
 4071SOL    HW223676   3.632   3.772   8.022  0.2486  0.2001  1.5142
 4072SOL     OW23677   1.560   3.058   5.788 -0.2460  0.0476  0.3575
 4072SOL    HW123678   1.526   3.018   5.709 -1.1622 -0.3841  0.9641
 4072SOL    HW223679   1.642   3.101   5.767  0.6479 -0.8348  2.0329
 4073SOL     OW23680   1.987   4.030   5.578  0.0089 -0.1454 -0.2794
 4073SOL    HW123681   1.935   4.035   5.658 -0.3050 -0.8811 -0.4409
 4073SOL    HW223682   1.921   4.077   5.528  0.5563 -0.1105 -0.9755
 4074SOL     OW23683   3.162   3.649   4.985 -0.1048 -0.6144  0.2030
 4074SOL    HW123684   3.155   3.713   5.057 -1.1583 -0.8009  0.2647
 4074SOL    HW223685   3.257   3.639   4.990 -0.3435 -3.0036  0.0336
 4075SOL     OW23686   0.428   3.156   1.614 -0.2093  0.1897  0.0576
 4075SOL    HW123687   0.373   3.142   1.537 -2.5958  3.7537  1.1177
 4075SOL    HW223688   0.434   3.065   1.643  0.6110  0.0541 -0.5500
 4076SOL     OW23689   4.390   0.085  10.663  0.3211 -0.0036 -0.3784
 4076SOL    HW123690   4.306   0.062  10.623  1.3402  0.4284 -2.7599
 4076SOL    HW223691   4.402   0.174  10.631  0.5521  0.5617  1.2777
 4077SOL     OW23692   4.059   1.379   0.660 -0.3398  0.1453  0.4344
 4077SOL    HW123693   3.968   1.407   0.646  0.0141  0.5358 -1.1297
 4077SOL    HW223694   4.064   1.365   0.754  0.6266  0.4500  0.4301
 4078SOL     OW23695   0.898   2.613  13.816  0.1340  0.2900 -0.4487
 4078SOL    HW123696   0.806   2.637  13.816 -0.5349 -2.2192 -3.6968
 4078SOL    HW223697   0.920   2.607  13.722 -1.8931  0.3242 -0.9194
 4079SOL     OW23698   0.877   4.227  13.552  0.1511 -0.6983 -0.9889
 4079SOL    HW123699   0.789   4.188  13.548 -0.0480 -0.4196  1.0160
 4079SOL    HW223700   0.851   4.318  13.568 -0.1216 -0.9609  0.0530
 4080SOL     OW23701   1.338   2.688   2.742  0.0749  0.1881  0.4689
 4080SOL    HW123702   1.259   2.646   2.774 -1.5318  1.3450 -1.9736
 4080SOL    HW223703   1.390   2.696   2.822 -0.8704  1.6456  0.9461
 4081SOL     OW23704   1.242   4.610  17.076  0.7925  0.6682 -0.3300
 4081SOL    HW123705   1.163   4.560  17.096 -0.3754  2.7744  0.4061
 4081SOL    HW223706   1.301   4.550  17.030  1.0106  2.1109 -1.9372
 4082SOL     OW23707   3.632   0.354   7.768 -0.1402  0.2812  0.0608
 4082SOL    HW123708   3.662   0.442   7.787 -0.3462  0.3244  0.1880
 4082SOL    HW223709   3.705   0.301   7.736  0.2297 -0.9405  2.8975
 4083SOL     OW23710   0.784   1.699   9.335  0.4686 -0.0273 -0.3052
 4083SOL    HW123711   0.879   1.693   9.321  0.6009 -0.9458  0.9297
 4083SOL    HW223712   0.765   1.760   9.264  2.4234  0.2687 -0.5691
 4084SOL     OW23713   0.827   3.095   3.417  0.1170 -0.3507  0.4519
 4084SOL    HW123714   0.872   3.033   3.360 -1.4355 -0.5430 -0.5623
 4084SOL    HW223715   0.855   3.059   3.502  2.4185  2.0897  0.7449
 4085SOL     OW23716   3.826   4.414   9.222 -0.0968 -0.2021  0.2980
 4085SOL    HW123717   3.891   4.351   9.192  1.8833  2.2685 -0.6134
 4085SOL    HW223718   3.751   4.360   9.247 -1.7779  1.4975 -1.0197
 4086SOL     OW23719   1.649   3.352   7.415  0.0256 -0.1840 -0.2648
 4086SOL    HW123720   1.705   3.277   7.434  2.2074  1.5761  0.2778
 4086SOL    HW223721   1.562   3.317   7.434  0.7927 -1.4404  0.8770
 4087SOL     OW23722   4.670   2.995   8.004  0.2415 -0.3947  0.0458
 4087SOL    HW123723   4.657   3.078   7.959  2.4563  0.6714  1.3377
 4087SOL    HW223724   0.039   3.010   8.029  0.8448 -1.9098 -1.2601
 4088SOL     OW23725   0.441   3.006   1.966 -0.4043  0.1033 -0.1547
 4088SOL    HW123726   0.369   2.946   1.987 -1.1469  0.1661 -2.5542
 4088SOL    HW223727   0.475   2.965   1.887  2.1712  0.1863  0.9186
 4089SOL     OW23728   2.065   0.402  10.984 -0.0922  0.8287  0.3023
 4089SOL    HW123729   2.025   0.459  11.049  0.4009 -1.7043  2.8136
 4089SOL    HW223730   2.059   0.318  11.029  1.9973  1.3181  1.5254
 4090SOL     OW23731   4.068   3.831   6.488  0.1701  0.5452  0.3497
 4090SOL    HW123732   3.978   3.833   6.456  0.2159 -2.1969  0.0608
 4090SOL    HW223733   4.092   3.740   6.505 -1.6649 -0.0935 -0.5336
 4091SOL     OW23734   3.866   2.276   6.238 -0.2745 -0.5528 -0.0136
 4091SOL    HW123735   3.906   2.189   6.230 -0.9939 -0.7810 -1.2246
 4091SOL    HW223736   3.777   2.260   6.270  0.9743  0.2760  3.8443
 4092SOL     OW23737   2.237   2.236  13.560  0.0242 -0.4366 -0.3584
 4092SOL    HW123738   2.198   2.192  13.635 -3.1695  3.3344  0.2025
 4092SOL    HW223739   2.183   2.314  13.574  2.7849  0.9774  2.4039
 4093SOL     OW23740   3.248   1.167   3.958 -0.6926  0.2408  0.2668
 4093SOL    HW123741   3.305   1.189   4.032  1.3719  1.4872 -1.7032
 4093SOL    HW223742   3.312   1.129   3.898 -1.2671 -1.2863  0.6336
 4094SOL     OW23743   2.350   3.007   8.887  0.2332  0.1699  0.0804
 4094SOL    HW123744   2.299   2.950   8.830 -2.5014  0.8290  1.8711
 4094SOL    HW223745   2.342   2.955   8.967  1.6933  2.2929  1.5995
 4095SOL     OW23746   0.514   4.514  15.184  0.3749 -0.7501  0.1885
 4095SOL    HW123747   0.519   4.599  15.228  1.4936 -1.0756  0.6828
 4095SOL    HW223748   0.600   4.479  15.206  0.3321 -0.6150  0.5728
 4096SOL     OW23749   4.118   3.838   1.286  0.1710  0.4066 -0.0819
 4096SOL    HW123750   4.207   3.832   1.321  0.0623  1.2047  0.3274
 4096SOL    HW223751   4.141   3.834   1.193  0.7154 -0.2100  0.0803
 4097SOL     OW23752   2.093   3.951   7.172 -0.3637  0.0838 -0.0535
 4097SOL    HW123753   2.027   3.963   7.103  1.1482  1.5460 -1.2344
 4097SOL    HW223754   2.043   3.899   7.234 -1.5787  1.0695 -0.2087
 4098SOL     OW23755   0.144   4.702   2.539 -0.1343  0.8342 -0.5858
 4098SOL    HW123756   0.056   4.672   2.518  0.3706 -0.3096 -1.0953
 4098SOL    HW223757   0.125   0.073   2.526  0.1427  1.2048  1.6492
 4099SOL     OW23758   3.616   2.125   7.109  0.1128 -0.0318  0.7218
 4099SOL    HW123759   3.662   2.142   7.026 -1.6210  1.3638  0.0343
 4099SOL    HW223760   3.640   2.205   7.157 -0.9634 -0.4005  1.8728
 4100SOL     OW23761   3.432   1.616  11.307 -0.5443  0.4639 -0.1438
 4100SOL    HW123762   3.486   1.695  11.298  0.5298 -0.4823 -2.0730
 4100SOL    HW223763   3.389   1.617  11.221 -2.2065  2.0183  0.7008
 4101SOL     OW23764   1.111   2.903   5.976 -0.2529 -0.4035  0.7255
 4101SOL    HW123765   1.198   2.941   5.978 -0.1276 -0.7446  1.7099
 4101SOL    HW223766   1.119   2.845   5.901  1.2997  0.7762 -0.0050
 4102SOL     OW23767   4.565   1.425   2.416 -0.2656 -0.5704  0.0857
 4102SOL    HW123768   4.578   1.421   2.321  0.1227  1.4225  0.0446
 4102SOL    HW223769   4.470   1.438   2.423 -0.3236  0.3638 -2.3770
 4103SOL     OW23770   0.766   2.103  12.088 -0.1122 -0.2276 -0.2259
 4103SOL    HW123771   0.732   2.029  12.138  0.4176 -0.4896 -0.2500
 4103SOL    HW223772   0.790   2.156  12.165 -0.3656  0.1919 -0.4397
 4104SOL     OW23773   2.447   4.562  11.079 -0.3397 -0.3918  0.6384
 4104SOL    HW123774   2.428   4.609  10.998 -1.8015 -0.2338  1.0719
 4104SOL    HW223775   2.533   4.602  11.092 -0.1201 -0.9794  0.9760
 4105SOL     OW23776   0.776   1.734  11.049 -0.0513 -0.2029 -0.6797
 4105SOL    HW123777   0.741   1.646  11.060  0.8799 -0.4745  0.0805
 4105SOL    HW223778   0.766   1.759  11.141  1.8725 -1.3639 -0.1439
 4106SOL     OW23779   0.792   1.406   9.022 -0.3240 -0.5921 -0.3649
 4106SOL    HW123780   0.787   1.405   9.117 -2.0211  0.3914 -0.4459
 4106SOL    HW223781   0.855   1.335   9.006 -1.4817 -1.3765 -1.4651
 4107SOL     OW23782   3.088   1.989   3.879 -0.0798  0.3890  0.7509
 4107SOL    HW123783   3.076   1.997   3.785 -0.4515  0.2179  0.7868
 4107SOL    HW223784   3.005   1.966   3.920  0.2858  0.2592  1.4292
 4108SOL     OW23785   2.821   0.342   3.733  0.7037 -0.0675 -0.4719
 4108SOL    HW123786   2.755   0.400   3.772  0.3075 -1.1982  0.5662
 4108SOL    HW223787   2.865   0.308   3.811  0.9173  0.6182 -0.2962
 4109SOL     OW23788   4.519   4.338   0.311 -0.5058 -0.1289  0.4798
 4109SOL    HW123789   4.497   4.360   0.221  0.9984 -1.8895 -0.3178
 4109SOL    HW223790   4.443   4.346   0.369 -1.3007 -0.8269 -0.4847
 4110SOL     OW23791   0.787   2.266  16.401 -0.2762 -0.6653  0.0340
 4110SOL    HW123792   0.804   2.360  16.394  2.7963 -1.1207  1.6381
 4110SOL    HW223793   0.727   2.243  16.329 -0.3299  1.8994 -0.7584
 4111SOL     OW23794   1.821   0.913   1.232  0.2288 -0.3784  1.0428
 4111SOL    HW123795   1.767   0.926   1.153  0.1385  4.3914  1.8997
 4111SOL    HW223796   1.821   0.818   1.245 -1.9248 -0.8321 -2.2829
 4112SOL     OW23797   3.526   2.993   4.397  0.0052 -0.4329  0.0351
 4112SOL    HW123798   3.564   2.970   4.312 -0.4134 -0.3547 -0.1752
 4112SOL    HW223799   3.461   2.923   4.404 -0.1355 -0.4842 -1.5911
 4113SOL     OW23800   4.448   3.165   3.659  0.3449  0.0371  0.4968
 4113SOL    HW123801   4.412   3.253   3.655 -0.6444 -0.4166 -0.7166
 4113SOL    HW223802   4.392   3.129   3.727  1.2624  0.7628  1.6301
 4114SOL     OW23803   1.733   1.900   1.774  0.2266 -0.2472  0.2596
 4114SOL    HW123804   1.716   1.906   1.868  0.9144  0.1658  0.3493
 4114SOL    HW223805   1.828   1.910   1.771  0.2519 -1.1810 -2.8815
 4115SOL     OW23806   1.298   0.122   8.977 -0.0128  0.2412  0.3402
 4115SOL    HW123807   1.389   0.105   9.000 -0.4362 -2.0467  0.3908
 4115SOL    HW223808   1.259   0.041   9.011  1.0853  0.1192  1.3217
 4116SOL     OW23809   0.687   3.375   7.019  0.2421  0.0266 -0.1370
 4116SOL    HW123810   0.621   3.342   7.081 -0.5792  0.4782 -0.7581
 4116SOL    HW223811   0.755   3.311   7.039  2.1160  2.1866  0.2740
 4117SOL     OW23812   3.928   4.337   6.466 -0.0022  0.6611 -0.3913
 4117SOL    HW123813   4.006   4.315   6.518  0.0593  0.3970 -0.5959
 4117SOL    HW223814   3.905   4.252   6.430 -1.9274  0.4534  1.3159
 4118SOL     OW23815   0.696   3.746   8.330  0.1253  0.3989  0.0421
 4118SOL    HW123816   0.729   3.824   8.374 -0.5122  2.6080 -3.3922
 4118SOL    HW223817   0.771   3.729   8.273 -0.8744  0.4222 -1.3019
 4119SOL     OW23818   1.709   4.671   3.694  0.4344  0.1495  0.1982
 4119SOL    HW123819   1.676   4.719   3.619  1.0367 -1.2523 -0.9644
 4119SOL    HW223820   1.716   0.025   3.752  1.2576 -1.5947  2.3856
 4120SOL     OW23821   1.945   0.073   9.924  0.4442 -0.3935  0.5363
 4120SOL    HW123822   1.894   0.154   9.926  1.3053  0.1974 -1.9037
 4120SOL    HW223823   1.877   0.015   9.960  0.4428 -0.1135  0.9806
 4121SOL     OW23824   2.079   0.601   5.466 -0.6441  0.1758  0.1180
 4121SOL    HW123825   2.077   0.544   5.543  1.6643 -1.6290 -1.1727
 4121SOL    HW223826   2.044   0.680   5.508 -1.4761 -0.0441 -0.1552
 4122SOL     OW23827   1.942   2.303   1.988 -1.1281  0.0589 -0.4674
 4122SOL    HW123828   2.016   2.255   1.952 -0.6337  0.2411  0.3212
 4122SOL    HW223829   1.898   2.233   2.036  0.6097  0.2998  1.4782
 4123SOL     OW23830   0.245   3.824   2.633  0.3610  0.5909  0.1330
 4123SOL    HW123831   0.335   3.792   2.642  0.4026  1.1304  1.6312
 4123SOL    HW223832   0.240   3.873   2.715  1.7123  0.8402  0.0737
 4124SOL     OW23833   4.321   1.841   9.374  0.2566  0.3978  0.2292
 4124SOL    HW123834   4.403   1.885   9.354  0.2108  0.3823  0.0155
 4124SOL    HW223835   4.293   1.877   9.459 -2.0236  0.4840 -0.5590
 4125SOL     OW23836   2.211   2.109  16.387 -0.3467 -0.1416 -0.0174
 4125SOL    HW123837   2.232   2.151  16.304  1.6489  3.4057  2.2646
 4125SOL    HW223838   2.283   2.150  16.435 -0.0854 -1.1372  0.4565
 4126SOL     OW23839   4.616   0.856   5.953  0.3306 -0.5403 -0.5896
 4126SOL    HW123840   4.682   0.801   5.995  0.8376 -1.1411 -2.1620
 4126SOL    HW223841   4.559   0.888   6.023  1.1596 -1.2894  0.4362
 4127SOL     OW23842   2.638   0.412   9.655 -0.5040  0.6509  0.2716
 4127SOL    HW123843   2.584   0.336   9.676  1.3665 -1.5179 -2.6006
 4127SOL    HW223844   2.701   0.417   9.727 -0.0389  1.9789 -0.2176
 4128SOL     OW23845   3.341   4.203   1.128  0.0529  0.2835  0.0809
 4128SOL    HW123846   3.309   4.113   1.119 -1.2631  0.5921  1.6255
 4128SOL    HW223847   3.385   4.216   1.044 -0.4887 -0.4016 -0.3160
 4129SOL     OW23848   2.902   0.903   8.010 -0.3106 -0.3030 -0.1316
 4129SOL    HW123849   2.911   0.811   8.031  0.9254 -0.1174  0.1100
 4129SOL    HW223850   2.958   0.914   7.933 -0.2522  1.0506  0.0974
 4130SOL     OW23851   3.682   2.099   3.580  0.3444 -0.0768 -0.3288
 4130SOL    HW123852   3.660   2.041   3.652 -0.5729  1.1829  0.4035
 4130SOL    HW223853   3.728   2.036   3.525  1.2641  0.7754 -0.5429
 4131SOL     OW23854   2.023   1.121   2.297 -0.3065 -0.1743  0.0240
 4131SOL    HW123855   2.092   1.144   2.359  0.2810  0.6588 -0.9300
 4131SOL    HW223856   2.024   1.026   2.308 -2.0517  0.0745  2.3394
 4132SOL     OW23857   3.755   4.345  11.207  0.3253 -0.1437  0.3094
 4132SOL    HW123858   3.767   4.351  11.112  0.4743  2.1182  0.4796
 4132SOL    HW223859   3.701   4.267  11.196  0.0753  0.2964 -1.5557
 4133SOL     OW23860   2.319   2.985   6.537  0.1448 -0.1714 -0.6956
 4133SOL    HW123861   2.335   2.894   6.510  0.2273  0.0392 -1.3567
 4133SOL    HW223862   2.264   3.010   6.462  0.3629 -1.1208 -1.1785
 4134SOL     OW23863   2.323   3.778   7.218 -0.0365  0.6456  0.1465
 4134SOL    HW123864   2.282   3.691   7.217 -0.2450  0.8194 -3.6701
 4134SOL    HW223865   2.262   3.845   7.187  1.5082  0.7872 -2.5603
 4135SOL     OW23866   0.958   1.195   9.049 -0.1011  0.2168  0.2137
 4135SOL    HW123867   0.982   1.233   9.133 -0.4793  1.0823 -0.0647
 4135SOL    HW223868   1.043   1.191   9.005  0.0599 -1.5747  0.7094
 4136SOL     OW23869   0.355   3.533   5.587  0.0280  0.4915  0.0334
 4136SOL    HW123870   0.432   3.584   5.562  0.1291 -0.3370 -1.3274
 4136SOL    HW223871   0.340   3.497   5.500 -1.4327 -0.5245  0.7126
 4137SOL     OW23872   1.679   1.047  17.120  0.9803  0.3456  0.1824
 4137SOL    HW123873   1.622   1.119  17.093 -0.8257  0.0622  3.2450
 4137SOL    HW223874   1.627   0.972  17.091  2.3261 -0.3213 -0.5368
 4138SOL     OW23875   0.287   3.422   3.303  0.4063 -0.2771  0.5867
 4138SOL    HW123876   0.353   3.363   3.267  0.0708 -0.8603  0.9230
 4138SOL    HW223877   0.282   3.385   3.391 -0.8611  0.0459  0.6504
 4139SOL     OW23878   2.137   3.271   2.772  0.4187  0.1223 -0.2625
 4139SOL    HW123879   2.156   3.361   2.746 -0.5495  0.4569  0.2009
 4139SOL    HW223880   2.216   3.234   2.734  1.3089  1.5887  0.1642
 4140SOL     OW23881   2.038   4.197   7.996 -0.2783 -0.2918 -0.5447
 4140SOL    HW123882   2.042   4.272   8.055 -2.1926 -0.0313 -0.7366
 4140SOL    HW223883   2.087   4.136   8.051 -0.4662  1.7345  1.8695
 4141SOL     OW23884   2.717   2.259   5.999  0.0156 -0.3237 -0.1924
 4141SOL    HW123885   2.678   2.217   6.076 -1.1878  1.7735  0.3257
 4141SOL    HW223886   2.694   2.201   5.926  0.8407  1.0881 -1.5514
 4142SOL     OW23887   0.526   1.535  15.231  0.2980 -0.2282  0.2285
 4142SOL    HW123888   0.499   1.626  15.221 -2.3640 -0.9695  0.4441
 4142SOL    HW223889   0.513   1.528  15.326 -0.2482  2.3116  0.3304
 4143SOL     OW23890   3.698   3.539   8.360  0.1011 -0.3891  0.2903
 4143SOL    HW123891   3.785   3.577   8.355 -0.3672  0.7022  0.5230
 4143SOL    HW223892   3.690   3.551   8.266  0.1226 -1.4023  0.1538
 4144SOL     OW23893   0.062   1.905  10.354  0.2156 -0.2045  0.1125
 4144SOL    HW123894   0.148   1.871  10.329  0.2744  1.4935 -2.0166
 4144SOL    HW223895   0.093   1.982  10.402  3.9004 -1.1521 -0.7653
 4145SOL     OW23896   0.320   4.085  11.839  0.2822 -0.9008 -0.0250
 4145SOL    HW123897   0.270   4.050  11.765  0.2794 -0.7261 -0.1069
 4145SOL    HW223898   0.404   4.043  11.824 -0.7190 -2.2029 -2.0653
 4146SOL     OW23899   3.577   3.880   9.382  0.2145  0.2496 -0.0789
 4146SOL    HW123900   3.556   3.965   9.422  0.8697  0.4179 -0.0932
 4146SOL    HW223901   3.670   3.871   9.401  0.3903  0.1902 -1.0085
 4147SOL     OW23902   0.599   1.812  13.694 -0.7896 -0.1005 -0.2546
 4147SOL    HW123903   0.605   1.906  13.673 -0.5970 -0.4910 -1.9540
 4147SOL    HW223904   0.566   1.807  13.784  1.7368  0.9813  0.7548
 4148SOL     OW23905   1.214   2.340  12.128 -0.1010  0.6467 -0.2051
 4148SOL    HW123906   1.251   2.257  12.099  0.9267  0.7927  0.6662
 4148SOL    HW223907   1.177   2.363  12.043 -0.3796  1.6720  0.1959
 4149SOL     OW23908   0.971   4.409  11.080 -0.1038  0.1465 -0.0751
 4149SOL    HW123909   0.957   4.359  11.000  1.2566 -0.4135  0.0443
 4149SOL    HW223910   0.933   4.349  11.144  0.5822  3.0131  3.0542
 4150SOL     OW23911   0.249   1.089  11.025 -0.4269  0.6178 -0.3012
 4150SOL    HW123912   0.332   1.053  10.994 -0.2476  0.0665  0.8210
 4150SOL    HW223913   0.222   1.148  10.954 -0.1114  0.4706 -0.5427
 4151SOL     OW23914   4.534   3.199   7.853  0.3406  0.1899 -0.1213
 4151SOL    HW123915   4.470   3.266   7.876  1.4584  1.6088 -1.1892
 4151SOL    HW223916   4.535   3.211   7.758 -1.6926 -1.7463 -0.3998
 4152SOL     OW23917   1.373   0.231   0.322  0.5318 -0.0693 -0.4032
 4152SOL    HW123918   1.379   0.311   0.270  0.3892  1.8938  2.6101
 4152SOL    HW223919   1.282   0.210   0.299 -0.4101 -0.3448  3.5970
 4153SOL     OW23920   3.578   4.672  15.739 -0.2679 -0.4384  0.1178
 4153SOL    HW123921   3.493   4.711  15.717  0.0847  0.2511 -0.0239
 4153SOL    HW223922   3.582   4.678  15.834 -3.3605  0.5201  0.1823
 4154SOL     OW23923   4.272   3.349  15.684  0.0501  0.2958  0.3565
 4154SOL    HW123924   4.253   3.287  15.614  0.0102  0.8042 -0.0880
 4154SOL    HW223925   4.352   3.390  15.649  0.6369 -1.0840  0.0847
 4155SOL     OW23926   1.730   1.867  15.575  0.0402 -0.0291  0.5697
 4155SOL    HW123927   1.751   1.959  15.562  0.2982 -0.3628 -1.3287
 4155SOL    HW223928   1.722   1.830  15.487  2.8012  0.0293  0.2899
 4156SOL     OW23929   1.591   1.822  14.552 -0.2342  0.1003  0.1250
 4156SOL    HW123930   1.605   1.796  14.643 -0.1096 -0.0643  0.0588
 4156SOL    HW223931   1.677   1.858  14.531 -0.3331  0.6091  0.5756
 4157SOL     OW23932   2.126   2.636   5.965 -0.2039 -0.0275  0.0715
 4157SOL    HW123933   2.139   2.606   5.875 -1.1385 -3.7110  1.1694
 4157SOL    HW223934   2.180   2.715   5.959  1.3886 -1.0583  0.8568
 4158SOL     OW23935   0.444   2.052   7.397  0.3030 -0.3210  0.3007
 4158SOL    HW123936   0.430   2.132   7.448 -1.1307 -0.4235  0.0400
 4158SOL    HW223937   0.530   2.063   7.356  0.5001  0.0273  0.8011
 4159SOL     OW23938   1.150   4.719   4.135 -0.1393  0.2487 -0.0338
 4159SOL    HW123939   1.227   0.036   4.094 -0.6913  0.4006 -0.9141
 4159SOL    HW223940   1.134   0.055   4.210  0.7122 -1.0662  1.1735
 4160SOL     OW23941   1.570   3.517   5.302 -0.1778 -0.1608 -0.2058
 4160SOL    HW123942   1.602   3.443   5.354  1.0282 -0.8100 -1.8501
 4160SOL    HW223943   1.649   3.532   5.250 -0.0197  0.3772  0.1795
 4161SOL     OW23944   0.539   1.797  13.420  0.1418 -0.3742 -0.1485
 4161SOL    HW123945   0.536   1.762  13.509 -2.8347 -2.2466 -0.9999
 4161SOL    HW223946   0.543   1.720  13.364 -1.2617 -0.4863 -0.0851
 4162SOL     OW23947   1.090   2.021   7.906  0.0256 -0.3645 -0.0678
 4162SOL    HW123948   1.177   1.993   7.933 -0.5183  1.0215  3.0536
 4162SOL    HW223949   1.050   1.934   7.896  1.2398 -1.1784  2.1632
 4163SOL     OW23950   2.808   0.708  14.153  0.0779 -0.4692 -0.2679
 4163SOL    HW123951   2.781   0.720  14.061 -2.6165 -1.4839  0.4022
 4163SOL    HW223952   2.750   0.644  14.193 -0.0019  0.7091  1.4808
 4164SOL     OW23953   1.158   3.836  10.344  0.2681 -0.4867 -0.1743
 4164SOL    HW123954   1.196   3.872  10.264 -0.6337 -0.6465 -0.6659
 4164SOL    HW223955   1.089   3.899  10.365  0.3205 -1.4326  2.7367
 4165SOL     OW23956   3.070   4.432   8.630 -0.0897 -0.5873 -0.2982
 4165SOL    HW123957   3.077   4.353   8.576  0.4839 -1.8746  1.6657
 4165SOL    HW223958   2.992   4.411   8.681  1.0400 -2.1300  0.8164
 4166SOL     OW23959   0.816   4.459   6.704 -0.9494  0.2954  0.0708
 4166SOL    HW123960   0.826   4.521   6.776 -1.5659 -0.6595  0.9958
 4166SOL    HW223961   0.838   4.522   6.636 -0.3494 -0.9786 -0.9063
 4167SOL     OW23962   1.037   0.723  15.010 -0.2430 -0.3692 -0.2885
 4167SOL    HW123963   1.088   0.802  15.030  2.2024 -1.4685 -2.0663
 4167SOL    HW223964   0.996   0.752  14.928  1.1728 -1.0361 -1.2395
 4168SOL     OW23965   3.927   1.176   2.364 -0.1158 -0.8272  0.2538
 4168SOL    HW123966   3.898   1.103   2.311  0.0373  1.5399 -3.1100
 4168SOL    HW223967   3.851   1.233   2.376  0.2730  0.1349 -1.8835
 4169SOL     OW23968   0.687   0.244   4.878 -0.2126 -0.1651  0.5040
 4169SOL    HW123969   0.618   0.198   4.830  0.6971 -0.6448 -0.3464
 4169SOL    HW223970   0.686   0.330   4.835 -1.5066  1.0030  2.9023
 4170SOL     OW23971   0.619   2.965   9.102 -0.1247 -0.0430 -0.3107
 4170SOL    HW123972   0.530   2.935   9.120  0.1145  0.0084  0.9211
 4170SOL    HW223973   0.616   2.986   9.009  0.4960  0.0012 -0.3229
 4171SOL     OW23974   2.866   3.349   4.579 -0.0226 -0.2790  0.6042
 4171SOL    HW123975   2.926   3.300   4.635  1.0609  0.6320  0.2393
 4171SOL    HW223976   2.858   3.427   4.635  0.4559 -0.6028  1.1272
 4172SOL     OW23977   0.204   0.260   6.001  0.2706  0.2535 -0.2119
 4172SOL    HW123978   0.228   0.346   6.035  2.3265  1.1937 -4.0273
 4172SOL    HW223979   0.245   0.188   6.050 -1.7210 -1.2598 -0.7461
 4173SOL     OW23980   1.511   2.127   3.241 -0.7625  0.1621  0.5747
 4173SOL    HW123981   1.460   2.060   3.196  0.9216 -1.7855  1.5746
 4173SOL    HW223982   1.557   2.078   3.310  0.0567 -0.0584 -0.1269
 4174SOL     OW23983   3.428   0.658   5.368  0.6500  0.0541  0.5229
 4174SOL    HW123984   3.353   0.684   5.422  3.0774  0.8917  3.4817
 4174SOL    HW223985   3.490   0.648   5.441  2.8309 -0.1369 -1.3446
 4175SOL     OW23986   0.787   1.484   1.532  0.1176  0.0956 -0.0807
 4175SOL    HW123987   0.724   1.554   1.550  0.3749  0.5038 -0.7993
 4175SOL    HW223988   0.761   1.420   1.598 -0.9204  0.5213 -0.0813
 4176SOL     OW23989   4.120   0.527  13.415  0.2516 -0.2099  0.1506
 4176SOL    HW123990   4.191   0.529  13.480 -0.2209  1.1188  0.6325
 4176SOL    HW223991   4.046   0.525  13.475  0.2481  0.2803  0.1666
 4177SOL     OW23992   2.524   1.840   0.836  0.2372 -0.3342  0.0710
 4177SOL    HW123993   2.551   1.883   0.755  1.1419  0.0337  0.5708
 4177SOL    HW223994   2.430   1.857   0.838 -0.1559 -2.5718  1.5934
 4178SOL     OW23995   3.690   1.029   9.872  0.2668 -0.0658 -0.0495
 4178SOL    HW123996   3.783   1.052   9.867 -0.7069  3.2432 -2.1980
 4178SOL    HW223997   3.690   0.970   9.948 -0.1369  0.9175  0.7211
 4179SOL     OW23998   2.059   2.538   6.973  0.6705  0.0471  0.7735
 4179SOL    HW123999   2.125   2.550   7.041  1.4862 -1.2213  0.1942
 4179SOL    HW224000   2.008   2.615   6.997  1.2216  0.9027 -0.7374
 4180SOL     OW24001   2.966   4.671   5.981 -0.3960 -0.4035 -0.7690
 4180SOL    HW124002   2.999   4.643   5.896 -2.0603 -0.7702 -1.2777
 4180SOL    HW224003   2.910   4.595   5.997 -0.5435 -0.0117  0.6041
 4181SOL     OW24004   1.379   0.595  11.238  0.1002  0.5227 -0.1697
 4181SOL    HW124005   1.314   0.562  11.176  0.4128  0.4261 -0.4542
 4181SOL    HW224006   1.428   0.654  11.180 -0.1298  0.2470 -0.6499
 4182SOL     OW24007   4.199   2.351   8.912 -0.5182 -0.0064  0.1229
 4182SOL    HW124008   4.262   2.421   8.930 -2.4946  1.4138  1.5971
 4182SOL    HW224009   4.243   2.313   8.836  3.2518  1.3225  1.6545
 4183SOL     OW24010   2.883   2.317  14.719 -0.6356  0.0860  0.4204
 4183SOL    HW124011   2.936   2.237  14.713  2.3980  2.2214 -0.8660
 4183SOL    HW224012   2.896   2.343  14.810  0.2313  1.6229 -0.1415
 4184SOL     OW24013   2.783   1.185   4.537  0.3842  0.1272  0.1210
 4184SOL    HW124014   2.741   1.247   4.477 -0.4177  0.0245  0.5691
 4184SOL    HW224015   2.710   1.123   4.539 -1.6080  2.4914  1.0677
 4185SOL     OW24016   0.845   2.806   5.228 -0.3791 -0.2248  0.3739
 4185SOL    HW124017   0.759   2.763   5.223 -0.4142 -0.4643  3.1207
 4185SOL    HW224018   0.819   2.891   5.264 -1.6994 -0.6901  0.5211
 4186SOL     OW24019   0.549   4.411  10.782 -0.1633  0.2361  0.3286
 4186SOL    HW124020   0.616   4.343  10.782 -1.1324 -0.7160  1.7019
 4186SOL    HW224021   0.608   4.486  10.775  0.0250 -0.0701 -1.3541
 4187SOL     OW24022   3.387   4.138   2.292  0.5605  0.8458  0.2738
 4187SOL    HW124023   3.458   4.136   2.357 -0.8741  1.0520  1.8421
 4187SOL    HW224024   3.316   4.124   2.355 -1.5884  1.2814 -2.0478
 4188SOL     OW24025   3.195   4.311  13.648 -0.2012 -0.4687  0.0279
 4188SOL    HW124026   3.171   4.385  13.592  0.0022 -0.3008  0.1621
 4188SOL    HW224027   3.245   4.250  13.593  0.5984 -0.1783  0.4228
 4189SOL     OW24028   1.493   4.319   8.652 -0.2844  0.1546 -0.2579
 4189SOL    HW124029   1.508   4.325   8.746  2.5057  1.0188 -0.7523
 4189SOL    HW224030   1.410   4.271   8.649 -0.8330  1.1260 -0.5752
 4190SOL     OW24031   4.229   4.633   6.669 -0.1503  0.4247 -0.1207
 4190SOL    HW124032   4.248   4.639   6.576 -1.5913 -2.8478 -0.5889
 4190SOL    HW224033   4.292   4.562   6.680 -0.7595  0.2388  2.3440
 4191SOL     OW24034   0.737   1.783   5.340  0.2174  0.0463  0.1718
 4191SOL    HW124035   0.734   1.775   5.436 -0.5875 -0.9358  0.0639
 4191SOL    HW224036   0.736   1.878   5.325  1.9849  0.3910  2.0882
 4192SOL     OW24037   3.569   0.260  13.855 -0.2477 -0.2191  0.0577
 4192SOL    HW124038   3.643   0.200  13.868  0.1010  0.6076  1.8997
 4192SOL    HW224039   3.540   0.269  13.945 -0.2564  1.5394 -0.1184
 4193SOL     OW24040   0.131   3.304  15.726 -0.0073 -0.1432 -0.1206
 4193SOL    HW124041   0.175   3.373  15.777 -0.2502 -0.3262  0.3381
 4193SOL    HW224042   0.111   3.339  15.639 -0.1312  1.1722  0.4262
 4194SOL     OW24043   1.874   0.574   3.231  0.3539 -0.5376 -0.2215
 4194SOL    HW124044   1.933   0.647   3.210 -1.4086  1.2752  1.1247
 4194SOL    HW224045   1.804   0.598   3.170  0.7947 -0.4527 -0.7005
 4195SOL     OW24046   0.968   1.702   3.177 -0.5526 -0.2013 -0.1334
 4195SOL    HW124047   0.949   1.787   3.137  1.8171  0.3898  0.0527
 4195SOL    HW224048   0.996   1.656   3.098 -2.0467  3.1101 -2.6420
 4196SOL     OW24049   1.010   1.393   9.606  0.0240 -0.0548 -0.2592
 4196SOL    HW124050   0.994   1.479   9.644  0.3408 -0.2623  0.3451
 4196SOL    HW224051   1.094   1.416   9.565  1.1052  0.3310  2.1939
 4197SOL     OW24052   2.095   4.506   9.922  0.2420  0.1578  0.4597
 4197SOL    HW124053   2.073   4.422   9.881 -0.4719 -0.0689  1.3203
 4197SOL    HW224054   2.032   4.515   9.993  1.9371  0.2104  1.9341
 4198SOL     OW24055   3.383   3.534  17.218 -0.2642  0.3067  0.3150
 4198SOL    HW124056   3.477   3.535  17.204 -0.5884 -2.1953 -1.9673
 4198SOL    HW224057   3.374   3.489  17.303 -1.6509 -0.5243 -0.2630
 4199SOL     OW24058   1.961   0.680   1.523  0.2730  0.3394 -0.3562
 4199SOL    HW124059   1.928   0.770   1.531  0.0832  0.1485  0.8810
 4199SOL    HW224060   1.913   0.645   1.598  0.6181  0.0968 -0.2481
 4200SOL     OW24061   2.733   0.474   4.171 -0.5703 -0.4686  0.6335
 4200SOL    HW124062   2.794   0.514   4.109 -1.2774  0.7386  0.7139
 4200SOL    HW224063   2.725   0.393   4.120 -2.0220  0.6609 -0.9549
 4201SOL     OW24064   1.817   4.224   5.475 -0.6456 -0.1912  0.4541
 4201SOL    HW124065   1.776   4.297   5.522  0.3369  2.1685 -2.3457
 4201SOL    HW224066   1.746   4.159   5.475 -1.8933  1.1754  0.4901
 4202SOL     OW24067   0.030   1.683   0.489 -0.5609  0.1439  0.3585
 4202SOL    HW124068   0.123   1.676   0.465 -0.6092 -1.0246  0.5130
 4202SOL    HW224069   0.039   1.646   0.576 -3.1784 -0.7404  0.2596
 4203SOL     OW24070   1.681   1.518   5.041 -0.1681  0.1882  0.1920
 4203SOL    HW124071   1.681   1.522   4.945  1.2729 -0.5099  0.1544
 4203SOL    HW224072   1.777   1.519   5.050 -0.2878  1.6523  1.1725
 4204SOL     OW24073   2.343   1.653  10.111  0.0672 -0.0437  0.0810
 4204SOL    HW124074   2.378   1.611  10.033 -0.3898 -0.1973 -0.0455
 4204SOL    HW224075   2.422   1.691  10.149 -0.9345  1.2991  0.8643
 4205SOL     OW24076   3.844   2.623  11.967  0.0359  0.6458  0.4619
 4205SOL    HW124077   3.867   2.542  12.012 -0.3858  0.7837  0.9210
 4205SOL    HW224078   3.817   2.575  11.889 -0.6730  0.1203  1.0362
 4206SOL     OW24079   4.109   2.176   3.235  0.3626 -0.0466  0.0081
 4206SOL    HW124080   4.146   2.111   3.176  2.4205 -0.4962  1.8079
 4206SOL    HW224081   4.066   2.236   3.173 -0.6753 -1.1188 -0.3090
 4207SOL     OW24082   0.412   2.470   4.213  0.4036 -0.1114  0.1938
 4207SOL    HW124083   0.370   2.489   4.297 -1.0883 -0.3216 -0.5130
 4207SOL    HW224084   0.489   2.417   4.234  2.8182  4.1769  2.2098
 4208SOL     OW24085   0.933   0.270  13.403  0.0450 -0.2554  0.3758
 4208SOL    HW124086   0.959   0.315  13.322 -1.2079  0.5689  0.4290
 4208SOL    HW224087   0.857   0.223  13.371 -0.2959  1.4318 -1.3300
 4209SOL     OW24088   2.592   2.728   2.013  0.2569  0.1228  0.3110
 4209SOL    HW124089   2.621   2.754   1.925 -1.8884 -0.0044 -0.4373
 4209SOL    HW224090   2.668   2.762   2.061 -0.0328  0.9328  0.1935
 4210SOL     OW24091   3.237   3.707   5.321 -0.2296  0.1772 -0.0629
 4210SOL    HW124092   3.226   3.612   5.324 -0.2134  0.2249  1.3903
 4210SOL    HW224093   3.173   3.749   5.379 -0.8016  1.8310 -1.8950
 4211SOL     OW24094   4.361   1.251   5.559  0.1245 -0.4984 -0.8465
 4211SOL    HW124095   4.350   1.236   5.466 -1.7794 -0.5837 -0.6089
 4211SOL    HW224096   4.408   1.177   5.597 -0.3019 -0.6955 -0.7128
 4212SOL     OW24097   1.631   1.239   5.662 -0.2683 -0.1769 -0.2960
 4212SOL    HW124098   1.696   1.239   5.592  0.0105  1.1501 -0.0413
 4212SOL    HW224099   1.624   1.335   5.667  2.4063 -0.1066  2.1270
 4213SOL     OW24100   1.714   4.652  10.285  0.4906 -0.2344  0.1840
 4213SOL    HW124101   1.715   4.639  10.379  2.4901 -0.3269  0.1465
 4213SOL    HW224102   1.655   0.005  10.286 -1.0672 -1.4618  0.0184
 4214SOL     OW24103   4.567   0.041   2.345  0.5488 -0.1663  0.0228
 4214SOL    HW124104   4.587   0.095   2.421  0.2669 -0.0568  0.0201
 4214SOL    HW224105   4.472   0.035   2.354  0.5237 -1.2456 -1.0041
 4215SOL     OW24106   1.097   0.724  17.203 -0.1217  0.0511  0.5253
 4215SOL    HW124107   1.187   0.756  17.207  0.2593 -0.8155 -1.3391
 4215SOL    HW224108   1.037   0.798  17.211 -1.6989 -1.0251 -1.2752
 4216SOL     OW24109   4.339   0.433   7.973  0.0583  0.0044 -0.1036
 4216SOL    HW124110   4.277   0.369   8.006  0.7916  0.0203  1.2983
 4216SOL    HW224111   4.424   0.412   8.013  1.0542 -0.9767 -2.7278
 4217SOL     OW24112   4.102   0.927   6.961 -0.4939  0.3558 -0.0267
 4217SOL    HW124113   4.045   0.996   6.994 -0.8573  0.2658 -0.4658
 4217SOL    HW224114   4.159   0.920   7.037  0.5553  1.6872 -0.6858
 4218SOL     OW24115   1.552   0.185   9.609 -0.3498  0.7393 -0.1478
 4218SOL    HW124116   1.484   0.179   9.542 -0.3139 -4.0317  0.2394
 4218SOL    HW224117   1.532   0.096   9.639 -1.8816  0.8689 -0.7816
 4219SOL     OW24118   1.989   4.289  10.424 -0.5019  0.9085 -0.2883
 4219SOL    HW124119   2.024   4.201  10.441  0.2741  1.3178  0.2215
 4219SOL    HW224120   1.923   4.260  10.362 -0.8852  1.6676 -0.2288
 4220SOL     OW24121   3.760   4.263   2.276  0.5694  0.5854  0.2433
 4220SOL    HW124122   3.674   4.290   2.309 -0.0095 -0.5084 -0.3728
 4220SOL    HW224123   3.784   4.180   2.318  0.3225  0.0712 -0.6332
 4221SOL     OW24124   1.050   3.368   6.133  0.1064  0.1214 -0.8036
 4221SOL    HW124125   1.050   3.462   6.147 -0.8885 -0.0316  0.1790
 4221SOL    HW224126   0.959   3.359   6.160  0.5174 -0.4428  0.3866
 4222SOL     OW24127   1.401   4.053  10.489 -0.1001  0.0089  0.1474
 4222SOL    HW124128   1.320   4.057  10.439  0.0654 -0.6644 -0.1841
 4222SOL    HW224129   1.461   4.007  10.430  1.4547  2.0717  0.1053
 4223SOL     OW24130   2.379   2.388   9.223 -0.2875  0.1992  0.8241
 4223SOL    HW124131   2.361   2.410   9.315 -2.2501  2.5267 -0.1003
 4223SOL    HW224132   2.296   2.343   9.207  0.0102  0.2645 -0.8841
 4224SOL     OW24133   0.467   1.145  16.387  0.4224  0.3288 -0.2305
 4224SOL    HW124134   0.552   1.121  16.349 -0.6056 -1.9717 -1.0862
 4224SOL    HW224135   0.413   1.123  16.311 -0.6158  1.3503  0.2152
 4225SOL     OW24136   2.643   2.493   8.224  0.4657 -0.2225  0.2994
 4225SOL    HW124137   2.580   2.505   8.152  1.0794  0.1648 -0.1768
 4225SOL    HW224138   2.614   2.545   8.298 -0.6321 -0.0830 -0.2143
 4226SOL     OW24139   4.714   0.534   5.783  0.1342 -0.4229  0.0184
 4226SOL    HW124140   0.045   0.539   5.862 -1.6381 -1.8915  1.2861
 4226SOL    HW224141   0.032   0.455   5.747 -1.6652 -1.8281  1.1179
 4227SOL     OW24142   1.843   0.226   5.694 -0.0714  0.9125  0.3267
 4227SOL    HW124143   1.845   0.185   5.781 -1.2204  0.1282 -0.0206
 4227SOL    HW224144   1.758   0.196   5.662  0.0743  0.0552  0.7215
 4228SOL     OW24145   2.083   3.617   7.159  0.3030 -0.4059  0.0994
 4228SOL    HW124146   2.035   3.535   7.167  1.6737 -0.8798  3.3721
 4228SOL    HW224147   2.024   3.683   7.196 -1.5499 -1.6363 -0.6691
 4229SOL     OW24148   0.367   4.375   8.967 -0.2789 -0.2420  0.8850
 4229SOL    HW124149   0.410   4.409   8.888  0.2678 -1.8074  0.5184
 4229SOL    HW224150   0.286   4.341   8.928 -2.2103  4.6433  0.6094
 4230SOL     OW24151   3.712   2.006   8.995  0.6783 -0.7043 -0.2983
 4230SOL    HW124152   3.741   1.918   9.019 -0.1408 -0.9190 -0.0907
 4230SOL    HW224153   3.622   1.994   8.965  1.2280 -0.2026 -2.1018
 4231SOL     OW24154   4.016   2.838   9.171  0.3168  0.6729  0.1798
 4231SOL    HW124155   4.059   2.870   9.250  1.3359 -1.0033  0.3067
 4231SOL    HW224156   4.077   2.769   9.144 -0.6181 -0.1158  0.1230
 4232SOL     OW24157   0.389   2.792   7.369 -0.7031  0.0544  0.0096
 4232SOL    HW124158   0.436   2.750   7.297 -0.2843  1.2680 -0.4391
 4232SOL    HW224159   0.373   2.881   7.337 -0.8133 -0.5105 -1.4699
 4233SOL     OW24160   0.355   4.017  17.097 -0.2266  0.1143 -0.2240
 4233SOL    HW124161   0.259   4.009  17.096 -0.4176  1.9306  1.9503
 4233SOL    HW224162   0.374   4.102  17.057 -0.0672 -0.4798 -1.3992
 4234SOL     OW24163   3.097   1.992   4.326  0.2816  0.5227 -0.0768
 4234SOL    HW124164   3.002   1.983   4.316  0.1569  0.1751  1.3782
 4234SOL    HW224165   3.126   1.950   4.245 -1.9786  0.1410 -0.7129
 4235SOL     OW24166   0.061   2.226   5.145 -0.4680  0.5929  0.1117
 4235SOL    HW124167   4.704   2.234   5.090  0.0270  3.0270 -0.2684
 4235SOL    HW224168   0.044   2.139   5.181 -0.3269  0.2830 -0.5681
 4236SOL     OW24169   1.815   2.186  10.479 -0.2768 -0.7202 -0.3437
 4236SOL    HW124170   1.905   2.205  10.450 -1.0448  1.8512 -0.9821
 4236SOL    HW224171   1.817   2.091  10.496  0.4579 -0.7435 -0.5401
 4237SOL     OW24172   0.726   2.922   9.428  0.2193  0.2265 -0.2709
 4237SOL    HW124173   0.791   2.854   9.412  0.9402  1.7236 -3.6691
 4237SOL    HW224174   0.756   2.989   9.367  1.3179 -0.1242 -0.1115
 4238SOL     OW24175   3.549   1.952  11.611  0.4113  0.0592  0.0439
 4238SOL    HW124176   3.457   1.938  11.633  0.0485  0.9939 -0.8873
 4238SOL    HW224177   3.550   1.908  11.526  0.8351 -0.5889  0.3780
 4239SOL     OW24178   0.597   1.190   7.618 -0.4113 -0.2790  0.6347
 4239SOL    HW124179   0.626   1.127   7.553 -2.2071 -0.6763  0.1996
 4239SOL    HW224180   0.564   1.135   7.689 -0.2955 -1.2007 -0.0322
 4240SOL     OW24181   4.104   3.794  16.278  0.0679 -0.3447  1.0106
 4240SOL    HW124182   4.036   3.851  16.313 -0.5777 -0.4272 -0.1217
 4240SOL    HW224183   4.099   3.720  16.338  1.1218 -0.0152  1.5083
 4241SOL     OW24184   2.898   0.995  10.201 -0.2059 -0.2291 -0.2228
 4241SOL    HW124185   2.831   0.929  10.186 -1.5389  0.8798  0.8770
 4241SOL    HW224186   2.849   1.077  10.211  1.1283  0.5253  0.2090
 4242SOL     OW24187   3.874   0.268   6.074  0.0649  0.2439  0.1920
 4242SOL    HW124188   3.936   0.198   6.096  0.0590  1.1577  3.0982
 4242SOL    HW224189   3.853   0.253   5.982  2.6425  0.3717 -0.4222
 4243SOL     OW24190   0.518   4.169   9.136  0.3688  0.4114  0.2181
 4243SOL    HW124191   0.484   4.239   9.081  0.0827 -0.1898 -0.3763
 4243SOL    HW224192   0.442   4.113   9.118  0.9602 -0.2079 -0.3814
 4244SOL     OW24193   2.017   1.390   5.968  0.4052  0.8279 -0.0845
 4244SOL    HW124194   1.922   1.380   5.972  0.5966 -1.0518 -0.1819
 4244SOL    HW224195   2.023   1.459   5.903 -2.6485 -0.2959 -1.5573
 4245SOL     OW24196   2.251   1.020   9.900  0.4557  0.3165  0.2316
 4245SOL    HW124197   2.226   1.109   9.924  0.4817  0.6718 -1.0519
 4245SOL    HW224198   2.210   1.012   9.814 -0.0045 -1.5256  0.6094
 4246SOL     OW24199   1.398   0.872   0.920 -0.3558 -0.4420  0.0923
 4246SOL    HW124200   1.441   0.798   0.963  0.0337 -0.3377 -0.1094
 4246SOL    HW224201   1.407   0.927   0.997  0.7074 -1.2760  0.5748
 4247SOL     OW24202   0.353   1.662   8.687  0.2558  0.0976  0.3486
 4247SOL    HW124203   0.307   1.743   8.667  1.7382  0.4735 -1.6279
 4247SOL    HW224204   0.288   1.608   8.733  0.2334  1.3188  1.7434
 4248SOL     OW24205   2.673   3.567  10.662 -0.1904  0.1690  0.3025
 4248SOL    HW124206   2.652   3.483  10.704  0.6487  1.3225  2.9855
 4248SOL    HW224207   2.619   3.547  10.586  0.1009  1.9702 -0.3783
 4249SOL     OW24208   2.540   0.800   0.103 -0.0687  0.2006  0.4877
 4249SOL    HW124209   2.465   0.771   0.050 -0.6465 -2.6944  2.9026
 4249SOL    HW224210   2.612   0.761   0.054 -0.7965 -0.5040 -0.0176
 4250SOL     OW24211   3.431   1.547   8.403 -0.4442  0.6101  0.5887
 4250SOL    HW124212   3.443   1.568   8.495  2.5311  1.3173  0.0234
 4250SOL    HW224213   3.340   1.518   8.399 -0.5507  1.1561 -0.8261
 4251SOL     OW24214   2.911   0.886  14.342  0.0850  0.0875 -0.1343
 4251SOL    HW124215   2.874   0.803  14.313 -0.5709 -0.5211  2.4345
 4251SOL    HW224216   2.852   0.954  14.308  2.5041  0.8525 -2.7943
 4252SOL     OW24217   4.443   4.459  13.507 -0.3771 -0.6160 -0.0045
 4252SOL    HW124218   4.393   4.470  13.426 -1.0449  0.4683  0.5702
 4252SOL    HW224219   4.395   4.522  13.560 -1.3019  0.2338 -1.8632
 4253SOL     OW24220   2.285   0.443   4.144 -0.3500  0.3789 -0.2795
 4253SOL    HW124221   2.336   0.512   4.186  0.4956 -1.1588  1.2186
 4253SOL    HW224222   2.301   0.375   4.208  1.1639  0.9010 -0.0996
 4254SOL     OW24223   3.309   0.522   8.631 -0.1028 -0.5220 -0.2009
 4254SOL    HW124224   3.339   0.602   8.673  0.3715 -1.1508  0.6612
 4254SOL    HW224225   3.387   0.491   8.585 -0.0472  0.2470 -0.6183
 4255SOL     OW24226   1.379   0.982   6.196  0.1608 -0.0682 -0.4944
 4255SOL    HW124227   1.345   0.905   6.151 -0.1967  0.3837 -0.9919
 4255SOL    HW224228   1.317   1.005   6.265 -0.2929  0.0885 -0.9589
 4256SOL     OW24229   3.954   3.407   7.373 -0.2793  0.4537 -0.4859
 4256SOL    HW124230   3.959   3.502   7.356  0.4186  0.2089 -1.6817
 4256SOL    HW224231   3.928   3.372   7.288  1.3452  0.5713 -1.0317
 4257SOL     OW24232   4.379   2.473   1.279  0.5096 -0.0649 -0.2349
 4257SOL    HW124233   4.287   2.500   1.270  0.0295 -0.5151  3.3648
 4257SOL    HW224234   4.391   2.544   1.342  0.7387 -2.4415  2.3990
 4258SOL     OW24235   2.620   0.785   1.833  0.2698 -0.4644 -0.2255
 4258SOL    HW124236   2.568   0.837   1.773 -2.7681 -1.1273  1.7797
 4258SOL    HW224237   2.568   0.704   1.835  0.6798 -0.7496 -1.2250
 4259SOL     OW24238   2.541   4.107   4.216  0.3475 -0.6006 -0.7395
 4259SOL    HW124239   2.547   4.191   4.263  1.1561 -0.5182 -0.9874
 4259SOL    HW224240   2.635   4.101   4.202  0.3044 -0.1933 -1.1928
 4260SOL     OW24241   4.030   3.388   2.549  0.0796  0.0145  0.1948
 4260SOL    HW124242   4.055   3.296   2.561  0.5003  0.3545  1.8278
 4260SOL    HW224243   3.963   3.384   2.480  1.0938 -0.3499 -0.7758
 4261SOL     OW24244   2.068   1.907   3.277 -0.5564  0.2593 -0.5159
 4261SOL    HW124245   2.128   1.968   3.234  0.9337 -0.1317  1.0139
 4261SOL    HW224246   1.980   1.944   3.271  0.5367  2.4181 -2.8592
 4262SOL     OW24247   0.844   3.163   8.677  0.1623 -0.1444 -0.7503
 4262SOL    HW124248   0.847   3.205   8.591 -0.4937 -0.4946 -0.9440
 4262SOL    HW224249   0.824   3.232   8.740 -1.3351  1.3950 -2.9342
 4263SOL     OW24250   1.285   4.449   2.630 -0.5985 -0.3317 -0.7075
 4263SOL    HW124251   1.212   4.499   2.592  0.8038  0.4600 -2.3655
 4263SOL    HW224252   1.358   4.509   2.646 -1.0732  0.0666 -0.0666
 4264SOL     OW24253   2.999   1.046  11.277  0.1086 -0.0632  0.0795
 4264SOL    HW124254   3.012   1.137  11.306  0.8301 -0.5310  1.1925
 4264SOL    HW224255   3.008   1.065  11.183 -0.2950 -3.0849 -0.5453
 4265SOL     OW24256   3.116   0.366   8.953 -0.0323  0.0722  0.1252
 4265SOL    HW124257   3.127   0.356   8.858 -0.5035 -0.5321  0.1370
 4265SOL    HW224258   3.166   0.292   8.987  2.7927  1.5670 -0.8029
 4266SOL     OW24259   4.551   1.449   3.788 -0.3762 -0.4692  0.1680
 4266SOL    HW124260   4.586   1.461   3.876 -1.1725  0.9448  0.2890
 4266SOL    HW224261   4.563   1.355   3.776  0.8136 -0.2862 -0.0457
 4267SOL     OW24262   4.602   3.703   2.210 -0.5957  0.1778 -0.3434
 4267SOL    HW124263   4.630   3.715   2.300 -2.2700  2.9127 -0.1812
 4267SOL    HW224264   4.512   3.737   2.209 -1.4266 -2.0804 -1.7535
 4268SOL     OW24265   3.152   1.157   7.722 -0.9095 -0.4393 -0.0432
 4268SOL    HW124266   3.105   1.239   7.709 -1.7882 -0.9026  0.2376
 4268SOL    HW224267   3.226   1.177   7.664 -0.7053 -0.6759  0.1313
 4269SOL     OW24268   3.837   0.591  13.337 -0.2656 -0.5313  0.0077
 4269SOL    HW124269   3.870   0.501  13.335  2.0079  0.2619  2.6504
 4269SOL    HW224270   3.742   0.577  13.335 -0.1696 -0.8942 -2.3152
 4270SOL     OW24271   1.511   1.955   9.501 -0.4038  0.4834  0.0941
 4270SOL    HW124272   1.571   1.899   9.551 -1.5468 -0.6402  0.2264
 4270SOL    HW224273   1.436   1.955   9.561  0.0988 -2.3384  0.7117
 4271SOL     OW24274   1.121   1.354   4.421 -0.1185  0.8544  0.6644
 4271SOL    HW124275   1.026   1.343   4.410 -0.0764  1.5687 -0.5072
 4271SOL    HW224276   1.165   1.348   4.336  0.2510 -2.3898  1.1180
 4272SOL     OW24277   2.915   2.092   8.013  0.0686 -0.0233 -0.2310
 4272SOL    HW124278   2.918   2.131   8.100  0.5188 -0.1187 -0.2038
 4272SOL    HW224279   2.858   2.162   7.979 -2.9470 -2.9421 -1.1337
 4273SOL     OW24280   3.367   4.175  13.901  0.0492 -0.7963  0.0095
 4273SOL    HW124281   3.332   4.132  13.823  1.1156 -1.1813 -0.2544
 4273SOL    HW224282   3.461   4.157  13.905  0.0545 -1.1574 -1.4844
 4274SOL     OW24283   0.587   0.061   5.743  0.3458  0.3529  0.5402
 4274SOL    HW124284   0.608   0.013   5.823 -2.9552 -0.8602  0.6535
 4274SOL    HW224285   0.494   0.082   5.749  0.0236 -1.5349  2.1960
 4275SOL     OW24286   3.514   4.476   5.400  0.1024  0.1021 -0.1308
 4275SOL    HW124287   3.429   4.483   5.358  0.7793  3.3989 -0.9516
 4275SOL    HW224288   3.557   4.415   5.340 -0.5083  1.2665 -1.7401
 4276SOL     OW24289   0.652   4.289   1.237  0.0502  0.0367  0.3239
 4276SOL    HW124290   0.723   4.238   1.195 -1.2026 -0.5080 -1.1368
 4276SOL    HW224291   0.653   4.238   1.318  0.0444  1.5252  1.2499
 4277SOL     OW24292   3.570   3.264   6.556 -0.4972  0.0705 -0.4445
 4277SOL    HW124293   3.560   3.226   6.468 -0.1793  1.6512 -1.1729
 4277SOL    HW224294   3.487   3.240   6.598  0.9179 -1.1858  1.5787
 4278SOL     OW24295   2.340   1.127   8.651  0.0293 -0.5358 -0.1852
 4278SOL    HW124296   2.365   1.128   8.743 -1.0059  1.1485  0.0684
 4278SOL    HW224297   2.403   1.057   8.631  0.3584 -0.6557  1.2589
 4279SOL     OW24298   2.658   4.248  12.584 -0.6231 -0.5468 -0.4528
 4279SOL    HW124299   2.750   4.251  12.558 -0.6498 -0.5674 -0.5504
 4279SOL    HW224300   2.654   4.320  12.646  1.3595 -1.6874  1.0218
 4280SOL     OW24301   1.451   3.149   7.416  0.6333  0.0342  0.3410
 4280SOL    HW124302   1.531   3.107   7.384  1.5475  2.0548 -0.0557
 4280SOL    HW224303   1.418   3.071   7.460  0.1627 -0.2864 -0.5765
 4281SOL     OW24304   0.389   4.490   9.192  0.0362  0.3997  0.9543
 4281SOL    HW124305   0.380   4.450   9.105  1.4496  0.3561  0.8223
 4281SOL    HW224306   0.482   4.507   9.205  0.1946 -1.4216  2.1838
 4282SOL     OW24307   2.271   1.294  14.895  0.4588  0.0009 -0.1773
 4282SOL    HW124308   2.290   1.225  14.832  3.4995  0.2271  0.5026
 4282SOL    HW224309   2.242   1.247  14.973 -1.1344  1.0781 -0.1107
 4283SOL     OW24310   4.452   2.987   6.426 -0.0962  0.0758 -0.2145
 4283SOL    HW124311   4.370   2.941   6.441 -0.1507 -0.9618 -3.6860
 4283SOL    HW224312   4.433   3.078   6.401 -1.5460  0.2136  1.3862
 4284SOL     OW24313   1.516   3.794   4.057  0.1154 -0.6805 -0.3574
 4284SOL    HW124314   1.552   3.720   4.106 -0.3373 -0.0783  0.8627
 4284SOL    HW224315   1.546   3.781   3.966 -0.4605  1.1117 -0.8126
 4285SOL     OW24316   4.288   3.537   3.159 -0.4087  0.6995  0.1456
 4285SOL    HW124317   4.362   3.556   3.102  2.0841 -0.6670  2.9518
 4285SOL    HW224318   4.283   3.610   3.221 -1.5134  0.1828  0.6645
 4286SOL     OW24319   0.700   1.254  10.759  0.8442 -0.6238  0.5409
 4286SOL    HW124320   0.791   1.227  10.775  1.5262  0.5196 -1.3474
 4286SOL    HW224321   0.719   1.342  10.726  2.3102 -1.6482 -1.3485
 4287SOL     OW24322   2.842   3.214  17.150  0.1698 -0.0998  0.4974
 4287SOL    HW124323   2.864   3.299  17.190 -0.6048 -0.6714  2.1381
 4287SOL    HW224324   2.850   3.236  17.057 -0.3590  1.5623  0.8491
 4288SOL     OW24325   1.940   1.881   2.654  0.2412 -0.0103  0.4367
 4288SOL    HW124326   1.845   1.887   2.657  0.2303 -0.2973  0.7482
 4288SOL    HW224327   1.954   1.789   2.673  2.4383  0.1875 -0.2005
 4289SOL     OW24328   3.431   0.637   6.117 -0.1300 -0.3791  0.3675
 4289SOL    HW124329   3.441   0.651   6.023  2.1485 -1.2976  0.4659
 4289SOL    HW224330   3.508   0.585   6.140  0.5764 -0.1330 -1.4577
 4290SOL     OW24331   0.601   2.738   5.104  0.0923 -0.1336  0.3621
 4290SOL    HW124332   0.625   2.826   5.075 -1.1008 -0.8693 -2.7820
 4290SOL    HW224333   0.596   2.684   5.025 -0.4078 -0.4134  0.5806
 4291SOL     OW24334   4.614   4.607   2.105 -0.7724 -0.3926  0.1507
 4291SOL    HW124335   4.582   4.664   2.175  0.2943 -0.5975  0.8010
 4291SOL    HW224336   4.686   4.654   2.064 -1.1396  0.4356  0.4538
 4292SOL     OW24337   2.334   2.036   0.861 -0.2219  0.2440  0.6649
 4292SOL    HW124338   2.366   2.042   0.951  1.2147 -0.9731  0.2303
 4292SOL    HW224339   2.241   2.052   0.880  0.5175  1.1087  3.4837
 4293SOL     OW24340   3.011   3.509   9.118 -0.0392 -0.3875 -0.5273
 4293SOL    HW124341   3.020   3.582   9.057  3.2319 -0.3207  0.0669
 4293SOL    HW224342   2.977   3.545   9.200  0.8734  1.2396 -0.8694
 4294SOL     OW24343   3.603   2.436   2.344 -0.3552 -0.4462 -0.6043
 4294SOL    HW124344   3.625   2.512   2.292 -2.2291  1.2062  1.0070
 4294SOL    HW224345   3.550   2.477   2.413 -0.0710 -0.4705 -0.3703
 4295SOL     OW24346   2.489   3.786  12.697 -0.4583  0.2692  0.0678
 4295SOL    HW124347   2.496   3.829  12.782  1.2822 -0.0255  0.0722
 4295SOL    HW224348   2.396   3.765  12.693 -0.5010  0.0558  2.2402
 4296SOL     OW24349   0.261   2.389   5.042 -0.7223  0.0192  0.2388
 4296SOL    HW124350   0.191   2.333   5.076 -1.4088 -0.1695 -1.4661
 4296SOL    HW224351   0.325   2.359   5.106  1.3777  0.6678 -1.5350
 4297SOL     OW24352   3.907   2.067   4.150  0.3576 -0.3870  0.3450
 4297SOL    HW124353   3.901   2.162   4.146 -0.1324 -0.4382 -0.1191
 4297SOL    HW224354   3.842   2.045   4.216  0.6182  0.2074  0.8008
 4298SOL     OW24355   1.498   4.692   8.720  0.5857 -0.0442  0.1884
 4298SOL    HW124356   1.510   0.062   8.697  1.1821 -0.5564 -1.5367
 4298SOL    HW224357   1.540   4.688   8.806 -0.4473  0.4056  0.7185
 4299SOL     OW24358   4.527   3.855   3.599  0.4675 -0.3164  0.1314
 4299SOL    HW124359   4.544   3.842   3.506  1.6722  1.2727  0.1398
 4299SOL    HW224360   4.598   3.802   3.634  0.3485 -0.6569 -0.1400
 4300SOL     OW24361   2.145   0.883   1.725 -0.2445 -0.2444 -1.1666
 4300SOL    HW124362   2.126   0.957   1.782 -2.4528 -1.6092 -0.1132
 4300SOL    HW224363   2.059   0.884   1.683 -1.9008 -0.5359  2.2530
 4301SOL     OW24364   3.510   3.710   6.600 -0.4977  0.6048 -0.4201
 4301SOL    HW124365   3.422   3.703   6.638 -0.6778  0.6641 -0.8339
 4301SOL    HW224366   3.495   3.755   6.517 -2.2386 -1.8633 -1.4532
 4302SOL     OW24367   2.118   1.248   4.190  0.1824  0.1981  0.2943
 4302SOL    HW124368   2.042   1.190   4.195  1.2443 -1.3763 -1.5385
 4302SOL    HW224369   2.068   1.329   4.193 -1.0935 -0.6610  2.1403
 4303SOL     OW24370   4.055   1.660  11.624 -0.0152 -0.4055 -0.5345
 4303SOL    HW124371   4.000   1.729  11.588 -0.4462 -1.9769 -2.8636
 4303SOL    HW224372   4.049   1.595  11.555 -1.3503  1.5966 -2.3207
 4304SOL     OW24373   2.465   3.927   4.672 -0.0776 -0.5060  0.6406
 4304SOL    HW124374   2.493   3.873   4.599 -0.1429 -1.2250  1.1525
 4304SOL    HW224375   2.401   3.871   4.715 -0.8503 -0.8760 -0.9743
 4305SOL     OW24376   2.586   0.958  15.736  0.2146  0.0469 -0.3353
 4305SOL    HW124377   2.586   0.939  15.830 -0.6359 -1.0085 -0.5537
 4305SOL    HW224378   2.612   1.050  15.741 -0.5119  0.3605 -2.6270
 4306SOL     OW24379   2.002   2.064   6.696  0.3180  0.0690  0.1469
 4306SOL    HW124380   1.920   2.111   6.682  0.3872  0.7294  2.0531
 4306SOL    HW224381   2.031   2.115   6.771  1.0579 -0.0394 -0.0662
 4307SOL     OW24382   1.619   1.670  10.750 -0.1021  0.3555 -0.0026
 4307SOL    HW124383   1.554   1.669  10.819 -1.1437  0.1575 -0.9864
 4307SOL    HW224384   1.652   1.581  10.759  1.7184  0.9427 -0.6571
 4308SOL     OW24385   2.829   4.370   8.798  0.3923 -0.7342  0.0347
 4308SOL    HW124386   2.770   4.346   8.869 -0.0672  1.4105  0.3712
 4308SOL    HW224387   2.794   4.307   8.734 -0.9321 -0.1074  0.1557
 4309SOL     OW24388   0.363   3.910   3.849 -0.2956  0.1049  0.1062
 4309SOL    HW124389   0.458   3.916   3.854 -0.2543  0.0421 -0.5960
 4309SOL    HW224390   0.332   3.951   3.930  0.1397 -0.8386  0.7439
 4310SOL     OW24391   3.679   1.830   8.263 -0.2079  0.2368 -0.0605
 4310SOL    HW124392   3.639   1.827   8.177  1.3358 -0.8661 -0.7414
 4310SOL    HW224393   3.603   1.836   8.321  0.4998 -0.8760  1.0126
 4311SOL     OW24394   2.757   0.811   2.708  0.7717 -0.2391  0.3574
 4311SOL    HW124395   2.849   0.827   2.686  0.5284 -0.6962 -0.9701
 4311SOL    HW224396   2.726   0.813   2.618  1.0933  1.3227  0.2708
 4312SOL     OW24397   2.948   1.939  10.348 -0.1833  0.0208 -0.4865
 4312SOL    HW124398   2.914   1.984  10.426  0.5751  1.6991 -1.1116
 4312SOL    HW224399   3.034   1.972  10.322  0.8875 -2.6300 -0.2674
 4313SOL     OW24400   3.911   3.686   6.263  0.9040 -0.0669  0.1168
 4313SOL    HW124401   3.999   3.655   6.241  1.0665 -0.6487  1.6207
 4313SOL    HW224402   3.873   3.609   6.305  1.4681 -1.3048 -1.6278
 4314SOL     OW24403   1.823   2.454   7.404  0.1010  0.6756 -0.2800
 4314SOL    HW124404   1.837   2.544   7.432 -1.4465  1.1132 -0.8801
 4314SOL    HW224405   1.913   2.422   7.395 -1.1676 -2.8375 -0.6231
 4315SOL     OW24406   0.941   2.845   0.867  0.2700  0.2174  0.1592
 4315SOL    HW124407   0.893   2.909   0.920 -0.8289  1.0444 -1.8365
 4315SOL    HW224408   0.872   2.800   0.819 -0.9537  0.2385  1.8932
 4316SOL     OW24409   1.409   3.840   9.239 -0.0927 -0.3278  0.0816
 4316SOL    HW124410   1.474   3.900   9.276 -1.5715  1.0176  0.5355
 4316SOL    HW224411   1.347   3.834   9.311  3.1111  1.0335  2.9471
 4317SOL     OW24412   4.652   2.090   9.169  0.4371 -0.3372 -0.4482
 4317SOL    HW124413   4.631   2.010   9.121  0.9485 -0.5738 -0.2794
 4317SOL    HW224414   0.025   2.085   9.158  0.4749 -1.1890  0.2609
 4318SOL     OW24415   3.368   0.205   2.855  0.3447 -0.2535 -0.3806
 4318SOL    HW124416   3.276   0.188   2.875  0.4555  0.1230  0.4375
 4318SOL    HW224417   3.404   0.131   2.807 -0.4045 -1.6070  1.1595
 4319SOL     OW24418   0.116   2.163  14.583 -0.1672  0.3081 -0.0037
 4319SOL    HW124419   0.115   2.256  14.605  2.0158  0.7653 -1.8644
 4319SOL    HW224420   0.097   2.173  14.490  2.0495 -1.2052 -0.6482
 4320SOL     OW24421   2.888   0.530   2.737 -0.1224  0.2119 -0.0282
 4320SOL    HW124422   2.912   0.439   2.754  0.7791  0.3726 -0.4293
 4320SOL    HW224423   2.818   0.546   2.800  1.8946  0.4983  2.1522
 4321SOL     OW24424   1.595   1.758   8.400  0.1678  0.7362 -0.1637
 4321SOL    HW124425   1.561   1.751   8.490 -1.8845  1.7702 -0.8495
 4321SOL    HW224426   1.683   1.729   8.423  0.2625  0.5419 -0.7959
 4322SOL     OW24427   0.963   3.305   8.453  0.1331  0.2549  0.0619
 4322SOL    HW124428   1.043   3.273   8.411 -1.6981 -3.3019 -0.7376
 4322SOL    HW224429   1.007   3.313   8.538 -0.5016 -0.6170  0.4680
 4323SOL     OW24430   0.954   4.042   0.511  0.3400  0.3926 -0.1723
 4323SOL    HW124431   0.988   4.093   0.585  0.9788  1.6233 -1.3022
 4323SOL    HW224432   0.874   4.008   0.551  0.9134  0.6307  1.1827
 4324SOL     OW24433   1.310   3.110   3.495 -0.3491  0.6657  0.1857
 4324SOL    HW124434   1.274   3.194   3.466 -3.9368 -0.1253  2.3463
 4324SOL    HW224435   1.399   3.145   3.495  0.6471 -1.8830 -1.4466
 4325SOL     OW24436   1.737   0.572   9.578  0.0005  0.1469 -0.3337
 4325SOL    HW124437   1.743   0.649   9.521 -1.0850  1.1975  0.9497
 4325SOL    HW224438   1.723   0.616   9.662 -4.4297  0.3181 -1.1453
 4326SOL     OW24439   0.683   4.674   3.111  0.1711  0.5295  0.2935
 4326SOL    HW124440   0.750   4.648   3.048 -0.6693  0.0934 -0.4174
 4326SOL    HW224441   0.643   4.588   3.122 -2.1888  1.2282 -2.8044
 4327SOL     OW24442   3.639   1.989   5.142 -0.3456  0.1789 -0.0216
 4327SOL    HW124443   3.593   1.927   5.085 -0.2867  1.6123 -1.6112
 4327SOL    HW224444   3.728   1.992   5.108 -0.6806  0.0015 -0.9063
 4328SOL     OW24445   4.505   1.412  14.040  0.0241  0.2161  0.0736
 4328SOL    HW124446   4.488   1.468  14.115 -1.8969 -0.4613  0.1460
 4328SOL    HW224447   4.590   1.448  14.015  0.7075 -1.8882 -0.6630
 4329SOL     OW24448   4.248   3.931  14.472 -0.2509  0.9392 -0.0110
 4329SOL    HW124449   4.307   3.979  14.413 -0.6897 -0.4300 -1.5870
 4329SOL    HW224450   4.278   3.842  14.454 -0.3344  0.7256  0.9080
 4330SOL     OW24451   1.688   1.762  13.342 -0.3023 -0.2952 -0.2816
 4330SOL    HW124452   1.774   1.726  13.323  0.0211  0.5521 -0.4351
 4330SOL    HW224453   1.695   1.857  13.329 -0.1102 -0.1886  0.6104
 4331SOL     OW24454   0.566   1.941   6.681  0.1326  0.1035 -0.4250
 4331SOL    HW124455   0.619   1.862   6.690 -0.9488 -0.5897 -0.1096
 4331SOL    HW224456   0.581   1.957   6.588 -0.9910  2.0734 -0.2834
 4332SOL     OW24457   4.562   3.346   4.555  0.2960  0.1590  0.1871
 4332SOL    HW124458   4.517   3.429   4.539 -2.0560 -1.1652 -0.0527
 4332SOL    HW224459   4.481   3.300   4.577 -0.9319  3.0073  1.6825
 4333SOL     OW24460   1.519   2.255   5.260  0.3473 -0.0891 -0.2887
 4333SOL    HW124461   1.455   2.249   5.330  0.9122 -1.5805  0.1065
 4333SOL    HW224462   1.473   2.200   5.196  0.9623 -1.0475  0.0983
 4334SOL     OW24463   2.810   0.142   6.841 -0.0398  0.2657  0.3608
 4334SOL    HW124464   2.795   0.135   6.935  0.0564  2.4441  0.5298
 4334SOL    HW224465   2.893   0.096   6.836  0.6101  1.4507  0.3757
 4335SOL     OW24466   3.646   2.567   5.711  0.4688  0.3003 -0.2781
 4335SOL    HW124467   3.725   2.601   5.752  0.4658  0.5539 -0.4789
 4335SOL    HW224468   3.681   2.495   5.658  1.1768  0.0409  0.5524
 4336SOL     OW24469   1.443   0.623  14.537  0.4495  0.6912  0.2815
 4336SOL    HW124470   1.491   0.679  14.599 -3.0469  3.2254  0.7023
 4336SOL    HW224471   1.417   0.686  14.470 -1.5944 -0.0424  0.3852
 4337SOL     OW24472   4.518   1.660   3.173 -0.0327 -0.0614  0.5229
 4337SOL    HW124473   4.505   1.719   3.247 -1.0191  0.3435  0.0198
 4337SOL    HW224474   4.433   1.680   3.134 -0.0124 -2.3608 -0.7311
 4338SOL     OW24475   4.200   3.487   1.377 -0.5640  0.8866  0.4125
 4338SOL    HW124476   4.223   3.571   1.417  0.4465  0.1088  1.4522
 4338SOL    HW224477   4.187   3.505   1.284 -2.6033  0.0627  0.5490
 4339SOL     OW24478   0.156   2.644   7.710 -0.0228 -0.1949  0.0461
 4339SOL    HW124479   0.186   2.641   7.619  0.8308  0.3142  0.3053
 4339SOL    HW224480   0.235   2.601   7.745 -0.2275  0.8597  1.7983
 4340SOL     OW24481   3.132   4.242   4.428  0.3722 -0.1985 -0.5013
 4340SOL    HW124482   3.132   4.324   4.479 -1.1720 -0.2174 -0.4806
 4340SOL    HW224483   3.048   4.212   4.463  0.6900 -1.3524 -0.7403
 4341SOL     OW24484   1.018   1.758   6.693 -0.0727  0.5982 -0.7689
 4341SOL    HW124485   1.098   1.739   6.643  0.2951 -1.7898  0.7598
 4341SOL    HW224486   1.001   1.851   6.676  0.3431  1.0539  1.3241
 4342SOL     OW24487   3.481   0.421   5.800 -0.0982  0.1883 -0.4807
 4342SOL    HW124488   3.438   0.505   5.783  2.2478  1.4853 -0.0626
 4342SOL    HW224489   3.568   0.432   5.762  0.7341 -1.3794  0.9907
 4343SOL     OW24490   2.553   1.731  11.307 -0.3308  0.8093  0.8701
 4343SOL    HW124491   2.490   1.698  11.372 -1.9434  1.3107 -0.4295
 4343SOL    HW224492   2.608   1.795  11.354  0.5051 -1.2872  2.7183
 4344SOL     OW24493   3.062   2.427   6.534  0.1593 -0.5657 -0.5793
 4344SOL    HW124494   3.066   2.351   6.593 -0.5575 -0.2722 -0.1563
 4344SOL    HW224495   2.985   2.399   6.485  1.4314 -2.8871 -1.2881
 4345SOL     OW24496   0.081   1.081  13.182 -0.7746  0.5486  0.2583
 4345SOL    HW124497   0.006   1.109  13.235 -0.6476 -1.7075  1.6430
 4345SOL    HW224498   0.148   1.125  13.236  0.8553 -2.9347  1.0901
 4346SOL     OW24499   0.492   4.657   5.485  0.0702  0.0756  0.0427
 4346SOL    HW124500   0.501   4.703   5.568  0.9530  1.1898 -0.6825
 4346SOL    HW224501   0.431   4.587   5.509  1.5219 -0.3177  2.6590
 4347SOL     OW24502   1.707   0.461   8.154  0.2534  0.2098 -0.4053
 4347SOL    HW124503   1.689   0.368   8.145  0.5300  0.2608 -1.6229
 4347SOL    HW224504   1.794   0.459   8.195 -0.7279 -0.1132  1.6304
 4348SOL     OW24505   0.752   1.495  10.646  0.7176 -0.3449  0.8232
 4348SOL    HW124506   0.842   1.524  10.635  0.8544 -1.3834 -0.7302
 4348SOL    HW224507   0.713   1.510  10.560  1.0684 -0.0364  0.7197
 4349SOL     OW24508   0.235   0.031   3.612  0.0715 -0.0816 -0.0598
 4349SOL    HW124509   0.196   4.682   3.561  0.4151 -0.9232  0.8418
 4349SOL    HW224510   0.186   0.024   3.694 -0.9778 -1.6117 -0.8136
 4350SOL     OW24511   0.107   0.791   3.930 -0.5621  0.1841  0.1713
 4350SOL    HW124512   0.201   0.805   3.915 -0.7155  0.5744 -0.4224
 4350SOL    HW224513   0.113   0.696   3.919 -0.0898  0.4506 -1.8465
 4351SOL     OW24514   4.041   1.602   2.419  0.7438 -0.1309 -0.4076
 4351SOL    HW124515   4.054   1.696   2.407 -2.1172  0.2327 -0.6017
 4351SOL    HW224516   4.018   1.582   2.328  2.4063 -0.2974 -0.7847
 4352SOL     OW24517   4.210   1.506   3.672  0.0893  0.0382 -0.3173
 4352SOL    HW124518   4.148   1.443   3.634  1.0813 -0.4028 -1.1825
 4352SOL    HW224519   4.281   1.487   3.612 -0.0363  3.9255 -1.6650
 4353SOL     OW24520   1.230   4.186   3.579  0.2164 -0.0654  0.6875
 4353SOL    HW124521   1.228   4.092   3.561  1.9086  0.1762 -0.7129
 4353SOL    HW224522   1.140   4.188   3.611 -0.1155  0.1678 -0.2490
 4354SOL     OW24523   2.612   0.511   7.040 -0.5646  0.3978 -0.4887
 4354SOL    HW124524   2.665   0.431   7.043  1.5024  1.7419 -1.1389
 4354SOL    HW224525   2.675   0.582   7.051 -1.2255  0.9999 -0.6275
 4355SOL     OW24526   1.356   4.072  15.554  0.6579 -0.5147 -0.2076
 4355SOL    HW124527   1.411   3.993  15.554  0.8168 -0.4019  0.3248
 4355SOL    HW224528   1.411   4.126  15.611 -0.2272  1.3322 -1.1050
 4356SOL     OW24529   2.210   0.631   3.320 -0.0423 -0.3411  0.3431
 4356SOL    HW124530   2.216   0.545   3.278  0.9614  0.8495 -1.8940
 4356SOL    HW224531   2.144   0.607   3.386 -1.0157 -1.2725 -0.9884
 4357SOL     OW24532   1.560   3.174   3.542  0.3347  0.0857  0.2104
 4357SOL    HW124533   1.608   3.092   3.529  0.8100  0.5656 -1.0061
 4357SOL    HW224534   1.628   3.237   3.518  1.9077 -1.3356  0.9346
 4358SOL     OW24535   3.707   2.925   8.007 -0.0946  0.3417  0.4157
 4358SOL    HW124536   3.685   3.008   7.965  1.7939 -0.0503 -1.3331
 4358SOL    HW224537   3.733   2.867   7.936 -0.9516  0.6927 -0.1896
 4359SOL     OW24538   1.829   3.887   4.760  0.6106  0.1678 -0.5439
 4359SOL    HW124539   1.915   3.878   4.802  0.7446  1.1851 -0.6097
 4359SOL    HW224540   1.864   3.903   4.673  1.1456 -0.2467 -0.4043
 4360SOL     OW24541   4.341   3.157   9.572 -0.2905 -0.1633 -0.5015
 4360SOL    HW124542   4.300   3.117   9.648 -0.4437  2.6910  0.9317
 4360SOL    HW224543   4.278   3.152   9.500 -0.0863  1.1556 -0.7812
 4361SOL     OW24544   2.205   0.323  13.751 -0.2657 -0.4571  0.2225
 4361SOL    HW124545   2.184   0.416  13.759  1.3188 -0.0794 -0.1020
 4361SOL    HW224546   2.300   0.328  13.738 -0.4146  1.3183 -0.1844
 4362SOL     OW24547   1.567   0.278  10.550 -0.0802 -0.3902  0.1269
 4362SOL    HW124548   1.652   0.309  10.579 -0.1427  0.1868 -0.2953
 4362SOL    HW224549   1.529   0.362  10.523 -1.0981 -1.5531 -2.0994
 4363SOL     OW24550   1.425   3.593   7.566 -0.2422 -0.3474  0.0768
 4363SOL    HW124551   1.508   3.561   7.533  0.7537  1.4362  0.8653
 4363SOL    HW224552   1.357   3.543   7.521  0.5433 -2.0305  0.7737
 4364SOL     OW24553   0.844   1.838  11.301  0.3507 -0.3018  0.0352
 4364SOL    HW124554   0.929   1.837  11.258  0.2538 -0.9892 -0.1369
 4364SOL    HW224555   0.875   1.853  11.390 -0.1566 -1.8385  0.4821
 4365SOL     OW24556   3.305   1.502   1.800 -0.1220  0.2316  0.2424
 4365SOL    HW124557   3.228   1.543   1.760  0.7858  2.0881  0.3808
 4365SOL    HW224558   3.310   1.562   1.875  0.3423 -1.3307  1.4825
 4366SOL     OW24559   2.246   1.511   6.454 -0.1027 -0.1943  1.0167
 4366SOL    HW124560   2.217   1.600   6.474 -1.1113 -0.3116  0.0799
 4366SOL    HW224561   2.191   1.505   6.376  2.7792 -0.3150 -0.9730
 4367SOL     OW24562   0.335   2.593   8.975 -0.5801  0.1324  0.5695
 4367SOL    HW124563   0.401   2.622   8.912  0.3100 -2.5536  0.2647
 4367SOL    HW224564   0.329   2.499   8.962  1.5596 -0.1777  1.7804
 4368SOL     OW24565   3.140   1.972   1.975 -0.0707  0.0676 -0.0693
 4368SOL    HW124566   3.081   2.037   2.013 -1.1742 -0.0293 -1.6432
 4368SOL    HW224567   3.188   1.938   2.051  2.1478 -1.6187 -2.2205
 4369SOL     OW24568   4.534   1.216  12.222  0.1278 -0.1394 -0.0485
 4369SOL    HW124569   4.624   1.217  12.189 -0.6614 -3.9432 -2.3084
 4369SOL    HW224570   4.542   1.259  12.307  2.1631 -1.0137  0.2082
 4370SOL     OW24571   4.236   1.311  15.196 -0.1187  0.0415  0.7500
 4370SOL    HW124572   4.300   1.365  15.242  1.7807 -0.3354 -1.4124
 4370SOL    HW224573   4.275   1.285  15.112 -3.4621 -0.9247 -0.4798
 4371SOL     OW24574   0.470   4.152  17.451 -0.5107 -0.0739  0.0201
 4371SOL    HW124575   0.538   4.132  17.516 -2.1504  0.2838  1.8434
 4371SOL    HW224576   0.491   4.244  17.432  0.4572 -0.2458  0.2507
 4372SOL     OW24577   3.872   1.476   1.636  0.1842  0.0776  0.0149
 4372SOL    HW124578   3.835   1.539   1.697 -0.1234  0.6672 -0.7865
 4372SOL    HW224579   3.912   1.414   1.698  1.2709 -0.4788 -1.2502
 4373SOL     OW24580   2.793   2.769   3.750 -0.5662 -0.3748  0.1247
 4373SOL    HW124581   2.855   2.837   3.776 -2.4784  0.8047  1.6658
 4373SOL    HW224582   2.842   2.709   3.694  1.3861  0.1596  1.2671
 4374SOL     OW24583   3.637   3.130   2.140 -0.1110 -0.2644 -0.5295
 4374SOL    HW124584   3.601   3.219   2.132 -0.3849 -0.7437 -4.8933
 4374SOL    HW224585   3.709   3.135   2.077 -0.7836  2.8121 -1.0523
 4375SOL     OW24586   0.511   2.897   1.694 -0.7776 -0.0929 -0.0724
 4375SOL    HW124587   0.600   2.889   1.660 -1.3386 -0.4281 -1.4747
 4375SOL    HW224588   0.483   2.807   1.677 -0.4699  0.0591 -1.4210
 4376SOL     OW24589   3.835   0.338   2.947  0.0329 -0.0292  0.0420
 4376SOL    HW124590   3.756   0.290   2.971  0.7065 -0.8207  0.6954
 4376SOL    HW224591   3.896   0.304   3.013 -1.1690 -2.0425  0.1355
 4377SOL     OW24592   1.407   1.538   7.207 -0.6057  0.0478  0.5474
 4377SOL    HW124593   1.347   1.613   7.209  0.2608  0.7244  1.5938
 4377SOL    HW224594   1.486   1.575   7.247  0.6371 -0.7749 -1.1831
 4378SOL     OW24595   1.255   4.167   3.098 -1.3583 -0.2595 -0.1939
 4378SOL    HW124596   1.295   4.254   3.100 -0.4752 -0.6867  0.3753
 4378SOL    HW224597   1.329   4.107   3.104 -1.2174  0.0478  1.0613
 4379SOL     OW24598   0.362   1.909   9.004 -0.1106  0.1668 -0.6235
 4379SOL    HW124599   0.431   1.966   8.970  0.9635 -0.7704 -0.0369
 4379SOL    HW224600   0.396   1.820   8.997  0.7734  0.3618  1.0884
 4380SOL     OW24601   0.486   3.977  14.993  0.6779  0.9540 -0.4179
 4380SOL    HW124602   0.395   4.001  15.014  0.8033  0.3896  0.7852
 4380SOL    HW224603   0.509   3.905  15.053  1.2185 -0.1005 -1.8880
 4381SOL     OW24604   3.143   0.514   4.284  0.2721  0.0694  0.2465
 4381SOL    HW124605   3.216   0.465   4.322  2.0721  1.7098 -1.0820
 4381SOL    HW224606   3.085   0.440   4.301  2.3089 -1.2969  1.3346
 4382SOL     OW24607   2.917   2.841  11.992 -0.6349 -0.5357  0.6609
 4382SOL    HW124608   2.989   2.904  11.995 -1.2290  0.2520 -1.7640
 4382SOL    HW224609   2.888   2.827  12.082 -0.7648 -0.7786  0.5800
 4383SOL     OW24610   3.817   2.772   7.783 -0.2410 -0.4117 -0.1913
 4383SOL    HW124611   3.856   2.711   7.846  0.4792  1.0405  0.7773
 4383SOL    HW224612   3.803   2.712   7.710 -0.2890 -0.3269 -0.2520
 4384SOL     OW24613   4.266   0.375   4.493 -0.5501 -0.1814  0.4392
 4384SOL    HW124614   4.282   0.367   4.587 -1.7594  2.8779  0.8884
 4384SOL    HW224615   4.263   0.470   4.490  2.9135 -0.1328 -0.6999
 4385SOL     OW24616   3.281   1.585   8.101  0.4450  0.6476  0.5820
 4385SOL    HW124617   3.228   1.597   8.179 -1.3996 -1.6208 -0.3303
 4385SOL    HW224618   3.253   1.656   8.044 -2.7535 -0.7616  0.3746
 4386SOL     OW24619   4.047   0.452   8.299 -0.1372  0.5478 -0.4664
 4386SOL    HW124620   4.113   0.511   8.264 -2.2726  1.5913 -2.7801
 4386SOL    HW224621   4.095   0.415   8.373  0.5716 -0.9973 -1.7017
 4387SOL     OW24622   4.166   2.152  14.114 -0.4683  0.4279  0.0933
 4387SOL    HW124623   4.113   2.113  14.183 -2.6980  1.1266 -1.2052
 4387SOL    HW224624   4.231   2.203  14.162  0.5704 -1.0743  0.2648
 4388SOL     OW24625   2.923   3.510   6.842 -0.3524  0.5490  0.1597
 4388SOL    HW124626   2.842   3.540   6.800 -0.0386  0.8983 -0.2036
 4388SOL    HW224627   2.927   3.560   6.924 -1.5189  0.5450  0.2190
 4389SOL     OW24628   3.570   1.973   2.617  0.0529  0.0301  0.0468
 4389SOL    HW124629   3.658   1.937   2.604  0.0420  0.8948 -2.3518
 4389SOL    HW224630   3.518   1.893   2.627 -0.2343  0.3822  1.3803
 4390SOL     OW24631   2.071   2.608   6.719  0.2779 -0.2287  0.0783
 4390SOL    HW124632   2.155   2.648   6.741  0.4522  0.3214 -1.6064
 4390SOL    HW224633   2.049   2.584   6.809 -3.2548 -0.3296 -0.8198
 4391SOL     OW24634   4.234   0.060   7.988 -0.4463  0.1225  0.0353
 4391SOL    HW124635   4.293   0.079   8.061  0.9276 -2.0241 -0.5146
 4391SOL    HW224636   4.150   0.039   8.030 -0.3431 -1.7034 -0.6737
 4392SOL     OW24637   1.035   1.887   4.210 -0.3563 -0.0798 -0.3254
 4392SOL    HW124638   1.014   1.798   4.237 -0.0393 -0.3263 -0.9062
 4392SOL    HW224639   0.953   1.925   4.178 -0.5368  1.3827  1.8109
 4393SOL     OW24640   0.133   4.292   4.618 -0.6676  0.5605  0.0019
 4393SOL    HW124641   0.118   4.346   4.695  0.2141  0.0838  0.5123
 4393SOL    HW224642   0.204   4.239   4.655 -1.8164 -0.3392  0.8930
 4394SOL     OW24643   4.553   0.794   3.542  0.4086 -0.6558  0.0685
 4394SOL    HW124644   4.471   0.822   3.500 -0.5139 -1.0837  1.5617
 4394SOL    HW224645   4.616   0.852   3.500  2.8645 -1.6605  2.3928
 4395SOL     OW24646   3.885   0.629   2.966  0.4197 -0.3393 -0.3844
 4395SOL    HW124647   3.892   0.640   2.871  0.5864  1.0143 -0.2172
 4395SOL    HW224648   3.953   0.566   2.988 -1.9132 -2.9053 -0.6193
 4396SOL     OW24649   2.748   0.213   7.827  0.1988 -0.6887 -0.2130
 4396SOL    HW124650   2.805   0.210   7.903  0.5536 -0.0988 -0.4551
 4396SOL    HW224651   2.800   0.171   7.759 -1.3054 -1.8165 -0.6691
 4397SOL     OW24652   0.162   1.753   7.818  0.3756 -0.2559 -0.1014
 4397SOL    HW124653   0.195   1.672   7.858  0.4483 -0.6074 -0.8867
 4397SOL    HW224654   0.096   1.719   7.759 -2.3983  0.4731  2.5643
 4398SOL     OW24655   3.717   1.676  10.809 -0.1679 -0.2325 -0.3392
 4398SOL    HW124656   3.664   1.597  10.802 -1.3609  0.6856 -1.4826
 4398SOL    HW224657   3.721   1.709  10.720 -0.4307  1.2247  0.1861
 4399SOL     OW24658   4.343   2.111   5.284 -0.1327 -0.0778  0.3641
 4399SOL    HW124659   4.358   2.072   5.370  1.0853 -2.6975 -1.0479
 4399SOL    HW224660   4.249   2.128   5.287  0.1935  1.6510  0.7007
 4400SOL     OW24661   3.810   0.624   7.478  0.0646 -0.4289  0.5397
 4400SOL    HW124662   3.890   0.675   7.486 -0.5073  0.4315  0.7430
 4400SOL    HW224663   3.752   0.672   7.537  0.7087  0.0383  0.7970
 4401SOL     OW24664   0.927   4.218  11.291  0.9299  0.0750  0.3102
 4401SOL    HW124665   0.946   4.126  11.270  2.5330  0.3859  0.4037
 4401SOL    HW224666   0.848   4.206  11.343  0.7435 -0.7875 -0.1700
 4402SOL     OW24667   4.609   1.026  14.763 -0.0034 -0.1453 -0.5777
 4402SOL    HW124668   4.691   0.977  14.757 -0.5267 -1.1363  0.2496
 4402SOL    HW224669   4.548   0.959  14.731  0.0529 -0.0875 -0.8035
 4403SOL     OW24670   1.425   4.306  11.316 -0.0484 -0.4743 -0.0164
 4403SOL    HW124671   1.384   4.336  11.397  0.1371  0.2712 -0.1960
 4403SOL    HW224672   1.387   4.356  11.244  3.1022  3.2120  0.8824
 4404SOL     OW24673   2.183   4.575  13.137 -0.0489  0.4829  0.3312
 4404SOL    HW124674   2.122   4.644  13.113  0.1083  0.4406 -0.1780
 4404SOL    HW224675   2.145   4.504  13.085  0.1662  0.1748  0.5940
 4405SOL     OW24676   1.112   0.274   2.883 -0.0129  0.1050  0.4657
 4405SOL    HW124677   1.116   0.355   2.933  3.3455  0.5433 -0.5002
 4405SOL    HW224678   1.191   0.274   2.830  0.8365 -1.0046  1.7301
 4406SOL     OW24679   3.393   2.073   6.073  0.4211  0.0096  0.4014
 4406SOL    HW124680   3.428   2.014   6.141  0.8200 -0.3324 -0.1045
 4406SOL    HW224681   3.460   2.068   6.006  0.2067  1.5160  0.0780
 4407SOL     OW24682   0.484   1.596   5.045  0.5097  0.0083 -0.3599
 4407SOL    HW124683   0.476   1.632   4.957  2.5762  0.8431 -0.2119
 4407SOL    HW224684   0.449   1.508   5.033 -2.1334  1.1298 -0.7642
 4408SOL     OW24685   2.286   4.318   7.491 -0.3244  0.4110  0.5016
 4408SOL    HW124686   2.282   4.250   7.423 -0.3467 -0.2315  1.1493
 4408SOL    HW224687   2.221   4.279   7.550 -0.0358 -0.1930  0.4253
 4409SOL     OW24688   4.357   3.634   7.025  0.0084  0.0427  0.3013
 4409SOL    HW124689   4.327   3.546   7.005  3.7121 -0.8906 -1.0726
 4409SOL    HW224690   4.408   3.654   6.946  0.9027 -0.4511  0.7519
 4410SOL     OW24691   2.389   0.790   4.694  0.0175 -0.0956  0.3640
 4410SOL    HW124692   2.456   0.737   4.650  1.5374 -0.4548  3.1279
 4410SOL    HW224693   2.424   0.801   4.782 -0.2137  1.7015  0.2499
 4411SOL     OW24694   1.980   3.200   8.354 -0.3890  0.3778 -0.2734
 4411SOL    HW124695   1.982   3.208   8.449 -1.1324  0.5193 -0.2650
 4411SOL    HW224696   2.069   3.168   8.341 -1.4490 -2.2945 -0.8800
 4412SOL     OW24697   2.979   1.342   8.234 -0.6561  0.6293  0.7204
 4412SOL    HW124698   2.922   1.278   8.277  2.1411 -1.6223  1.0917
 4412SOL    HW224699   2.973   1.325   8.141  0.6084 -1.5948  1.0448
 4413SOL     OW24700   3.697   2.206   9.431  0.1116  0.0651  0.1440
 4413SOL    HW124701   3.625   2.267   9.439  0.5071  0.5592 -0.0883
 4413SOL    HW224702   3.701   2.209   9.336 -2.5887  1.6907  0.0974
 4414SOL     OW24703   3.004   0.391   6.979  0.3730 -0.1137  0.0240
 4414SOL    HW124704   2.935   0.334   7.012  1.9296 -1.2400  1.3462
 4414SOL    HW224705   3.033   0.350   6.898 -1.0144  0.6912 -0.8660
 4415SOL     OW24706   0.355   2.818  17.603  0.7450  0.8533  0.7352
 4415SOL    HW124707   0.365   2.724  17.619  1.4155  0.8225  0.1312
 4415SOL    HW224708   0.332   2.843   0.003  1.1740  1.5489  0.6502
 4416SOL     OW24709   0.685   1.838   9.126 -0.6210  0.2457 -0.0435
 4416SOL    HW124710   0.616   1.886   9.170 -0.7900  0.9250 -1.0619
 4416SOL    HW224711   0.636   1.814   9.047  0.8636 -0.1417 -0.8536
 4417SOL     OW24712   0.931   4.029   5.583 -0.0643  0.5635 -0.8177
 4417SOL    HW124713   0.884   4.060   5.661  1.5872 -0.3807  0.5757
 4417SOL    HW224714   0.923   4.113   5.537 -0.0057  0.3710 -1.1769
 4418SOL     OW24715   3.027   1.437  11.130 -0.0122  0.0697 -0.2945
 4418SOL    HW124716   2.934   1.441  11.154  0.2203  1.2421  0.4527
 4418SOL    HW224717   3.055   1.382  11.203 -2.2358  0.4471  0.8372
 4419SOL     OW24718   1.936   2.778   6.974 -0.3703  0.0389  0.6318
 4419SOL    HW124719   1.967   2.838   6.907 -1.5369 -0.5161 -0.4169
 4419SOL    HW224720   1.846   2.761   6.946 -1.2887  3.2986  1.5304
 4420SOL     OW24721   0.809   2.851  15.381  0.2314  0.0485  0.2626
 4420SOL    HW124722   0.763   2.779  15.424 -1.4482  0.5842 -0.6011
 4420SOL    HW224723   0.751   2.879  15.310 -0.4727 -3.1358 -0.4275
 4421SOL     OW24724   0.197   3.768   4.301 -0.1299  0.9215 -0.0216
 4421SOL    HW124725   0.117   3.820   4.309 -0.3303  0.7855 -1.1473
 4421SOL    HW224726   0.174   3.710   4.229  0.4366 -0.5012  0.9448
 4422SOL     OW24727   1.869   0.328   9.871 -0.2368 -0.5431 -0.1506
 4422SOL    HW124728   1.782   0.345   9.906 -0.4431  0.2402 -1.0420
 4422SOL    HW224729   1.857   0.369   9.785  0.5027  2.2151  1.0499
 4423SOL     OW24730   0.308   1.425   1.959 -0.1445 -0.3558  0.0391
 4423SOL    HW124731   0.285   1.336   1.986  0.1795  0.7228  3.9305
 4423SOL    HW224732   0.278   1.471   2.037 -0.4078  1.8085 -1.3278
 4424SOL     OW24733   3.321   0.695  12.039  0.0580  0.0461 -0.2335
 4424SOL    HW124734   3.336   0.668  11.949  1.2636  1.0742 -0.3517
 4424SOL    HW224735   3.394   0.756  12.053  0.3967 -0.1395 -1.2352
 4425SOL     OW24736   0.788   1.527   5.199 -0.3456 -0.6932  0.1155
 4425SOL    HW124737   0.698   1.497   5.188 -0.5900 -0.0728  0.4247
 4425SOL    HW224738   0.772   1.606   5.251  0.8436 -0.0640 -0.4658
 4426SOL     OW24739   4.696   3.175   4.038 -0.3585  0.5569 -0.7899
 4426SOL    HW124740   4.703   3.256   3.989 -0.8823  1.5530  0.7935
 4426SOL    HW224741   4.686   3.208   4.127  0.1447  2.1172 -1.3253
 4427SOL     OW24742   4.328   2.515  14.176  0.5866  0.1404  0.0293
 4427SOL    HW124743   4.392   2.582  14.198  0.5851 -0.4009  1.6534
 4427SOL    HW224744   4.250   2.571  14.174  0.7601  0.3592 -0.5997
 4428SOL     OW24745   1.869   3.591  13.909 -0.2070  0.0704 -0.0623
 4428SOL    HW124746   1.874   3.661  13.974 -2.2273  0.8708 -0.7861
 4428SOL    HW224747   1.774   3.588  13.900 -0.3105  1.3229  0.5892
 4429SOL     OW24748   2.708   0.042  16.753  0.1127  0.2435  0.2859
 4429SOL    HW124749   2.764   4.708  16.700 -0.1065 -0.0085  0.3204
 4429SOL    HW224750   2.713   0.130  16.716  1.0171 -0.4839 -1.2982
 4430SOL     OW24751   2.855   0.352  12.577  0.6229  0.7215 -0.1222
 4430SOL    HW124752   2.942   0.337  12.540 -0.2637 -2.2843 -0.9493
 4430SOL    HW224753   2.848   0.448  12.574  1.5436  0.8358  1.5818
 4431SOL     OW24754   1.350   3.104   2.584  0.1210 -0.0056 -0.0465
 4431SOL    HW124755   1.360   3.010   2.569  0.8993 -0.1293  1.2745
 4431SOL    HW224756   1.289   3.099   2.657  1.0104 -1.0781  0.6204
 4432SOL     OW24757   1.056   1.471   1.532  0.6843 -0.3101  0.3708
 4432SOL    HW124758   0.963   1.493   1.528  0.9015  0.1480 -1.9457
 4432SOL    HW224759   1.089   1.553   1.496 -0.1087  0.0920  0.5600
 4433SOL     OW24760   0.769   2.567   8.413  0.4229 -0.7267 -0.2331
 4433SOL    HW124761   0.849   2.539   8.369 -0.0720  0.6812 -2.0339
 4433SOL    HW224762   0.806   2.596   8.496  1.1512  1.4726 -1.3175
 4434SOL     OW24763   0.628   1.018  10.636  0.5122 -1.1279  0.7194
 4434SOL    HW124764   0.643   1.105  10.673  0.5530 -1.2926  1.0815
 4434SOL    HW224765   0.691   0.970  10.690  1.0455  0.8641  1.8477
 4435SOL     OW24766   1.744   1.409   5.989  0.1397 -0.1688 -0.1697
 4435SOL    HW124767   1.678   1.436   5.925  1.0960  3.0244  0.2280
 4435SOL    HW224768   1.690   1.368   6.056  0.2461 -0.5969 -0.3455
 4436SOL     OW24769   0.921   1.353  14.940 -0.1397 -0.5070  0.1547
 4436SOL    HW124770   0.922   1.441  14.903 -0.6657 -1.2334 -1.5615
 4436SOL    HW224771   0.867   1.358  15.019  0.5374 -2.8424  0.7934
 4437SOL     OW24772   2.461   1.252   1.278 -0.2130  0.0659  0.0030
 4437SOL    HW124773   2.514   1.238   1.356  1.9003  0.9013 -1.2863
 4437SOL    HW224774   2.517   1.210   1.212  0.9619  1.4474  0.1347
 4438SOL     OW24775   2.469   1.291   4.014  0.2385  0.0254 -0.2696
 4438SOL    HW124776   2.522   1.359   4.056  0.3004 -0.1278 -0.0970
 4438SOL    HW224777   2.536   1.252   3.958  0.1164  0.6008 -0.8088
 4439SOL     OW24778   1.919   1.857  15.807 -0.0481  0.0034 -0.0304
 4439SOL    HW124779   1.937   1.779  15.860 -0.1899 -2.1361 -3.1450
 4439SOL    HW224780   1.825   1.847  15.788  0.2285  0.7966 -1.7651
 4440SOL     OW24781   1.794   2.054  16.066 -0.5304 -0.2426 -0.0906
 4440SOL    HW124782   1.707   2.046  16.026 -0.9374  1.1170  0.5200
 4440SOL    HW224783   1.845   2.089  15.994  1.4608 -2.7914  0.0855
 4441SOL     OW24784   3.901   3.275  16.038  0.3370  0.0666 -0.6712
 4441SOL    HW124785   3.977   3.263  15.981  0.4658 -0.1063 -0.4634
 4441SOL    HW224786   3.839   3.222  15.987 -0.1109  0.0006 -0.0711
 4442SOL     OW24787   0.484   0.629   9.518 -1.4340 -0.0984 -0.1609
 4442SOL    HW124788   0.441   0.643   9.603  2.7403 -0.9283  2.0746
 4442SOL    HW224789   0.501   0.535   9.524 -0.1329  0.3196  2.4570
 4443SOL     OW24790   4.175   2.759   0.442 -0.1645  0.0086  0.1047
 4443SOL    HW124791   4.124   2.682   0.417 -1.2761  1.3072 -1.6669
 4443SOL    HW224792   4.132   2.823   0.384  2.1911  3.8108  2.5304
 4444SOL     OW24793   0.354   1.427  15.772 -0.1427  0.0853  0.4020
 4444SOL    HW124794   0.413   1.353  15.753 -3.8952 -1.9909 -3.2166
 4444SOL    HW224795   0.404   1.501  15.739 -0.7711  1.0468  1.5930
 4445SOL     OW24796   3.342   0.885  16.349 -0.0386 -0.6540  0.1011
 4445SOL    HW124797   3.291   0.822  16.399 -0.3628  1.2814  2.2232
 4445SOL    HW224798   3.311   0.963  16.395  0.4787  2.2550 -4.5532
 4446SOL     OW24799   1.565   2.238   2.189 -0.8747 -0.1805 -0.0061
 4446SOL    HW124800   1.527   2.155   2.162 -0.1369 -0.6680  0.4363
 4446SOL    HW224801   1.520   2.269   2.268 -2.2783 -2.3060  0.0127
 4447SOL     OW24802   3.184   4.017   3.248  0.1998 -0.0348  0.1084
 4447SOL    HW124803   3.130   3.955   3.199  0.6313  1.3391 -2.0918
 4447SOL    HW224804   3.267   3.969   3.254  0.0804 -0.4354 -1.4481
 4448SOL     OW24805   1.544   2.538  12.988 -0.3876  0.1446  0.3347
 4448SOL    HW124806   1.601   2.576  13.055 -1.1815  1.3236  0.3287
 4448SOL    HW224807   1.472   2.507  13.043 -0.6238  2.1874  1.1803
 4449SOL     OW24808   3.603   0.688   1.512 -0.6314 -0.3285  0.3980
 4449SOL    HW124809   3.522   0.732   1.536  0.6704  0.3727  3.4203
 4449SOL    HW224810   3.575   0.654   1.426 -0.6749  0.1083  0.2404
 4450SOL     OW24811   4.236   2.106   1.889  0.8862 -0.6990 -0.3714
 4450SOL    HW124812   4.275   2.194   1.891 -1.3106  0.2834 -0.5083
 4450SOL    HW224813   4.288   2.057   1.826 -0.2199 -2.0172 -0.2583
 4451SOL     OW24814   4.148   0.824   2.936 -0.0043  0.5409 -0.2817
 4451SOL    HW124815   4.228   0.874   2.916  0.7608 -0.7997 -0.5261
 4451SOL    HW224816   4.125   0.868   3.018  0.8472  0.2801  0.1070
 4452SOL     OW24817   3.975   4.484  17.526 -0.4007  0.0660 -0.0811
 4452SOL    HW124818   3.930   4.424  17.586  0.8583 -1.1555 -0.3621
 4452SOL    HW224819   3.916   4.559  17.537  0.4069  0.6051  0.4737
 4453SOL     OW24820   2.612   4.562   2.867  0.0520  0.6677 -0.0887
 4453SOL    HW124821   2.698   4.530   2.893 -0.4236 -0.1546  0.4752
 4453SOL    HW224822   2.573   4.527   2.947  0.0952 -1.1388 -0.8466
 4454SOL     OW24823   4.572   0.860   3.813 -0.4699 -0.5648  0.6729
 4454SOL    HW124824   4.558   0.814   3.730  0.7864  1.7070 -0.8250
 4454SOL    HW224825   4.665   0.846   3.831 -0.7983 -0.4654  2.3726
 4455SOL     OW24826   4.423   1.446  11.694 -0.6796 -0.0918  0.0568
 4455SOL    HW124827   4.369   1.367  11.695 -3.2055  1.6810  2.5293
 4455SOL    HW224828   4.357   1.514  11.709 -0.3507  0.5085 -1.1634
 4456SOL     OW24829   3.203   2.622   7.443 -0.1216 -0.2092 -0.3439
 4456SOL    HW124830   3.224   2.563   7.516 -2.4914  0.5148  0.9193
 4456SOL    HW224831   3.149   2.573   7.381 -1.1666 -1.1434  1.3010
 4457SOL     OW24832   3.542   2.483   4.761 -0.1077 -0.1410 -0.0264
 4457SOL    HW124833   3.492   2.447   4.834  0.4229  1.7643  1.2716
 4457SOL    HW224834   3.627   2.510   4.797 -1.0445  3.2028 -0.3036
 4458SOL     OW24835   0.388   2.099   3.373 -0.2606  0.3474 -0.6204
 4458SOL    HW124836   0.343   2.089   3.290 -0.9464 -1.9959  0.0128
 4458SOL    HW224837   0.434   2.015   3.376 -1.8008 -0.4343  1.5983
 4459SOL     OW24838   3.325   2.414   8.693  0.2821 -0.3404 -0.3376
 4459SOL    HW124839   3.408   2.375   8.722 -0.2228 -0.2154  1.2374
 4459SOL    HW224840   3.352   2.467   8.618  1.0185 -1.2551 -0.7150
 4460SOL     OW24841   2.536   0.081   6.298  0.4582 -0.0095 -0.2373
 4460SOL    HW124842   2.467   0.074   6.364  0.0421 -0.9410 -0.7733
 4460SOL    HW224843   2.590   0.004   6.320 -0.6702 -0.0921  2.2021
 4461SOL     OW24844   3.094   4.401  16.584  0.2773  0.4311  0.9069
 4461SOL    HW124845   3.121   4.311  16.598  1.0358  0.5590  0.2274
 4461SOL    HW224846   3.160   4.434  16.523 -0.4292 -0.6328 -0.4225
 4462SOL     OW24847   0.933   3.139   5.835 -0.0442  0.3235 -0.2753
 4462SOL    HW124848   0.863   3.185   5.883 -0.2764 -0.7513  0.4131
 4462SOL    HW224849   1.009   3.182   5.875 -0.5583 -1.3145  2.4990
 4463SOL     OW24850   1.439   2.533   3.760  0.3026 -0.1113  0.0293
 4463SOL    HW124851   1.514   2.502   3.810 -1.0729  0.1737  2.2675
 4463SOL    HW224852   1.462   2.626   3.753  2.1612 -0.6416 -0.7936
 4464SOL     OW24853   1.578   3.347   8.853 -0.3644  0.2681  0.5185
 4464SOL    HW124854   1.484   3.367   8.848 -0.7955 -1.6950  0.5007
 4464SOL    HW224855   1.599   3.365   8.945  1.6042 -0.0172  0.1175
 4465SOL     OW24856   2.005   3.296   6.338  0.0120  0.3850  0.0400
 4465SOL    HW124857   1.961   3.373   6.376 -0.9535 -0.1754  0.0441
 4465SOL    HW224858   2.084   3.345   6.313  0.9402 -1.4961 -0.6652
 4466SOL     OW24859   0.254   0.762   1.284 -0.2584  0.1669 -0.0320
 4466SOL    HW124860   0.219   0.769   1.196  2.6179  1.2025 -1.1072
 4466SOL    HW224861   0.298   0.847   1.287 -2.0152  1.1052 -1.0632
 4467SOL     OW24862   4.067   0.313  17.424 -0.2376 -0.9120 -0.5595
 4467SOL    HW124863   4.135   0.248  17.438 -0.2404 -0.9378 -0.6716
 4467SOL    HW224864   4.052   0.310  17.330 -1.3604  2.3928 -0.5015
 4468SOL     OW24865   0.592   0.904   4.013 -0.4682 -0.5117  0.2169
 4468SOL    HW124866   0.657   0.884   4.081 -0.3848 -0.3270  0.1909
 4468SOL    HW224867   0.652   0.898   3.938  1.3722 -2.3339  1.8484
 4469SOL     OW24868   1.055   4.655   7.552  0.8592  0.3821 -0.0988
 4469SOL    HW124869   1.011   4.581   7.594 -1.5549  1.0410 -1.4474
 4469SOL    HW224870   0.998   4.694   7.485 -0.1626 -0.3615  0.3420
 4470SOL     OW24871   4.126   0.104   2.956 -0.2517 -0.6333 -0.5806
 4470SOL    HW124872   4.209   0.118   3.002 -1.8665  0.9806  1.8169
 4470SOL    HW224873   4.160   0.107   2.866  2.9083 -2.0046  0.5530
 4471SOL     OW24874   0.272   3.817   0.277 -0.1360  0.2145 -0.2192
 4471SOL    HW124875   0.354   3.840   0.233 -0.1291  1.4193  0.4473
 4471SOL    HW224876   0.222   3.876   0.221  0.1435  0.6975  0.0452
 4472SOL     OW24877   1.598   1.592   2.312  0.0577  0.6895 -0.6429
 4472SOL    HW124878   1.629   1.502   2.325 -0.6357  0.4060 -0.9409
 4472SOL    HW224879   1.518   1.579   2.261 -1.6103  1.1070  1.9224
 4473SOL     OW24880   3.973   4.627  12.106  0.0204 -0.0387  0.5495
 4473SOL    HW124881   3.933   4.669  12.181 -2.9337  1.4811 -1.8802
 4473SOL    HW224882   4.038   4.691  12.076  0.7229 -0.2550  1.6167
 4474SOL     OW24883   0.454   3.065   3.573 -0.3535  0.2385 -0.1511
 4474SOL    HW124884   0.417   3.048   3.660 -0.5477 -0.3406 -0.3458
 4474SOL    HW224885   0.531   3.119   3.590  0.1394 -1.1926  2.2390
 4475SOL     OW24886   0.818   1.996   4.024 -0.3974  0.0983 -0.5076
 4475SOL    HW124887   0.731   2.035   4.012 -0.2995  0.9422  1.5133
 4475SOL    HW224888   0.810   1.912   3.979  1.2114 -0.5729  0.4736
 4476SOL     OW24889   1.490   3.536  14.245 -0.5464 -0.3318  0.3761
 4476SOL    HW124890   1.478   3.461  14.304  2.2480 -0.4144  0.8447
 4476SOL    HW224891   1.584   3.531  14.227 -1.0515 -4.2304 -1.2434
 4477SOL     OW24892   1.092   2.746   5.335  0.5231  0.2468 -0.0581
 4477SOL    HW124893   1.018   2.787   5.291  0.4677  1.4472  1.1676
 4477SOL    HW224894   1.079   2.771   5.427  1.7471 -2.7672  0.9589
 4478SOL     OW24895   3.333   2.992   5.933  0.1474  0.4044  0.2426
 4478SOL    HW124896   3.329   2.896   5.930  0.2168  0.3797  0.9920
 4478SOL    HW224897   3.415   3.006   5.981  0.4015 -2.6964  0.6938
 4479SOL     OW24898   1.326   1.443  17.635 -0.3287 -0.2307 -0.1513
 4479SOL    HW124899   1.282   1.367  17.597  0.7842  0.5789 -3.0373
 4479SOL    HW224900   1.317   1.510  17.567 -0.9033 -0.2178 -0.0683
 4480SOL     OW24901   1.745   3.677   6.267  0.5510  0.3339  0.2161
 4480SOL    HW124902   1.670   3.632   6.228 -0.8587  1.1215  2.0282
 4480SOL    HW224903   1.718   3.766   6.242  0.4995  0.2209 -0.1339
 4481SOL     OW24904   0.488   2.750   6.213 -0.3401 -0.5332  0.4095
 4481SOL    HW124905   0.452   2.813   6.150 -1.6522 -2.0219 -0.3092
 4481SOL    HW224906   0.531   2.805   6.278 -0.3452  1.2580 -1.0967
 4482SOL     OW24907   0.259   3.604   8.783  0.4531  0.6053  0.2903
 4482SOL    HW124908   0.283   3.534   8.844 -4.3459  0.6333  2.2395
 4482SOL    HW224909   0.251   3.556   8.701 -0.8604 -0.6951  1.1757
 4483SOL     OW24910   2.372   2.835   2.839 -0.2440  0.1135 -0.1581
 4483SOL    HW124911   2.446   2.790   2.882 -1.3293 -2.1547 -0.6625
 4483SOL    HW224912   2.418   2.868   2.762 -2.0303  0.0554 -1.2268
 4484SOL     OW24913   1.542   1.464   5.816 -0.3476  0.2547 -0.0019
 4484SOL    HW124914   1.466   1.415   5.845  0.3310 -0.9559 -0.2375
 4484SOL    HW224915   1.505   1.530   5.757 -4.9229 -2.5229 -0.1810
 4485SOL     OW24916   3.046   1.819   8.813  0.4110 -0.9210  0.7143
 4485SOL    HW124917   2.954   1.838   8.829  0.3567 -1.5404  1.0982
 4485SOL    HW224918   3.092   1.842   8.894  1.9126  1.1403 -0.7156
 4486SOL     OW24919   4.647   1.621  17.359  0.0709 -0.1503 -0.3822
 4486SOL    HW124920   4.680   1.669  17.283 -0.9099 -0.9160 -1.2939
 4486SOL    HW224921   4.664   1.687  17.425 -1.1954 -0.2401  0.0350
 4487SOL     OW24922   2.464   3.528   3.405 -0.7025 -0.4725  0.4200
 4487SOL    HW124923   2.455   3.462   3.474  0.9404  0.6132  1.6492
 4487SOL    HW224924   2.431   3.471   3.335 -1.0310 -0.8466  0.8752
 4488SOL     OW24925   0.559   4.060   7.439  0.0931  0.2381  0.1137
 4488SOL    HW124926   0.533   3.975   7.475 -1.8927  0.0454 -1.8206
 4488SOL    HW224927   0.497   4.059   7.366 -1.0731  0.1368  1.1148
 4489SOL     OW24928   1.039   3.468   3.551 -0.4892  0.2188 -0.3389
 4489SOL    HW124929   1.091   3.515   3.616 -1.4923  1.2195 -0.2666
 4489SOL    HW224930   0.957   3.470   3.600 -0.2909  1.7975 -0.0579
 4490SOL     OW24931   2.039   1.440   8.988  0.2775  0.2646  0.3769
 4490SOL    HW124932   1.955   1.486   8.993 -0.5579 -0.9883 -1.7310
 4490SOL    HW224933   2.083   1.488   9.058  0.5979 -0.2502  0.5224
 4491SOL     OW24934   1.975   3.277   3.799 -0.7225 -0.6745  0.2758
 4491SOL    HW124935   2.013   3.200   3.757 -1.1802 -0.1409 -1.0836
 4491SOL    HW224936   1.941   3.315   3.719  1.8696  0.3602 -0.3322
 4492SOL     OW24937   1.903   0.430   6.288  0.1981 -0.1267 -0.1904
 4492SOL    HW124938   1.889   0.336   6.279  0.7116 -0.2061 -0.1664
 4492SOL    HW224939   1.993   0.433   6.256 -0.3120  0.5584 -1.5735
 4493SOL     OW24940   3.242   4.398   7.543 -0.1871  0.3855 -1.0139
 4493SOL    HW124941   3.327   4.419   7.582 -0.3301  0.3047 -0.6647
 4493SOL    HW224942   3.250   4.304   7.526  0.2482  0.9175 -3.7510
 4494SOL     OW24943   2.734   3.903  17.681  0.3477 -0.0188 -0.5439
 4494SOL    HW124944   2.803   3.864   0.044 -0.2190 -1.1237 -0.6202
 4494SOL    HW224945   2.791   3.948  17.619  1.2942 -1.2271 -0.5431
 4495SOL     OW24946   1.166   4.555   5.315 -0.2491  0.3935  0.2366
 4495SOL    HW124947   1.170   4.624   5.249 -1.7550 -0.7085 -1.0305
 4495SOL    HW224948   1.239   4.587   5.369 -0.5743  1.3256  0.1232
 4496SOL     OW24949   1.724   2.698   3.102 -0.3357  0.4270 -0.1890
 4496SOL    HW124950   1.719   2.693   3.197  1.0400 -0.2413 -0.1430
 4496SOL    HW224951   1.815   2.671   3.090  0.0441  1.3392  0.6359
 4497SOL     OW24952   4.117   4.075   2.344  0.5700 -0.5776  0.4360
 4497SOL    HW124953   4.157   4.120   2.418  0.9328  0.3423 -0.3098
 4497SOL    HW224954   4.135   3.984   2.364  1.7940 -0.4703 -0.1966
 4498SOL     OW24955   0.175   0.662   2.165  0.0525  0.6153  0.0054
 4498SOL    HW124956   0.165   0.637   2.257 -2.5979  1.6538 -0.0072
 4498SOL    HW224957   0.268   0.687   2.172  0.1996  0.5398 -1.5743
 4499SOL     OW24958   0.494   0.135   7.367  0.2048  0.2537  0.0094
 4499SOL    HW124959   0.499   0.193   7.291 -0.2702 -0.5004 -0.5890
 4499SOL    HW224960   0.547   0.180   7.433  0.0032 -0.1655  0.4572
 4500SOL     OW24961   3.436   4.694   2.726  0.0933  0.1423  0.2870
 4500SOL    HW124962   3.457   4.694   2.633  0.7744  0.1984  0.4384
 4500SOL    HW224963   3.522   4.695   2.769  0.4677  0.7629 -0.4662
 4501SOL     OW24964   4.337   4.267   4.300  0.0133  0.1054 -0.0255
 4501SOL    HW124965   4.337   4.172   4.285  0.9877  0.1692 -0.4500
 4501SOL    HW224966   4.315   4.271   4.393 -1.5524 -0.6089 -0.3724
 4502SOL     OW24967   2.795   1.754   2.451  0.0828  0.1523  0.4549
 4502SOL    HW124968   2.731   1.683   2.455  2.2663 -1.8641 -0.4537
 4502SOL    HW224969   2.807   1.776   2.543 -1.4789  0.5075  0.5716
 4503SOL     OW24970   4.285   1.091   6.567 -0.1452 -0.0867 -0.9598
 4503SOL    HW124971   4.213   1.115   6.626  0.9893  0.2165  0.3203
 4503SOL    HW224972   4.311   1.010   6.610  1.2981 -0.7379 -3.1029
 4504SOL     OW24973   3.894   1.347  12.900 -0.2686 -0.0086 -0.4399
 4504SOL    HW124974   3.945   1.427  12.917 -0.2038 -0.3583  1.0607
 4504SOL    HW224975   3.846   1.341  12.982 -1.3790  0.6589 -1.0485
 4505SOL     OW24976   1.451   4.622   4.466 -0.3526  0.2329 -0.6550
 4505SOL    HW124977   1.494   4.708   4.461  1.3627 -0.6526 -1.1546
 4505SOL    HW224978   1.531   4.571   4.479  0.1393  1.3755  0.8428
 4506SOL     OW24979   2.052   1.749   9.952  0.0500  0.0126 -0.1177
 4506SOL    HW124980   2.081   1.840   9.949  1.4377 -0.4027  0.7767
 4506SOL    HW224981   2.133   1.700   9.966  0.4373  1.4515  2.7374
 4507SOL     OW24982   0.811   4.230  11.663 -0.3897  0.5205 -0.1516
 4507SOL    HW124983   0.788   4.165  11.597 -0.5278  0.7360 -0.3162
 4507SOL    HW224984   0.771   4.205  11.747  0.0074  1.2489  0.2614
 4508SOL     OW24985   1.546   3.956   5.945  0.0195 -0.3224 -0.4562
 4508SOL    HW124986   1.536   3.958   5.850 -1.6000  1.3518 -0.2342
 4508SOL    HW224987   1.601   4.033   5.959  1.7287 -1.3994 -1.1554
 4509SOL     OW24988   1.195   4.232  10.670  0.5377  0.0290  0.1830
 4509SOL    HW124989   1.159   4.207  10.585  2.8354 -0.5919 -0.6182
 4509SOL    HW224990   1.288   4.249  10.654  0.0276 -1.1311 -4.2004
 4510SOL     OW24991   1.530   2.510   6.515  0.5273  0.5257 -0.0019
 4510SOL    HW124992   1.594   2.501   6.586  1.0704  0.0242 -0.5559
 4510SOL    HW224993   1.590   2.549   6.451 -2.8313 -0.3743 -3.6259
 4511SOL     OW24994   0.275   1.661  17.408 -0.0999 -0.0969  0.4011
 4511SOL    HW124995   0.280   1.757  17.411 -1.5920 -0.0289  0.7148
 4511SOL    HW224996   0.205   1.649  17.473 -2.2640 -0.1759 -1.9601
 4512SOL     OW24997   1.765   4.241   2.296  0.2721 -0.3233 -0.5215
 4512SOL    HW124998   1.704   4.308   2.266  1.0608  0.2663 -0.8105
 4512SOL    HW224999   1.742   4.237   2.388  2.0275 -2.2297 -0.1732
 4513SOL     OW25000   4.557   1.214   6.117 -0.0818  0.5221 -0.2045
 4513SOL    HW125001   4.637   1.253   6.081 -0.6723  0.0861 -2.0287
 4513SOL    HW225002   4.547   1.126   6.080 -1.6170  0.8144 -0.4929
 4514SOL     OW25003   2.155   4.487   1.487  0.4399  0.4764  0.2369
 4514SOL    HW125004   2.145   4.540   1.566 -0.7281  0.7930 -0.1228
 4514SOL    HW225005   2.083   4.519   1.434 -0.8805 -1.2385  1.0030
 4515SOL     OW25006   4.473   2.228   8.935 -0.2134  0.6853 -0.2023
 4515SOL    HW125007   4.541   2.163   8.951  0.4762  1.3406 -0.4448
 4515SOL    HW225008   4.467   2.216   8.840  2.6666  1.4076 -0.4682
 4516SOL     OW25009   2.179   2.868  14.553 -0.2271 -0.0664 -0.0373
 4516SOL    HW125010   2.108   2.918  14.514 -0.0425 -1.4994 -2.2054
 4516SOL    HW225011   2.141   2.812  14.621  1.8142 -1.2791  0.1145
 4517SOL     OW25012   1.593   2.398  16.337 -1.0902  0.4377 -0.0167
 4517SOL    HW125013   1.547   2.451  16.402 -0.9870  1.9711 -1.1894
 4517SOL    HW225014   1.525   2.385  16.270  1.6952 -1.6019 -2.4768
 4518SOL     OW25015   0.580   3.008   5.092  0.7647  0.3298 -0.5579
 4518SOL    HW125016   0.543   3.083   5.044 -0.3119 -0.0418 -0.3124
 4518SOL    HW225017   0.648   3.045   5.148  3.3079 -1.7333 -2.3142
 4519SOL     OW25018   1.285   2.452   0.354 -0.4815  0.4438  0.5058
 4519SOL    HW125019   1.221   2.523   0.349 -2.0624 -0.8440  2.2261
 4519SOL    HW225020   1.225   2.379   0.374 -2.3997  1.4013 -1.7622
 4520SOL     OW25021   3.388   2.974  13.759  0.6075  0.1485  0.0031
 4520SOL    HW125022   3.451   2.902  13.752 -0.1232 -0.4433 -0.5638
 4520SOL    HW225023   3.311   2.927  13.790  1.9186 -1.6064  0.6392
 4521SOL     OW25024   3.214   1.788  10.253  0.2590 -0.1052  0.2052
 4521SOL    HW125025   3.276   1.718  10.232  0.1211 -1.1041  3.0372
 4521SOL    HW225026   3.271   1.865  10.251 -0.3796  0.3770  0.4727
 4522SOL     OW25027   4.322   3.248  10.295  0.2480 -0.3783  0.1673
 4522SOL    HW125028   4.262   3.319  10.319  0.1464 -0.2125 -0.5717
 4522SOL    HW225029   4.381   3.279  10.226  2.3014 -0.5784  1.8578
 4523SOL     OW25030   2.540   4.441   6.950 -0.5745  0.3501 -0.0242
 4523SOL    HW125031   2.553   4.507   7.018  0.2400  0.8359 -0.6500
 4523SOL    HW225032   2.563   4.489   6.870  0.7172  1.0269  0.7655
 4524SOL     OW25033   1.089   1.189   3.423 -0.1121 -0.3085 -0.8333
 4524SOL    HW125034   1.091   1.135   3.344  1.4525  0.3219 -1.2220
 4524SOL    HW225035   1.102   1.269   3.372  1.6200  0.8099  1.3790
 4525SOL     OW25036   2.907   1.280   6.570  0.0561 -0.2443  0.4757
 4525SOL    HW125037   2.833   1.234   6.610  0.4459 -1.1934  0.1136
 4525SOL    HW225038   2.955   1.305   6.649 -0.3758  1.9070  0.0523
 4526SOL     OW25039   4.703   1.060  12.910 -0.5784  0.2684 -0.1943
 4526SOL    HW125040   4.705   1.088  13.002  1.0344  2.0485 -0.7790
 4526SOL    HW225041   4.642   1.124  12.873 -1.5855  0.1919  1.3253
 4527SOL     OW25042   0.829   0.570   0.716  0.5569 -0.0538 -0.4329
 4527SOL    HW125043   0.865   0.630   0.780 -0.7140  0.5141 -0.2424
 4527SOL    HW225044   0.740   0.605   0.712  1.4076  1.6252 -4.5393
 4528SOL     OW25045   3.168   1.501   0.343 -0.2459  0.3123 -0.4280
 4528SOL    HW125046   3.105   1.563   0.306  0.7124  1.4542 -0.1291
 4528SOL    HW225047   3.149   1.421   0.293  0.5532  0.5317 -1.0873
 4529SOL     OW25048   1.518   3.733   6.900  0.0917  0.1116 -0.5975
 4529SOL    HW125049   1.521   3.778   6.984 -0.0338 -0.5467 -0.2433
 4529SOL    HW225050   1.608   3.741   6.867  0.1682 -0.2623 -0.4774
 4530SOL     OW25051   1.419   0.219   3.797  0.3994  0.3556  0.7888
 4530SOL    HW125052   1.399   0.135   3.755  1.9190  0.1585  0.4814
 4530SOL    HW225053   1.464   0.266   3.727 -1.1021 -0.0435 -0.4478
 4531SOL     OW25054   4.225   2.473   4.396 -0.4413 -0.4415 -0.6598
 4531SOL    HW125055   4.201   2.532   4.468  1.5538  0.9981 -1.1929
 4531SOL    HW225056   4.315   2.503   4.390  0.0847 -2.3890 -2.2093
 4532SOL     OW25057   1.253   3.821  10.073  0.3373 -0.0108 -0.1597
 4532SOL    HW125058   1.275   3.826   9.980 -0.5689  2.2793 -0.2579
 4532SOL    HW225059   1.335   3.784  10.105  0.0872 -1.3784 -1.1267
 4533SOL     OW25060   4.341   4.298   7.329  0.3501  0.0632  0.0353
 4533SOL    HW125061   4.358   4.205   7.344 -0.8438 -0.2812 -0.7039
 4533SOL    HW225062   4.269   4.291   7.266  0.6019  1.5444 -0.4333
 4534SOL     OW25063   0.656   2.834   6.444  0.0758  0.4736 -0.2246
 4534SOL    HW125064   0.717   2.815   6.516 -2.3282 -0.8275  1.4408
 4534SOL    HW225065   0.575   2.841   6.494  0.4304 -0.8351  0.5636
 4535SOL     OW25066   4.529   4.582  10.985  0.0851 -0.2205  0.0550
 4535SOL    HW125067   4.585   4.639  11.038 -2.9320  1.6441  1.2486
 4535SOL    HW225068   4.537   4.492  11.017  0.3792 -0.1049  0.3057
 4536SOL     OW25069   3.820   2.958   3.837 -0.2442  0.2856  0.0460
 4536SOL    HW125070   3.863   2.964   3.922  0.6169 -2.7387 -0.1631
 4536SOL    HW225071   3.787   3.048   3.830  1.4573  0.6657 -3.1248
 4537SOL     OW25072   1.419   2.259   2.431  0.4004 -0.2322  0.0727
 4537SOL    HW125073   1.426   2.344   2.475 -0.5998 -0.4318  0.6073
 4537SOL    HW225074   1.474   2.210   2.491 -1.0307 -0.2980  1.3045
 4538SOL     OW25075   3.614   0.386  15.136 -0.2418 -0.1542  0.4103
 4538SOL    HW125076   3.708   0.392  15.122 -0.3550 -0.3443 -0.4106
 4538SOL    HW225077   3.622   0.320  15.205 -1.3621 -0.1614  0.5346
 4539SOL     OW25078   2.992   4.618  17.409  0.1805 -0.2634  0.1638
 4539SOL    HW125079   2.965   4.649  17.496 -2.9802  2.5563 -1.8208
 4539SOL    HW225080   3.088   4.623  17.416  0.1826  0.4696 -0.3570
 4540SOL     OW25081   4.324   2.543   3.095 -1.0360 -0.0587 -0.1031
 4540SOL    HW125082   4.339   2.621   3.042 -2.2123  1.5222  1.9004
 4540SOL    HW225083   4.236   2.517   3.068 -0.2896 -1.1760 -1.4557
 4541SOL     OW25084   3.957   2.285   4.876  0.0149 -0.0576  0.8576
 4541SOL    HW125085   3.967   2.193   4.898 -1.1372 -0.7201 -1.3625
 4541SOL    HW225086   3.915   2.321   4.954 -2.4865  0.6485 -0.8244
 4542SOL     OW25087   2.037   2.337   9.864 -0.3258 -0.6883  0.0300
 4542SOL    HW125088   2.102   2.376   9.923 -1.5246 -0.8569  1.4466
 4542SOL    HW225089   2.023   2.413   9.807 -1.7824 -0.3193  0.8960
 4543SOL     OW25090   0.387   3.816  17.569 -0.0306 -0.1162 -0.1949
 4543SOL    HW125091   0.480   3.795  17.571 -0.0109 -0.1581 -1.2971
 4543SOL    HW225092   0.379   3.857  17.482  2.0268  1.3020  0.2845
 4544SOL     OW25093   0.517   4.237  10.117  0.0430 -0.8763 -0.7594
 4544SOL    HW125094   0.462   4.173  10.073  0.7759 -2.0872  0.1020
 4544SOL    HW225095   0.496   4.310  10.058 -0.6799 -0.1428  0.3903
 4545SOL     OW25096   1.224   1.940   1.637  0.3569 -0.0228  0.1105
 4545SOL    HW125097   1.308   1.974   1.668  0.2751  0.5396 -0.2925
 4545SOL    HW225098   1.167   1.961   1.711  0.2235 -3.8406  1.0784
 4546SOL     OW25099   1.081   0.830   8.066  0.6092 -0.1006 -0.2239
 4546SOL    HW125100   1.059   0.863   7.979 -0.5039  2.2791  0.9575
 4546SOL    HW225101   1.058   0.901   8.126  0.7341  0.1721 -0.4946
 4547SOL     OW25102   4.350   1.598   8.691 -0.4175  0.0769 -0.3405
 4547SOL    HW125103   4.304   1.670   8.648  0.0865 -0.0806 -1.1364
 4547SOL    HW225104   4.375   1.638   8.774  1.0302  0.1674 -0.8162
 4548SOL     OW25105   4.535   4.599  15.590  0.0487  0.0603  0.4473
 4548SOL    HW125106   4.499   4.666  15.648 -0.1526  0.6453 -0.3725
 4548SOL    HW225107   4.627   4.622  15.603  0.0478  0.6698 -0.6991
 4549SOL     OW25108   2.012   2.212   4.398 -0.2731  0.2299 -1.0508
 4549SOL    HW125109   2.084   2.253   4.350  0.5204  2.1061  1.7183
 4549SOL    HW225110   2.039   2.225   4.489 -2.3420  2.1345 -0.6966
 4550SOL     OW25111   1.288   4.699  12.966 -0.2977  0.1085 -0.1033
 4550SOL    HW125112   1.266   4.646  12.890  0.1387  2.2239 -1.6867
 4550SOL    HW225113   1.275   4.636  13.037  0.5067 -1.8034 -1.6795
 4551SOL     OW25114   0.327   3.999   5.690 -0.2632 -0.6396 -0.3347
 4551SOL    HW125115   0.270   4.064   5.731 -0.9791 -1.6570  0.2948
 4551SOL    HW225116   0.295   3.913   5.716 -3.5427  0.5062 -0.5722
 4552SOL     OW25117   1.460   4.636  13.592 -0.0387  0.2898  0.3374
 4552SOL    HW125118   1.459   4.699  13.663  0.5330  1.3809 -0.6161
 4552SOL    HW225119   1.373   4.598  13.602  0.1101 -0.7957 -2.4132
 4553SOL     OW25120   3.757   0.248   5.820 -0.4242 -0.1309 -0.3511
 4553SOL    HW125121   3.759   0.343   5.810 -0.3870  0.0418  1.2669
 4553SOL    HW225122   3.664   0.241   5.801 -1.0744  1.8781  2.1636
 4554SOL     OW25123   0.619   0.745  16.402 -0.1351 -0.2605 -0.2193
 4554SOL    HW125124   0.588   0.685  16.470  0.9991  0.9162  1.3335
 4554SOL    HW225125   0.694   0.789  16.443  0.5429 -0.2498 -1.4367
 4555SOL     OW25126   1.094   2.762   8.829 -0.1722 -0.0520 -0.2703
 4555SOL    HW125127   1.115   2.672   8.805  1.4986 -0.1826  1.6073
 4555SOL    HW225128   1.005   2.741   8.854  0.1296  0.1957  1.0371
 4556SOL     OW25129   2.857   4.356   1.226  0.2532 -0.4128 -0.6499
 4556SOL    HW125130   2.936   4.306   1.246  0.5553  0.4715  0.4001
 4556SOL    HW225131   2.889   4.444   1.248 -2.3803  0.7468 -1.3761
 4557SOL     OW25132   1.787   0.176  14.663  0.2093 -0.7171  0.2712
 4557SOL    HW125133   1.757   0.088  14.685  1.3994 -1.4591 -1.1424
 4557SOL    HW225134   1.720   0.222  14.715 -0.6631 -0.0390 -1.4462
 4558SOL     OW25135   0.828   4.722  16.631 -0.3402 -0.0032  0.1858
 4558SOL    HW125136   0.792   4.691  16.714 -1.6278 -1.3696 -0.8790
 4558SOL    HW225137   0.766   0.069  16.610  1.1193  1.0445 -0.7380
 4559SOL     OW25138   0.700   2.190  11.831 -0.0030 -0.0574 -0.7269
 4559SOL    HW125139   0.723   2.190  11.923 -2.2111 -0.7825 -0.1628
 4559SOL    HW225140   0.624   2.132  11.822  0.3051 -0.4463 -0.8007
 4560SOL     OW25141   2.198   0.354   5.976 -0.0113  0.1791 -0.2514
 4560SOL    HW125142   2.177   0.427   5.917  0.7115  1.2943  0.8647
 4560SOL    HW225143   2.266   0.304   5.932 -1.4736 -0.0002 -2.3014
 4561SOL     OW25144   3.396   2.943   0.435 -0.5183 -0.2730 -0.5431
 4561SOL    HW125145   3.472   2.943   0.492 -1.2823  0.1619  0.4816
 4561SOL    HW225146   3.358   3.030   0.441  1.1146  0.4423 -0.7016
 4562SOL     OW25147   3.274   4.027   7.140  0.0203 -0.6292 -0.0895
 4562SOL    HW125148   3.186   3.991   7.154 -0.2981  0.1271 -0.1420
 4562SOL    HW225149   3.261   4.111   7.095 -0.4648 -1.3232 -1.2531
 4563SOL     OW25150   4.552   3.277   3.291  0.0085  0.3460 -0.3855
 4563SOL    HW125151   4.460   3.283   3.266 -0.1160  0.4797  0.1005
 4563SOL    HW225152   4.579   3.345   3.229  1.1618 -0.7157 -1.0446
 4564SOL     OW25153   4.473   2.606  17.086  0.7769 -0.1976  0.9173
 4564SOL    HW125154   4.506   2.681  17.036 -0.9005  0.5287  0.9303
 4564SOL    HW225155   4.384   2.632  17.108  0.6626  0.3140 -0.1578
 4565SOL     OW25156   4.536   2.251  11.991  0.0810  0.5478  0.5733
 4565SOL    HW125157   4.558   2.162  12.018  1.8160  1.5393  2.4418
 4565SOL    HW225158   4.445   2.241  11.965  0.9140  1.1309 -2.6640
 4566SOL     OW25159   4.683   4.293   7.606 -0.2119  0.8343  0.3900
 4566SOL    HW125160   4.607   4.339   7.572 -0.5826  0.9194  1.3222
 4566SOL    HW225161   0.028   4.355   7.577 -0.5741  1.3030  0.5556
 4567SOL     OW25162   2.167   0.494   9.363 -0.0224  0.3562  0.1480
 4567SOL    HW125163   2.260   0.491   9.381  0.0846 -0.0378 -0.4936
 4567SOL    HW225164   2.132   0.525   9.447  0.0888  0.8599  0.0083
 4568SOL     OW25165   2.716   3.025   1.410  0.3333  0.1672  0.2782
 4568SOL    HW125166   2.753   2.985   1.331  2.0089  0.7077  0.7870
 4568SOL    HW225167   2.675   3.104   1.375 -0.1917 -0.7587 -1.1937
 4569SOL     OW25168   2.431   1.753  17.030  0.0212  0.1447 -0.1811
 4569SOL    HW125169   2.374   1.785  16.959  0.0884  1.7129  0.4774
 4569SOL    HW225170   2.406   1.820  17.093  1.7189 -0.4364  1.0869
 4570SOL     OW25171   2.590   3.108   8.945  0.9767 -0.3457  0.4355
 4570SOL    HW125172   2.575   3.202   8.945 -0.5313 -0.5871 -1.6217
 4570SOL    HW225173   2.501   3.076   8.929  0.2537  2.5005 -1.3052
 4571SOL     OW25174   2.550   2.432   1.784  0.1944 -0.9693 -0.3142
 4571SOL    HW125175   2.573   2.372   1.713 -1.4863 -0.8113 -0.9973
 4571SOL    HW225176   2.635   2.476   1.788 -0.9155  1.0967  0.6771
 4572SOL     OW25177   0.170   4.289   9.558  0.2061 -0.3281  0.5108
 4572SOL    HW125178   0.181   4.373   9.513  0.3877  0.0371  1.2282
 4572SOL    HW225179   0.218   4.228   9.502 -0.3394  3.3025 -3.8454
 4573SOL     OW25180   4.171   1.222   2.226 -0.2380  0.3345  0.0453
 4573SOL    HW125181   4.082   1.195   2.250  0.7993 -0.7704  2.5827
 4573SOL    HW225182   4.177   1.315   2.243 -0.6978  0.1848  0.9779
 4574SOL     OW25183   2.596   2.460   2.079  0.0254  0.1410 -0.0180
 4574SOL    HW125184   2.615   2.553   2.078  1.9817 -0.2530  1.2577
 4574SOL    HW225185   2.566   2.442   1.990 -1.0897 -0.4049  0.4661
 4575SOL     OW25186   4.235   2.225   8.181  0.8183 -0.0926  0.7054
 4575SOL    HW125187   4.282   2.142   8.173  0.6058 -0.0901 -0.7603
 4575SOL    HW225188   4.303   2.285   8.150 -0.9061  0.9277 -1.1763
 4576SOL     OW25189   4.432   2.364   5.371  0.5071 -0.1357  0.1883
 4576SOL    HW125190   4.437   2.352   5.466  1.9967  0.3674  0.1820
 4576SOL    HW225191   4.380   2.287   5.349 -0.2906  0.4336  0.1033
 4577SOL     OW25192   4.172   3.280   8.227  0.8823 -0.5774  0.1427
 4577SOL    HW125193   4.212   3.354   8.181  2.3317 -2.4164 -1.5576
 4577SOL    HW225194   4.112   3.250   8.159  0.3730  2.0694 -0.5762
 4578SOL     OW25195   1.514   3.894  10.308  0.0929 -0.2136 -0.6164
 4578SOL    HW125196   1.605   3.864  10.298  0.9354  1.9122  0.8369
 4578SOL    HW225197   1.472   3.837  10.243 -1.8370 -0.2680  0.6716
 4579SOL     OW25198   2.906   3.636   9.329 -0.3675  0.2902  0.4075
 4579SOL    HW125199   2.948   3.640   9.415 -0.3143 -1.9883  0.4638
 4579SOL    HW225200   2.928   3.723   9.295  0.6776  0.1044  0.6294
 4580SOL     OW25201   1.740   0.997   8.965  0.0173  0.3599  0.3517
 4580SOL    HW125202   1.814   1.056   8.949  0.2662 -0.2047 -0.5893
 4580SOL    HW225203   1.718   0.966   8.877  0.1973  0.7058  0.1818
 4581SOL     OW25204   4.522   2.049   6.281  0.4088  0.1001 -0.0689
 4581SOL    HW125205   4.501   1.956   6.283  4.6448 -0.8519 -0.0162
 4581SOL    HW225206   4.573   2.047   6.361  2.0280 -0.0871 -1.1100
 4582SOL     OW25207   3.690   3.442  15.225  0.2781  0.0693 -0.3110
 4582SOL    HW125208   3.722   3.352  15.221  1.9948  0.7125 -1.3402
 4582SOL    HW225209   3.595   3.431  15.227  0.3209 -0.7902 -2.4179
 4583SOL     OW25210   1.760   1.846  14.244  0.1816 -0.0330  0.2043
 4583SOL    HW125211   1.813   1.809  14.173 -0.0430 -1.8088  0.9641
 4583SOL    HW225212   1.718   1.764  14.268  2.0099 -0.9999  0.1247
 4584SOL     OW25213   1.011   0.849   6.569  0.1433 -0.0305 -0.5695
 4584SOL    HW125214   1.071   0.922   6.563  1.8606 -1.4948 -1.2746
 4584SOL    HW225215   1.062   0.771   6.546 -0.3176 -0.0519 -1.5165
 4585SOL     OW25216   1.312   0.199  10.653  0.6403  0.3131 -0.4124
 4585SOL    HW125217   1.302   0.235  10.741  2.0137 -1.8651  0.6380
 4585SOL    HW225218   1.371   0.266  10.619 -1.7336  2.1958 -0.8225
 4586SOL     OW25219   1.851   1.435   4.642 -0.7136 -0.5198  0.0145
 4586SOL    HW125220   1.915   1.369   4.615  1.1800  0.3788  2.2873
 4586SOL    HW225221   1.824   1.466   4.556  1.1579 -0.5509 -0.5729
 4587SOL     OW25222   0.815   3.647   8.942 -0.4044  0.4595  0.1599
 4587SOL    HW125223   0.723   3.646   8.916  0.2094 -1.1512 -1.8580
 4587SOL    HW225224   0.799   3.661   9.036  1.1716  0.7820  0.3805
 4588SOL     OW25225   3.541   2.730  13.752  0.1188 -0.3528  0.0702
 4588SOL    HW125226   3.594   2.712  13.829 -1.9267 -0.4667  1.4683
 4588SOL    HW225227   3.477   2.658  13.756 -1.9997  1.5409  0.4907
 4589SOL     OW25228   4.604   3.605   7.916 -0.4071 -0.1519 -0.0077
 4589SOL    HW125229   4.560   3.688   7.934 -1.9095 -0.9389 -0.0935
 4589SOL    HW225230   4.535   3.540   7.927 -1.7014  1.3428  0.6425
 4590SOL     OW25231   4.280   3.277   3.232  0.3641  0.0591  0.2857
 4590SOL    HW125232   4.285   3.361   3.187 -1.5861  0.3797  0.6874
 4590SOL    HW225233   4.240   3.307   3.313  2.0995 -0.3777  1.3153
 4591SOL     OW25234   3.354   0.124  15.667 -0.0015  0.2015  0.5045
 4591SOL    HW125235   3.360   0.201  15.723  0.7590 -0.0295  0.7369
 4591SOL    HW225236   3.259   0.127  15.654 -0.1845  1.5253  2.2159
 4592SOL     OW25237   2.655   0.381  14.002 -0.2779  0.3950  0.1441
 4592SOL    HW125238   2.699   0.445  14.058 -1.9735  1.9651 -0.3185
 4592SOL    HW225239   2.611   0.325  14.066  0.0381  1.4959  1.3369
 4593SOL     OW25240   0.265   3.014  17.437 -0.0443  0.6466 -0.1271
 4593SOL    HW125241   0.227   3.084  17.491  1.1837  1.0830  0.1691
 4593SOL    HW225242   0.274   2.942  17.499  1.3896  0.5429 -0.4573
 4594SOL     OW25243   4.062   1.229   0.906  1.0649  0.0790  0.9752
 4594SOL    HW125244   4.033   1.178   0.831 -0.9411  1.1503  1.0049
 4594SOL    HW225245   3.993   1.215   0.971  0.5559 -1.7493  0.0066
 4595SOL     OW25246   3.899   3.224   7.887  0.0263  0.3817  0.2441
 4595SOL    HW125247   3.836   3.166   7.843 -0.3712  1.9438 -1.2632
 4595SOL    HW225248   3.852   3.251   7.966  1.0201  0.4988  0.7942
 4596SOL     OW25249   1.733   2.881  12.490 -0.0778  0.4963  0.0823
 4596SOL    HW125250   1.740   2.976  12.488 -0.5734  0.5189 -0.6796
 4596SOL    HW225251   1.700   2.871  12.401  0.3493  0.2087 -0.0420
 4597SOL     OW25252   1.258   1.740  13.922  0.3270 -0.0956 -0.4527
 4597SOL    HW125253   1.217   1.656  13.942  0.4828 -0.2975 -0.9797
 4597SOL    HW225254   1.321   1.748  13.994  0.0254 -1.9374  0.0340
 4598SOL     OW25255   0.781   1.773   8.641 -0.2174  0.1837 -0.6391
 4598SOL    HW125256   0.868   1.745   8.614  0.0001  1.6255 -1.4508
 4598SOL    HW225257   0.778   1.729   8.725 -0.6009 -1.6682 -1.6262
 4599SOL     OW25258   1.634   0.236   7.698 -0.8384 -0.6733  0.1096
 4599SOL    HW125259   1.600   0.174   7.763 -0.1245  0.6098  1.7028
 4599SOL    HW225260   1.560   0.234   7.636 -0.2692 -0.9231 -0.5543
 4600SOL     OW25261   0.806   4.291   7.767  0.1832  0.3876 -0.4902
 4600SOL    HW125262   0.880   4.317   7.713  1.7134 -2.1072  0.4024
 4600SOL    HW225263   0.849   4.266   7.849 -0.4643 -2.2995 -0.9632
 4601SOL     OW25264   0.073   1.195  15.827 -0.5068 -0.0109 -0.5987
 4601SOL    HW125265   0.067   1.276  15.778 -2.3657 -1.2302 -2.3810
 4601SOL    HW225266   4.706   1.159  15.820 -1.1762  1.2550  1.4413
 4602SOL     OW25267   0.959   0.052   8.292  0.3033  0.1408  0.6111
 4602SOL    HW125268   0.962   0.066   8.387 -0.7055  3.1889  0.2209
 4602SOL    HW225269   0.863   0.051   8.289  0.4425  0.8105 -3.2883
 4603SOL     OW25270   0.437   3.659   1.675  0.2435  0.5706  0.5014
 4603SOL    HW125271   0.359   3.608   1.697  0.7679 -0.1677  0.6638
 4603SOL    HW225272   0.409   3.749   1.658  0.5285  0.6658  0.5297
 4604SOL     OW25273   1.005   2.217  10.249  0.0544 -1.0049  0.1884
 4604SOL    HW125274   0.952   2.297  10.247 -1.4139 -1.9305  2.5280
 4604SOL    HW225275   1.092   2.253  10.231 -1.5622  2.1268 -1.3849
 4605SOL     OW25276   0.670   3.330  12.691 -0.0107 -0.1315 -0.1174
 4605SOL    HW125277   0.704   3.355  12.605 -4.1289 -0.4469 -1.8313
 4605SOL    HW225278   0.746   3.278  12.717 -0.5727 -0.5850  0.6370
 4606SOL     OW25279   0.353   2.729   3.721  0.1497 -0.2052  0.4555
 4606SOL    HW125280   0.270   2.693   3.753 -0.2348 -0.4972 -0.8503
 4606SOL    HW225281   0.405   2.649   3.709 -1.8625 -1.2420 -1.4707
 4607SOL     OW25282   2.631   2.512   6.396 -0.3411  0.1428  0.2737
 4607SOL    HW125283   2.683   2.587   6.424 -0.5280  0.5681 -0.5070
 4607SOL    HW225284   2.690   2.439   6.411 -1.8044 -0.9436  0.7634
 4608SOL     OW25285   0.375   3.449   8.457  0.1651  0.4939 -0.7974
 4608SOL    HW125286   0.462   3.417   8.481  0.3547  2.9361  1.7017
 4608SOL    HW225287   0.382   3.534   8.414  2.0950  1.7909  2.1344
 4609SOL     OW25288   4.414   1.072   4.690 -0.5388  0.5321  0.7402
 4609SOL    HW125289   4.396   1.004   4.755  1.2878 -0.4785  0.1882
 4609SOL    HW225290   4.375   1.146   4.737 -3.8174 -1.8598  1.7773
 4610SOL     OW25291   2.889   3.455   2.402 -0.1082  0.3070  0.6617
 4610SOL    HW125292   2.909   3.362   2.404 -1.7507 -0.0608 -0.0518
 4610SOL    HW225293   2.868   3.483   2.491 -1.2973 -2.0231  1.1253
 4611SOL     OW25294   2.563   2.060   7.449  0.7695 -0.3135  0.1051
 4611SOL    HW125295   2.655   2.044   7.427  1.0453 -0.3095  1.2488
 4611SOL    HW225296   2.568   2.155   7.460  1.4606 -0.2834 -0.4636
 4612SOL     OW25297   3.196   0.729   7.962  0.6466 -0.1005 -0.1880
 4612SOL    HW125298   3.185   0.689   8.048  0.8033 -2.3007 -1.1722
 4612SOL    HW225299   3.213   0.653   7.905 -1.0543 -2.5861  2.6477
 4613SOL     OW25300   4.653   3.044   7.303  0.6887 -0.4355  0.1545
 4613SOL    HW125301   4.659   2.976   7.236 -1.1527  0.5054 -0.9640
 4613SOL    HW225302   4.603   3.011   7.378 -0.3774 -1.3689 -0.9815
 4614SOL     OW25303   4.179   3.636   6.201 -0.0237 -0.0324 -0.2703
 4614SOL    HW125304   4.253   3.693   6.220 -0.1107  0.3466 -1.0686
 4614SOL    HW225305   4.201   3.596   6.117 -0.5498 -1.7367  0.3958
 4615SOL     OW25306   2.994   4.283   9.403 -0.3743 -0.7298 -0.0297
 4615SOL    HW125307   2.942   4.270   9.323 -0.7900 -1.0391  0.2887
 4615SOL    HW225308   3.046   4.362   9.388 -1.3209 -0.3519 -1.3749
 4616SOL     OW25309   3.275   3.815   3.789  0.3381 -0.0568 -0.2886
 4616SOL    HW125310   3.225   3.884   3.746  0.3583 -0.4038 -0.8769
 4616SOL    HW225311   3.349   3.870   3.815  0.4777  0.7769 -2.4391
 4617SOL     OW25312   0.109   2.967   9.068  0.0927 -0.4215 -0.6216
 4617SOL    HW125313   0.051   2.996   9.137  1.8863 -0.1233  0.7630
 4617SOL    HW225314   0.088   2.874   9.058 -2.3521  0.0259  0.4726
 4618SOL     OW25315   2.081   2.972  15.990 -0.2871 -0.8938 -0.2447
 4618SOL    HW125316   2.150   2.928  15.940  0.8200  1.4903 -0.8081
 4618SOL    HW225317   2.004   2.935  15.947  1.9043 -0.1568 -4.8549
 4619SOL     OW25318   3.985   0.298   3.451 -0.2374  0.4342 -0.2699
 4619SOL    HW125319   4.006   0.209   3.423 -0.7498  0.3110 -0.2607
 4619SOL    HW225320   3.905   0.284   3.501  0.8817 -1.1624  1.0743
 4620SOL     OW25321   3.594   1.855   6.603  0.4621 -0.0765 -0.2113
 4620SOL    HW125322   3.612   1.844   6.696  0.0489  0.4960 -0.0650
 4620SOL    HW225323   3.511   1.809   6.590 -0.5932  1.3440  1.5668
 4621SOL     OW25324   4.387   3.607  16.485 -0.0780  0.3674  0.0864
 4621SOL    HW125325   4.400   3.671  16.416  1.8771  0.3946  0.4706
 4621SOL    HW225326   4.292   3.599  16.494  0.0559 -0.5135  0.8372
 4622SOL     OW25327   2.652   3.988   0.543 -0.2745  0.7400  0.4785
 4622SOL    HW125328   2.711   3.938   0.598  1.4552  2.0293 -0.1998
 4622SOL    HW225329   2.592   4.013   0.613 -1.3465  0.5939 -0.3764
 4623SOL     OW25330   2.628   3.183  11.309  0.1251 -0.0548 -0.0707
 4623SOL    HW125331   2.593   3.106  11.355  0.6037  1.3268  2.6126
 4623SOL    HW225332   2.666   3.145  11.230  1.3801  1.6026 -0.2589
 4624SOL     OW25333   0.961   3.110  17.198  0.4197  0.3893 -0.0670
 4624SOL    HW125334   0.898   3.107  17.126  0.0029  1.3306  0.2538
 4624SOL    HW225335   1.038   3.066  17.162  0.3490  0.4320 -0.2721
 4625SOL     OW25336   0.834   2.007   8.512 -0.1565 -0.2260  0.1911
 4625SOL    HW125337   0.808   1.928   8.560 -0.5108 -0.9642 -1.1917
 4625SOL    HW225338   0.879   2.064   8.574  1.0833 -2.4888  1.3885
 4626SOL     OW25339   1.171   0.470   1.717  0.1991 -0.3077 -0.3168
 4626SOL    HW125340   1.137   0.434   1.635  0.4610  0.5434 -0.7993
 4626SOL    HW225341   1.104   0.537   1.732 -0.3076 -0.4875 -1.7675
 4627SOL     OW25342   1.078   2.837   5.040 -0.1064  0.1791 -0.5068
 4627SOL    HW125343   1.047   2.760   4.991 -1.4598  0.3357  0.1133
 4627SOL    HW225344   0.998   2.865   5.084  1.3877  1.4453  1.3690
 4628SOL     OW25345   0.526   0.364   9.355  0.0398 -0.3285 -0.3399
 4628SOL    HW125346   0.610   0.397   9.389 -0.3480  1.0606 -0.7379
 4628SOL    HW225347   0.526   0.270   9.374 -0.9758 -0.9394 -3.3262
 4629SOL     OW25348   2.495   3.995   8.006 -0.3570 -0.5193 -0.1834
 4629SOL    HW125349   2.541   3.951   7.934  1.2157 -1.6383  1.5058
 4629SOL    HW225350   2.437   4.056   7.960  0.3248  0.2574 -0.0058
 4630SOL     OW25351   1.691   2.187  11.859  0.3197  0.0794  0.1239
 4630SOL    HW125352   1.721   2.273  11.828 -1.4225  0.6709  0.0873
 4630SOL    HW225353   1.622   2.161  11.798 -0.0863 -0.1164  0.6724
 4631SOL     OW25354   0.355   1.721  12.945  0.5801 -0.2653 -0.7429
 4631SOL    HW125355   0.426   1.774  12.908  1.5614  0.9733  2.9168
 4631SOL    HW225356   0.400   1.647  12.986 -0.0881 -1.1986 -1.7210
 4632SOL     OW25357   2.976   2.520   3.256  0.9182 -0.0083 -0.2503
 4632SOL    HW125358   3.038   2.515   3.183  1.1686  0.0052 -0.0351
 4632SOL    HW225359   2.949   2.612   3.249 -0.2549 -0.5915 -3.3707
 4633SOL     OW25360   2.444   4.478   5.230  0.1798  0.0066  0.0683
 4633SOL    HW125361   2.500   4.419   5.180  0.8122 -0.8372  1.7842
 4633SOL    HW225362   2.365   4.491   5.177  0.5089 -0.7016 -0.6016
 4634SOL     OW25363   2.151   0.493   7.002 -0.2440 -0.0911 -0.4751
 4634SOL    HW125364   2.124   0.423   6.942 -1.0378  0.4098 -0.7087
 4634SOL    HW225365   2.237   0.474   7.040 -1.0695 -3.4093 -0.2656
 4635SOL     OW25366   1.908   1.993   4.181 -0.4108 -0.1007 -0.3680
 4635SOL    HW125367   1.963   1.921   4.213  1.8489  2.1573  0.7553
 4635SOL    HW225368   1.936   2.059   4.244 -0.8894 -0.1037 -0.1469
 4636SOL     OW25369   0.762   2.792  14.261 -0.5872 -0.4649  0.3928
 4636SOL    HW125370   0.803   2.874  14.288  2.2593 -1.8904  0.3913
 4636SOL    HW225371   0.679   2.820  14.224 -1.1874 -0.4262  1.7429
 4637SOL     OW25372   0.563   4.124  14.774 -0.7191  0.0012  0.0422
 4637SOL    HW125373   0.656   4.121  14.797 -0.4092  2.8283 -0.8219
 4637SOL    HW225374   0.527   4.080  14.852  1.2130 -1.8207 -0.0979
 4638SOL     OW25375   2.099   3.291   4.754 -0.3307  0.3118 -0.0339
 4638SOL    HW125376   2.068   3.300   4.844  1.2300  1.7018  0.3497
 4638SOL    HW225377   2.011   3.268   4.722 -0.1096  1.8776 -1.7913
 4639SOL     OW25378   1.174   0.972   2.198  0.7429 -0.0178  0.5811
 4639SOL    HW125379   1.219   1.054   2.216  0.0038  0.4604  0.2634
 4639SOL    HW225380   1.206   0.957   2.109 -1.6469  0.1006 -0.3006
 4640SOL     OW25381   4.167   1.830  11.974  0.4077  0.3049  0.3038
 4640SOL    HW125382   4.113   1.848  12.050  2.2309  0.9740  1.4383
 4640SOL    HW225383   4.157   1.904  11.914  0.5222 -0.3713 -0.5555
 4641SOL     OW25384   3.252   0.020   9.309 -0.5153  0.4026 -0.0070
 4641SOL    HW125385   3.164   0.057   9.299 -0.3327  0.5699 -1.0457
 4641SOL    HW225386   3.274   0.026   9.402  1.2991 -0.1519 -0.3957
 4642SOL     OW25387   3.844   3.355   1.751 -0.0450  0.2054  0.3215
 4642SOL    HW125388   3.789   3.410   1.808 -2.3708 -0.3467 -1.3862
 4642SOL    HW225389   3.856   3.410   1.674 -2.3246  2.4307  1.5213
 4643SOL     OW25390   4.002   2.336   5.938  0.0300 -0.1075  0.1392
 4643SOL    HW125391   3.937   2.320   6.006  0.8157 -0.8742  0.7109
 4643SOL    HW225392   4.070   2.277   5.971 -0.7746 -2.2894 -2.1103
 4644SOL     OW25393   4.085   3.998   7.599  0.2521 -0.1615  0.6238
 4644SOL    HW125394   4.163   4.048   7.625  1.2144 -1.1691 -0.2956
 4644SOL    HW225395   4.080   4.012   7.505 -0.1379 -0.8102  0.5487
 4645SOL     OW25396   3.146   4.217   8.883 -0.2077  0.1550 -0.5699
 4645SOL    HW125397   3.187   4.188   8.964 -0.8923  0.2121 -0.2013
 4645SOL    HW225398   3.121   4.304   8.917  0.3997  0.1562 -0.1282
 4646SOL     OW25399   4.066   1.310  13.757  0.7092  0.1663  0.0618
 4646SOL    HW125400   4.082   1.361  13.836  1.4575 -1.0999  0.7355
 4646SOL    HW225401   4.157   1.306  13.728  0.6519 -0.5991 -0.0272
 4647SOL     OW25402   3.253   3.467   7.401 -0.0651  0.0826  0.5332
 4647SOL    HW125403   3.233   3.464   7.308  1.5511  0.9325  0.1656
 4647SOL    HW225404   3.255   3.560   7.423 -0.0518 -0.0005  0.8917
 4648SOL     OW25405   1.286   1.356   1.981 -0.3917  0.7237  0.0081
 4648SOL    HW125406   1.316   1.279   1.933 -2.0726  0.5486 -0.7701
 4648SOL    HW225407   1.209   1.378   1.928 -0.2356  3.4342  0.9535
 4649SOL     OW25408   4.195   0.656   2.722  0.0929 -0.4548  0.6623
 4649SOL    HW125409   4.183   0.695   2.809  0.3408 -2.1945  1.4740
 4649SOL    HW225410   4.105   0.658   2.689  0.3904 -1.0598 -0.1725
 4650SOL     OW25411   2.371   3.056   3.390 -0.1581 -0.3892 -0.3554
 4650SOL    HW125412   2.313   3.002   3.445 -0.4549  0.5154  0.2143
 4650SOL    HW225413   2.447   2.999   3.375  0.0906  0.1109 -1.0048
 4651SOL     OW25414   2.859   4.026   3.440  0.2043 -0.1369  0.5161
 4651SOL    HW125415   2.787   4.088   3.457 -1.2788 -2.2892  2.1825
 4651SOL    HW225416   2.842   3.957   3.505  0.7427 -1.0505 -0.3263
 4652SOL     OW25417   1.101   2.613   0.533 -0.1377 -0.6513 -0.2749
 4652SOL    HW125418   1.018   2.573   0.558 -1.5436  0.4374 -3.2792
 4652SOL    HW225419   1.076   2.706   0.533 -0.4167 -0.7417 -3.2980
 4653SOL     OW25420   2.760   2.946   0.733  0.3464  0.4398 -0.3530
 4653SOL    HW125421   2.845   2.969   0.695  0.7171 -0.8332 -0.2897
 4653SOL    HW225422   2.769   2.997   0.814 -0.7517  1.6906 -1.0133
 4654SOL     OW25423   3.262   1.668  12.044 -0.3541  0.0563  0.1463
 4654SOL    HW125424   3.171   1.683  12.019 -1.2796 -3.5813  1.2420
 4654SOL    HW225425   3.255   1.656  12.139 -3.3267 -0.7677 -0.1863
 4655SOL     OW25426   0.272   1.212   8.052  0.2777 -0.1668  0.5278
 4655SOL    HW125427   0.229   1.268   8.116 -0.8295  0.1939 -0.5404
 4655SOL    HW225428   0.365   1.227   8.071  0.7316 -3.1139  0.7747
 4656SOL     OW25429   1.428   1.763   1.504 -0.4327 -0.3126  0.5820
 4656SOL    HW125430   1.520   1.741   1.487 -0.3764  0.6901 -0.3625
 4656SOL    HW225431   1.428   1.858   1.508 -1.7573 -0.3748  2.0954
 4657SOL     OW25432   2.993   3.098   6.983  0.2888  0.5297 -0.0223
 4657SOL    HW125433   2.957   3.123   6.898 -1.7873 -3.3377 -0.2699
 4657SOL    HW225434   2.996   3.003   6.969  0.9109  0.5840 -0.2683
 4658SOL     OW25435   3.187   0.786   3.999  0.4263 -0.3834 -0.2597
 4658SOL    HW125436   3.211   0.809   3.909  0.4343 -0.9339 -0.3982
 4658SOL    HW225437   3.254   0.726   4.031 -0.5920 -0.6359  1.3651
 4659SOL     OW25438   4.208   2.577   9.824 -0.2743  0.0609 -0.6052
 4659SOL    HW125439   4.200   2.497   9.876 -0.8391  0.8044  0.4570
 4659SOL    HW225440   4.298   2.573   9.791 -0.7001  2.2709 -2.1266
 4660SOL     OW25441   0.047   0.791  13.231 -0.5407 -0.3112  0.2758
 4660SOL    HW125442   0.009   0.804  13.317 -2.1640 -1.9217 -0.2019
 4660SOL    HW225443   0.055   0.880  13.197 -3.2406 -0.4193 -0.6194
 4661SOL     OW25444   0.729   0.829   4.277  0.0074  0.4384  0.2394
 4661SOL    HW125445   0.787   0.811   4.352  0.1391 -0.8054 -0.1615
 4661SOL    HW225446   0.799   0.849   4.215  0.2066  0.2276  0.3943
 4662SOL     OW25447   4.658   1.868   8.702 -0.1975  0.6350 -0.0028
 4662SOL    HW125448   4.650   1.775   8.678 -1.9348  0.2155  2.1650
 4662SOL    HW225449   0.023   1.887   8.668 -0.2008  1.1364  0.2771
 4663SOL     OW25450   4.579   2.962   3.935 -0.2172  0.1391  0.3647
 4663SOL    HW125451   4.657   2.920   3.899 -0.3541  1.5035 -1.4778
 4663SOL    HW225452   4.628   3.029   3.983  0.9346  0.7464 -1.6582
 4664SOL     OW25453   1.429   1.718   9.100  0.3552  0.2961  0.1946
 4664SOL    HW125454   1.412   1.659   9.175 -1.8790 -0.9557 -1.2950
 4664SOL    HW225455   1.483   1.775   9.155 -0.4252 -1.2224  2.5893
 4665SOL     OW25456   0.826   2.210   2.838  0.0584 -0.2751  0.0834
 4665SOL    HW125457   0.798   2.123   2.867  0.5300 -0.7287 -0.8482
 4665SOL    HW225458   0.902   2.190   2.784 -0.9994 -1.4160 -0.9952
 4666SOL     OW25459   1.069   0.458   1.472 -0.6128 -0.0851 -0.0415
 4666SOL    HW125460   1.122   0.480   1.395 -1.8655  3.0075 -0.0584
 4666SOL    HW225461   1.029   0.376   1.444 -0.6575 -0.4243  1.0373
 4667SOL     OW25462   3.439   1.258   7.140 -0.1580  0.0468  0.3611
 4667SOL    HW125463   3.352   1.254   7.101  0.0185 -1.7032  0.1188
 4667SOL    HW225464   3.455   1.164   7.132 -0.9452 -0.2581  2.4733
 4668SOL     OW25465   0.956   4.636   3.242  0.0759  0.3552 -1.1444
 4668SOL    HW125466   1.002   4.682   3.172  1.3695  1.4612  0.4339
 4668SOL    HW225467   0.870   4.623   3.202 -0.4474 -1.5368  0.5664
 4669SOL     OW25468   1.907   1.315   2.726  0.3792  0.2838  0.4245
 4669SOL    HW125469   1.838   1.374   2.694  1.3531  1.0314 -0.3105
 4669SOL    HW225470   1.897   1.246   2.660  1.0702 -0.6996  1.3655
 4670SOL     OW25471   0.383   0.522   7.850  0.5828  0.4564  0.0521
 4670SOL    HW125472   0.312   0.550   7.791 -0.5205 -1.9847  0.2438
 4670SOL    HW225473   0.447   0.509   7.780  0.2294  1.3976 -0.4565
 4671SOL     OW25474   2.273   2.019   7.771 -0.2589 -0.4854  0.2329
 4671SOL    HW125475   2.238   2.103   7.739  2.3919  1.2836  1.9194
 4671SOL    HW225476   2.352   2.058   7.810  3.1993 -3.6993 -3.6183
 4672SOL     OW25477   2.624   0.722   6.235  0.2611  0.7575  0.5123
 4672SOL    HW125478   2.573   0.649   6.269 -0.5907  2.3295  2.5762
 4672SOL    HW225479   2.566   0.760   6.169 -2.5404 -1.8760  1.4862
 4673SOL     OW25480   2.996   2.952   2.729  0.2307 -0.1732 -0.0948
 4673SOL    HW125481   3.038   2.868   2.745 -0.5265 -0.3199  1.1147
 4673SOL    HW225482   2.904   2.928   2.720  0.5823 -1.4907 -0.0720
 4674SOL     OW25483   4.081   2.270   3.851  0.1362  0.2560  0.0053
 4674SOL    HW125484   4.134   2.245   3.776  3.2070  0.8340  1.9671
 4674SOL    HW225485   3.993   2.258   3.816  0.4599 -1.1594 -0.3041
 4675SOL     OW25486   0.034   3.506   9.671 -0.3068 -0.1361  0.1909
 4675SOL    HW125487   0.010   3.414   9.676 -1.2142  0.0658 -0.6199
 4675SOL    HW225488   4.672   3.546   9.692  0.1040  0.4750  0.6938
 4676SOL     OW25489   1.691   4.543   6.440 -0.3915 -0.4727  0.1085
 4676SOL    HW125490   1.636   4.607   6.396  0.8229  0.2085 -0.4316
 4676SOL    HW225491   1.643   4.526   6.521 -0.0268 -0.7340  0.2690
 4677SOL     OW25492   1.599   2.648  16.125  0.2842  0.1524  0.1384
 4677SOL    HW125493   1.537   2.699  16.072 -1.3360  0.0057  1.8959
 4677SOL    HW225494   1.537   2.586  16.164 -1.4081  1.4025 -0.5463
 4678SOL     OW25495   3.552   4.618   5.143  0.2804  1.0065 -0.4129
 4678SOL    HW125496   3.567   4.527   5.172 -1.2679 -0.3998 -4.0313
 4678SOL    HW225497   3.473   4.644   5.191 -0.7887 -0.2218 -1.5185
 4679SOL     OW25498   3.046   3.687   8.281 -0.5604  0.4918 -0.1080
 4679SOL    HW125499   3.108   3.664   8.350  0.1923 -0.5832 -1.1248
 4679SOL    HW225500   3.094   3.760   8.242  0.2488  0.5892  1.0728
 4680SOL     OW25501   4.399   1.316   7.462  0.3746 -0.4123  0.5583
 4680SOL    HW125502   4.365   1.292   7.376 -0.5377  1.9711  0.2647
 4680SOL    HW225503   4.439   1.232   7.485 -2.0304 -1.7170 -0.1472
 4681SOL     OW25504   0.119   2.448   2.841  0.4168  0.1364  0.5312
 4681SOL    HW125505   0.160   2.397   2.911 -0.5075  0.0841  1.0455
 4681SOL    HW225506   0.055   2.496   2.894 -0.3935 -0.0993 -0.2232
 4682SOL     OW25507   0.840   0.976  10.837 -0.2976  0.2550 -0.2231
 4682SOL    HW125508   0.924   0.929  10.833  1.1026  2.5998  1.4432
 4682SOL    HW225509   0.870   1.061  10.869 -0.6538 -0.6245  2.4015
 4683SOL     OW25510   4.062   1.272   2.605  0.0231 -0.1408 -0.1835
 4683SOL    HW125511   3.987   1.330   2.622  2.9124  3.5541  0.1318
 4683SOL    HW225512   4.031   1.214   2.536 -0.3602 -1.7834  1.3864
 4684SOL     OW25513   2.765   2.879   7.861 -0.0117  1.1307  0.1251
 4684SOL    HW125514   2.696   2.821   7.828  0.9348  2.0011 -3.4368
 4684SOL    HW225515   2.736   2.905   7.949 -2.5865  1.1556 -0.7160
 4685SOL     OW25516   0.618   0.387   8.641 -0.1343  0.4583 -0.1203
 4685SOL    HW125517   0.556   0.315   8.653  0.1071  0.5559  1.7161
 4685SOL    HW225518   0.589   0.449   8.708 -0.1197  1.4128 -0.9958
 4686SOL     OW25519   2.640   0.796  14.542 -0.0566 -0.2563  0.1351
 4686SOL    HW125520   2.585   0.777  14.618 -0.5917  0.6852 -0.0150
 4686SOL    HW225521   2.588   0.763  14.469  0.0729 -0.1898  0.0111
 4687SOL     OW25522   0.313   2.749   4.532  0.0998 -0.0344  0.4527
 4687SOL    HW125523   0.342   2.790   4.613  0.2046  3.0579 -1.1498
 4687SOL    HW225524   0.392   2.730   4.481 -0.1153  1.1585 -0.3220
 4688SOL     OW25525   0.228   3.787  11.487  0.2628 -0.5117 -0.1422
 4688SOL    HW125526   0.194   3.709  11.444  0.0257  0.6294 -2.0060
 4688SOL    HW225527   0.322   3.775  11.472  0.4068  1.4202 -0.7628
 4689SOL     OW25528   2.879   2.113   5.658  0.3075 -0.1857  0.1804
 4689SOL    HW125529   2.886   2.194   5.608 -0.2942  0.0413  0.4601
 4689SOL    HW225530   2.785   2.109   5.680  0.3522  0.1086  0.4177
 4690SOL     OW25531   3.839   3.419  11.733 -0.2534  0.5209 -0.0711
 4690SOL    HW125532   3.842   3.329  11.701 -0.9389  0.5148 -0.1269
 4690SOL    HW225533   3.751   3.439  11.701 -0.2895  1.1075  0.3979
 4691SOL     OW25534   0.319   4.664   3.019 -0.2803 -0.2059  0.5434
 4691SOL    HW125535   0.366   0.008   3.070  0.8237 -0.5724  0.0004
 4691SOL    HW225536   0.271   4.633   3.096  0.1934 -1.3231  0.3782
 4692SOL     OW25537   3.881   0.695   3.869 -0.4688 -0.5838  0.2522
 4692SOL    HW125538   3.828   0.637   3.815 -0.3291  0.0737 -0.6004
 4692SOL    HW225539   3.948   0.639   3.908  0.6305 -0.6662 -1.7576
 4693SOL     OW25540   4.207   1.093   8.761 -0.0688  0.3103 -0.7507
 4693SOL    HW125541   4.175   1.180   8.734 -0.8279  0.7863  1.7197
 4693SOL    HW225542   4.149   1.083   8.836  0.9780 -2.9540 -0.4057
 4694SOL     OW25543   0.952   2.042   2.464  0.3835  0.2201 -0.3614
 4694SOL    HW125544   0.993   1.995   2.391  1.2268  3.1778 -1.8133
 4694SOL    HW225545   1.004   2.122   2.458 -1.0551  1.1887  0.2786
 4695SOL     OW25546   0.773   3.149  17.652 -0.3650  0.1522  0.5867
 4695SOL    HW125547   0.696   3.203  17.632  3.3585  4.5386 -1.9251
 4695SOL    HW225548   0.827   3.156  17.573  0.7506  1.0888  1.4427
 4696SOL     OW25549   4.483   3.146  13.764 -0.0103 -0.3140  0.4100
 4696SOL    HW125550   4.430   3.217  13.729  1.6920  0.3480 -0.8614
 4696SOL    HW225551   4.558   3.133  13.705 -0.6645 -0.1153 -0.4571
 4697SOL     OW25552   2.735   3.840  11.240 -0.6363 -1.0937 -0.3348
 4697SOL    HW125553   2.664   3.863  11.180 -1.1382  1.5137  1.2835
 4697SOL    HW225554   2.781   3.923  11.249  0.5496 -2.0316  2.3696
 4698SOL     OW25555   3.780   2.023   4.427 -0.3153  0.3144 -0.0154
 4698SOL    HW125556   3.805   2.113   4.407 -0.0521  0.2209 -0.1031
 4698SOL    HW225557   3.733   2.033   4.510  1.1550  1.1290  0.7326
 4699SOL     OW25558   1.646   4.402   4.339 -0.4418  0.3967 -0.6141
 4699SOL    HW125559   1.698   4.473   4.301  0.3003  0.2348  0.0969
 4699SOL    HW225560   1.584   4.384   4.269 -1.6336  2.9033 -0.1950
 4700SOL     OW25561   0.350   0.657   9.737  0.0346  0.8134  0.3191
 4700SOL    HW125562   0.254   0.661   9.734  0.0251  0.3291  0.0261
 4700SOL    HW225563   0.367   0.714   9.812  0.5127  1.3443 -0.1998
 4701SOL     OW25564   3.732   1.631  17.275 -0.7819  0.2474  0.0828
 4701SOL    HW125565   3.801   1.574  17.309 -0.2424  1.0336  0.3089
 4701SOL    HW225566   3.649   1.590  17.301  0.0507 -1.7357 -0.4074
 4702SOL     OW25567   4.200   1.708   4.780 -0.8277  0.8011  0.2473
 4702SOL    HW125568   4.275   1.661   4.817 -0.2651  1.1179 -0.5071
 4702SOL    HW225569   4.238   1.796   4.785 -0.1732  0.5811 -1.0237
 4703SOL     OW25570   2.964   3.337   0.326 -0.0707  0.3503 -0.0962
 4703SOL    HW125571   2.971   3.400   0.397  0.7551  1.6674 -1.3416
 4703SOL    HW225572   2.942   3.255   0.371  1.6863  1.3015  2.4492
 4704SOL     OW25573   4.471   1.143   8.446  0.3349  0.5027  0.0555
 4704SOL    HW125574   4.530   1.141   8.371  1.1282  0.3029  0.6753
 4704SOL    HW225575   4.491   1.230   8.480  2.0949 -0.5690  1.8020
 4705SOL     OW25576   1.570   0.304  14.763  0.6513  0.1394 -0.2085
 4705SOL    HW125577   1.594   0.324  14.854  0.1363 -0.8719  0.1384
 4705SOL    HW225578   1.475   0.302  14.772  0.8277  1.6959  2.1767
 4706SOL     OW25579   4.675   3.255   6.319 -0.0369  0.0624 -0.3786
 4706SOL    HW125580   4.692   3.180   6.264 -0.5466  0.1474 -0.6557
 4706SOL    HW225581   0.008   3.317   6.271 -0.6579  0.3076 -0.7774
 4707SOL     OW25582   0.624   2.081   2.313  0.6057  0.0963 -0.2095
 4707SOL    HW125583   0.700   2.063   2.368 -0.2490  1.0415  1.2956
 4707SOL    HW225584   0.559   2.040   2.370  0.5677 -0.7494 -0.8758
 4708SOL     OW25585   2.015   4.169   2.237 -0.4576 -0.3658  0.3716
 4708SOL    HW125586   1.923   4.193   2.250 -0.8669 -0.7950 -1.8479
 4708SOL    HW225587   2.057   4.248   2.272  3.4242 -2.0243 -0.5759
 4709SOL     OW25588   2.379   2.353   9.501 -0.0672 -0.1513 -0.0204
 4709SOL    HW125589   2.440   2.286   9.532  0.2729  0.2842  0.2619
 4709SOL    HW225590   2.298   2.308   9.525  0.0087  0.0746  0.6564
 4710SOL     OW25591   0.358   3.995   7.292 -0.2928  0.5028  0.4978
 4710SOL    HW125592   0.327   3.928   7.353  0.0726 -0.0134  0.1237
 4710SOL    HW225593   0.342   3.948   7.209 -0.7335  0.5123  0.5800
 4711SOL     OW25594   2.497   1.342   2.262  0.1612 -0.0512  0.3784
 4711SOL    HW125595   2.552   1.264   2.258 -0.4646 -0.4302 -0.9285
 4711SOL    HW225596   2.439   1.322   2.188  0.6255 -0.4571  0.1279
 4712SOL     OW25597   0.085   4.227   6.658  0.6728  0.3509  0.1329
 4712SOL    HW125598   0.113   4.254   6.745 -0.8360  1.1427  0.3669
 4712SOL    HW225599   0.168   4.234   6.611 -0.1573  1.7393 -1.1350
 4713SOL     OW25600   2.776   2.543   4.911 -0.0566  0.2113  0.2222
 4713SOL    HW125601   2.845   2.497   4.863 -0.0296  0.3353  0.1421
 4713SOL    HW225602   2.731   2.583   4.836 -2.0811 -2.0330  0.2397
 4714SOL     OW25603   3.475   2.317  17.446  0.7014 -0.2794 -0.5137
 4714SOL    HW125604   3.482   2.260  17.523  1.5649  0.6716  0.1178
 4714SOL    HW225605   3.546   2.279  17.394  1.0397  2.4556 -2.0243
 4715SOL     OW25606   0.387   3.167  16.526  0.2829 -0.2055  0.1995
 4715SOL    HW125607   0.323   3.207  16.467 -0.2296 -1.2905  0.0358
 4715SOL    HW225608   0.337   3.102  16.574  0.0581  1.0301  1.6347
 4716SOL     OW25609   1.456   0.337   2.072  0.0570  0.2546  0.0158
 4716SOL    HW125610   1.449   0.419   2.119  1.3938  0.6388 -0.4371
 4716SOL    HW225611   1.379   0.339   2.016 -0.4391 -1.5605  0.6135
 4717SOL     OW25612   1.107   0.877   7.779  0.0785 -0.5239 -0.1171
 4717SOL    HW125613   1.127   0.867   7.685  1.3183  1.3177 -0.0621
 4717SOL    HW225614   1.052   0.800   7.782 -2.0038  1.0016  0.5735
 4718SOL     OW25615   1.184   0.962   3.680  0.7380 -0.1791  0.1747
 4718SOL    HW125616   1.229   1.009   3.611  3.1863  0.6606  2.3592
 4718SOL    HW225617   1.092   0.985   3.666  1.3177  1.7181 -0.4619
 4719SOL     OW25618   4.182   2.289   3.471  0.5302 -0.1180  0.2700
 4719SOL    HW125619   4.171   2.247   3.386 -1.5280  0.9209  0.0262
 4719SOL    HW225620   4.251   2.352   3.450  3.1237 -2.3752  2.0538
 4720SOL     OW25621   0.851   1.524   9.977  0.2128 -0.0605  0.1488
 4720SOL    HW125622   0.880   1.570   9.898 -0.5717 -1.7260 -1.1020
 4720SOL    HW225623   0.897   1.441   9.969 -1.7310 -1.1515  0.3301
 4721SOL     OW25624   4.089   4.084   3.712 -0.0532 -0.7139 -0.0169
 4721SOL    HW125625   4.016   4.126   3.757 -1.0966 -0.7639 -1.6484
 4721SOL    HW225626   4.087   3.992   3.740  0.9505 -0.6511  0.2373
 4722SOL     OW25627   3.577   1.739   7.313 -0.2872  0.3019 -0.3931
 4722SOL    HW125628   3.565   1.646   7.293 -0.6436 -0.4484  3.3244
 4722SOL    HW225629   3.567   1.738   7.408  2.8201 -1.7702 -0.0741
 4723SOL     OW25630   0.150   1.032   2.224 -0.2454 -0.3430 -0.3226
 4723SOL    HW125631   0.187   1.027   2.312  1.3598 -1.1045 -1.0434
 4723SOL    HW225632   0.054   1.023   2.230 -0.1343  0.1837  2.1943
 4724SOL     OW25633   0.132   0.916  16.683 -0.0327 -0.8064 -0.3377
 4724SOL    HW125634   0.169   0.874  16.606  1.7783 -0.1498  0.1933
 4724SOL    HW225635   0.158   1.007  16.685 -3.3017  0.1636 -1.2808
 4725SOL     OW25636   3.940   3.175   5.295 -0.2853 -0.1901  0.0631
 4725SOL    HW125637   4.003   3.226   5.243  0.5362 -1.3090 -0.0310
 4725SOL    HW225638   3.879   3.147   5.227  0.6867 -0.2635 -0.7700
 4726SOL     OW25639   3.727   2.461  10.946 -0.0580 -0.2226  0.3920
 4726SOL    HW125640   3.780   2.477  11.024  0.7509  0.3556 -0.2777
 4726SOL    HW225641   3.696   2.549  10.926  0.5265 -0.1022  0.0071
 4727SOL     OW25642   0.959   3.431   2.694 -0.3909 -0.2202  0.3183
 4727SOL    HW125643   1.001   3.445   2.609  0.3942 -0.0935  0.7267
 4727SOL    HW225644   1.039   3.405   2.740  0.3725 -0.4850 -1.1608
 4728SOL     OW25645   3.346   3.330   5.849  0.1165  0.0525 -0.0413
 4728SOL    HW125646   3.347   3.234   5.860 -0.8395 -0.0363 -0.8230
 4728SOL    HW225647   3.266   3.344   5.900  0.1981  1.3519 -0.2703
 4729SOL     OW25648   1.813   4.449   7.763  0.0187 -0.2285 -0.1348
 4729SOL    HW125649   1.886   4.489   7.716  1.3659 -2.1637  0.3243
 4729SOL    HW225650   1.818   4.494   7.848 -2.0579 -1.7396  0.7890
 4730SOL     OW25651   2.966   2.698   1.566 -0.8735 -0.2217  0.1887
 4730SOL    HW125652   2.904   2.713   1.495 -0.2280  2.3576  0.1882
 4730SOL    HW225653   3.046   2.728   1.522 -1.4249  0.8936 -0.0581
 4731SOL     OW25654   2.227   2.491   0.564  0.8182 -0.4005 -0.5798
 4731SOL    HW125655   2.270   2.450   0.639 -0.1005  0.6339  0.5251
 4731SOL    HW225656   2.291   2.508   0.495  0.8493 -0.2886 -0.5235
 4732SOL     OW25657   2.339   2.584   9.651  0.3874  0.4948 -0.2991
 4732SOL    HW125658   2.395   2.513   9.619  0.0860 -0.4584  1.2718
 4732SOL    HW225659   2.261   2.530   9.662  0.8508 -0.5044 -1.8481
 4733SOL     OW25660   1.902   2.818   8.243 -0.3777 -0.1124  0.0792
 4733SOL    HW125661   1.980   2.822   8.299  0.2430 -1.0770 -0.7064
 4733SOL    HW225662   1.935   2.791   8.157 -0.8260  0.6183 -0.3160
 4734SOL     OW25663   1.237   0.607   9.014 -0.4583  0.7356 -0.1932
 4734SOL    HW125664   1.300   0.535   9.009 -0.7634  0.3903  0.8594
 4734SOL    HW225665   1.157   0.556   9.026 -0.8799  1.4874  0.1883
 4735SOL     OW25666   3.057   0.983   3.319 -1.2125  0.0992 -0.4450
 4735SOL    HW125667   3.109   1.061   3.341  0.6119 -1.0454 -0.6698
 4735SOL    HW225668   3.002   0.988   3.397 -0.8858  0.2377 -0.2230
 4736SOL     OW25669   4.432   1.600   4.870  1.0094 -0.0078  1.0266
 4736SOL    HW125670   4.496   1.651   4.820 -0.9149  1.4128  0.0109
 4736SOL    HW225671   4.469   1.512   4.862  0.3856 -0.4536  3.2648
 4737SOL     OW25672   3.923   0.617  15.050  0.1325 -0.0230  0.2231
 4737SOL    HW125673   4.008   0.647  15.019 -0.0406  0.8320  0.5751
 4737SOL    HW225674   3.917   0.525  15.026 -1.1349  0.5493 -1.6104
 4738SOL     OW25675   3.349   0.982   1.874  0.7179 -0.0178 -0.2774
 4738SOL    HW125676   3.299   0.975   1.956 -1.9326 -3.4613 -2.2043
 4738SOL    HW225677   3.349   1.077   1.861  0.7594  0.1059  0.6264
 4739SOL     OW25678   0.859   1.336  13.827 -0.5995 -0.4489 -0.7885
 4739SOL    HW125679   0.787   1.388  13.792  1.1287  0.7878 -2.4901
 4739SOL    HW225680   0.829   1.246  13.842  1.1294 -0.9441 -0.3332
 4740SOL     OW25681   2.857   3.361   0.079  0.7537 -0.7000 -0.2665
 4740SOL    HW125682   2.897   3.368   0.165  0.0115  1.1765 -0.0986
 4740SOL    HW225683   2.822   3.449   0.072  0.6681 -0.6235  1.2932
 4741SOL     OW25684   1.343   4.585  11.425  0.2445 -0.2595 -0.1330
 4741SOL    HW125685   1.433   4.575  11.393 -0.4580  1.0865 -2.5177
 4741SOL    HW225686   1.313   4.660  11.375 -2.9742 -0.5772  1.2840
 4742SOL     OW25687   2.835   4.447   2.910  0.1097  0.4665 -0.0309
 4742SOL    HW125688   2.810   4.376   2.851  1.6051 -0.9235  1.0082
 4742SOL    HW225689   2.930   4.431   2.904 -0.1413 -1.2369  0.7954
 4743SOL     OW25690   4.559   1.731  11.559  0.7584  0.0301  0.5254
 4743SOL    HW125691   4.499   1.666  11.594 -0.5586  0.5410 -0.7533
 4743SOL    HW225692   4.577   1.790  11.632  0.3537  0.9872 -0.1377
 4744SOL     OW25693   3.645   1.985   0.554 -0.0625  0.1554  0.0196
 4744SOL    HW125694   3.598   1.942   0.482 -0.9362 -0.8086  1.1594
 4744SOL    HW225695   3.733   1.986   0.518 -0.2941  2.1783 -0.5169
 4745SOL     OW25696   1.133   4.561   1.748 -0.4974 -0.1078  0.2050
 4745SOL    HW125697   1.078   4.541   1.824  0.0122 -0.9452  0.3505
 4745SOL    HW225698   1.216   4.582   1.793 -0.7570 -0.3330  0.7970
 4746SOL     OW25699   0.539   1.088  10.974  0.1035  0.1678  0.0635
 4746SOL    HW125700   0.508   1.134  11.052 -0.1016  1.4987 -0.7946
 4746SOL    HW225701   0.596   1.157  10.939  1.2024 -0.9255 -0.2881
 4747SOL     OW25702   3.173   0.162   2.459 -0.5444 -0.2550  0.5623
 4747SOL    HW125703   3.210   0.079   2.491  2.6205  0.7074 -0.6339
 4747SOL    HW225704   3.202   0.221   2.528 -1.6350  0.5911  0.3002
 4748SOL     OW25705   0.922   2.776   0.052 -0.1042  0.2356 -0.2711
 4748SOL    HW125706   1.010   2.790   0.019 -0.1166 -1.6473 -1.1288
 4748SOL    HW225707   0.914   2.684   0.079  0.5477 -0.2891 -1.8454
 4749SOL     OW25708   1.698   2.165   9.524 -0.0004 -0.1942 -0.0464
 4749SOL    HW125709   1.623   2.120   9.487 -1.0522 -0.3671  2.2938
 4749SOL    HW225710   1.682   2.148   9.617 -2.9435  0.6415 -0.4142
 4750SOL     OW25711   2.734   1.930  11.457 -0.3805 -0.4747 -0.5982
 4750SOL    HW125712   2.824   1.908  11.482 -0.6050  0.1279  0.7099
 4750SOL    HW225713   2.751   1.999  11.393  2.8995 -1.0865 -0.4235
 4751SOL     OW25714   2.767   2.077   3.055 -0.4063 -0.9350  0.0564
 4751SOL    HW125715   2.802   2.138   3.120 -1.7711  0.2767 -0.3447
 4751SOL    HW225716   2.825   2.091   2.981 -0.2287  0.8820  0.5562
 4752SOL     OW25717   0.272   2.099   1.980  0.0874  0.4928  0.6782
 4752SOL    HW125718   0.353   2.075   2.025 -0.1687 -0.5936  0.5570
 4752SOL    HW225719   0.281   2.046   1.901 -0.6691 -0.8376  1.4837
 4753SOL     OW25720   1.157   1.505   8.615 -0.5150  0.1523  0.1691
 4753SOL    HW125721   1.123   1.417   8.598  0.7909 -0.1246 -0.9372
 4753SOL    HW225722   1.203   1.509   8.699 -0.4368 -4.3700  0.3523
 4754SOL     OW25723   3.588   4.393  16.317  0.4454 -0.2191 -0.4748
 4754SOL    HW125724   3.538   4.332  16.263 -0.4918 -0.9438  1.1826
 4754SOL    HW225725   3.671   4.405  16.273  0.3622  1.1393 -0.2472
 4755SOL     OW25726   1.888   4.654   9.429 -0.0306  0.2102 -0.2600
 4755SOL    HW125727   1.896   4.583   9.492  0.1771  2.6376  2.4175
 4755SOL    HW225728   1.919   0.007   9.479  1.0110  0.0342 -0.6555
 4756SOL     OW25729   3.712   4.586   8.881  0.0935  0.0810 -0.1488
 4756SOL    HW125730   3.660   4.506   8.880  1.0917 -0.6214  3.5281
 4756SOL    HW225731   3.735   4.598   8.789 -0.8117 -0.7247 -0.4821
 4757SOL     OW25732   2.577   2.920  13.841  0.0585 -0.5574 -0.0669
 4757SOL    HW125733   2.508   2.855  13.828  1.5855 -1.9588 -1.0672
 4757SOL    HW225734   2.599   2.894  13.930  1.7499 -1.3730 -0.7239
 4758SOL     OW25735   1.946   4.101  15.840 -0.1488 -0.1632  0.8523
 4758SOL    HW125736   2.018   4.121  15.900  0.3662 -0.8104  0.4678
 4758SOL    HW225737   1.871   4.149  15.874  0.6867  1.7074  0.0436
 4759SOL     OW25738   2.922   2.230   4.653  0.7781  0.1823 -0.4822
 4759SOL    HW125739   2.836   2.190   4.655  1.1964 -0.6117  0.9542
 4759SOL    HW225740   2.927   2.255   4.560  0.1868 -1.0469 -0.8416
 4760SOL     OW25741   4.206   4.245  10.582 -0.4534 -0.2007  0.0181
 4760SOL    HW125742   4.297   4.267  10.600  0.2905 -0.8012 -3.0987
 4760SOL    HW225743   4.170   4.329  10.553  1.2025  0.6379  0.4265
 4761SOL     OW25744   2.705   1.207   6.718  0.0958  0.4596  0.5769
 4761SOL    HW125745   2.724   1.164   6.801  2.3763 -1.3071 -0.8682
 4761SOL    HW225746   2.620   1.168   6.700  0.6485 -0.3285 -0.3548
 4762SOL     OW25747   2.087   4.407   2.327  0.2016 -0.0013  0.2575
 4762SOL    HW125748   2.153   4.455   2.277  1.0888 -0.7103  0.7425
 4762SOL    HW225749   2.029   4.481   2.348 -2.3629 -2.4279  1.8105
 4763SOL     OW25750   3.566   3.830  15.884  0.6688  0.4859 -0.2946
 4763SOL    HW125751   3.623   3.900  15.851  1.2200  1.6391  3.1189
 4763SOL    HW225752   3.491   3.846  15.827  0.4974  0.8368  0.0250
 4764SOL     OW25753   1.171   0.028   4.565  0.6541  0.1970 -0.1620
 4764SOL    HW125754   1.100   0.050   4.504  1.4447  0.4066 -1.0161
 4764SOL    HW225755   1.169   4.655   4.563  1.2653  0.1984 -1.0842
 4765SOL     OW25756   2.022   4.715   3.793 -0.7955 -0.7399 -0.3413
 4765SOL    HW125757   2.006   4.620   3.798  0.3334 -0.8139  2.0110
 4765SOL    HW225758   1.985   0.018   3.877  1.8142 -0.1793  0.6624
 4766SOL     OW25759   4.529   3.800   8.276  0.4966  0.1037 -0.2612
 4766SOL    HW125760   4.555   3.711   8.254  0.9366  0.8217 -2.5689
 4766SOL    HW225761   4.523   3.804   8.372  3.6858 -0.1861 -0.0470
 4767SOL     OW25762   2.110   2.043   9.273  0.6442 -0.3123 -0.3740
 4767SOL    HW125763   2.197   2.058   9.238  0.9915  0.8916  1.0597
 4767SOL    HW225764   2.124   1.982   9.345 -0.3878  0.9769  0.9208
 4768SOL     OW25765   3.231   3.259   5.078 -0.2466  0.4394 -0.4305
 4768SOL    HW125766   3.180   3.198   5.132 -0.8130  1.2104 -0.1048
 4768SOL    HW225767   3.254   3.208   5.000 -2.0343  1.0178 -1.3293
 4769SOL     OW25768   4.643   1.411   4.060 -0.0526  0.2691  0.2100
 4769SOL    HW125769   4.719   1.371   4.102 -0.3353  2.1352  2.5075
 4769SOL    HW225770   4.625   1.480   4.123 -2.3064 -2.4599  2.5029
 4770SOL     OW25771   2.180   2.508   5.732 -0.5702  0.2982 -0.4049
 4770SOL    HW125772   2.256   2.453   5.711 -0.5799  1.0258 -2.3393
 4770SOL    HW225773   2.163   2.559   5.653  3.6936 -1.3926 -2.4413
 4771SOL     OW25774   1.438   3.873   4.839  0.7932 -0.1592 -0.8045
 4771SOL    HW125775   1.459   3.947   4.897  0.0066 -0.1132 -0.5744
 4771SOL    HW225776   1.429   3.929   4.762  1.5365 -0.8775 -1.4094
 4772SOL     OW25777   1.264   0.504  17.409  0.4701 -0.5164  1.0929
 4772SOL    HW125778   1.359   0.499  17.404  0.3326 -0.7874 -1.2109
 4772SOL    HW225779   1.254   0.510  17.504  0.7824  1.5568  0.9932
 4773SOL     OW25780   3.343   3.121   4.857 -0.5807  0.6602 -0.1780
 4773SOL    HW125781   3.359   3.041   4.806  1.7981  0.4648  0.8667
 4773SOL    HW225782   3.350   3.184   4.785 -2.2697  1.0035 -0.0410
 4774SOL     OW25783   0.012   2.256   1.768  0.0196  0.6856 -0.1924
 4774SOL    HW125784   0.063   2.221   1.695 -1.8728 -0.8500 -0.7519
 4774SOL    HW225785   4.688   2.176   1.793  2.5438 -1.2433 -1.6869
 4775SOL     OW25786   1.374   0.342  10.185 -0.3822  0.1391  0.2529
 4775SOL    HW125787   1.371   0.417  10.125 -0.5640  0.4950  0.7027
 4775SOL    HW225788   1.448   0.366  10.241 -0.8468  1.0928  0.4696
 4776SOL     OW25789   0.329   0.091   0.976 -0.6762 -0.7922  0.2480
 4776SOL    HW125790   0.412   0.138   0.980 -0.9791 -0.3607  1.2484
 4776SOL    HW225791   0.318   0.056   1.064  0.5020  1.3512  1.2528
 4777SOL     OW25792   2.185   4.026   8.192  0.0775 -0.1081  0.1879
 4777SOL    HW125793   2.130   4.047   8.268 -2.2878  0.5597 -1.7049
 4777SOL    HW225794   2.253   4.092   8.204  0.1849  0.0428 -1.2025
 4778SOL     OW25795   0.305   4.111   4.976  0.5435 -0.4524  0.2911
 4778SOL    HW125796   0.342   4.046   5.036 -0.1990  2.1065  3.5109
 4778SOL    HW225797   0.221   4.077   4.943  0.7653  0.9121 -1.6786
 4779SOL     OW25798   3.415   3.912   3.358  0.1277 -0.3057 -0.3009
 4779SOL    HW125799   3.468   3.845   3.402 -0.5286 -0.9990 -0.5657
 4779SOL    HW225800   3.445   3.886   3.270  1.3954  1.9731 -0.5445
 4780SOL     OW25801   0.820   1.309   1.335 -0.7311 -0.2001  0.2093
 4780SOL    HW125802   0.833   1.240   1.401  0.0368  0.7725  1.0819
 4780SOL    HW225803   0.801   1.384   1.392 -0.0619 -0.9604  1.4484
 4781SOL     OW25804   1.610   2.585   7.652 -0.1133 -0.0774  0.4060
 4781SOL    HW125805   1.570   2.649   7.710  2.2602  1.8656 -0.1040
 4781SOL    HW225806   1.546   2.546   7.593 -0.2571  1.5008 -0.4638
 4782SOL     OW25807   3.904   1.956   5.696  0.6294 -0.5208 -0.4660
 4782SOL    HW125808   3.854   2.038   5.700  1.2562 -0.1913  0.4200
 4782SOL    HW225809   3.947   1.939   5.779 -1.0108 -0.2629  0.4345
 4783SOL     OW25810   1.146   3.738  13.121  0.6520 -0.7187  0.7903
 4783SOL    HW125811   1.059   3.706  13.147  0.7822 -2.3558 -0.7619
 4783SOL    HW225812   1.120   3.812  13.067  0.5478 -1.5916 -0.3675
 4784SOL     OW25813   1.270   3.154   8.589 -0.0732 -0.3743 -0.1990
 4784SOL    HW125814   1.361   3.185   8.595 -1.4723  3.7225 -0.3279
 4784SOL    HW225815   1.224   3.221   8.640  1.1736  0.4379 -0.1301
 4785SOL     OW25816   4.588   0.307  12.968 -0.3335  0.1201 -0.5696
 4785SOL    HW125817   4.521   0.374  12.956 -1.2420 -0.6301  0.2887
 4785SOL    HW225818   4.539   0.234  13.006  0.1886  1.2850  2.3184
 4786SOL     OW25819   0.141   0.860   4.327  0.5895 -0.3007 -0.3060
 4786SOL    HW125820   0.153   0.801   4.401 -1.5005 -0.7217 -0.2971
 4786SOL    HW225821   0.076   0.814   4.273 -0.5769  0.9792  0.0246
 4787SOL     OW25822   3.331   3.179  15.541  0.0723 -0.2236  0.1811
 4787SOL    HW125823   3.289   3.126  15.608  0.7070  0.9774  1.5115
 4787SOL    HW225824   3.307   3.266  15.573 -1.5699  0.0399 -1.7182
 4788SOL     OW25825   1.041   4.040   7.823  0.0054 -0.2056  0.3693
 4788SOL    HW125826   1.012   4.105   7.887  0.9379 -0.6754  1.2658
 4788SOL    HW225827   0.981   3.968   7.841  0.2674 -1.4047 -3.5282
 4789SOL     OW25828   0.679   2.052  13.350  0.0157  0.2223  0.2156
 4789SOL    HW125829   0.675   2.048  13.446  1.5351 -0.2809  0.2627
 4789SOL    HW225830   0.656   1.963  13.325  2.3273 -0.8681  1.9157
 4790SOL     OW25831   4.163   0.467   3.672  0.1390  0.2564 -0.0403
 4790SOL    HW125832   4.078   0.471   3.628  0.0761  1.6482  0.2085
 4790SOL    HW225833   4.185   0.560   3.669 -0.1038  0.3973  2.3652
 4791SOL     OW25834   3.815   1.754   1.336 -0.0044 -0.3603 -0.5207
 4791SOL    HW125835   3.870   1.676   1.337  0.9788  0.3311  0.8098
 4791SOL    HW225836   3.729   1.717   1.316 -0.7666  0.8992  0.3950
 4792SOL     OW25837   3.779   4.182  12.172  0.2942  0.0139 -0.1284
 4792SOL    HW125838   3.846   4.190  12.240  0.7999 -0.6256 -0.5513
 4792SOL    HW225839   3.825   4.126  12.109  1.4976  0.1837  0.6015
 4793SOL     OW25840   1.541   1.313  12.655 -0.4639 -0.0678 -0.3534
 4793SOL    HW125841   1.468   1.366  12.687  0.5565  1.2975 -0.2959
 4793SOL    HW225842   1.545   1.343  12.565 -0.5153  0.6869 -0.1079
 4794SOL     OW25843   3.129   0.373   6.729  0.3636  0.8387  0.2169
 4794SOL    HW125844   3.143   0.293   6.678 -1.1244  1.9034 -1.8296
 4794SOL    HW225845   3.214   0.380   6.773  0.5876 -1.7178  0.2187
 4795SOL     OW25846   1.703   1.920  13.652  0.3539  0.3873  0.3724
 4795SOL    HW125847   1.670   1.901  13.740 -1.5720  0.1728 -0.3911
 4795SOL    HW225848   1.787   1.875  13.644 -0.1187 -0.2864 -0.9799
 4796SOL     OW25849   3.469   4.708   2.443  0.1125  0.3595 -0.7152
 4796SOL    HW125850   3.484   0.080   2.448 -0.1016  0.3361  0.3413
 4796SOL    HW225851   3.462   4.697   2.348  0.3847 -0.5347 -0.6282
 4797SOL     OW25852   4.013   1.040  13.949  0.3548 -0.2906  0.3079
 4797SOL    HW125853   3.993   1.116  13.895 -1.2585  0.1742  1.5670
 4797SOL    HW225854   4.074   1.069  14.017 -1.2835  0.1008  1.5981
 4798SOL     OW25855   4.434   2.283   4.618 -0.5427  0.9507  0.3378
 4798SOL    HW125856   4.408   2.375   4.612 -0.4089  0.8054 -2.4673
 4798SOL    HW225857   4.454   2.270   4.525  2.8612  2.2682  0.9187
 4799SOL     OW25858   0.972   0.739  17.461 -0.0037 -0.1027 -0.5267
 4799SOL    HW125859   1.003   0.710  17.375 -3.9766 -3.9967 -0.6715
 4799SOL    HW225860   1.031   0.812  17.475 -1.1682  1.3640 -3.0917
 4800SOL     OW25861   3.598   2.213   2.778 -0.3242 -0.1654  0.2627
 4800SOL    HW125862   3.595   2.133   2.725 -0.6388 -0.6035  0.9453
 4800SOL    HW225863   3.583   2.288   2.721 -0.8583  0.1582  0.8301
 4801SOL     OW25864   3.613   3.692  12.323  0.2344 -0.6438  0.0869
 4801SOL    HW125865   3.579   3.615  12.278  0.4239  0.2880 -1.6826
 4801SOL    HW225866   3.705   3.673  12.343  0.1602 -0.8755  0.2027
 4802SOL     OW25867   4.448   4.269  12.469  0.3910  0.1954 -0.6032
 4802SOL    HW125868   4.390   4.274  12.394  1.7096  1.6977 -1.5296
 4802SOL    HW225869   4.487   4.182  12.462  1.4890  0.8805 -3.0066
 4803SOL     OW25870   1.596   1.377   6.223 -0.4867 -0.2844  0.1614
 4803SOL    HW125871   1.520   1.353   6.276 -3.1058 -2.4451 -4.6076
 4803SOL    HW225872   1.593   1.306   6.159  2.5382 -0.8213  0.5785
 4804SOL     OW25873   2.405   2.404   2.894 -0.1452  0.0807  0.2341
 4804SOL    HW125874   2.474   2.422   2.830  1.4653 -0.7837  1.7403
 4804SOL    HW225875   2.326   2.381   2.845  0.3186 -1.4112  0.1712
 4805SOL     OW25876   0.644   3.676   4.553  0.4143 -0.2838  0.7574
 4805SOL    HW125877   0.711   3.620   4.514 -0.2578  1.0381 -2.2788
 4805SOL    HW225878   0.677   3.765   4.537 -2.2953  0.5254 -0.2874
 4806SOL     OW25879   0.778   0.308   9.716  0.5429 -0.8100  0.9338
 4806SOL    HW125880   0.684   0.327   9.724  0.9738  1.0436  1.5128
 4806SOL    HW225881   0.777   0.213   9.701 -0.4816 -0.7832  0.7597
 4807SOL     OW25882   1.521   4.633   9.653 -0.1700 -0.6170  0.4619
 4807SOL    HW125883   1.589   4.585   9.701  0.5095  0.7017  0.8089
 4807SOL    HW225884   1.438   4.588   9.668 -1.2412  0.7104 -1.5100
 4808SOL     OW25885   0.077   2.398  17.568 -0.5896 -0.6159  0.2400
 4808SOL    HW125886   0.017   2.425  17.637 -0.7304  0.4527 -0.3045
 4808SOL    HW225887   0.018   2.394  17.492 -1.1173  1.1425  0.5667
 4809SOL     OW25888   3.112   2.566   2.527  0.3711 -0.1853  0.0991
 4809SOL    HW125889   3.178   2.496   2.531  0.6353  0.0233 -0.5156
 4809SOL    HW225890   3.152   2.628   2.466  1.9146 -1.5495 -0.2887
 4810SOL     OW25891   4.057   1.114   4.861 -0.2241  0.0916  0.5591
 4810SOL    HW125892   3.967   1.082   4.866 -0.7869  1.7152  0.6672
 4810SOL    HW225893   4.040   1.201   4.826 -0.0624 -0.4956 -0.9872
 4811SOL     OW25894   0.703   3.021   9.672 -0.0618 -0.3145 -0.4887
 4811SOL    HW125895   0.691   2.962   9.597 -0.2463 -0.0129 -0.6958
 4811SOL    HW225896   0.730   3.101   9.628 -0.4578 -0.0165 -0.1793
 4812SOL     OW25897   0.859   0.079   7.127  0.3801 -0.2739 -0.1738
 4812SOL    HW125898   0.882   0.027   7.204  0.3596 -1.6456 -1.0939
 4812SOL    HW225899   0.937   0.134   7.125  0.6762 -0.6442  1.0613
 4813SOL     OW25900   0.904   1.632   4.985  0.0385  0.0204 -0.0533
 4813SOL    HW125901   0.966   1.690   5.030  0.1449  0.1664 -0.3854
 4813SOL    HW225902   0.844   1.603   5.053  0.6025  1.1111  0.9035
 4814SOL     OW25903   2.721   1.434   5.509 -0.7407  0.2164 -0.1211
 4814SOL    HW125904   2.801   1.381   5.509 -2.0819 -1.8054 -0.8857
 4814SOL    HW225905   2.753   1.510   5.558  0.3819 -0.5638  0.3623
 4815SOL     OW25906   1.727   3.044   7.360  0.1569  0.3660  0.5272
 4815SOL    HW125907   1.746   2.965   7.411 -2.6748  0.4309  1.6765
 4815SOL    HW225908   1.804   3.079   7.316  0.6765  1.0202  1.9373
 4816SOL     OW25909   2.394   2.130   1.117  0.1292  0.5711  0.1207
 4816SOL    HW125910   2.313   2.181   1.109 -0.5819 -0.5002  0.4772
 4816SOL    HW225911   2.444   2.203   1.153  2.4645 -0.1474 -1.7173
 4817SOL     OW25912   1.778   2.131   6.055 -0.0173 -0.0188 -0.1897
 4817SOL    HW125913   1.807   2.084   5.977  0.4828  1.4085 -0.8637
 4817SOL    HW225914   1.854   2.116   6.111 -0.3820 -1.7097 -0.1412
 4818SOL     OW25915   2.603   2.190   9.452  0.1524  0.1215 -0.1116
 4818SOL    HW125916   2.527   2.159   9.403 -0.9498  2.3743  0.1898
 4818SOL    HW225917   2.643   2.249   9.388  0.4327  0.0294 -0.0245
 4819SOL     OW25918   2.712   1.527   3.204 -0.0198  1.0036 -0.0204
 4819SOL    HW125919   2.646   1.510   3.136  0.1648 -0.3444  0.1449
 4819SOL    HW225920   2.680   1.474   3.276  1.8986  1.8475  1.4574
 4820SOL     OW25921   2.558   3.780  15.053 -0.5151  0.1326  0.7709
 4820SOL    HW125922   2.627   3.714  15.054 -0.5239  0.1061 -0.7138
 4820SOL    HW225923   2.598   3.858  15.014 -0.6393  0.2378  0.8524
 4821SOL     OW25924   3.839   3.133   6.510 -0.0052  0.8052 -0.6074
 4821SOL    HW125925   3.749   3.167   6.512 -0.5667 -0.7320 -0.0146
 4821SOL    HW225926   3.872   3.136   6.600  1.5365 -2.6965 -1.0730
 4822SOL     OW25927   4.583   1.096   2.922  0.3154 -0.4854  0.0447
 4822SOL    HW125928   4.603   1.183   2.889 -0.3859 -0.5371 -0.4939
 4822SOL    HW225929   4.672   1.071   2.949  0.1782 -0.1912  0.7723
 4823SOL     OW25930   2.242   1.260  15.596 -0.2670 -0.0742 -0.0356
 4823SOL    HW125931   2.263   1.216  15.679  1.2131  1.0189  0.1734
 4823SOL    HW225932   2.314   1.228  15.542 -0.3099 -0.7179  0.2900
 4824SOL     OW25933   4.564   0.078   8.616 -0.1548  0.1920 -0.3371
 4824SOL    HW125934   4.526   0.025   8.686  0.2025  2.4038  1.5411
 4824SOL    HW225935   4.575   0.167   8.651 -1.3101 -0.2057  1.0331
 4825SOL     OW25936   2.099   2.261   6.941  0.3883  0.1130  0.2583
 4825SOL    HW125937   2.061   2.261   7.029  1.2450 -0.9506  0.6333
 4825SOL    HW225938   2.091   2.356   6.932  3.2858  0.1363 -1.8214
 4826SOL     OW25939   4.063   0.110   9.499 -0.6075 -0.1690 -0.1289
 4826SOL    HW125940   4.002   0.070   9.437  0.3869  0.1838 -1.3555
 4826SOL    HW225941   4.061   0.202   9.472 -0.2274  0.2973  1.4765
 4827SOL     OW25942   2.261   1.119  15.843 -0.0753 -0.5730  0.1621
 4827SOL    HW125943   2.349   1.131  15.878 -0.7684  0.1193  1.6474
 4827SOL    HW225944   2.241   1.028  15.863  0.3700 -0.3982  1.3941
 4828SOL     OW25945   3.159   0.392   2.081  0.2323 -0.4568  0.2783
 4828SOL    HW125946   3.064   0.379   2.086  0.2152 -0.3404  0.2589
 4828SOL    HW225947   3.182   0.310   2.124 -2.0111 -0.4720  1.4232
 4829SOL     OW25948   1.608   0.487   2.306  0.1739  0.1847  0.3258
 4829SOL    HW125949   1.676   0.526   2.250  0.2150 -0.3460  0.0043
 4829SOL    HW225950   1.601   0.554   2.373  2.0409  0.8012 -0.1053
 4830SOL     OW25951   4.006   3.028  14.140 -0.1066  0.6199  0.0895
 4830SOL    HW125952   3.955   2.978  14.205  1.6130 -0.9651  0.2175
 4830SOL    HW225953   4.051   2.956  14.097 -0.4006  0.6566 -0.2788
 4831SOL     OW25954   0.749   1.275   3.366  0.4428 -0.3415 -0.3075
 4831SOL    HW125955   0.827   1.305   3.414  0.8412 -1.0844 -0.4825
 4831SOL    HW225956   0.737   1.350   3.307  1.6075  0.6849  0.7466
 4832SOL     OW25957   1.335   2.927   3.303 -0.1321 -0.3828 -0.2774
 4832SOL    HW125958   1.410   2.981   3.277 -0.3127  0.3618  0.7476
 4832SOL    HW225959   1.298   2.985   3.369  0.6442  0.6439 -0.7460
 4833SOL     OW25960   0.202   3.471   1.772  0.5388  0.2642  0.2119
 4833SOL    HW125961   0.249   3.388   1.780  0.6992  0.4536  1.2936
 4833SOL    HW225962   0.178   3.488   1.863  0.8857 -1.2871  0.5900
 4834SOL     OW25963   2.747   3.411   7.776  0.7722  0.5286 -0.3200
 4834SOL    HW125964   2.839   3.435   7.765  0.1782  1.7670 -2.4734
 4834SOL    HW225965   2.752   3.350   7.849  3.4018  1.3798  0.2295
 4835SOL     OW25966   0.707   3.669   9.206  0.2105 -0.2048  0.1911
 4835SOL    HW125967   0.624   3.632   9.237 -0.0852 -2.0243 -2.7477
 4835SOL    HW225968   0.686   3.760   9.189 -2.0471 -1.1040 -1.8230
 4836SOL     OW25969   4.433   4.540   9.555  0.2949 -0.0545  0.5438
 4836SOL    HW125970   4.497   4.488   9.604  1.2098  0.0046 -0.5750
 4836SOL    HW225971   4.427   4.615   9.614 -1.8276  0.3355 -0.1636
 4837SOL     OW25972   1.080   2.382  12.348 -0.2131 -0.3860 -0.5454
 4837SOL    HW125973   1.095   2.476  12.362  1.2461 -0.9802  1.9713
 4837SOL    HW225974   1.143   2.372  12.277  0.7217  2.2826 -0.1188
 4838SOL     OW25975   0.461   4.699   2.722 -0.6910  0.8279 -0.1418
 4838SOL    HW125976   0.533   0.035   2.748  0.9021 -1.2636  0.1139
 4838SOL    HW225977   0.507   4.618   2.698  1.1588  1.3092  1.7758
 4839SOL     OW25978   1.057   3.357  16.876 -0.2023 -0.6695  0.1320
 4839SOL    HW125979   0.975   3.386  16.914  1.0583  0.9893  1.5623
 4839SOL    HW225980   1.037   3.377  16.784 -0.9595  0.7563  0.6153
 4840SOL     OW25981   1.633   2.333   7.883 -0.4186  0.2755  0.4735
 4840SOL    HW125982   1.556   2.323   7.938 -0.2224  2.5871  1.1798
 4840SOL    HW225983   1.678   2.406   7.925  1.5511 -0.7136  0.0985
 4841SOL     OW25984   1.688   2.913  17.240  0.1605  0.4491  0.1494
 4841SOL    HW125985   1.638   2.951  17.313 -0.1211 -1.9344  1.1877
 4841SOL    HW225986   1.648   2.955  17.164 -0.6141  0.2632  0.4537
 4842SOL     OW25987   1.522   0.890   1.595  0.1065  0.7823 -0.0809
 4842SOL    HW125988   1.558   0.926   1.513 -3.1717  4.8605  0.2894
 4842SOL    HW225989   1.554   0.800   1.606 -0.8355  0.7107  1.9896
 4843SOL     OW25990   0.331   4.004  12.688 -0.6252  0.0741  0.4094
 4843SOL    HW125991   0.315   4.042  12.602  1.0805  0.3589  0.2019
 4843SOL    HW225992   0.252   4.039  12.729  0.2371  2.2554  0.2070
 4844SOL     OW25993   0.242   1.456   4.387 -0.1505 -0.0348  0.0386
 4844SOL    HW125994   0.292   1.526   4.345 -0.0043 -0.3854 -0.3727
 4844SOL    HW225995   0.209   1.412   4.308  0.7088  0.0916 -0.3978
 4845SOL     OW25996   1.705   3.498   3.425  0.0540 -0.5334  0.1715
 4845SOL    HW125997   1.752   3.563   3.477 -1.4180  0.0920  0.7114
 4845SOL    HW225998   1.616   3.532   3.435 -0.5267 -0.7917 -3.9791
 4846SOL     OW25999   4.124   0.350  13.978  0.7861 -0.6540  0.0537
 4846SOL    HW126000   4.198   0.408  13.962  1.1561 -1.3834 -0.8975
 4846SOL    HW226001   4.052   0.413  13.983  2.1389  0.8821  0.1362
 4847SOL     OW26002   3.209   2.094   1.292 -0.5014 -0.1635 -0.2015
 4847SOL    HW126003   3.214   2.014   1.238  0.4303 -0.0315 -0.3033
 4847SOL    HW226004   3.125   2.080   1.335 -0.0084 -1.9966  0.1885
 4848SOL     OW26005   4.189   1.987  15.576  0.4530 -0.1626 -0.3442
 4848SOL    HW126006   4.240   2.046  15.631 -1.5386  0.9360  0.3039
 4848SOL    HW226007   4.194   2.023  15.487  3.3652  0.9237  0.2665
 4849SOL     OW26008   1.676   4.720   7.425  0.2587 -0.6779  0.2046
 4849SOL    HW126009   1.759   0.025   7.464  1.2015 -0.3727 -1.9919
 4849SOL    HW226010   1.630   4.683   7.500 -3.7212 -1.2642 -2.5293
 4850SOL     OW26011   4.597   3.322   8.498  0.0235 -0.0062  0.3139
 4850SOL    HW126012   4.515   3.283   8.467  0.1202  1.0795 -1.3438
 4850SOL    HW226013   4.663   3.290   8.436 -2.5624 -2.0233 -1.4247
 4851SOL     OW26014   4.106   4.236  10.840 -0.4277  0.0870 -0.2239
 4851SOL    HW126015   4.114   4.239  10.744  1.3236 -0.0707 -0.0788
 4851SOL    HW226016   4.181   4.281  10.879 -1.7936  2.7891 -0.7027
 4852SOL     OW26017   2.254   2.948   4.784  0.5856 -0.0582  0.2930
 4852SOL    HW126018   2.170   2.994   4.772  0.6440 -0.3690 -1.3183
 4852SOL    HW226019   2.231   2.855   4.788 -0.5050  0.2201  0.5353
 4853SOL     OW26020   1.738   0.800   4.757  0.0217  0.4592 -0.2860
 4853SOL    HW126021   1.759   0.775   4.667  0.1161  0.0183 -0.1403
 4853SOL    HW226022   1.657   0.752   4.769 -0.2863  0.9682 -0.3385
 4854SOL     OW26023   3.599   4.551   4.001 -0.0538  0.7985  0.0681
 4854SOL    HW126024   3.654   4.556   4.080  0.7412  0.5515 -0.4746
 4854SOL    HW226025   3.540   4.476   4.014 -1.4150  2.0055  0.8345
 4855SOL     OW26026   2.071   0.177   9.014  0.0151 -0.3309 -0.6174
 4855SOL    HW126027   2.032   0.256   8.977  0.9053  0.3362 -0.1357
 4855SOL    HW226028   2.155   0.215   9.040 -0.5890  1.7142 -1.6742
 4856SOL     OW26029   1.516   0.105  11.845  0.5355  0.0252 -0.1694
 4856SOL    HW126030   1.487   0.029  11.794  0.0773  0.7023 -0.9217
 4856SOL    HW226031   1.541   0.161  11.772  0.9230  0.6057  0.4081
 4857SOL     OW26032   3.872   3.836   5.864  0.9342 -0.0153  0.1236
 4857SOL    HW126033   3.780   3.845   5.888  1.2503  0.8776  1.0014
 4857SOL    HW226034   3.888   3.742   5.856  2.9056  0.0419  3.4138
 4858SOL     OW26035   3.579   3.128   6.021  0.7166 -0.3674  0.3921
 4858SOL    HW126036   3.629   3.053   5.988 -0.4539  0.2211 -2.7586
 4858SOL    HW226037   3.623   3.203   5.980 -0.3225  0.4836  0.8475
 4859SOL     OW26038   2.797   2.115   0.622  0.2595 -0.2356 -0.0547
 4859SOL    HW126039   2.708   2.136   0.650  0.1253 -0.1984 -0.5118
 4859SOL    HW226040   2.788   2.023   0.599 -0.1061 -0.0669 -0.5834
 4860SOL     OW26041   3.136   2.375   9.550 -0.0442  0.2524 -0.1365
 4860SOL    HW126042   3.126   2.386   9.455 -0.4303  0.3130 -0.0862
 4860SOL    HW226043   3.079   2.302   9.573  0.1510 -0.2212 -1.1798
 4861SOL     OW26044   1.033   2.837   8.165 -0.1103  0.1521  0.1835
 4861SOL    HW126045   1.114   2.801   8.200 -0.2974  1.0980  1.5920
 4861SOL    HW226046   1.011   2.899   8.235 -0.0570  0.2167  0.1432
 4862SOL     OW26047   1.540   2.492   0.492  0.2453  0.4269 -0.4925
 4862SOL    HW126048   1.534   2.575   0.539  0.4463 -1.0802  2.2029
 4862SOL    HW226049   1.458   2.480   0.443  0.3289  1.0799 -0.7871
 4863SOL     OW26050   3.389   4.305  16.839 -0.2279 -0.2285  0.0310
 4863SOL    HW126051   3.302   4.269  16.823 -1.6361  2.7545  0.8676
 4863SOL    HW226052   3.428   4.324  16.754 -1.9058  1.7200 -0.2874
 4864SOL     OW26053   3.324   4.383  11.691 -0.8248 -0.1502  0.0933
 4864SOL    HW126054   3.325   4.292  11.660  3.6328  0.6123 -1.9672
 4864SOL    HW226055   3.231   4.404  11.696 -1.0272 -0.9650 -0.2490
 4865SOL     OW26056   4.570   3.397   1.703 -0.0148  0.2512 -0.6221
 4865SOL    HW126057   4.515   3.370   1.630  0.7838  0.6071 -1.3517
 4865SOL    HW226058   4.621   3.465   1.658 -0.2350  1.6812  1.2702
 4866SOL     OW26059   2.308   3.230  17.424 -0.6874 -0.7686  0.1322
 4866SOL    HW126060   2.402   3.242  17.438 -1.4298  2.5165  2.2862
 4866SOL    HW226061   2.314   3.177  17.344  1.3693 -0.3074 -0.0322
 4867SOL     OW26062   2.049   1.423  14.104 -0.0862  0.2925  0.2713
 4867SOL    HW126063   2.037   1.434  14.010 -2.4642 -1.0950  0.4153
 4867SOL    HW226064   1.980   1.361  14.128  0.1732 -0.2617 -0.4109
 4868SOL     OW26065   2.937   1.800   5.821 -0.2325  0.4216 -0.3671
 4868SOL    HW126066   2.900   1.876   5.866 -0.5776  1.3779 -2.2793
 4868SOL    HW226067   3.024   1.810   5.858 -0.2420 -4.4422  1.0564
 4869SOL     OW26068   3.811   4.576   6.077  0.1432  0.6535  0.0633
 4869SOL    HW126069   3.716   4.568   6.078  0.5375 -3.6800  0.8395
 4869SOL    HW226070   3.826   4.617   5.992  2.4378 -1.7110 -0.6863
 4870SOL     OW26071   3.295   2.314  12.425 -0.5799 -0.6484 -0.5732
 4870SOL    HW126072   3.290   2.238  12.367 -1.4699 -1.4156  0.5145
 4870SOL    HW226073   3.216   2.304  12.477 -1.4930 -2.0551 -2.2722
 4871SOL     OW26074   4.411   2.551   8.906 -0.8196 -0.2077 -0.7471
 4871SOL    HW126075   4.506   2.543   8.914 -1.0788 -1.0273  1.6061
 4871SOL    HW226076   4.397   2.643   8.930 -3.9635 -0.8673  0.0249
 4872SOL     OW26077   0.422   1.500   3.662  0.4456  0.4850  0.1545
 4872SOL    HW126078   0.498   1.442   3.662 -2.2260 -2.9983  0.4106
 4872SOL    HW226079   0.466   1.577   3.627  0.0203  0.3095 -0.7459
 4873SOL     OW26080   3.318   2.089   9.608 -0.3038 -0.0838  0.2140
 4873SOL    HW126081   3.276   2.004   9.625  0.5730 -0.1956  1.7697
 4873SOL    HW226082   3.245   2.151   9.601 -3.3779 -3.7732 -1.0816
 4874SOL     OW26083   1.419   4.652  10.040  0.4862 -0.3116  0.6257
 4874SOL    HW126084   1.354   4.722  10.050  1.1025  0.9029 -3.9146
 4874SOL    HW226085   1.505   4.693  10.045 -0.1148  0.7790  2.1894
 4875SOL     OW26086   2.555   0.708   8.320 -0.2502  0.3780 -0.1913
 4875SOL    HW126087   2.642   0.713   8.360 -0.3806 -1.4908  0.3236
 4875SOL    HW226088   2.582   0.671   8.236  0.3162  0.1712  0.0801
 4876SOL     OW26089   2.116   4.362   6.888  0.2687 -0.2284 -0.1417
 4876SOL    HW126090   2.025   4.388   6.902  1.1518  2.0355  1.3255
 4876SOL    HW226091   2.150   4.446   6.857 -0.5446 -0.0704 -0.6057
 4877SOL     OW26092   2.341   3.313   5.581 -0.2704 -0.2453  0.0023
 4877SOL    HW126093   2.349   3.224   5.613 -0.7578 -0.1631  0.3699
 4877SOL    HW226094   2.431   3.344   5.584 -0.0647 -0.6666 -1.8826
 4878SOL     OW26095   1.645   1.729  11.151  0.7102  1.0047 -0.2170
 4878SOL    HW126096   1.614   1.660  11.093  0.5442  1.7451 -1.0109
 4878SOL    HW226097   1.726   1.763  11.112  0.7028  0.5609 -0.6178
 4879SOL     OW26098   0.801   3.092  15.551 -0.4705 -0.4759 -0.0418
 4879SOL    HW126099   0.738   3.105  15.622 -0.1366  0.5541  0.0643
 4879SOL    HW226100   0.797   2.996  15.545 -0.4145 -0.4041 -1.1172
 4880SOL     OW26101   2.942   4.414   4.815 -0.1954 -0.2047 -0.4261
 4880SOL    HW126102   3.038   4.409   4.821 -0.1753 -0.8699 -1.2869
 4880SOL    HW226103   2.922   4.436   4.906  0.4637  2.6439 -0.9741
 4881SOL     OW26104   1.226   1.487   2.772 -0.5495 -1.0285  0.4145
 4881SOL    HW126105   1.273   1.446   2.699  0.2832 -0.2743  0.5323
 4881SOL    HW226106   1.277   1.566   2.788 -1.5333 -0.1112 -0.9317
 4882SOL     OW26107   0.624   0.844   7.166 -0.2875  0.3166  0.5314
 4882SOL    HW126108   0.589   0.875   7.249 -0.0666  1.7678  0.0862
 4882SOL    HW226109   0.578   0.760   7.160  1.4166 -0.7615  2.6850
 4883SOL     OW26110   0.803   0.352   2.638  0.4002 -0.0300  0.1314
 4883SOL    HW126111   0.867   0.282   2.621  1.7882  0.7698  2.0295
 4883SOL    HW226112   0.835   0.413   2.571  1.2243 -2.0034 -1.2823
 4884SOL     OW26113   2.676   2.103   6.462 -0.4016 -0.3879  0.2225
 4884SOL    HW126114   2.602   2.054   6.498 -0.4312  0.9979  2.0288
 4884SOL    HW226115   2.736   2.081   6.533 -0.8705 -0.8508  0.4773
 4885SOL     OW26116   1.066   3.692   7.855 -0.4675  0.1091  0.8243
 4885SOL    HW126117   1.021   3.731   7.930  0.1740  0.9039  0.7943
 4885SOL    HW226118   1.127   3.762   7.833 -1.0436  0.2425 -0.3870
 4886SOL     OW26119   2.839   2.327   6.403 -0.4001  0.7920 -0.0508
 4886SOL    HW126120   2.894   2.293   6.332 -1.1784 -0.0186 -0.2624
 4886SOL    HW226121   2.792   2.249   6.432  0.0699 -0.2909 -2.2042
 4887SOL     OW26122   4.338   4.120   3.634 -0.7377 -0.0813  0.2203
 4887SOL    HW126123   4.391   4.188   3.675  0.3417  0.6477 -2.3736
 4887SOL    HW226124   4.252   4.117   3.676 -0.9277 -0.5735 -0.1959
 4888SOL     OW26125   0.439   3.687   3.443  0.3518 -0.1543  0.4459
 4888SOL    HW126126   0.480   3.698   3.357 -0.8143 -2.6641 -0.4211
 4888SOL    HW226127   0.402   3.774   3.459 -0.7376 -0.8021  1.3966
 4889SOL     OW26128   4.096   4.281  15.170 -0.8294  0.0050 -0.2858
 4889SOL    HW126129   4.060   4.239  15.248 -0.1211 -2.0298 -1.0724
 4889SOL    HW226130   4.189   4.263  15.181 -0.6609  0.8815 -0.2883
 4890SOL     OW26131   3.073   2.575   1.166 -0.1604 -0.5140 -0.1731
 4890SOL    HW126132   3.164   2.562   1.139 -0.1825 -0.9814 -0.0217
 4890SOL    HW226133   3.036   2.590   1.079  1.6594  1.7025 -0.5618
 4891SOL     OW26134   1.521   4.159   8.366  0.3976 -0.0524 -0.0375
 4891SOL    HW126135   1.463   4.234   8.361 -0.2771 -0.4286  2.1887
 4891SOL    HW226136   1.535   4.145   8.459  2.8245  1.2346 -0.2104
 4892SOL     OW26137   3.950   2.438   8.420 -0.6505  0.7166 -0.0625
 4892SOL    HW126138   3.871   2.443   8.474  0.8372 -0.4875  2.1975
 4892SOL    HW226139   3.922   2.500   8.352 -0.5013  0.6281 -0.2046
 4893SOL     OW26140   1.108   2.233   6.434  0.3913 -0.3407 -0.5276
 4893SOL    HW126141   1.186   2.188   6.403  2.1397  2.1238  0.2659
 4893SOL    HW226142   1.142   2.321   6.451 -0.6918 -0.0001 -0.0829
 4894SOL     OW26143   2.473   4.451   8.354 -0.4393  0.0502 -0.4051
 4894SOL    HW126144   2.413   4.455   8.429 -0.5235 -2.6893 -0.3453
 4894SOL    HW226145   2.446   4.530   8.307 -2.3752  0.1106  0.8058
 4895SOL     OW26146   1.911   0.229   2.285  0.1854 -0.1001  0.1130
 4895SOL    HW126147   1.857   0.151   2.296  1.1934 -0.4638  2.5608
 4895SOL    HW226148   1.846   0.290   2.251  0.9774 -0.7732 -2.6290
 4896SOL     OW26149   2.951   0.156   1.406 -0.2948  0.1009  0.4710
 4896SOL    HW126150   2.933   0.205   1.325 -1.4267  0.4568  0.9506
 4896SOL    HW226151   2.879   0.195   1.454  1.8401  2.3520  1.8542
 4897SOL     OW26152   1.026   2.684   4.158  0.5834  0.0490 -0.0284
 4897SOL    HW126153   1.048   2.596   4.128 -2.6076 -0.0566 -2.0294
 4897SOL    HW226154   1.047   2.671   4.251 -0.5862  1.5348  0.4351
 4898SOL     OW26155   2.926   2.624  12.681 -0.9833  0.3764  0.6906
 4898SOL    HW126156   2.980   2.646  12.757  1.3397  1.4153 -1.2318
 4898SOL    HW226157   2.871   2.558  12.722  2.0075 -3.0580 -0.8405
 4899SOL     OW26158   2.772   4.427   3.741 -0.0400  0.8455 -0.2591
 4899SOL    HW126159   2.850   4.447   3.690  1.2901  0.8305  1.7745
 4899SOL    HW226160   2.735   4.516   3.741  2.6716  1.9843 -1.5606
 4900SOL     OW26161   4.441   3.492   8.307  0.3309  0.8006  0.5884
 4900SOL    HW126162   4.398   3.462   8.386  1.0214  2.9777  1.7825
 4900SOL    HW226163   4.385   3.566   8.287  1.6943  1.4299 -0.9153
 4901SOL     OW26164   0.357   2.594   1.839  0.2867  0.1201  1.2400
 4901SOL    HW126165   0.323   2.645   1.913 -0.8228  1.1290  0.0260
 4901SOL    HW226166   0.301   2.516   1.833 -1.3942  1.3577  1.0026
 4902SOL     OW26167   1.502   0.153   3.455 -0.3045  0.2027  0.4787
 4902SOL    HW126168   1.431   0.109   3.409 -0.6070  1.6750 -0.4418
 4902SOL    HW226169   1.564   0.160   3.383 -2.0285  1.6639 -0.8526
 4903SOL     OW26170   3.848   4.486   3.865  0.2940  0.5818  0.1525
 4903SOL    HW126171   3.899   4.542   3.924  0.4187  0.6547 -0.0245
 4903SOL    HW226172   3.755   4.499   3.884 -0.1200 -2.0218 -0.1144
 4904SOL     OW26173   4.660   3.740   6.761 -0.6229  0.2783  0.0951
 4904SOL    HW126174   4.683   3.793   6.685 -0.4082 -1.8310 -1.3040
 4904SOL    HW226175   0.021   3.717   6.801  0.1658  1.5582 -0.8255
 4905SOL     OW26176   2.111   3.749   5.486 -0.2417 -0.4778  0.1744
 4905SOL    HW126177   2.076   3.830   5.522 -1.2221 -1.1749  0.7861
 4905SOL    HW226178   2.141   3.778   5.399  0.5600 -0.7198  0.3645
 4906SOL     OW26179   1.761   1.478   4.261 -0.1742 -0.5949  0.3081
 4906SOL    HW126180   1.680   1.528   4.275  0.7883  0.7619  0.9854
 4906SOL    HW226181   1.726   1.392   4.283 -2.7639  0.2133 -0.6693
 4907SOL     OW26182   2.450   1.896  16.587  0.0858 -0.3744  0.0891
 4907SOL    HW126183   2.442   1.959  16.516 -3.3995 -1.8978 -0.8678
 4907SOL    HW226184   2.537   1.861  16.567  0.3167  0.4448 -0.3200
 4908SOL     OW26185   2.632   0.333  10.151 -0.6575 -0.6319 -0.2082
 4908SOL    HW126186   2.723   0.335  10.180 -1.2413  2.3879  1.4262
 4908SOL    HW226187   2.608   0.424  10.169 -1.3802 -0.4231 -2.1951
 4909SOL     OW26188   1.428   0.096   7.255  0.3820 -0.4391 -0.1885
 4909SOL    HW126189   1.480   0.131   7.328  0.2512 -0.8576  0.1051
 4909SOL    HW226190   1.437   0.002   7.267  0.4568 -0.2936  0.9579
 4910SOL     OW26191   3.810   4.527   5.626 -0.4906 -0.6855 -0.6486
 4910SOL    HW126192   3.729   4.478   5.643 -0.8532  0.1291 -0.0384
 4910SOL    HW226193   3.862   4.452   5.596  2.2127  1.5558 -1.4895
 4911SOL     OW26194   0.519   2.502   7.521  0.1315 -0.1859  0.4813
 4911SOL    HW126195   0.537   2.595   7.510  1.7401 -0.4189  1.2175
 4911SOL    HW226196   0.599   2.477   7.476  0.2416  2.8670 -0.9916
 4912SOL     OW26197   1.110   3.245  11.859  0.0844 -0.0003  0.6576
 4912SOL    HW126198   1.028   3.263  11.812 -2.0211 -1.9814  3.5890
 4912SOL    HW226199   1.109   3.319  11.920 -0.6351  0.3135  0.2729
 4913SOL     OW26200   1.971   1.616   7.882 -0.3927 -0.2074  0.5652
 4913SOL    HW126201   2.005   1.700   7.850 -0.7496  0.1101  1.0282
 4913SOL    HW226202   1.912   1.637   7.954  0.4523  1.3757  0.7927
 4914SOL     OW26203   3.325   1.399   8.731 -0.5286  0.2939  0.7651
 4914SOL    HW126204   3.284   1.334   8.788  0.3600 -2.5833 -1.8759
 4914SOL    HW226205   3.382   1.336   8.688  0.5488  1.9683 -0.2477
 4915SOL     OW26206   2.853   2.623   5.598 -0.5205  0.3960  0.4440
 4915SOL    HW126207   2.763   2.632   5.628 -0.2224 -0.6639  1.6734
 4915SOL    HW226208   2.903   2.678   5.659 -0.3285  0.2351  0.4316
 4916SOL     OW26209   1.101   1.231  13.758 -0.5042  0.1527 -0.0545
 4916SOL    HW126210   1.116   1.179  13.837  1.6084  1.3975  0.3602
 4916SOL    HW226211   1.044   1.295  13.802 -0.3343 -0.0746  0.5034
 4917SOL     OW26212   3.506   2.922   2.266  0.4620 -0.0790  0.6299
 4917SOL    HW126213   3.555   2.992   2.223 -1.9308 -0.9119 -3.4267
 4917SOL    HW226214   3.490   2.977   2.343  1.6183 -1.7987  2.0989
 4918SOL     OW26215   1.832   3.055  10.149  0.5506 -0.4795 -0.2896
 4918SOL    HW126216   1.843   2.988  10.081  0.8321  0.5213 -1.2145
 4918SOL    HW226217   1.841   3.001  10.229 -2.3756 -1.7408 -0.7903
 4919SOL     OW26218   1.290   3.737   5.043  0.4746 -0.0783  0.2131
 4919SOL    HW126219   1.331   3.758   4.959 -1.4464 -0.0233 -0.6934
 4919SOL    HW226220   1.234   3.815   5.042  0.5339 -0.0820 -2.0586
 4920SOL     OW26221   4.058   3.442   9.503 -0.1174  0.3518 -0.3542
 4920SOL    HW126222   3.966   3.415   9.500  0.0828 -0.0768 -3.1509
 4920SOL    HW226223   4.080   3.461   9.412 -1.0719  0.0663 -0.6392
 4921SOL     OW26224   2.076   3.647   8.474  0.2536  0.2812  0.1872
 4921SOL    HW126225   2.133   3.590   8.422 -0.0263  1.2566 -1.1818
 4921SOL    HW226226   2.027   3.690   8.404 -0.8693 -0.8168  0.2886
 4922SOL     OW26227   4.454   1.303   6.546 -0.0733 -0.0595  0.1822
 4922SOL    HW126228   4.420   1.218   6.574  1.4492 -0.3193  1.2279
 4922SOL    HW226229   4.463   1.344   6.632 -0.4315  0.4299 -0.0151
 4923SOL     OW26230   3.637   1.552  16.267 -0.1812 -0.4790  0.3656
 4923SOL    HW126231   3.697   1.516  16.332  1.5743  1.0312 -0.4195
 4923SOL    HW226232   3.708   1.567  16.205 -1.1439  0.5154 -0.4953
 4924SOL     OW26233   3.655   2.211   9.911  0.2479 -0.4570 -0.4064
 4924SOL    HW126234   3.706   2.131   9.915 -0.2858 -0.8095 -0.5911
 4924SOL    HW226235   3.622   2.203   9.821  0.4036  2.2841 -0.7068
 4925SOL     OW26236   4.281   0.546  16.559  0.0936 -0.6584 -0.0660
 4925SOL    HW126237   4.237   0.465  16.586  0.3192 -0.7895 -0.0970
 4925SOL    HW226238   4.331   0.508  16.487  0.3292  2.3364 -1.4900
 4926SOL     OW26239   1.389   4.084   5.012 -0.7341  0.6895 -0.1602
 4926SOL    HW126240   1.433   4.163   4.980  0.7146  0.6923  1.9031
 4926SOL    HW226241   1.371   4.103   5.104 -0.4610  1.2924 -0.2304
 4927SOL     OW26242   0.746   0.193   4.356  0.4686 -0.1311  0.2683
 4927SOL    HW126243   0.677   0.130   4.376 -0.3607  0.2191 -1.4203
 4927SOL    HW226244   0.777   0.202   4.446 -1.6887  0.2921  0.9667
 4928SOL     OW26245   1.595   3.206  11.076 -0.4956  0.4399  0.3903
 4928SOL    HW126246   1.581   3.153  10.998  0.1387 -0.3012  0.7775
 4928SOL    HW226247   1.675   3.163  11.107 -0.1712  0.6835 -0.1245
 4929SOL     OW26248   4.153   4.237   2.131  0.2164 -0.4796  0.5546
 4929SOL    HW126249   4.075   4.292   2.129  0.0467 -0.6274  2.7021
 4929SOL    HW226250   4.143   4.184   2.210  3.1725  1.3390  2.1434
 4930SOL     OW26251   3.783   3.261   8.412  0.3158 -0.1907 -0.0226
 4930SOL    HW126252   3.730   3.340   8.421  0.3501 -0.2928  1.1137
 4930SOL    HW226253   3.850   3.285   8.476  0.3075  1.7701 -0.7643
 4931SOL     OW26254   3.369   2.516  13.808 -0.5750 -0.1893 -0.0226
 4931SOL    HW126255   3.293   2.460  13.796  1.1098 -2.6170  0.7415
 4931SOL    HW226256   3.432   2.447  13.829  0.6777  0.5680 -1.2438
 4932SOL     OW26257   2.606   2.002   5.698  0.8645  0.1050 -0.0580
 4932SOL    HW126258   2.595   1.971   5.608  0.0962  0.1923  0.0041
 4932SOL    HW226259   2.516   1.993   5.731  0.7947  1.2767  0.0850
 4933SOL     OW26260   1.427   2.623  12.769 -0.3306  0.0722 -0.4585
 4933SOL    HW126261   1.442   2.547  12.825  2.8709  0.5586 -0.6739
 4933SOL    HW226262   1.506   2.677  12.779  0.7684 -1.7773  0.6674
 4934SOL     OW26263   2.269   1.208   6.388 -0.1584  0.2166 -0.2267
 4934SOL    HW126264   2.186   1.240   6.353  0.6319  0.8300 -1.5178
 4934SOL    HW226265   2.232   1.171   6.468 -0.8437  0.7185 -0.3093
 4935SOL     OW26266   3.219   0.694   5.543  0.3061  0.3773  0.2211
 4935SOL    HW126267   3.223   0.721   5.635  2.1069  3.2317 -0.7108
 4935SOL    HW226268   3.177   0.608   5.551 -1.7893  1.4131  0.3120
 4936SOL     OW26269   0.917   0.253   7.471  0.2551 -0.3829 -0.0433
 4936SOL    HW126270   0.975   0.220   7.402 -0.2600 -0.0882 -0.6219
 4936SOL    HW226271   0.980   0.251   7.543 -0.4652 -2.3333  0.5488
 4937SOL     OW26272   2.574   3.170   8.123 -0.0841 -0.0165  0.3839
 4937SOL    HW126273   2.566   3.145   8.215 -0.4411  0.9480  0.6232
 4937SOL    HW226274   2.584   3.082   8.088  0.6901  0.3754 -0.3621
 4938SOL     OW26275   1.378   0.497  12.601  0.5009  0.0295 -0.3991
 4938SOL    HW126276   1.408   0.537  12.683  2.4099 -1.2951 -0.4638
 4938SOL    HW226277   1.389   0.405  12.623 -0.9123  0.6209  2.7622
 4939SOL     OW26278   2.490   3.672   1.747  0.0809 -0.3609  0.2973
 4939SOL    HW126279   2.558   3.734   1.772 -0.0919 -0.0795  0.0756
 4939SOL    HW226280   2.483   3.684   1.652 -2.9687  0.4919  0.6295
 4940SOL     OW26281   0.509   0.972   9.439 -0.0281  0.3856  0.3228
 4940SOL    HW126282   0.555   1.030   9.378  0.4296 -0.6505 -0.3169
 4940SOL    HW226283   0.438   0.946   9.380  0.1589 -4.0960  2.0757
 4941SOL     OW26284   0.746   3.244   5.986 -0.0700 -0.2524 -0.4357
 4941SOL    HW126285   0.741   3.295   6.066 -1.6024 -1.7778  0.4554
 4941SOL    HW226286   0.683   3.174   6.002 -0.2786  0.1800  0.6360
 4942SOL     OW26287   4.043   4.529   2.694 -0.5566  0.3175  0.1647
 4942SOL    HW126288   4.020   4.468   2.764 -0.6384 -0.4716 -0.5601
 4942SOL    HW226289   4.125   4.566   2.728 -1.6062  1.6284  1.2561
 4943SOL     OW26290   1.925   4.581   5.490 -0.1182 -0.3270  0.0986
 4943SOL    HW126291   1.976   4.560   5.412  2.2405  0.9868  1.2758
 4943SOL    HW226292   1.976   4.646   5.539 -0.6002  0.5197 -0.5293
 4944SOL     OW26293   4.168   2.464   5.542  0.3580  0.0422 -0.6836
 4944SOL    HW126294   4.258   2.437   5.562  0.4126  1.4247  0.9313
 4944SOL    HW226295   4.177   2.559   5.534  0.1203  0.2137  1.2225
 4945SOL     OW26296   1.078   1.970  14.122 -0.4932  0.0630  0.3004
 4945SOL    HW126297   1.090   1.931  14.209  2.2550 -0.1195 -0.1418
 4945SOL    HW226298   1.016   1.912  14.079 -1.3576  2.0923 -1.1813
 4946SOL     OW26299   3.704   3.618   4.618  0.5375  0.1890  0.5362
 4946SOL    HW126300   3.770   3.551   4.600  1.2499  1.0765 -0.1096
 4946SOL    HW226301   3.698   3.610   4.714  0.3806 -1.6592  0.3619
 4947SOL     OW26302   2.134   2.316   3.361  0.0011  0.3522 -0.3404
 4947SOL    HW126303   2.143   2.318   3.265 -1.7697  0.4771 -0.5144
 4947SOL    HW226304   2.038   2.306   3.356  0.2651 -2.0560 -0.9094
 4948SOL     OW26305   1.123   0.833  14.648 -0.3609 -0.1589 -0.4387
 4948SOL    HW126306   1.151   0.744  14.670 -0.0759 -0.3491 -1.5232
 4948SOL    HW226307   1.037   0.841  14.689  0.3942  1.2036  0.8674
 4949SOL     OW26308   2.647   1.337   7.223  0.1118 -0.6918 -0.1214
 4949SOL    HW126309   2.727   1.388   7.240 -0.1915 -0.6927  1.2646
 4949SOL    HW226310   2.584   1.403   7.195  1.6662  0.7553 -0.2356
 4950SOL     OW26311   2.315   1.366   8.509 -0.1017 -0.4371 -0.6082
 4950SOL    HW126312   2.331   1.294   8.570  3.0157  0.1498 -0.7358
 4950SOL    HW226313   2.265   1.428   8.561 -0.7301 -1.0123 -0.5203
 4951SOL     OW26314   0.662   0.538   8.058 -0.6202  0.6658  0.4904
 4951SOL    HW126315   0.686   0.462   8.111  0.4459  0.4914 -0.2279
 4951SOL    HW226316   0.683   0.617   8.109  0.6102  0.7005 -0.0667
 4952SOL     OW26317   3.300   3.748  13.161  0.1585  0.3293  0.5578
 4952SOL    HW126318   3.356   3.720  13.233 -1.6763 -5.0798 -0.1270
 4952SOL    HW226319   3.222   3.697  13.185 -0.5191 -0.0227 -2.3749
 4953SOL     OW26320   1.935   1.941   8.770 -0.4259  0.4509  0.7857
 4953SOL    HW126321   1.928   1.849   8.742 -3.7969  0.7119  0.6954
 4953SOL    HW226322   1.919   1.937   8.864 -1.3575 -0.2943  0.6058
 4954SOL     OW26323   4.011   1.094  14.338  0.0912 -0.0898  0.1119
 4954SOL    HW126324   4.038   1.186  14.335  1.7993 -0.5382  1.2567
 4954SOL    HW226325   4.087   1.045  14.306  1.2714 -0.2725  3.1670
 4955SOL     OW26326   1.411   1.238   3.034 -0.2898 -0.2533  0.6315
 4955SOL    HW126327   1.482   1.283   2.990  0.3716 -2.1146 -0.1935
 4955SOL    HW226328   1.391   1.291   3.112 -0.4488  1.1649 -0.3830
 4956SOL     OW26329   0.531   3.733   7.294  0.5946 -0.1138  0.2808
 4956SOL    HW126330   0.472   3.723   7.369  2.2497 -1.6961  1.3744
 4956SOL    HW226331   0.581   3.653   7.307 -2.1965 -1.2045  4.5641
 4957SOL     OW26332   0.851   2.409   5.675 -0.1648  0.1957  0.5153
 4957SOL    HW126333   0.805   2.492   5.664 -0.3225  0.1809  1.0685
 4957SOL    HW226334   0.830   2.364   5.593 -0.2709  1.9729 -0.4352
 4958SOL     OW26335   2.729   3.953   1.405  0.0079 -0.1251 -0.2859
 4958SOL    HW126336   2.691   4.037   1.430  2.1515  0.8134 -0.1711
 4958SOL    HW226337   2.652   3.902   1.383 -2.2144  2.2504  2.0786
 4959SOL     OW26338   0.183   4.585   3.249 -0.5363 -0.2443 -0.5291
 4959SOL    HW126339   0.193   4.550   3.338 -0.3605  0.1807 -0.3840
 4959SOL    HW226340   0.113   4.650   3.258  1.3898  1.2391  3.5976
 4960SOL     OW26341   2.640   0.260   2.933 -0.0008 -0.1254  0.3169
 4960SOL    HW126342   2.671   0.240   2.844  0.7083  0.5011  0.4222
 4960SOL    HW226343   2.559   0.309   2.920  1.0030  1.7059  0.9835
 4961SOL     OW26344   3.792   0.269   3.639 -0.1162  0.2668 -0.1854
 4961SOL    HW126345   3.710   0.234   3.673 -1.5446  3.2828 -0.5765
 4961SOL    HW226346   3.850   0.248   3.713 -0.7628  2.4589  0.9667
 4962SOL     OW26347   2.146   2.081  16.033 -0.0281 -0.2739  0.2080
 4962SOL    HW126348   2.085   2.123  15.973  0.7629 -0.6822 -0.8865
 4962SOL    HW226349   2.181   2.159  16.076 -1.4316  1.1336 -1.2180
 4963SOL     OW26350   2.272   4.426   3.466 -0.0972  0.0598 -0.2047
 4963SOL    HW126351   2.354   4.419   3.517  0.1330  0.3390 -0.5324
 4963SOL    HW226352   2.205   4.451   3.530 -0.2644 -0.8242 -0.0440
 4964SOL     OW26353   2.606   1.797   3.167  0.1832  0.3011  0.3675
 4964SOL    HW126354   2.516   1.783   3.199  0.7479 -2.0720  0.8926
 4964SOL    HW226355   2.656   1.730   3.212  1.1428  0.7098 -0.1033
 4965SOL     OW26356   2.580   0.248   7.316  0.6488  0.5507 -0.3381
 4965SOL    HW126357   2.530   0.283   7.389  2.3557  0.8204  0.6953
 4965SOL    HW226358   2.638   0.194   7.369 -1.2239 -2.0255 -0.8941
 4966SOL     OW26359   3.828   4.348  11.527 -0.1330  0.0555 -0.1572
 4966SOL    HW126360   3.921   4.365  11.519  0.2537 -0.2995  3.5100
 4966SOL    HW226361   3.821   4.331  11.621 -2.3476 -1.9913 -0.6604
 4967SOL     OW26362   1.635   3.633   7.924 -0.1546  0.9402  0.2812
 4967SOL    HW126363   1.646   3.573   7.997 -1.3206  0.4141  0.0282
 4967SOL    HW226364   1.558   3.685   7.947 -1.2334 -1.0645  1.1885
 4968SOL     OW26365   3.701   4.453  16.635  0.0374  0.2319 -0.2348
 4968SOL    HW126366   3.730   4.429  16.547 -2.7928 -0.4172 -0.9811
 4968SOL    HW226367   3.773   4.424  16.691 -0.3803 -1.9328 -0.8292
 4969SOL     OW26368   4.601   0.436   7.586 -0.9379  0.1763 -0.8523
 4969SOL    HW126369   4.632   0.451   7.676 -1.2119 -1.1135 -0.5398
 4969SOL    HW226370   4.518   0.391   7.603 -0.8820  0.0814 -0.8321
 4970SOL     OW26371   1.962   3.126  15.370 -0.5325 -0.5027 -0.0359
 4970SOL    HW126372   2.000   3.105  15.455 -1.8520 -1.2633  0.3676
 4970SOL    HW226373   2.016   3.200  15.343 -1.1249  0.0301  0.2423
 4971SOL     OW26374   3.168   1.579   2.195 -0.0728  0.1481 -0.0560
 4971SOL    HW126375   3.135   1.630   2.269  0.0797 -0.5872  0.5180
 4971SOL    HW226376   3.130   1.492   2.198  0.9294 -0.2616  0.7320
 4972SOL     OW26377   3.355   2.184  10.547 -0.3015 -0.0103  0.7063
 4972SOL    HW126378   3.375   2.237  10.624 -0.9388 -0.2985  1.0744
 4972SOL    HW226379   3.280   2.240  10.525  1.8447  2.0622 -1.2851
 4973SOL     OW26380   4.265   2.272   8.663  0.4709 -0.6575  0.2023
 4973SOL    HW126381   4.291   2.361   8.639 -0.6275 -0.3911 -0.0170
 4973SOL    HW226382   4.222   2.240   8.583 -1.0975 -0.6073  1.0358
 4974SOL     OW26383   0.643   1.269   2.797 -0.3487  0.1931  0.1749
 4974SOL    HW126384   0.712   1.335   2.793 -0.5944  0.5897  2.6611
 4974SOL    HW226385   0.691   1.187   2.811 -0.4609  0.1611  0.3839
 4975SOL     OW26386   0.137   0.535   1.433  0.1155  0.6354 -0.6185
 4975SOL    HW126387   0.075   0.562   1.500 -0.0470 -1.4491  0.0832
 4975SOL    HW226388   0.173   0.620   1.408 -1.7909  1.1713 -1.4980
 4976SOL     OW26389   0.181   0.678   2.457 -0.2842  0.2372  0.6764
 4976SOL    HW126390   0.258   0.710   2.504 -1.7199  2.1706  1.7205
 4976SOL    HW226391   0.172   0.587   2.484  2.4822 -0.1401  0.2836
 4977SOL     OW26392   2.508   2.186   2.470  0.2812  0.0901 -0.3022
 4977SOL    HW126393   2.469   2.160   2.387  0.5176 -0.7585 -0.1533
 4977SOL    HW226394   2.482   2.277   2.479  0.2279 -0.0020  0.4874
 4978SOL     OW26395   4.575   2.479   2.937 -0.2678  0.3441  0.2353
 4978SOL    HW126396   4.525   2.539   2.993 -2.1003  0.3761 -1.4374
 4978SOL    HW226397   4.518   2.481   2.860  1.1752  2.7380 -0.7665
 4979SOL     OW26398   0.890   3.225   3.073 -0.1088  0.5259 -0.4725
 4979SOL    HW126399   0.812   3.261   3.032 -0.9537 -2.0181 -1.1288
 4979SOL    HW226400   0.896   3.281   3.150 -2.7222 -2.2873  1.7500
 4980SOL     OW26401   4.305   0.677   4.141  0.5980 -0.0081  0.0618
 4980SOL    HW126402   4.313   0.582   4.138  2.8387  0.1398  0.8281
 4980SOL    HW226403   4.325   0.690   4.234  1.9851  2.6524 -0.6274
 4981SOL     OW26404   0.156   1.730  12.754 -0.1032 -0.3356  0.3424
 4981SOL    HW126405   0.228   1.715  12.816 -1.3450 -3.6787  0.9789
 4981SOL    HW226406   0.112   1.803  12.796  1.2953 -0.7189  2.4827
 4982SOL     OW26407   1.970   3.909  17.071  0.3234  0.1396  0.1102
 4982SOL    HW126408   1.956   3.986  17.126 -1.1576 -0.5233  0.6789
 4982SOL    HW226409   2.064   3.908  17.056  0.2944 -0.6970 -0.0216
 4983SOL     OW26410   1.977   4.426   9.305 -0.2861 -0.6533 -0.0846
 4983SOL    HW126411   1.951   4.505   9.353  0.3213 -1.1022  0.9809
 4983SOL    HW226412   2.064   4.411   9.340 -0.3357 -2.3994 -0.7516
 4984SOL     OW26413   4.143   2.355  14.660 -0.6329  0.4551 -0.1149
 4984SOL    HW126414   4.073   2.307  14.616 -1.7172  1.6026  0.3518
 4984SOL    HW226415   4.104   2.354  14.748 -1.0454  1.1665 -0.2917
 4985SOL     OW26416   1.077   1.391   6.809  0.2478  0.3496 -0.4010
 4985SOL    HW126417   1.166   1.364   6.832  0.4527  2.1492  0.9231
 4985SOL    HW226418   1.030   1.357   6.885  2.1993 -0.6553  0.3736
 4986SOL     OW26419   1.020   3.955   6.353 -0.4605 -0.0681  0.2418
 4986SOL    HW126420   0.961   3.888   6.317  0.0469 -0.8309  0.8395
 4986SOL    HW226421   0.967   3.985   6.427  0.8864  1.3008  0.6406
 4987SOL     OW26422   2.695   3.617   1.383 -0.0778  0.0870 -0.2983
 4987SOL    HW126423   2.722   3.644   1.471 -2.3753  0.8585  0.1482
 4987SOL    HW226424   2.625   3.681   1.374 -0.3543 -0.3586 -1.2856
 4988SOL     OW26425   2.247   2.312   6.300  0.4467  0.0336  0.2589
 4988SOL    HW126426   2.276   2.346   6.385 -0.0747  1.0224  0.0400
 4988SOL    HW226427   2.324   2.330   6.245 -1.0942  0.8543 -1.6207
 4989SOL     OW26428   2.592   4.486  13.604 -0.0274 -0.1592 -0.5986
 4989SOL    HW126429   2.681   4.472  13.571  0.6747  0.8156  0.8873
 4989SOL    HW226430   2.553   4.559  13.556  0.9838  0.3372 -0.6745
 4990SOL     OW26431   0.242   1.495   7.910 -0.1607 -0.2597 -0.1173
 4990SOL    HW126432   0.246   1.403   7.936  1.1039 -0.0796  0.3563
 4990SOL    HW226433   0.334   1.512   7.888  0.5367 -2.7617  0.9123
 4991SOL     OW26434   1.738   0.248   8.833 -0.0524  0.4324  0.1666
 4991SOL    HW126435   1.722   0.162   8.871  0.7424 -0.4651 -1.5574
 4991SOL    HW226436   1.651   0.282   8.811 -0.6374 -1.7110 -0.7546
 4992SOL     OW26437   2.046   3.394   8.125  0.1230 -0.1525 -0.2655
 4992SOL    HW126438   2.011   3.361   8.207 -0.5037 -0.1078 -0.5201
 4992SOL    HW226439   1.977   3.371   8.063 -0.4415 -1.7374  0.9688
 4993SOL     OW26440   1.952   3.285  14.413  0.5270  0.1050  0.1409
 4993SOL    HW126441   1.951   3.294  14.318  0.0321  0.1685  0.1497
 4993SOL    HW226442   2.044   3.289  14.438  0.3798  2.4144  0.2958
 4994SOL     OW26443   4.394   3.750   6.125 -0.1424 -0.2358  0.2342
 4994SOL    HW126444   4.454   3.676   6.115 -0.1451 -0.0177 -1.3535
 4994SOL    HW226445   4.455   3.823   6.121 -0.4742 -0.0648 -2.0317
 4995SOL     OW26446   3.532   1.436  16.008 -0.1979  0.1693 -0.2581
 4995SOL    HW126447   3.583   1.499  15.957 -1.2293 -0.2758 -1.8259
 4995SOL    HW226448   3.574   1.438  16.094  1.2521  0.7152 -0.9632
 4996SOL     OW26449   0.415   2.955  17.217  0.1217  0.0375  0.2522
 4996SOL    HW126450   0.377   2.980  17.302 -0.9262  1.9405 -0.7815
 4996SOL    HW226451   0.346   2.893  17.193 -0.4977  0.8116  0.0052
 4997SOL     OW26452   0.295   1.942   2.698  0.1523  0.2736  0.3670
 4997SOL    HW126453   0.230   1.996   2.743 -2.0905 -3.2337  1.3055
 4997SOL    HW226454   0.305   1.866   2.755 -2.0616  0.6824  1.3017
 4998SOL     OW26455   4.403   3.079   2.123  0.6081  0.3575 -0.4724
 4998SOL    HW126456   4.434   3.137   2.053  2.4181  0.6758  0.6080
 4998SOL    HW226457   4.398   3.135   2.200 -1.7151  1.6713 -1.5800
 4999SOL     OW26458   2.041   2.268  11.447 -0.1102 -0.5650 -0.1415
 4999SOL    HW126459   2.059   2.179  11.416  2.2802 -0.2207  0.2072
 4999SOL    HW226460   2.127   2.286  11.487 -0.9893 -0.2160  1.5928
 5000SOL     OW26461   4.219   1.139  17.047 -0.0619  0.0775  0.2929
 5000SOL    HW126462   4.186   1.108  17.131  2.2148  1.1494  1.5926
 5000SOL    HW226463   4.310   1.110  17.053  0.0004  0.5131  1.5056
 5001SOL     OW26464   1.455   1.149   8.651  0.1800 -0.2914  0.5186
 5001SOL    HW126465   1.455   1.203   8.572  1.8102  1.1539  1.4933
 5001SOL    HW226466   1.396   1.201   8.705  2.7048  2.5030  0.6028
 5002SOL     OW26467   3.069   1.211   2.898 -0.3803  0.3064 -0.2244
 5002SOL    HW126468   3.160   1.183   2.888 -0.6034 -1.0391  1.4620
 5002SOL    HW226469   3.027   1.128   2.881  1.5885 -1.0861  1.6525
 5003SOL     OW26470   2.413   1.971   7.211 -0.3893  0.2362 -0.1901
 5003SOL    HW126471   2.444   2.054   7.175  0.2919  0.3979  0.7748
 5003SOL    HW226472   2.442   1.982   7.301 -1.9051 -2.3617  0.6067
 5004SOL     OW26473   3.538   3.440   2.467  0.0003  0.2325  0.1404
 5004SOL    HW126474   3.447   3.466   2.449  0.1784  1.2914  0.7388
 5004SOL    HW226475   3.593   3.497   2.412 -0.8175  0.9607  0.0644
 5005SOL     OW26476   1.647   3.907  11.695  0.5140  0.1147 -0.4627
 5005SOL    HW126477   1.575   3.859  11.655  1.0268 -0.6493 -0.4609
 5005SOL    HW226478   1.686   3.848  11.759  0.5430 -0.6663 -1.2054
 5006SOL     OW26479   2.895   3.892   4.438 -0.2332 -0.2963  0.0848
 5006SOL    HW126480   2.846   3.831   4.383 -1.1104  1.2111 -0.8229
 5006SOL    HW226481   2.835   3.960   4.468 -1.7382 -0.1985 -3.1747
 5007SOL     OW26482   4.678   3.490  15.264 -0.4006 -0.4329  0.3158
 5007SOL    HW126483   4.594   3.533  15.251 -0.3653 -0.2454  0.7042
 5007SOL    HW226484   4.678   3.437  15.184  1.3007  2.1617 -1.3742
 5008SOL     OW26485   0.003   1.135  16.833  0.6097 -0.0044  0.7825
 5008SOL    HW126486   4.675   1.121  16.914  0.7997  3.8785  1.5833
 5008SOL    HW226487   4.653   1.124  16.772 -1.0128  2.2444  2.2990
 5009SOL     OW26488   3.234   3.337  13.020 -0.4887 -0.1033  0.6043
 5009SOL    HW126489   3.215   3.390  12.942  0.1898  0.4115  0.7881
 5009SOL    HW226490   3.234   3.249  12.982 -0.5121  0.7020 -1.2700
 5010SOL     OW26491   2.308   2.805   2.065 -0.0786  1.0960  0.1288
 5010SOL    HW126492   2.399   2.776   2.065  0.3749  2.5615  1.8458
 5010SOL    HW226493   2.315   2.861   2.141 -1.3187  0.7910  0.4698
 5011SOL     OW26494   3.058   4.417   5.582  0.0235 -0.0107  0.8310
 5011SOL    HW126495   3.100   4.396   5.665 -0.3924 -1.7762  0.5923
 5011SOL    HW226496   2.973   4.448   5.614 -0.8331  0.8496 -2.2475
 5012SOL     OW26497   4.182   4.552  12.797  0.2625 -0.2454  0.2744
 5012SOL    HW126498   4.224   4.617  12.854  0.6928 -1.3793  1.2452
 5012SOL    HW226499   4.127   4.609  12.743 -2.8082 -1.1621  2.4705
 5013SOL     OW26500   4.119   2.734   8.557 -0.2598 -0.8772 -0.4718
 5013SOL    HW126501   4.196   2.683   8.582 -1.1967 -2.2033 -0.2966
 5013SOL    HW226502   4.143   2.777   8.475 -3.5151  1.7226 -0.1119
 5014SOL     OW26503   0.436   3.025   6.881  0.4056 -0.1085 -0.6424
 5014SOL    HW126504   0.437   3.120   6.891  0.7300 -0.1061 -0.6899
 5014SOL    HW226505   0.346   3.016   6.850  0.4376  0.0520 -0.7868
 5015SOL     OW26506   0.330   4.305   8.596  0.4246  0.0987  0.3696
 5015SOL    HW126507   0.234   4.306   8.606  0.5683 -2.0041  1.7861
 5015SOL    HW226508   0.347   4.222   8.552 -1.3266  0.3809 -0.8641
 5016SOL     OW26509   0.214   2.247   3.579 -0.7024 -0.0930  0.4047
 5016SOL    HW126510   0.251   2.196   3.508  1.7128 -0.9169  2.2732
 5016SOL    HW226511   0.137   2.289   3.541 -0.5601  2.1535  2.5171
 5017SOL     OW26512   3.781   3.885   1.451  0.0612  0.1176  0.1370
 5017SOL    HW126513   3.687   3.906   1.445  0.6625  2.7378 -0.0194
 5017SOL    HW226514   3.785   3.863   1.544  0.2183 -0.3643  0.0161
 5018SOL     OW26515   1.862   0.688   6.364 -0.3004  0.3694 -0.4644
 5018SOL    HW126516   1.768   0.678   6.348 -0.2216 -0.1044 -0.6414
 5018SOL    HW226517   1.884   0.603   6.327  2.1006 -0.2070  2.2248
 5019SOL     OW26518   4.479   2.202   9.664  0.0523  0.1520  0.3659
 5019SOL    HW126519   4.526   2.159   9.735 -1.9402 -2.4031  0.1453
 5019SOL    HW226520   4.533   2.173   9.590 -1.5699 -1.8534 -0.0410
 5020SOL     OW26521   2.741   1.559   3.561  0.3516 -0.1294  0.4911
 5020SOL    HW126522   2.663   1.603   3.527  0.6089 -0.2376 -0.2369
 5020SOL    HW226523   2.798   1.635   3.568  0.2644 -0.3749  3.7159
 5021SOL     OW26524   1.243   3.819   6.567  0.4985 -0.0483 -0.1587
 5021SOL    HW126525   1.232   3.766   6.488 -0.8614  1.1326 -0.7645
 5021SOL    HW226526   1.233   3.906   6.528  1.2149  0.3247  0.4827
 5022SOL     OW26527   4.399   0.903  13.517  0.0924  0.7560 -0.7745
 5022SOL    HW126528   4.372   0.925  13.607  2.4535 -0.0011  0.1311
 5022SOL    HW226529   4.326   0.858  13.475 -1.2803  0.8016  1.5445
 5023SOL     OW26530   2.599   1.210   1.504  0.1335 -0.0585 -0.4042
 5023SOL    HW126531   2.537   1.184   1.572 -0.2223  0.2478 -0.6132
 5023SOL    HW226532   2.680   1.203   1.556  0.2147 -0.4749 -0.5850
 5024SOL     OW26533   2.432   2.182   5.830  0.1136  0.1073  0.5140
 5024SOL    HW126534   2.340   2.173   5.856  0.0274 -1.0363 -0.1615
 5024SOL    HW226535   2.481   2.110   5.869 -0.2086 -0.8118 -0.7610
 5025SOL     OW26536   1.883   3.309  10.194 -0.0210  0.0104  0.1781
 5025SOL    HW126537   1.875   3.222  10.155 -1.4578  0.4516 -0.4783
 5025SOL    HW226538   1.813   3.351  10.145 -0.5231 -1.7292 -0.5827
 5026SOL     OW26539   2.184   0.062  10.081  0.4237  0.7717 -0.1915
 5026SOL    HW126540   2.113   0.063  10.017  2.4557 -1.0514 -2.4733
 5026SOL    HW226541   2.251   0.014  10.032 -0.5347  0.2941 -1.0407
 5027SOL     OW26542   3.751   2.216   9.165  0.2487  0.4562  0.9070
 5027SOL    HW126543   3.816   2.261   9.111  1.8756 -1.4982  1.2037
 5027SOL    HW226544   3.739   2.138   9.110  1.1144  0.7915  0.2422
 5028SOL     OW26545   2.129   4.176   7.701 -0.3068 -0.3843 -0.1927
 5028SOL    HW126546   2.206   4.183   7.756  1.1386  3.4491 -2.7288
 5028SOL    HW226547   2.064   4.202   7.766  1.3299 -0.3267  1.3869
 5029SOL     OW26548   4.031   3.971  12.082  0.0461 -0.0775 -0.3988
 5029SOL    HW126549   4.052   4.023  12.159  0.3145  0.9915 -1.1953
 5029SOL    HW226550   4.087   4.012  12.016  2.0998 -1.5656  0.4106
 5030SOL     OW26551   3.169   1.529   3.494 -0.0944  0.1462  0.1057
 5030SOL    HW126552   3.142   1.442   3.464  0.4744  0.7165 -2.0168
 5030SOL    HW226553   3.095   1.575   3.455 -0.0850  0.6110  0.6402
 5031SOL     OW26554   2.309   2.132   4.739 -0.0362 -0.2226  0.0750
 5031SOL    HW126555   2.346   2.179   4.814  0.5204 -2.2994  1.1219
 5031SOL    HW226556   2.330   2.040   4.760  0.4320 -0.0859  0.2103
 5032SOL     OW26557   1.211   2.723  16.759 -0.3485 -0.2538 -0.0945
 5032SOL    HW126558   1.160   2.787  16.808 -1.5385 -1.2447 -0.0538
 5032SOL    HW226559   1.299   2.723  16.797 -0.9939  0.5519  1.3746
 5033SOL     OW26560   3.304   1.668   4.439 -0.0026 -0.0526  0.1808
 5033SOL    HW126561   3.221   1.627   4.416  0.0079 -0.0860  0.2025
 5033SOL    HW226562   3.272   1.753   4.470  0.8803 -0.5519  2.4634
 5034SOL     OW26563   1.330   2.830  11.854 -0.0881 -0.0547 -0.1047
 5034SOL    HW126564   1.276   2.870  11.921  1.6306 -0.4683  1.5191
 5034SOL    HW226565   1.335   2.745  11.897  2.1515  0.0446 -0.1999
 5035SOL     OW26566   1.415   1.829   6.540  0.7542  0.5228  0.3728
 5035SOL    HW126567   1.503   1.850   6.570  0.0398  2.1631  1.3329
 5035SOL    HW226568   1.425   1.738   6.513  2.2344  1.0004 -0.6839
 5036SOL     OW26569   0.887   0.387   8.491  0.5579 -0.4002  0.1185
 5036SOL    HW126570   0.813   0.391   8.553  1.3856 -0.5033  1.1215
 5036SOL    HW226571   0.951   0.451   8.521 -0.9070  1.2984 -0.4373
 5037SOL     OW26572   4.351   4.718   9.754  0.4179  0.0795 -0.6834
 5037SOL    HW126573   4.349   4.648   9.819  1.1965  0.5124 -0.1830
 5037SOL    HW226574   4.269   4.695   9.710 -1.0043  2.0032  0.9811
 5038SOL     OW26575   0.506   3.550   9.302 -0.1777 -0.1172  0.3500
 5038SOL    HW126576   0.539   3.460   9.297 -0.0568  0.0020 -0.9156
 5038SOL    HW226577   0.490   3.549   9.397 -0.8699  1.1992  0.2418
 5039SOL     OW26578   2.280   2.103   4.091 -0.0253  0.2647 -0.3384
 5039SOL    HW126579   2.203   2.137   4.045 -0.3871  1.2645  1.0257
 5039SOL    HW226580   2.297   2.025   4.038  0.2183  0.4128 -0.4761
 5040SOL     OW26581   0.936   4.437   5.256  0.1782  0.1194 -0.4549
 5040SOL    HW126582   1.026   4.470   5.259  0.9387 -1.9650 -0.4028
 5040SOL    HW226583   0.882   4.514   5.267 -1.0470 -0.6856 -0.8008
 5041SOL     OW26584   0.670   0.047   3.447  0.3682  0.1286 -0.5521
 5041SOL    HW126585   0.667   0.077   3.356  0.3864 -0.6912 -0.8242
 5041SOL    HW226586   0.679   0.127   3.499  0.4264  1.4244 -2.5198
 5042SOL     OW26587   0.112   3.153   7.086  0.0033 -0.1185 -1.1712
 5042SOL    HW126588   0.158   3.155   7.169  0.2227 -3.9735 -1.1878
 5042SOL    HW226589   0.089   3.060   7.083  1.2311 -0.4790  0.7592
 5043SOL     OW26590   2.713   0.762   3.341  0.0586 -0.8776 -0.0243
 5043SOL    HW126591   2.730   0.732   3.430 -2.4444 -1.3285  0.2980
 5043SOL    HW226592   2.627   0.804   3.349  0.3985 -0.1583 -0.1104
 5044SOL     OW26593   2.636   1.108  17.027  0.3309  0.2085 -0.3600
 5044SOL    HW126594   2.542   1.114  17.007  0.3782 -0.2299 -0.6846
 5044SOL    HW226595   2.636   1.076  17.117 -0.7986  0.3170 -0.3195
 5045SOL     OW26596   1.701   0.793   3.695  0.2401 -0.1694  0.3811
 5045SOL    HW126597   1.778   0.832   3.654 -0.4156  0.3235 -0.3662
 5045SOL    HW226598   1.646   0.871   3.698 -0.2613 -0.4864 -0.6865
 5046SOL     OW26599   1.591   3.868   5.112  0.2863  0.1181 -0.4733
 5046SOL    HW126600   1.655   3.802   5.141  0.1281  0.4240  0.5444
 5046SOL    HW226601   1.518   3.810   5.089  1.4319 -1.4040 -0.3396
 5047SOL     OW26602   1.240   3.770   4.105 -0.6277  0.7691 -0.0003
 5047SOL    HW126603   1.329   3.804   4.110 -0.8937  1.3302  0.7897
 5047SOL    HW226604   1.262   3.677   4.106  0.6599  1.0848  0.5004
 5048SOL     OW26605   0.873   2.622  13.556  0.0527 -0.4606  0.0416
 5048SOL    HW126606   0.913   2.694  13.509  1.6390 -1.6274 -0.3944
 5048SOL    HW226607   0.779   2.640  13.561 -0.0900 -0.8988 -1.1010
 5049SOL     OW26608   2.394   1.212   6.866  0.3534 -0.2933  0.1608
 5049SOL    HW126609   2.326   1.253   6.920  0.8599 -0.8505  1.2283
 5049SOL    HW226610   2.391   1.248   6.778  1.7248 -1.7952 -0.4927
 5050SOL     OW26611   2.851   1.863   6.636  0.1421  0.3360  0.1038
 5050SOL    HW126612   2.839   1.837   6.727  0.2455 -1.1606 -0.3202
 5050SOL    HW226613   2.789   1.806   6.590  0.5888 -0.3353  0.3531
 5051SOL     OW26614   0.967   0.793   2.871 -0.0582  0.2324  0.3410
 5051SOL    HW126615   0.986   0.792   2.777  0.2148 -1.1067  0.4074
 5051SOL    HW226616   0.948   0.700   2.881  2.4092 -0.2636  0.5148
 5052SOL     OW26617   4.426   3.091   6.974 -0.1496 -0.0779  0.1563
 5052SOL    HW126618   4.335   3.075   7.001  0.0832  0.2881  1.1597
 5052SOL    HW226619   4.439   3.138   7.056 -0.6555 -0.3938  0.4207
 5053SOL     OW26620   0.479   4.024   6.428  0.1578 -0.1954  0.5621
 5053SOL    HW126621   0.562   4.065   6.405 -1.5114  2.0757 -1.4094
 5053SOL    HW226622   0.488   4.006   6.521  0.0734  0.9419  0.7864
 5054SOL     OW26623   4.013   3.203   5.916  0.8079  0.3160  1.1686
 5054SOL    HW126624   4.018   3.123   5.967  3.0241 -0.8505 -0.8737
 5054SOL    HW226625   3.963   3.254   5.979  1.0792 -1.0209  2.4495
 5055SOL     OW26626   2.836   0.765   4.481 -0.0451 -0.1661 -0.0079
 5055SOL    HW126627   2.810   0.852   4.453 -0.2972 -0.8008 -1.7296
 5055SOL    HW226628   2.927   0.774   4.508  0.2242 -2.2073 -0.2230
 5056SOL     OW26629   0.956   3.481   4.647 -0.0209 -0.4373 -0.0343
 5056SOL    HW126630   0.990   3.559   4.603  1.6372 -0.2368  1.5917
 5056SOL    HW226631   1.022   3.426   4.605  1.2412 -0.3846  1.8832
 5057SOL     OW26632   1.353   2.271   2.933 -0.6200 -0.5504 -0.6835
 5057SOL    HW126633   1.436   2.312   2.958 -1.1902 -0.0300  0.3629
 5057SOL    HW226634   1.384   2.193   2.886 -1.9701 -0.8130 -1.1452
 5058SOL     OW26635   3.622   0.691   0.016 -0.3514  0.3489 -0.1184
 5058SOL    HW126636   3.569   0.692  17.626 -1.3068 -0.7344  0.4920
 5058SOL    HW226637   3.711   0.702  17.673 -0.3119  0.9699  0.2100
 5059SOL     OW26638   4.174   0.143   8.761  0.1232  0.7052 -0.0552
 5059SOL    HW126639   4.147   0.052   8.748 -1.4336  1.1950 -0.2595
 5059SOL    HW226640   4.265   0.133   8.788 -0.5120 -0.1116  1.7562
 5060SOL     OW26641   4.181   2.081   2.984  0.0388 -0.0010  0.3570
 5060SOL    HW126642   4.159   2.008   2.927  1.4066 -2.4724  2.9994
 5060SOL    HW226643   4.189   2.149   2.917 -1.0676 -1.3414 -1.1461
 5061SOL     OW26644   0.146   4.411   9.794 -0.2743  0.2175  0.0069
 5061SOL    HW126645   0.173   4.352   9.864 -1.3523 -1.3616 -0.9253
 5061SOL    HW226646   0.180   4.359   9.722  1.1489  0.4792  0.4829
 5062SOL     OW26647   0.111   0.993  13.614  0.2533 -0.4392  0.2252
 5062SOL    HW126648   0.089   1.086  13.624  0.2051 -0.2691 -1.3359
 5062SOL    HW226649   0.174   0.997  13.542  0.3847  1.9991  0.4628
 5063SOL     OW26650   4.014   2.150   6.801  0.2405  0.2682 -0.0410
 5063SOL    HW126651   3.938   2.092   6.811  1.2486 -1.2033 -1.0040
 5063SOL    HW226652   3.974   2.231   6.834  0.8604  1.0913 -1.2877
 5064SOL     OW26653   4.654   2.911   8.678 -0.2034  0.3949 -0.5528
 5064SOL    HW126654   4.630   2.841   8.617  0.9573  0.4736 -1.0987
 5064SOL    HW226655   4.571   2.953   8.703 -1.5117 -1.3659 -1.8735
 5065SOL     OW26656   4.508   3.533   2.997 -0.3986 -0.0030  0.0344
 5065SOL    HW126657   4.598   3.530   3.030 -0.9311 -2.0654  1.2709
 5065SOL    HW226658   4.512   3.458   2.938 -0.2566  0.2019 -0.2177
 5066SOL     OW26659   4.474   2.457  12.258  0.2051 -0.2547  0.2628
 5066SOL    HW126660   4.454   2.492  12.345  1.4531  1.7334 -0.2629
 5066SOL    HW226661   4.537   2.386  12.274 -0.7505 -0.6517  2.3456
 5067SOL     OW26662   3.180   1.966  14.051  0.8357  0.7010  0.2276
 5067SOL    HW126663   3.105   1.956  13.993 -0.2013 -4.2994  2.4093
 5067SOL    HW226664   3.144   1.965  14.139 -1.8621  0.8763 -0.8713
 5068SOL     OW26665   0.818   3.062   5.323  0.3229  0.5069  0.0165
 5068SOL    HW126666   0.776   3.134   5.370 -2.0870 -0.4093 -0.7582
 5068SOL    HW226667   0.903   3.074   5.366  1.6537 -0.3609 -2.3614
 5069SOL     OW26668   0.760   0.290  10.649 -0.2103 -0.4371 -0.1981
 5069SOL    HW126669   0.712   0.336  10.718 -1.1220 -0.0486 -1.1005
 5069SOL    HW226670   0.720   0.320  10.568 -1.5163  0.2879  0.7272
 5070SOL     OW26671   2.420   3.745  10.204 -0.2391 -0.6919 -0.2513
 5070SOL    HW126672   2.442   3.745  10.298 -1.4295 -1.0873  0.0213
 5070SOL    HW226673   2.493   3.795  10.167 -0.0597  1.0028  2.3320
 5071SOL     OW26674   0.872   1.649   1.135 -0.4344  0.5074 -1.2150
 5071SOL    HW126675   0.965   1.647   1.158 -0.4657 -0.3513 -1.1364
 5071SOL    HW226676   0.824   1.601   1.203 -0.6373 -1.5529 -2.7840
 5072SOL     OW26677   1.377   4.435   3.590  0.3654 -0.4654  0.3613
 5072SOL    HW126678   1.319   4.361   3.605 -0.8310  1.0677  3.2002
 5072SOL    HW226679   1.429   4.396   3.519  3.2760  0.8184  1.7894
 5073SOL     OW26680   3.502   0.992   7.195  0.3615  0.4861  0.3654
 5073SOL    HW126681   3.561   1.050   7.242  1.7166  0.0327 -0.7776
 5073SOL    HW226682   3.472   0.939   7.269 -0.9564  0.9460  0.1658
 5074SOL     OW26683   2.669   0.393   1.941 -0.2989 -0.2411  0.0020
 5074SOL    HW126684   2.596   0.443   1.905 -0.8277 -0.1828  1.1854
 5074SOL    HW226685   2.744   0.444   1.909 -0.4194 -0.4563 -0.6381
 5075SOL     OW26686   4.268   2.312  14.364  0.2453  0.3545 -0.3834
 5075SOL    HW126687   4.306   2.361  14.292  1.8052  0.3902  0.4650
 5075SOL    HW226688   4.211   2.385  14.387  1.1590  1.0528 -0.3318
 5076SOL     OW26689   4.234   3.850   3.529  0.4781  0.3660  0.8767
 5076SOL    HW126690   4.317   3.853   3.578  1.6629  0.0727 -1.1148
 5076SOL    HW226691   4.188   3.918   3.578 -0.2556  0.0682  0.5956
 5077SOL     OW26692   2.799   2.138   9.896 -0.0894  1.0166 -0.1967
 5077SOL    HW126693   2.844   2.205   9.947 -0.0849  1.3624 -0.6559
 5077SOL    HW226694   2.759   2.094   9.971 -0.2380 -0.9481 -1.4097
 5078SOL     OW26695   4.072   2.709   4.179 -0.4496  0.3547  0.3872
 5078SOL    HW126696   4.079   2.614   4.169  0.6185  0.1968  2.4808
 5078SOL    HW226697   4.140   2.731   4.244 -0.0607  0.7742 -0.1705
 5079SOL     OW26698   1.835   4.673  16.043  0.0173 -0.7039 -0.4342
 5079SOL    HW126699   1.765   4.644  16.102  1.2796 -4.4820 -0.8221
 5079SOL    HW226700   1.874   4.589  16.021  0.9392 -0.9925  2.3374
 5080SOL     OW26701   2.433   3.701   5.167 -0.2815 -0.0401  0.2386
 5080SOL    HW126702   2.439   3.656   5.083 -0.4453 -1.0351  0.7549
 5080SOL    HW226703   2.353   3.661   5.202 -0.3765  0.4910  0.6276
 5081SOL     OW26704   2.888   0.735   1.721  0.3690  0.0510  0.4346
 5081SOL    HW126705   2.802   0.767   1.749 -0.3120 -1.5137  0.1733
 5081SOL    HW226706   2.886   0.664   1.786  1.2549 -0.8480 -0.5254
 5082SOL     OW26707   2.751   2.731   4.687 -0.5937 -0.2284 -0.2831
 5082SOL    HW126708   2.823   2.793   4.678 -0.8519  0.3814  1.8974
 5082SOL    HW226709   2.677   2.791   4.685 -0.7254 -0.3464  1.6585
 5083SOL     OW26710   0.185   1.513   8.842 -0.5141 -0.2157  0.3053
 5083SOL    HW126711   0.132   1.437   8.865 -0.6351  0.0288  0.8410
 5083SOL    HW226712   0.249   1.503   8.913  0.9393 -1.1573 -1.1355
 5084SOL     OW26713   0.934   2.890   7.877 -0.4351  0.2111  0.4375
 5084SOL    HW126714   0.946   2.922   7.966  3.3043  1.1224 -0.4200
 5084SOL    HW226715   0.945   2.796   7.891  1.1326  0.7607  2.8020
 5085SOL     OW26716   3.761   2.779   3.227  0.2071 -0.1221  0.4063
 5085SOL    HW126717   3.798   2.716   3.288  0.9595  0.5482  0.6360
 5085SOL    HW226718   3.696   2.730   3.177 -0.1137 -0.4456  1.1334
 5086SOL     OW26719   3.719   4.205  15.778 -0.0386  0.3718 -0.0700
 5086SOL    HW126720   3.781   4.140  15.745  1.8647  1.3485  1.5823
 5086SOL    HW226721   3.726   4.199  15.873  0.6380  0.7614 -0.0905
 5087SOL     OW26722   4.484   2.877  16.384  0.7140  0.5405 -0.2635
 5087SOL    HW126723   4.486   2.876  16.288  1.9891  0.6702 -0.2457
 5087SOL    HW226724   4.553   2.930  16.424  1.8508 -0.6946 -0.5737
 5088SOL     OW26725   1.963   1.377  13.257  0.0829  0.0066  0.5080
 5088SOL    HW126726   2.000   1.461  13.286 -1.0024  0.1000  1.6108
 5088SOL    HW226727   2.007   1.351  13.176 -0.3772  1.3228 -0.1680
 5089SOL     OW26728   2.554   3.904   2.811  0.5342  0.4661 -0.7249
 5089SOL    HW126729   2.460   3.887   2.816  0.3373  1.2325 -1.9399
 5089SOL    HW226730   2.590   3.815   2.814 -0.0572  0.2710  0.7166
 5090SOL     OW26731   0.078   4.376   1.460 -0.2001  0.0231 -0.0753
 5090SOL    HW126732   0.147   4.384   1.526 -0.5409  0.5477  0.2118
 5090SOL    HW226733   0.013   4.318   1.498  0.7145 -2.4766 -2.2549
 5091SOL     OW26734   2.638   2.907   8.166 -0.0725 -0.0021 -0.1880
 5091SOL    HW126735   2.730   2.920   8.192  0.1701  0.1005 -1.1108
 5091SOL    HW226736   2.617   2.837   8.228 -1.1331  1.2985  0.9343
 5092SOL     OW26737   0.831   2.265   2.095  0.0014  0.2067  0.1857
 5092SOL    HW126738   0.847   2.357   2.078  1.6321  0.3959  2.8053
 5092SOL    HW226739   0.806   2.264   2.188 -0.1132  0.9396  0.1598
 5093SOL     OW26740   3.144   0.357  13.186  0.5715  0.1404  0.4242
 5093SOL    HW126741   3.122   0.384  13.275 -1.5186  1.8517 -0.6359
 5093SOL    HW226742   3.062   0.313  13.163  2.0091 -2.2083 -0.2113
 5094SOL     OW26743   4.460   2.407  13.197  0.3459  0.6178 -0.0098
 5094SOL    HW126744   4.537   2.351  13.200  0.3523  0.5966 -0.5128
 5094SOL    HW226745   4.429   2.406  13.106 -0.2278 -1.0690  0.2157
 5095SOL     OW26746   2.398   3.226   8.729 -0.0978  0.6723  0.5594
 5095SOL    HW126747   2.426   3.283   8.800 -1.3712 -0.6072  2.0827
 5095SOL    HW226748   2.369   3.146   8.774  1.1538 -0.9620 -1.5185
 5096SOL     OW26749   2.822   0.695   7.205  0.0494 -0.5862  0.0256
 5096SOL    HW126750   2.798   0.758   7.137 -0.9714  0.1168  1.0371
 5096SOL    HW226751   2.761   0.723   7.274 -0.5247  0.4087 -0.8966
 5097SOL     OW26752   4.353   2.119   2.706 -0.4538 -0.0132  0.2362
 5097SOL    HW126753   4.337   2.191   2.767  1.1924 -0.1756  0.8720
 5097SOL    HW226754   4.448   2.109   2.704 -0.5166 -0.8546  1.0998
 5098SOL     OW26755   4.438   4.352   3.751 -0.6107 -0.3123 -0.8569
 5098SOL    HW126756   4.389   4.364   3.832  1.3821 -0.8716  0.4316
 5098SOL    HW226757   4.523   4.377   3.787 -0.2952 -1.5752 -0.7240
 5099SOL     OW26758   3.530   1.239   8.653 -0.1985  0.1921  0.0526
 5099SOL    HW126759   3.620   1.217   8.678 -0.1613 -1.3718 -1.3802
 5099SOL    HW226760   3.510   1.168   8.591  0.9061 -0.7537  0.7682
 5100SOL     OW26761   4.624   1.666  14.463 -0.1183  0.2020 -0.2506
 5100SOL    HW126762   4.700   1.693  14.411  0.2523  1.3657  0.8827
 5100SOL    HW226763   4.554   1.695  14.404 -0.3575  2.0005  0.9176
 5101SOL     OW26764   2.758   3.803   1.614 -0.2904 -0.1136  0.4514
 5101SOL    HW126765   2.758   3.858   1.535 -1.2621 -0.0812  0.4699
 5101SOL    HW226766   2.722   3.858   1.683  0.5550 -0.0258  0.8185
 5102SOL     OW26767   3.623   3.594   9.398  0.3723 -0.3024 -0.5419
 5102SOL    HW126768   3.572   3.574   9.319 -2.6465 -1.0727  1.5967
 5102SOL    HW226769   3.606   3.687   9.413  0.6619 -0.0131 -1.9808
 5103SOL     OW26770   2.723   1.856   0.187 -0.0265 -0.0232  0.1008
 5103SOL    HW126771   2.668   1.809   0.124  3.1391  1.1271 -3.5306
 5103SOL    HW226772   2.793   1.895   0.135  0.0744 -0.0043  0.2522
 5104SOL     OW26773   4.651   0.257   9.207  0.7775 -0.0506 -0.3485
 5104SOL    HW126774   4.576   0.311   9.231 -0.1273 -1.1431 -0.6888
 5104SOL    HW226775   4.701   0.244   9.287  2.7007  2.7363 -1.1060
 5105SOL     OW26776   0.676   2.499  14.038  0.0406  0.7898 -0.5742
 5105SOL    HW126777   0.645   2.416  14.002 -0.4689  0.9008 -0.3859
 5105SOL    HW226778   0.656   2.555  13.963  1.3651  1.5259 -0.3696
 5106SOL     OW26779   0.499   2.568   1.277 -0.4966  0.3044 -0.0472
 5106SOL    HW126780   0.561   2.635   1.304 -0.6674 -0.7547  2.9434
 5106SOL    HW226781   0.529   2.547   1.188 -1.1042  1.6466 -0.5653
 5107SOL     OW26782   3.572   4.229  11.456  0.0360  0.5287 -0.1268
 5107SOL    HW126783   3.565   4.204  11.364 -2.2138 -2.3764  0.8370
 5107SOL    HW226784   3.656   4.273  11.472  0.2319 -0.2096  0.8822
 5108SOL     OW26785   2.352   2.934   8.175  0.6131  0.3935  0.1814
 5108SOL    HW126786   2.447   2.924   8.170  0.4015 -1.4340 -0.5755
 5108SOL    HW226787   2.328   2.913   8.085  0.2873  2.1618 -0.1372
 5109SOL     OW26788   2.464   4.322   5.906  0.1534 -0.3327 -1.1074
 5109SOL    HW126789   2.427   4.308   5.994  2.4063  1.1622  0.0826
 5109SOL    HW226790   2.425   4.407   5.886 -0.3462 -0.2526  0.1938
 5110SOL     OW26791   1.125   2.240   8.296 -0.0578 -0.7876 -0.1506
 5110SOL    HW126792   1.080   2.165   8.258  1.3212 -1.7893  0.1965
 5110SOL    HW226793   1.213   2.203   8.299  0.8498  1.4279  0.9727
 5111SOL     OW26794   2.270   3.228   1.781  0.1375  0.5799  0.2427
 5111SOL    HW126795   2.209   3.302   1.784 -1.4000 -0.4839 -4.4959
 5111SOL    HW226796   2.226   3.164   1.836 -0.2365 -0.8122 -1.6617
 5112SOL     OW26797   3.802   0.542   5.823 -0.3018 -0.2162 -0.0647
 5112SOL    HW126798   3.762   0.628   5.815 -0.7505 -0.1826  2.4670
 5112SOL    HW226799   3.865   0.556   5.894  0.9653 -0.6802 -1.0884
 5113SOL     OW26800   0.616   1.740   5.855  0.4811  0.2740 -0.2199
 5113SOL    HW126801   0.630   1.669   5.918 -1.6334 -1.2462 -1.4880
 5113SOL    HW226802   0.611   1.823   5.904  3.2334  0.2702  0.0562
 5114SOL     OW26803   1.989   2.215   7.210  0.0987 -0.2875  0.1683
 5114SOL    HW126804   2.049   2.277   7.251  0.7909 -1.0293  0.3064
 5114SOL    HW226805   2.032   2.130   7.226  0.5538 -0.5549 -2.5059
 5115SOL     OW26806   0.127   0.095   4.856 -0.1004  0.2521 -0.5040
 5115SOL    HW126807   0.175   0.093   4.939 -0.3648  1.2513 -0.3209
 5115SOL    HW226808   0.172   0.029   4.803  3.0086 -0.5190  3.1000
 5116SOL     OW26809   0.633   2.615  12.201 -0.4380 -0.6364 -0.5490
 5116SOL    HW126810   0.684   2.623  12.120 -2.4148 -0.4579 -1.7612
 5116SOL    HW226811   0.643   2.523  12.223 -1.7448 -0.5709  0.3213
 5117SOL     OW26812   4.374   3.316   6.062 -0.4788 -0.4602  0.0536
 5117SOL    HW126813   4.407   3.253   5.997 -0.9594 -0.5286 -0.1190
 5117SOL    HW226814   4.299   3.357   6.019  0.9112  2.9419  0.8987
 5118SOL     OW26815   0.379   0.495   6.415 -0.2355 -0.0410  0.5888
 5118SOL    HW126816   0.403   0.416   6.463  1.0281  0.3470  0.5877
 5118SOL    HW226817   0.461   0.543   6.416 -0.3959  0.2269  1.0399
 5119SOL     OW26818   2.125   1.126  10.463 -0.6111 -0.5818  0.5901
 5119SOL    HW126819   2.135   1.031  10.470  0.1875 -0.4626  1.0219
 5119SOL    HW226820   2.152   1.160  10.548 -0.6628  2.5220 -0.6129
 5120SOL     OW26821   1.912   0.804   7.628  0.3216 -0.3391  0.1283
 5120SOL    HW126822   2.006   0.819   7.618  0.4683 -1.3003  0.0452
 5120SOL    HW226823   1.898   0.805   7.723  1.8941 -0.3402  0.3723
 5121SOL     OW26824   1.410   1.354   2.646 -0.1434  0.3524  0.3071
 5121SOL    HW126825   1.486   1.373   2.592  0.2974  2.2241  1.5815
 5121SOL    HW226826   1.361   1.284   2.603  0.2916  0.0251  0.3463
 5122SOL     OW26827   0.880   0.743   4.876  0.6811 -0.2382  0.1831
 5122SOL    HW126828   0.805   0.802   4.871 -0.3237 -1.6933 -1.6825
 5122SOL    HW226829   0.930   0.789   4.943 -0.6929 -1.9799  2.4419
 5123SOL     OW26830   3.507   0.289  11.580  0.1050  0.0897  0.0069
 5123SOL    HW126831   3.439   0.310  11.644 -0.7871 -0.3381 -0.8055
 5123SOL    HW226832   3.547   0.216  11.627 -1.0484  0.4822  1.5942
 5124SOL     OW26833   0.960   2.570   6.615  0.2841  0.3261 -0.5727
 5124SOL    HW126834   0.885   2.591   6.671  0.4434 -0.8626  0.0855
 5124SOL    HW226835   1.034   2.598   6.669  1.1434 -1.9980 -0.5629
 5125SOL     OW26836   4.129   1.809   6.165 -0.2404  0.0071 -0.2550
 5125SOL    HW126837   4.217   1.777   6.149  0.6200  2.7012 -0.9962
 5125SOL    HW226838   4.085   1.729   6.194  1.9373 -0.2900  2.1624
 5126SOL     OW26839   1.082   1.552   3.696 -0.9956 -0.6390 -0.1467
 5126SOL    HW126840   1.155   1.564   3.756  0.3478  0.0903 -1.9262
 5126SOL    HW226841   1.071   1.636   3.651  0.8163  0.2131  1.0191
 5127SOL     OW26842   0.483   3.252   2.338 -0.0194 -0.4312 -0.5573
 5127SOL    HW126843   0.426   3.319   2.299  0.4056 -0.6525 -1.5788
 5127SOL    HW226844   0.439   3.170   2.318 -0.0588 -0.8936  1.4681
 5128SOL     OW26845   1.286   3.558   5.238 -0.1149  0.1688 -0.5583
 5128SOL    HW126846   1.299   3.595   5.151  1.0191 -0.2744 -0.5711
 5128SOL    HW226847   1.374   3.544   5.272 -0.3825  1.9020  0.8345
 5129SOL     OW26848   3.433   2.867   8.092  0.5423  0.3877  0.3030
 5129SOL    HW126849   3.525   2.878   8.066  0.1940 -0.1816 -1.1481
 5129SOL    HW226850   3.439   2.892   8.184  0.3889 -0.3027  0.5017
 5130SOL     OW26851   2.463   2.794   5.187  0.2610  0.3935 -0.4418
 5130SOL    HW126852   2.455   2.742   5.107 -0.4236  2.5398 -1.7549
 5130SOL    HW226853   2.553   2.827   5.192 -0.4163  2.0427  0.8336
 5131SOL     OW26854   2.228   1.718  16.463  0.2090  0.1986  0.6011
 5131SOL    HW126855   2.173   1.756  16.395  0.0423  0.8937  1.1224
 5131SOL    HW226856   2.253   1.793  16.516 -0.0198  0.9350 -0.3409
 5132SOL     OW26857   2.168   0.855   7.627 -0.0625 -0.2806 -0.0336
 5132SOL    HW126858   2.190   0.804   7.550 -1.5791  1.3730 -1.5502
 5132SOL    HW226859   2.250   0.905   7.625 -0.5604  0.4945 -1.0382
 5133SOL     OW26860   4.437   0.486   1.629 -0.0398 -0.0358 -0.0899
 5133SOL    HW126861   4.475   0.405   1.596  2.5165  0.7864  0.8727
 5133SOL    HW226862   4.344   0.477   1.606 -0.3232 -1.2295  1.5700
 5134SOL     OW26863   1.036   2.298   8.897 -0.3708 -0.0263 -0.0874
 5134SOL    HW126864   1.016   2.297   8.991  0.7854 -0.4101  0.1580
 5134SOL    HW226865   1.101   2.228   8.889 -0.5812 -0.0549 -1.4819
 5135SOL     OW26866   4.663   4.495   8.829 -0.1812 -0.0052 -0.8298
 5135SOL    HW126867   4.589   4.554   8.816  0.0005  0.3057 -0.4598
 5135SOL    HW226868   4.637   4.451   8.910  0.8089 -2.5666 -1.8937
 5136SOL     OW26869   4.003   4.587   4.076  0.1538 -0.2460  0.1457
 5136SOL    HW126870   4.036   4.510   4.122 -2.5573 -1.3166  0.2869
 5136SOL    HW226871   4.073   4.598   4.011 -1.5626  0.0822 -1.6529
 5137SOL     OW26872   2.069   4.638   8.951 -0.1109  0.7358  0.0788
 5137SOL    HW126873   2.152   4.648   8.998  0.8761  2.5874 -2.0721
 5137SOL    HW226874   2.046   0.009   8.960 -0.0330  0.5750  2.0304
 5138SOL     OW26875   0.475   4.584   3.489  0.4450  0.5161  0.0958
 5138SOL    HW126876   0.563   4.618   3.472  0.9556 -0.4811  0.7165
 5138SOL    HW226877   0.417   4.645   3.444 -0.9868 -0.5180  0.5327
 5139SOL     OW26878   4.570   3.539   6.105  0.5898 -0.0732 -0.6185
 5139SOL    HW126879   4.527   3.454   6.102  2.0397 -0.7975 -0.6862
 5139SOL    HW226880   4.662   3.515   6.120  0.1776 -1.2967 -0.1086
 5140SOL     OW26881   1.305   0.598  13.076 -0.6325 -0.2166  0.4303
 5140SOL    HW126882   1.381   0.610  13.133 -0.1309 -2.3218  0.1908
 5140SOL    HW226883   1.261   0.530  13.126  1.7131 -1.5248  0.6851
 5141SOL     OW26884   2.951   1.279   6.286 -0.4613 -0.2284  0.0450
 5141SOL    HW126885   2.858   1.292   6.266 -0.3526  1.3067  0.4916
 5141SOL    HW226886   2.945   1.301   6.379 -0.9215 -2.0605  0.4421
 5142SOL     OW26887   1.087   2.336   0.505  0.3652  0.6112 -0.0855
 5142SOL    HW126888   1.167   2.291   0.532  1.0496  3.1128  1.9605
 5142SOL    HW226889   1.115   2.423   0.532  0.1151  0.2439  1.3693
 5143SOL     OW26890   1.673   4.567  12.353 -0.2988  0.0706 -0.2835
 5143SOL    HW126891   1.739   4.603  12.294  0.6688  0.7129  1.2113
 5143SOL    HW226892   1.640   4.645  12.398  0.0548  0.0426  0.0278
 5144SOL     OW26893   1.998   1.859   1.750  0.0696 -0.0318  0.4364
 5144SOL    HW126894   2.039   1.815   1.677  0.0406  0.6404  0.0126
 5144SOL    HW226895   1.991   1.783   1.808  0.2473 -0.5226 -0.1992
 5145SOL     OW26896   3.775   4.052   5.153 -0.7722  0.2585 -0.1406
 5145SOL    HW126897   3.810   4.131   5.111  2.9706 -1.6325 -0.5198
 5145SOL    HW226898   3.848   4.036   5.212 -1.9446  0.0657  1.2582
 5146SOL     OW26899   2.491   3.852   4.242 -0.3006 -0.4158  0.0138
 5146SOL    HW126900   2.500   3.945   4.224  2.3049 -1.0463 -2.0206
 5146SOL    HW226901   2.575   3.808   4.228 -0.7371 -0.9901 -0.7769
 5147SOL     OW26902   1.539   0.834  10.055  0.6076  0.5649  0.2169
 5147SOL    HW126903   1.596   0.821   9.979  0.4540 -0.4977  0.2777
 5147SOL    HW226904   1.569   0.923  10.072 -0.0866  0.7999  0.2192
 5148SOL     OW26905   3.734   1.372  16.482  0.3213 -0.0596 -0.5595
 5148SOL    HW126906   3.804   1.362  16.417 -0.3823  1.8400 -1.5818
 5148SOL    HW226907   3.767   1.307  16.544  3.6999  0.4793 -1.7851
 5149SOL     OW26908   1.953   3.756   7.363  0.1071 -0.4132  0.3601
 5149SOL    HW126909   1.868   3.736   7.402 -0.0846 -1.7637 -0.7580
 5149SOL    HW226910   1.997   3.797   7.438 -0.0929  0.6836 -0.1265
 5150SOL     OW26911   1.988   1.984   0.200  1.0069 -0.3463  0.2672
 5150SOL    HW126912   2.073   2.028   0.190  1.3237 -0.8850  0.5593
 5150SOL    HW226913   1.948   2.040   0.266 -2.8294 -1.0271 -1.5022
 5151SOL     OW26914   0.429   1.475   6.534  0.4846  0.2821  0.1684
 5151SOL    HW126915   0.455   1.557   6.492 -1.1324  0.3240 -0.7333
 5151SOL    HW226916   0.338   1.465   6.505  0.6595  2.2787 -1.0921
 5152SOL     OW26917   0.944   4.015  10.386 -0.1344  0.3676 -0.4245
 5152SOL    HW126918   0.881   3.943  10.392 -0.7668  1.1498  2.5286
 5152SOL    HW226919   0.891   4.085  10.425  0.4912  1.6978 -1.9410
 5153SOL     OW26920   0.100   1.646  12.502  0.1699 -0.6798 -0.3070
 5153SOL    HW126921   0.109   1.641  12.597  0.9756  0.5312 -0.3226
 5153SOL    HW226922   0.138   1.731  12.480 -1.7166 -0.4618 -2.7365
 5154SOL     OW26923   2.093   3.005  15.147  0.1696 -0.0842 -0.5321
 5154SOL    HW126924   2.161   2.969  15.204 -1.2082 -1.7868  0.0615
 5154SOL    HW226925   2.055   3.057  15.218  1.2108 -2.3787  1.7082
 5155SOL     OW26926   2.920   2.250  16.899 -0.0895 -0.1475 -0.1620
 5155SOL    HW126927   2.884   2.209  16.977  0.1923 -0.7161 -0.3345
 5155SOL    HW226928   2.875   2.334  16.905  0.4453 -0.0051  2.0643
 5156SOL     OW26929   2.316   3.733   4.813 -0.2278  0.3037 -0.0838
 5156SOL    HW126930   2.339   3.652   4.858 -0.5898  0.1784 -0.1221
 5156SOL    HW226931   2.224   3.736   4.840 -0.7654  1.1623 -1.9924
 5157SOL     OW26932   1.682   0.629  14.299  0.1291  0.5746  0.2087
 5157SOL    HW126933   1.642   0.710  14.266 -1.6547 -1.2011 -2.0609
 5157SOL    HW226934   1.707   0.593  14.213  0.4086  0.7006  0.2369
 5158SOL     OW26935   3.619   0.725   9.771  0.4192 -0.1581  0.2722
 5158SOL    HW126936   3.564   0.658   9.810  0.7537  0.4106  1.7274
 5158SOL    HW226937   3.630   0.786   9.844 -1.5852  0.0987  0.3479
 5159SOL     OW26938   1.739   0.222   2.611  0.0020  0.2092 -0.1457
 5159SOL    HW126939   1.790   0.142   2.594  2.6754  1.7818  0.5178
 5159SOL    HW226940   1.687   0.222   2.530 -2.2265 -1.7247  1.2834
 5160SOL     OW26941   0.161   2.247   4.630 -0.1390  0.2247  0.5325
 5160SOL    HW126942   0.070   2.219   4.641  0.1822 -1.0991 -0.2133
 5160SOL    HW226943   0.205   2.203   4.703 -0.9587 -0.8049  0.4205
 5161SOL     OW26944   3.122   4.201   2.393 -0.3657 -0.3347 -0.1737
 5161SOL    HW126945   3.044   4.256   2.399  0.8944  1.4143  0.1727
 5161SOL    HW226946   3.175   4.250   2.455 -1.1270  0.1039  0.1328
 5162SOL     OW26947   1.743   0.933   6.679  0.2745  0.2933 -0.6998
 5162SOL    HW126948   1.671   0.881   6.716 -1.0498  2.1062 -0.7371
 5162SOL    HW226949   1.813   0.867   6.685 -1.5781 -1.4760  1.5213
 5163SOL     OW26950   1.519   0.490  10.378  0.5048 -0.1821  0.0653
 5163SOL    HW126951   1.431   0.521  10.399 -0.3550 -1.6641 -1.3840
 5163SOL    HW226952   1.564   0.562  10.333 -0.9273  0.7452  0.1250
 5164SOL     OW26953   1.851   0.386   3.734 -0.4106  0.0446 -0.1832
 5164SOL    HW126954   1.916   0.453   3.757 -1.7924  1.3726 -0.1794
 5164SOL    HW226955   1.796   0.429   3.668 -0.6904 -0.1066 -0.0457
 5165SOL     OW26956   3.599   0.184   3.006 -0.2436  0.1819 -0.0977
 5165SOL    HW126957   3.508   0.195   2.978 -0.7741 -2.4714  0.5809
 5165SOL    HW226958   3.604   0.099   3.049  0.0903 -0.1841 -0.8806
 5166SOL     OW26959   2.768   1.549  16.026  0.0790 -0.1544 -0.0712
 5166SOL    HW126960   2.789   1.460  16.053  0.4473 -0.5093 -1.5164
 5166SOL    HW226961   2.695   1.566  16.086  0.4137  1.6009 -0.1525
 5167SOL     OW26962   2.624   1.959   5.417  0.0404  0.0643 -0.1788
 5167SOL    HW126963   2.573   1.932   5.341  2.9325 -2.1537 -1.3198
 5167SOL    HW226964   2.634   2.053   5.401 -4.2817  0.5976  0.2158
 5168SOL     OW26965   1.976   2.020   3.823  0.4927 -0.2376 -0.4527
 5168SOL    HW126966   1.991   2.110   3.853 -2.1883 -0.9927  3.1439
 5168SOL    HW226967   1.894   2.021   3.773 -0.8590 -0.1650  1.7715
 5169SOL     OW26968   1.049   3.777   0.263 -0.4265  0.3859 -0.7546
 5169SOL    HW126969   0.954   3.778   0.259 -0.5603  3.5077  2.9694
 5169SOL    HW226970   1.072   3.693   0.223  1.1939  1.1021 -1.3486
 5170SOL     OW26971   1.626   4.640   9.391 -0.4305 -0.1503  0.4485
 5170SOL    HW126972   1.720   4.640   9.413 -0.8346  0.7925  2.1771
 5170SOL    HW226973   1.592   4.647   9.480  0.6820 -1.4771  0.9873
 5171SOL     OW26974   1.080   1.579   5.603  0.3088 -0.8799  0.0419
 5171SOL    HW126975   1.096   1.501   5.656 -3.5459 -2.0245 -0.5115
 5171SOL    HW226976   1.087   1.645   5.673  0.6920  0.8228 -1.5968
 5172SOL     OW26977   2.749   1.221   7.557 -0.0646 -0.7303  0.4800
 5172SOL    HW126978   2.827   1.274   7.541 -0.8325 -0.0029 -0.7522
 5172SOL    HW226979   2.714   1.252   7.641  0.4436  2.6430 -0.5454
 5173SOL     OW26980   2.836   3.081  13.857 -0.1781 -0.1537  0.8838
 5173SOL    HW126981   2.768   3.022  13.825  0.3255 -0.9645  1.3248
 5173SOL    HW226982   2.830   3.067  13.952 -1.2966  1.6143  1.0944
 5174SOL     OW26983   0.996   4.019   7.535  0.1956 -0.2412  0.6574
 5174SOL    HW126984   0.996   4.070   7.616 -1.2492  0.2378  0.3503
 5174SOL    HW226985   0.926   4.066   7.490  1.3913  1.5810  0.7437
 5175SOL     OW26986   1.781   1.648   3.193 -0.2229 -0.1756 -0.0999
 5175SOL    HW126987   1.739   1.687   3.116 -0.4315  0.9339  0.5867
 5175SOL    HW226988   1.799   1.559   3.161  0.4747  0.3935 -1.2842
 5176SOL     OW26989   3.338   0.563   6.701  0.7235 -0.6949  0.2638
 5176SOL    HW126990   3.351   0.492   6.638 -0.7054 -1.3205  0.6848
 5176SOL    HW226991   3.376   0.628   6.643  2.6150 -1.8024  0.2376
 5177SOL     OW26992   1.686   2.099   7.337  0.4033  0.8738  0.3119
 5177SOL    HW126993   1.648   2.186   7.349 -3.1094 -0.3491 -1.6533
 5177SOL    HW226994   1.774   2.115   7.304  1.3475 -1.0375  1.9437
 5178SOL     OW26995   4.093   0.868   1.120  0.1528  0.0341 -0.3822
 5178SOL    HW126996   4.140   0.821   1.188 -0.3863  0.0014 -0.0321
 5178SOL    HW226997   4.157   0.932   1.091  0.4366 -0.6208 -1.1862
 5179SOL     OW26998   2.024   1.635  13.306 -0.0903  0.0857  0.2918
 5179SOL    HW126999   2.079   1.706  13.337 -0.0337  0.2058 -0.0849
 5179SOL    HW227000   1.976   1.672  13.232  0.7398 -0.5637 -0.5760
 5180SOL     OW27001   2.211   0.278   3.221 -0.1455 -0.1885  0.3254
 5180SOL    HW127002   2.248   0.208   3.166  0.8936  1.9678 -1.7072
 5180SOL    HW227003   2.215   0.352   3.160  0.8204 -1.3460 -1.0390
 5181SOL     OW27004   4.046   1.694   9.816 -0.2716 -0.0954  0.2481
 5181SOL    HW127005   3.992   1.621   9.786  0.1499  0.7231 -2.5273
 5181SOL    HW227006   4.055   1.752   9.740 -2.2416  0.6256  0.5685
 5182SOL     OW27007   1.117   1.294   7.078  0.0487 -0.0921  0.2614
 5182SOL    HW127008   1.093   1.283   7.170 -0.4564  0.3380  0.1786
 5182SOL    HW227009   1.203   1.331   7.095  0.4868 -0.0910 -1.9709
 5183SOL     OW27010   2.627   2.028   6.795 -0.0968  1.1369  0.1744
 5183SOL    HW127011   2.620   1.955   6.857 -0.4572  2.1608  1.3316
 5183SOL    HW227012   2.588   1.996   6.714 -0.7675  0.8186  0.6179
 5184SOL     OW27013   1.346   1.170   9.446 -0.2819  0.2051  0.0800
 5184SOL    HW127014   1.316   1.253   9.481  0.7038 -0.2580  2.0169
 5184SOL    HW227015   1.265   1.142   9.403  0.0158  1.9816 -1.6035
 5185SOL     OW27016   1.815   2.798  10.043 -0.2603 -0.2427  0.2357
 5185SOL    HW127017   1.750   2.728  10.050 -1.3363  0.8463  1.2919
 5185SOL    HW227018   1.794   2.829   9.955 -0.4964  0.5170  0.5587
 5186SOL     OW27019   1.163   1.696   1.437  0.1544 -0.1567  0.1732
 5186SOL    HW127020   1.115   1.779   1.427  1.6888  0.4022 -2.5228
 5186SOL    HW227021   1.242   1.722   1.484  1.6857  0.1483 -2.5762
 5187SOL     OW27022   3.513   4.200   0.905  0.1707 -0.1659  0.5285
 5187SOL    HW127023   3.583   4.172   0.965  0.0242 -2.3569 -0.3526
 5187SOL    HW227024   3.543   4.162   0.822 -0.6258  2.1153 -0.7984
 5188SOL     OW27025   1.752   0.899  14.059  0.1306  0.1497 -0.1731
 5188SOL    HW127026   1.665   0.896  14.098  0.1110  0.1030 -0.2214
 5188SOL    HW227027   1.741   0.815  14.015 -1.4743  0.8903 -1.1858
 5189SOL     OW27028   2.034   1.862   7.800 -0.1212 -0.2302 -0.1400
 5189SOL    HW127029   2.102   1.929   7.805 -0.0803 -0.2862  0.0168
 5189SOL    HW227030   1.963   1.913   7.761  1.0706  1.2052 -0.4461
 5190SOL     OW27031   0.334   2.932   4.800  0.1407 -0.3158 -0.5453
 5190SOL    HW127032   0.411   2.902   4.847 -0.1540 -1.1854 -0.6205
 5190SOL    HW227033   0.372   2.966   4.719  0.7717 -1.0056 -0.5300
 5191SOL     OW27034   0.557   1.019   5.075 -0.1258  0.5129  0.3725
 5191SOL    HW127035   0.549   0.948   5.138  0.6943  1.4859  1.5693
 5191SOL    HW227036   0.465   1.028   5.049 -0.2111 -3.2970 -0.7171
 5192SOL     OW27037   0.897   2.893   3.227  0.2613  0.0954 -0.0805
 5192SOL    HW127038   0.961   2.830   3.260  0.4393 -0.4485 -1.4374
 5192SOL    HW227039   0.812   2.862   3.258 -0.2553  1.0843 -0.5157
 5193SOL     OW27040   3.250   2.753  13.893  0.5656  0.4143  0.2273
 5193SOL    HW127041   3.178   2.709  13.937  0.0255 -1.1240 -2.2271
 5193SOL    HW227042   3.302   2.685  13.850  1.0180 -0.0633  1.5416
 5194SOL     OW27043   4.405   0.824  17.353 -0.0732  0.0101 -0.1504
 5194SOL    HW127044   4.377   0.887  17.286  0.7353  0.5821  0.0464
 5194SOL    HW227045   4.465   0.880  17.403 -0.9143 -0.2638  1.1761
 5195SOL     OW27046   2.107   0.959   1.245 -0.1570 -0.3904 -0.3622
 5195SOL    HW127047   2.020   0.940   1.211 -0.4929  0.3650  0.0815
 5195SOL    HW227048   2.096   0.977   1.338 -1.7963  0.1729 -0.6693
 5196SOL     OW27049   2.879   3.884   5.734 -0.1545  0.2963 -0.0628
 5196SOL    HW127050   2.924   3.924   5.808 -0.1335  0.6128 -0.2433
 5196SOL    HW227051   2.789   3.884   5.767 -0.3783 -0.4027 -0.6792
 5197SOL     OW27052   4.168   3.630   7.727 -0.0519  0.2315 -0.2699
 5197SOL    HW127053   4.178   3.562   7.661 -3.2350  0.2685 -0.7944
 5197SOL    HW227054   4.154   3.708   7.673  0.7426  1.0485  0.6984
 5198SOL     OW27055   3.993   1.628   5.037  0.0353  0.3135 -0.8783
 5198SOL    HW127056   4.075   1.582   5.056 -0.1825  1.5512  3.0038
 5198SOL    HW227057   4.010   1.691   4.967  4.0953 -0.8271 -0.8977
 5199SOL     OW27058   3.370   3.063  12.660  0.5306  0.2167 -0.1225
 5199SOL    HW127059   3.275   3.073  12.651  0.4073 -1.7382 -0.8278
 5199SOL    HW227060   3.400   3.152  12.682 -0.0919  0.1248  1.0882
 5200SOL     OW27061   1.471   3.430  16.368  0.5285 -0.2277 -0.0323
 5200SOL    HW127062   1.489   3.473  16.284 -1.0913  1.4473  0.4830
 5200SOL    HW227063   1.547   3.454  16.422  0.5238 -1.3995  0.4862
 5201SOL     OW27064   4.557   0.189   4.843 -0.3305 -0.0775 -0.2120
 5201SOL    HW127065   4.577   0.221   4.931  2.9437 -0.8340 -0.6729
 5201SOL    HW227066   4.649   0.179   4.817 -0.1377 -2.1001  1.2088
 5202SOL     OW27067   0.689   0.275  13.932 -0.1612  0.7397 -0.6364
 5202SOL    HW127068   0.721   0.334  13.864 -1.3437 -0.9237 -2.6141
 5202SOL    HW227069   0.597   0.267  13.908 -0.1420 -2.7013  0.3606
 5203SOL     OW27070   2.091   4.396  12.146 -0.3354 -0.3416 -0.3399
 5203SOL    HW127071   2.071   4.489  12.161  0.3306 -0.4712  1.3371
 5203SOL    HW227072   2.028   4.366  12.080 -0.5309  1.1861 -0.8540
 5204SOL     OW27073   4.130   2.611   7.796  0.2366  0.0991 -0.4019
 5204SOL    HW127074   4.194   2.544   7.769  0.5002  0.1086  0.2065
 5204SOL    HW227075   4.053   2.571   7.755 -1.1628  1.8797  0.5327
 5205SOL     OW27076   1.879   0.109   7.613 -0.0111 -0.0159  0.0979
 5205SOL    HW127077   1.847   0.070   7.694 -0.8232 -0.4110 -0.4190
 5205SOL    HW227078   1.853   0.200   7.630 -1.8309 -0.5938  0.3703
 5206SOL     OW27079   4.236   3.301   6.531  0.5459 -0.0451  0.5725
 5206SOL    HW127080   4.306   3.300   6.467 -1.5208 -2.8695 -1.6363
 5206SOL    HW227081   4.236   3.209   6.557  2.2269 -0.2328 -0.1420
 5207SOL     OW27082   1.591   1.865   9.271  0.2748  0.6608  0.1104
 5207SOL    HW127083   1.562   1.867   9.362 -1.5642  2.3557 -0.5079
 5207SOL    HW227084   1.652   1.938   9.269 -0.0191  0.9229  0.7050
 5208SOL     OW27085   2.737   1.354  17.076  0.0315 -0.3379  0.0757
 5208SOL    HW127086   2.703   1.293  17.010 -0.9636  1.8399 -1.4314
 5208SOL    HW227087   2.675   1.426  17.074 -0.1899 -0.4982  0.9780
 5209SOL     OW27088   2.670   4.068   4.771  0.3979 -0.0855 -0.4058
 5209SOL    HW127089   2.720   4.008   4.826  0.1329  2.5278  2.7086
 5209SOL    HW227090   2.602   4.004   4.752 -0.7150  1.2883 -0.9679
 5210SOL     OW27091   0.456   1.335   7.204 -0.1626  0.2981 -0.2470
 5210SOL    HW127092   0.508   1.282   7.143  1.8633 -0.2996  1.9928
 5210SOL    HW227093   0.472   1.424   7.173  2.2303  0.3109  1.0297
 5211SOL     OW27094   1.177   4.658   9.087 -0.3153 -0.4168  0.1268
 5211SOL    HW127095   1.235   4.592   9.125  0.4038  0.7537  1.0741
 5211SOL    HW227096   1.153   4.698   9.170 -0.9513  1.2462 -0.8490
 5212SOL     OW27097   2.485   1.923   2.610 -0.3325  0.3449  0.0639
 5212SOL    HW127098   2.455   2.006   2.645  1.1604  0.5685  0.8256
 5212SOL    HW227099   2.560   1.949   2.557  0.0687 -0.0385  0.4428
 5213SOL     OW27100   0.043   4.331  11.351  0.0898  0.1813  0.3680
 5213SOL    HW127101   0.131   4.334  11.313  0.3573 -0.7100  0.9171
 5213SOL    HW227102   0.058   4.409  11.405  0.2711  0.3989  0.0032
 5214SOL     OW27103   2.662   2.094  17.636 -0.4953 -0.3286  0.6238
 5214SOL    HW127104   2.599   2.024  17.623 -0.4986 -0.2710  0.3252
 5214SOL    HW227105   2.652   2.101   0.041  0.1616 -0.5665  0.7117
 5215SOL     OW27106   3.622   3.618  15.675  0.5355 -0.1048 -0.1899
 5215SOL    HW127107   3.602   3.547  15.735  3.9853  1.1157  2.4524
 5215SOL    HW227108   3.636   3.690  15.737 -1.4798  1.4736 -1.5847
 5216SOL     OW27109   4.574   4.486   9.997 -0.5811 -0.3214  1.4665
 5216SOL    HW127110   4.481   4.468  10.009 -0.3205 -1.8652  1.1943
 5216SOL    HW227111   4.620   4.458  10.076 -0.4336 -0.3817  1.3596
 5217SOL     OW27112   1.516   3.475   3.038  0.0449 -0.3559 -0.3828
 5217SOL    HW127113   1.464   3.526   3.101 -0.5893 -0.2336 -1.0106
 5217SOL    HW227114   1.442   3.458   2.979 -0.6745  1.1374  0.0811
 5218SOL     OW27115   3.256   3.928   1.020 -0.3157 -0.2681 -0.5057
 5218SOL    HW127116   3.332   3.898   0.971 -1.3187 -1.0894 -1.5543
 5218SOL    HW227117   3.235   3.859   1.084  1.3128 -1.0692 -0.8545
 5219SOL     OW27118   2.121   2.890   3.854 -0.3063  0.4232  0.3242
 5219SOL    HW127119   2.086   2.918   3.938 -1.7748 -0.6411  0.0476
 5219SOL    HW227120   2.076   2.945   3.790 -1.6722 -0.3740  0.6127
 5220SOL     OW27121   3.126   4.499   4.536  0.4096  0.4197  0.0775
 5220SOL    HW127122   3.215   4.503   4.571 -0.1949 -1.5909  1.8559
 5220SOL    HW227123   3.070   4.531   4.607 -0.2885 -1.4821  0.3811
 5221SOL     OW27124   3.332   1.962   3.089  0.8307  0.2867  0.4336
 5221SOL    HW127125   3.282   1.991   3.012 -0.4435 -2.8666  0.0758
 5221SOL    HW227126   3.314   1.868   3.097 -1.1165  0.4853 -1.4701
 5222SOL     OW27127   3.763   2.832   9.342 -0.1438  0.2711  0.4123
 5222SOL    HW127128   3.680   2.845   9.387 -0.2335 -1.2778  0.6949
 5222SOL    HW227129   3.808   2.907   9.382 -2.0023  1.8724 -0.5494
 5223SOL     OW27130   2.010   3.829   3.993 -0.4967 -0.1067  0.0750
 5223SOL    HW127131   2.105   3.828   4.002 -0.5655  0.9666  1.0330
 5223SOL    HW227132   1.993   3.922   4.011  2.2681  1.1122 -3.6738
 5224SOL     OW27133   3.363   1.556  11.825 -0.1301  0.0300 -0.1456
 5224SOL    HW127134   3.357   1.626  11.760 -0.5498 -0.7443 -0.9407
 5224SOL    HW227135   3.351   1.608  11.904  2.4349 -2.0742  1.6281
 5225SOL     OW27136   3.208   0.660   4.732  0.4133  0.2791  0.4431
 5225SOL    HW127137   3.140   0.597   4.709  0.4940  0.4837 -0.3296
 5225SOL    HW227138   3.161   0.743   4.738 -0.2534 -0.0132 -0.8936
 5226SOL     OW27139   2.558   3.463  16.201 -0.2614 -0.3774  0.4806
 5226SOL    HW127140   2.472   3.422  16.212 -0.5464  0.5119  1.5774
 5226SOL    HW227141   2.528   3.538  16.151 -0.8343  0.3319  1.8836
 5227SOL     OW27142   4.310   3.172  17.631  0.2259  0.5549  0.0618
 5227SOL    HW127143   4.378   3.194   0.004 -1.8697 -0.7802  2.7690
 5227SOL    HW227144   4.353   3.108  17.573 -1.2973 -1.6414  1.3447
 5228SOL     OW27145   4.534   0.644   6.809 -0.2834 -0.7679  0.1410
 5228SOL    HW127146   4.466   0.577   6.796 -0.9714  0.1769 -1.1474
 5228SOL    HW227147   4.490   0.692   6.879  1.1916  3.1250 -1.6205
 5229SOL     OW27148   4.409   2.460   6.168  0.3205 -0.2107  0.3496
 5229SOL    HW127149   4.498   2.471   6.203 -0.0377  1.1957  0.8238
 5229SOL    HW227150   4.377   2.384   6.215  2.2348 -1.7938 -0.9176
 5230SOL     OW27151   2.128   0.253   8.181 -0.2047  0.5709  0.5667
 5230SOL    HW127152   2.135   0.272   8.088 -0.0300 -0.9079  0.2666
 5230SOL    HW227153   2.084   0.168   8.182 -0.0219  0.4806  0.9707
 5231SOL     OW27154   2.087   1.287  13.584  0.2329 -0.0240 -0.3314
 5231SOL    HW127155   2.065   1.285  13.491 -0.0284  1.5925 -0.3085
 5231SOL    HW227156   2.163   1.346  13.587  1.3683 -1.4443 -1.4891
 5232SOL     OW27157   3.583   2.753   5.386 -0.1095  0.0949  0.6383
 5232SOL    HW127158   3.653   2.688   5.377 -0.9247 -1.1093  2.9618
 5232SOL    HW227159   3.612   2.820   5.325 -0.6202  0.4238  0.7527
 5233SOL     OW27160   2.439   3.857  10.464  0.4100  0.6072 -0.2435
 5233SOL    HW127161   2.401   3.937  10.499  3.1137  1.7316  0.1530
 5233SOL    HW227162   2.527   3.861  10.503  0.5041  1.5272 -0.5489
 5234SOL     OW27163   1.685   3.494   8.146  0.1155 -0.1869  0.4521
 5234SOL    HW127164   1.754   3.493   8.213  1.2536 -0.5262 -0.7156
 5234SOL    HW227165   1.618   3.429   8.168 -0.7508  0.5799  0.0338
 5235SOL     OW27166   1.845   4.032   2.523  0.0793 -0.2335 -0.5337
 5235SOL    HW127167   1.771   4.091   2.505  0.1533  0.3665  1.1705
 5235SOL    HW227168   1.918   4.088   2.548 -0.3205 -0.6714  1.5809
 5236SOL     OW27169   2.638   4.637   8.069 -0.2931  0.0824 -0.4032
 5236SOL    HW127170   2.613   4.654   7.978 -1.0584  2.6368  0.2810
 5236SOL    HW227171   2.690   4.561   8.043  0.1442  0.1541  0.2719
 5237SOL     OW27172   2.532   0.073  10.260  0.4941  0.1444  0.2770
 5237SOL    HW127173   2.459   0.112  10.307  0.0855  1.0289 -1.0983
 5237SOL    HW227174   2.574   0.149  10.219 -1.7381 -0.8611 -3.8937
 5238SOL     OW27175   3.822   1.239   4.523 -0.6781  0.1212 -0.6953
 5238SOL    HW127176   3.767   1.195   4.588  0.3881  0.1913  0.2421
 5238SOL    HW227177   3.837   1.323   4.568 -2.2542  0.4700 -0.8090
 5239SOL     OW27178   1.023   1.049  17.456 -0.6712 -0.8011  0.7470
 5239SOL    HW127179   1.097   1.029  17.513  1.1621 -1.1402 -1.7441
 5239SOL    HW227180   0.950   1.036  17.516 -1.1683  0.6888  0.4707
 5240SOL     OW27181   3.555   2.157   4.021  0.1039  0.3437 -0.2391
 5240SOL    HW127182   3.463   2.158   3.995 -0.3157  0.6569  1.2603
 5240SOL    HW227183   3.577   2.249   4.031 -0.2289  0.3336  0.5101
 5241SOL     OW27184   3.784   2.797   0.407  0.1117  0.1729 -0.7199
 5241SOL    HW127185   3.843   2.869   0.388  0.1719 -0.1239 -1.6728
 5241SOL    HW227186   3.843   2.729   0.374  1.7167  1.1668  0.1288
 5242SOL     OW27187   0.638   0.009   7.970 -0.0466 -0.6317  0.2629
 5242SOL    HW127188   0.557   0.047   8.005  0.4541  1.0881 -0.4824
 5242SOL    HW227189   0.620   4.637   7.980  1.2628 -0.8795  0.2427
 5243SOL     OW27190   3.790   2.144   8.303  0.7011  0.1196 -0.3030
 5243SOL    HW127191   3.877   2.150   8.342  0.3755  0.2778  0.3901
 5243SOL    HW227192   3.813   2.121   8.213  0.4074  2.9556 -1.1003
 5244SOL     OW27193   3.397   3.616   1.136  0.0993 -0.3952 -0.1054
 5244SOL    HW127194   3.312   3.645   1.171 -0.2089 -0.6193 -0.6646
 5244SOL    HW227195   3.448   3.696   1.148 -1.3686  0.6847 -1.0460
 5245SOL     OW27196   2.368   0.304   3.433  0.0757  0.0920 -0.1643
 5245SOL    HW127197   2.314   0.297   3.353 -1.1158  0.0898  0.6375
 5245SOL    HW227198   2.301   0.328   3.497  0.3131  1.6935 -0.5052
 5246SOL     OW27199   2.675   2.703   6.916 -0.7787 -0.0441  0.2988
 5246SOL    HW127200   2.657   2.793   6.889 -1.4040 -0.8192 -1.8702
 5246SOL    HW227201   2.646   2.652   6.839  0.0614  1.0213 -0.7266
 5247SOL     OW27202   4.502   1.093   7.584  0.6087  0.0042  0.2047
 5247SOL    HW127203   4.518   1.075   7.677  0.0047  1.2791  0.5569
 5247SOL    HW227204   4.578   1.141   7.550  0.5168  0.3395  0.4692
 5248SOL     OW27205   0.997   2.144   9.123  0.4368  0.1817 -0.1516
 5248SOL    HW127206   1.036   2.128   9.209  1.3832  0.7495 -0.4681
 5248SOL    HW227207   0.907   2.161   9.151 -0.0877 -3.3467  0.3580
 5249SOL     OW27208   2.849   2.286   3.238 -0.1907  0.0469  0.1882
 5249SOL    HW127209   2.767   2.285   3.289 -0.4339 -1.6699 -0.2481
 5249SOL    HW227210   2.870   2.379   3.246 -1.4854  0.4025 -0.5714
 5250SOL     OW27211   1.995   0.117   4.974 -0.0888  0.5393  0.7135
 5250SOL    HW127212   1.940   0.195   4.959 -0.8064 -0.0541  0.2558
 5250SOL    HW227213   2.083   0.154   4.969  0.1620 -0.1977 -0.3399
 5251SOL     OW27214   3.545   3.696  10.669 -0.6670  0.8178  0.1685
 5251SOL    HW127215   3.468   3.736  10.709 -0.2751  0.3874  1.3413
 5251SOL    HW227216   3.578   3.648  10.745  0.2247  0.0365 -0.7093
 5252SOL     OW27217   3.589   3.820  17.271  0.2469  0.0409 -0.1008
 5252SOL    HW127218   3.611   3.834  17.179  0.2169  0.2625 -0.0747
 5252SOL    HW227219   3.597   3.726  17.284  0.2842  0.3908  2.4297
 5253SOL     OW27220   1.336   1.171   2.192  0.1234  0.3780 -0.5307
 5253SOL    HW127221   1.412   1.115   2.178  0.6556  0.5548  1.5494
 5253SOL    HW227222   1.345   1.244   2.130  2.2217  0.8909  0.3723
 5254SOL     OW27223   1.145   3.959   5.032  0.0062 -0.0880  0.0075
 5254SOL    HW127224   1.222   4.016   5.023  0.1261 -0.3718 -0.7491
 5254SOL    HW227225   1.078   4.028   5.034  0.6694  0.6200 -2.2276
 5255SOL     OW27226   0.221   2.978   7.936 -0.2213  0.5317 -0.2155
 5255SOL    HW127227   0.241   2.949   8.025  1.4216  0.3499 -0.6618
 5255SOL    HW227228   0.289   2.926   7.894  1.0629 -0.0669  2.6380
 5256SOL     OW27229   3.836   2.255   3.751  0.4207  0.8768 -0.5362
 5256SOL    HW127230   3.769   2.209   3.701  1.1694  0.6259 -1.3197
 5256SOL    HW227231   3.789   2.331   3.784 -2.2225  0.0316 -2.3827
 5257SOL     OW27232   0.695   2.327   3.874 -0.6974  0.3188 -0.0348
 5257SOL    HW127233   0.714   2.420   3.878 -0.9552  0.3307  0.9706
 5257SOL    HW227234   0.727   2.310   3.785  0.4783  2.2306  0.0304
 5258SOL     OW27235   1.921   4.203   6.228  0.3816  0.1160 -0.2844
 5258SOL    HW127236   1.909   4.295   6.208  2.5115  0.4317 -0.1337
 5258SOL    HW227237   1.902   4.206   6.322  0.5971 -0.8231 -0.2074
 5259SOL     OW27238   0.361   3.264   7.662 -0.2071  0.4386 -0.3955
 5259SOL    HW127239   0.301   3.270   7.736 -1.6295 -1.5218 -1.3822
 5259SOL    HW227240   0.375   3.169   7.665  0.4456  0.5423 -0.1066
 5260SOL     OW27241   4.117   2.974  15.746 -0.2500 -0.2527  0.1054
 5260SOL    HW127242   4.119   2.883  15.775 -0.3397 -0.0047  0.8844
 5260SOL    HW227243   4.147   2.973  15.655 -2.0970 -1.3313 -0.4924
 5261SOL     OW27244   4.085   1.322   6.921 -0.0958 -0.2679 -0.0413
 5261SOL    HW127245   4.103   1.384   6.992 -2.4402  1.5745 -1.0508
 5261SOL    HW227246   4.050   1.250   6.973 -1.1305 -0.6937 -1.3318
 5262SOL     OW27247   3.603   3.579   1.548 -0.4991 -0.2386  0.1942
 5262SOL    HW127248   3.638   3.635   1.478 -3.4303 -1.5562 -2.3090
 5262SOL    HW227249   3.572   3.500   1.505 -1.1118 -0.1167  0.4182
 5263SOL     OW27250   3.906   1.452   8.543 -0.1400 -0.9778  0.2272
 5263SOL    HW127251   3.823   1.411   8.516 -0.0669 -1.7624  1.2005
 5263SOL    HW227252   3.873   1.525   8.596 -2.8550 -1.1089 -1.2730
 5264SOL     OW27253   2.616   2.657   6.053  0.2644  0.5422  0.2548
 5264SOL    HW127254   2.598   2.608   5.972  1.4533  1.3739 -0.4972
 5264SOL    HW227255   2.711   2.662   6.061  0.2147 -1.2732  2.1690
 5265SOL     OW27256   3.534   0.969   5.427  0.0636 -0.1051 -0.1278
 5265SOL    HW127257   3.615   0.997   5.385 -0.9157  4.7024  1.1755
 5265SOL    HW227258   3.538   0.873   5.423 -0.9441 -0.0843 -1.9155
 5266SOL     OW27259   0.361   3.686  10.418 -0.1309 -0.3868 -0.1732
 5266SOL    HW127260   0.306   3.749  10.371  3.2471  1.4314 -1.6403
 5266SOL    HW227261   0.444   3.722  10.387  0.4228  0.0926  1.8647
 5267SOL     OW27262   0.082   3.955   6.585  0.4826  0.2077 -0.1138
 5267SOL    HW127263   0.068   4.040   6.628  0.1267 -0.8518  1.8680
 5267SOL    HW227264   0.160   3.933   6.636 -0.8494  0.1095  1.8748
 5268SOL     OW27265   4.029   1.640  10.778 -0.2251 -0.4588 -0.5516
 5268SOL    HW127266   3.955   1.595  10.816  1.3864 -2.1543  0.5781
 5268SOL    HW227267   4.052   1.570  10.717  0.8434 -1.3462  0.8709
 5269SOL     OW27268   2.520   1.891   6.580  0.1971 -0.1070  0.2924
 5269SOL    HW127269   2.498   1.833   6.507 -0.6077 -0.4522  0.8132
 5269SOL    HW227270   2.444   1.866   6.631  1.1091  0.4206  1.9039
 5270SOL     OW27271   2.640   2.352  10.892 -0.5398  0.0882  0.3879
 5270SOL    HW127272   2.606   2.436  10.860 -3.1827 -0.8115  0.8693
 5270SOL    HW227273   2.731   2.373  10.913  0.1976 -1.9398 -0.8447
 5271SOL     OW27274   0.010   0.363   0.216 -0.0375  0.3204 -0.3352
 5271SOL    HW127275   0.066   0.298   0.258  0.8067  0.8504 -0.6465
 5271SOL    HW227276   0.012   0.313   0.134  0.8358 -1.0461  0.5206
 5272SOL     OW27277   0.624   2.674   4.065 -0.5294 -0.0551 -0.0813
 5272SOL    HW127278   0.562   2.602   4.074 -0.3742 -0.2027 -0.1791
 5272SOL    HW227279   0.659   2.647   3.980 -1.7200  2.4710 -1.3880
 5273SOL     OW27280   0.633   3.577   9.862 -0.4150 -0.3843  0.1141
 5273SOL    HW127281   0.616   3.486   9.839 -0.3273 -0.7238  1.4353
 5273SOL    HW227282   0.694   3.564   9.934  1.3985  0.0817 -1.3182
 5274SOL     OW27283   3.954   0.056   1.914  0.0334  0.5569  0.3465
 5274SOL    HW127284   4.000   0.080   1.833  0.6425 -1.1223  0.2005
 5274SOL    HW227285   3.892   0.129   1.926 -0.6944 -0.1938  1.1307
 5275SOL     OW27286   0.537   4.056   4.451 -0.4827 -0.3858 -0.0555
 5275SOL    HW127287   0.615   4.000   4.445 -0.7121 -0.6264 -0.8280
 5275SOL    HW227288   0.511   4.065   4.359  0.2277  1.4749 -0.0670
 5276SOL     OW27289   3.842   1.133   7.304 -0.3955  0.2512  0.1823
 5276SOL    HW127290   3.833   1.055   7.358 -0.7228  0.0354 -0.1826
 5276SOL    HW227291   3.810   1.198   7.366 -1.5246 -1.4603  1.3657
 5277SOL     OW27292   0.895   0.805   5.286  0.5633 -0.0408 -0.1771
 5277SOL    HW127293   0.897   0.819   5.191  0.8952  0.3016 -0.1207
 5277SOL    HW227294   0.802   0.789   5.302  1.2497 -0.4979  3.4133
 5278SOL     OW27295   4.621   3.379   2.243  0.4616 -0.6023  0.1540
 5278SOL    HW127296   4.590   3.338   2.163 -0.9674 -0.2435  0.5203
 5278SOL    HW227297   4.552   3.444   2.257 -0.6160 -1.7970  0.3660
 5279SOL     OW27298   1.574   3.841   2.919  0.5993 -0.5107 -0.0281
 5279SOL    HW127299   1.546   3.752   2.896 -1.4326  0.2404 -0.4860
 5279SOL    HW227300   1.655   3.858   2.872 -0.4448 -2.8179 -2.6814
 5280SOL     OW27301   1.717   1.881  10.501  0.2962  0.0353  0.6972
 5280SOL    HW127302   1.755   1.869  10.414  1.0306 -0.7164  1.1271
 5280SOL    HW227303   1.623   1.878  10.486  0.3147 -1.1557  0.8468
 5281SOL     OW27304   4.060   2.802   3.201  0.3049  0.3800 -0.0676
 5281SOL    HW127305   4.051   2.748   3.122 -1.7671  0.7308 -0.0866
 5281SOL    HW227306   4.124   2.866   3.171  2.7962 -3.1894 -2.3416
 5282SOL     OW27307   0.203   2.002   8.209 -0.4969 -0.7192  0.0005
 5282SOL    HW127308   0.113   1.979   8.187 -0.8702 -1.1335  1.9048
 5282SOL    HW227309   0.230   1.971   8.123  1.7285  1.4513 -0.0722
 5283SOL     OW27310   1.786   0.571   5.333  0.1919 -0.1678  0.1400
 5283SOL    HW127311   1.737   0.581   5.415  0.1078  1.8484 -0.1494
 5283SOL    HW227312   1.871   0.608   5.354  0.9234 -1.0638 -1.2529
 5284SOL     OW27313   3.098   2.389   8.336 -0.3160  0.0956 -0.1680
 5284SOL    HW127314   3.057   2.338   8.266  0.0427  0.7074 -0.8309
 5284SOL    HW227315   3.078   2.340   8.416 -0.1101 -0.4211 -0.4283
 5285SOL     OW27316   1.154   1.305  14.763  0.1538  0.1737  0.1336
 5285SOL    HW127317   1.062   1.288  14.743  0.6581  1.4851 -3.2456
 5285SOL    HW227318   1.152   1.392  14.804 -0.4815  0.3456 -0.2581
 5286SOL     OW27319   0.153   0.233  14.547  0.2406 -0.1221  0.4309
 5286SOL    HW127320   0.197   0.224  14.631 -0.0230  1.3301  0.7254
 5286SOL    HW227321   0.061   0.214  14.569  0.1156 -0.4198 -0.3308
 5287SOL     OW27322   2.356   3.451  13.536 -0.0344 -0.2129  0.5740
 5287SOL    HW127323   2.344   3.545  13.536 -0.2844 -0.2387 -2.9830
 5287SOL    HW227324   2.451   3.437  13.538  0.1053  0.9637  1.8341
 5288SOL     OW27325   3.932   0.433   7.661  0.1513  0.4458 -0.0125
 5288SOL    HW127326   3.890   0.490   7.596 -0.6348  1.3993  1.3229
 5288SOL    HW227327   3.937   0.481   7.743  2.0040  0.1779  0.0387
 5289SOL     OW27328   2.034   0.255  13.997 -0.1786 -0.3309 -0.1209
 5289SOL    HW127329   2.054   0.334  14.048  2.6463 -0.6949 -0.6444
 5289SOL    HW227330   2.091   0.267  13.921 -1.2579  0.0630 -0.8676
 5290SOL     OW27331   2.132   4.202  10.074 -0.3735 -0.2575  0.4187
 5290SOL    HW127332   2.182   4.170  10.150 -0.7262  1.2005  1.2629
 5290SOL    HW227333   2.202   4.231  10.014 -0.4774  0.6033  0.7106
 5291SOL     OW27334   4.138   3.278   3.924 -0.0103  0.2127  0.3727
 5291SOL    HW127335   4.067   3.295   3.986 -1.5482  0.0100 -1.3366
 5291SOL    HW227336   4.196   3.224   3.979  0.5355 -0.6435 -1.0466
 5292SOL     OW27337   1.842   3.902   3.537 -0.2242  0.6328 -0.1587
 5292SOL    HW127338   1.927   3.937   3.564 -0.6281  2.3240 -1.0715
 5292SOL    HW227339   1.866   3.852   3.459  0.0553  0.0894  0.2772
 5293SOL     OW27340   0.721   1.363   0.644  0.2927  0.7772 -0.2482
 5293SOL    HW127341   0.746   1.386   0.554  0.2973  2.5494  0.2027
 5293SOL    HW227342   0.764   1.439   0.684 -0.4100  0.8315  0.3991
 5294SOL     OW27343   0.903   2.711   1.890  0.1166  0.0957  0.1883
 5294SOL    HW127344   0.812   2.715   1.859  0.2327  1.7580  0.0476
 5294SOL    HW227345   0.921   2.800   1.921 -1.0564  0.3601  0.1109
 5295SOL     OW27346   3.164   3.591   6.120 -0.7472 -0.6304 -0.6611
 5295SOL    HW127347   3.159   3.658   6.188  3.1581 -1.3469  0.3189
 5295SOL    HW227348   3.208   3.647   6.056  1.1929 -0.9219  0.4119
 5296SOL     OW27349   2.113   2.388  13.009 -0.3500  0.5245  0.1823
 5296SOL    HW127350   2.114   2.293  13.004 -0.0121  0.5207  0.2926
 5296SOL    HW227351   2.108   2.396  12.914 -0.8261  0.4349  0.2005
 5297SOL     OW27352   2.517   2.241   7.668 -0.5914 -0.8020 -0.2025
 5297SOL    HW127353   2.512   2.320   7.721 -0.6251 -1.2317  0.4363
 5297SOL    HW227354   2.562   2.183   7.730  0.4231  0.6931  0.4638
 5298SOL     OW27355   0.750   2.178   9.266 -0.0293 -0.1210 -0.1921
 5298SOL    HW127356   0.744   2.107   9.330  2.2404 -1.7846 -1.8431
 5298SOL    HW227357   0.661   2.209   9.254 -0.0455  0.2626  0.9226
 5299SOL     OW27358   2.471   1.209   0.336  0.1851 -0.0191 -0.7251
 5299SOL    HW127359   2.406   1.236   0.271  1.3345  0.3017 -1.7290
 5299SOL    HW227360   2.419   1.228   0.415  1.7580  0.9327  0.0901
 5300SOL     OW27361   0.783   4.290  17.066 -0.3245 -0.1853 -0.1076
 5300SOL    HW127362   0.693   4.300  17.037 -1.2376 -4.3098  1.4282
 5300SOL    HW227363   0.774   4.236  17.144 -0.9157 -0.8178 -0.6182
 5301SOL     OW27364   2.406   3.524  10.049  0.4699  0.1335  0.0631
 5301SOL    HW127365   2.410   3.604  10.102  1.2736  0.3203 -0.2840
 5301SOL    HW227366   2.491   3.481  10.058  1.2542  1.6160 -0.2429
 5302SOL     OW27367   2.138   0.336  13.015  0.4186 -0.6623  0.4872
 5302SOL    HW127368   2.154   0.264  13.077 -1.4228 -0.5147  1.1274
 5302SOL    HW227369   2.066   0.392  13.045 -0.0074 -1.3796  0.8171
 5303SOL     OW27370   1.213   3.345   3.366 -0.3832 -0.4727  0.2812
 5303SOL    HW127371   1.137   3.383   3.410  0.0728  1.4939 -0.6082
 5303SOL    HW227372   1.193   3.364   3.275  0.5548  0.5377  0.2813
 5304SOL     OW27373   2.124   2.630   7.687 -0.0258 -0.0617 -0.0983
 5304SOL    HW127374   2.032   2.603   7.694  0.4022 -1.6315 -0.4941
 5304SOL    HW227375   2.107   2.720   7.713 -1.6796 -0.0749 -1.1642
 5305SOL     OW27376   2.315   4.235   4.978  0.2825 -0.6432 -0.1073
 5305SOL    HW127377   2.333   4.144   5.003  0.1597 -0.7910 -0.5653
 5305SOL    HW227378   2.221   4.246   4.988  0.9035  3.1493  1.5061
 5306SOL     OW27379   3.183   3.874   8.137 -0.4364 -0.1199 -0.1729
 5306SOL    HW127380   3.222   3.885   8.050 -0.3140 -1.2303 -0.2660
 5306SOL    HW227381   3.183   3.963   8.172  1.2496 -0.0355 -0.3827
 5307SOL     OW27382   1.626   1.996   8.251 -0.2743 -0.1528  0.4772
 5307SOL    HW127383   1.614   1.926   8.315  0.7211  0.5459  1.4439
 5307SOL    HW227384   1.627   1.948   8.169  0.4283 -2.7582  2.0085
 5308SOL     OW27385   3.861   4.102   7.433  0.2259  0.1662  0.2633
 5308SOL    HW127386   3.841   4.023   7.383 -0.8034  1.5497 -1.4855
 5308SOL    HW227387   3.841   4.171   7.370 -0.7450 -1.1971 -0.9132
 5309SOL     OW27388   0.705   3.522  11.801  0.2270  0.0823 -0.7518
 5309SOL    HW127389   0.631   3.564  11.758 -0.0639 -0.5376 -0.8698
 5309SOL    HW227390   0.672   3.511  11.890 -1.1872 -1.5335 -1.4673
 5310SOL     OW27391   0.352   3.017  10.306 -0.1872 -0.1331 -0.0724
 5310SOL    HW127392   0.331   3.091  10.363 -2.5762 -1.7589  1.1385
 5310SOL    HW227393   0.359   2.944  10.368  0.4610 -1.0522 -1.2332
 5311SOL     OW27394   0.005   4.061   3.377 -0.2370  0.2496 -0.4053
 5311SOL    HW127395   0.094   4.073   3.343 -0.7118  0.0746 -1.7257
 5311SOL    HW227396   4.719   3.967   3.389 -2.2033  0.1710 -2.2314
 5312SOL     OW27397   4.539   2.960   5.625  0.1207  0.2103  0.0231
 5312SOL    HW127398   4.472   2.899   5.654  0.4554 -1.0315 -1.8595
 5312SOL    HW227399   4.613   2.902   5.608  0.6589  1.4007 -1.6546
 5313SOL     OW27400   3.137   4.160  16.771  0.4777 -0.2758 -0.4830
 5313SOL    HW127401   3.105   4.105  16.843 -0.3556  0.6681 -0.1466
 5313SOL    HW227402   3.049   4.189  16.749  0.9110  0.5393 -1.1147
 5314SOL     OW27403   2.358   2.076   9.188 -0.8686 -0.0287 -0.4404
 5314SOL    HW127404   2.396   1.994   9.220 -2.4001 -0.4425  0.2923
 5314SOL    HW227405   2.384   2.098   9.098 -1.9566  1.0214 -0.4979
 5315SOL     OW27406   2.517   3.384   1.622 -0.1391  0.2560  0.0884
 5315SOL    HW127407   2.467   3.446   1.675  0.6572  2.3857 -1.6450
 5315SOL    HW227408   2.603   3.386   1.664  0.9620 -0.0886 -2.1339
 5316SOL     OW27409   2.805   3.252   8.005 -0.1588  0.1942  0.2653
 5316SOL    HW127410   2.831   3.309   8.078 -0.7387  0.7022  0.0736
 5316SOL    HW227411   2.722   3.215   8.034  0.1509  0.7739  1.9069
 5317SOL     OW27412   0.468   1.053   2.489 -0.8122 -0.7255 -0.3828
 5317SOL    HW127413   0.483   0.974   2.438  0.3080 -0.0439 -1.1185
 5317SOL    HW227414   0.373   1.046   2.499 -0.8360 -0.8107 -0.6548
 5318SOL     OW27415   1.309   0.005   7.556  0.1454  0.2968 -0.1532
 5318SOL    HW127416   1.347   4.655   7.506 -1.6826 -0.6987 -0.1156
 5318SOL    HW227417   1.217   4.716   7.533  0.3660  2.0852 -1.8955
 5319SOL     OW27418   2.061   4.378   0.512  0.3275 -0.2981 -0.6593
 5319SOL    HW127419   2.104   4.349   0.593 -1.3906 -0.1389  0.3063
 5319SOL    HW227420   2.032   4.294   0.476  0.1084 -1.4997  2.2681
 5320SOL     OW27421   0.091   1.807   6.417  0.3582 -0.4262 -0.4527
 5320SOL    HW127422   0.126   1.772   6.335 -2.2566  1.0183 -2.2113
 5320SOL    HW227423   0.007   1.762   6.419 -0.6614  1.3569 -2.3308
 5321SOL     OW27424   1.587   1.932  10.760 -0.0699 -0.1142 -0.1960
 5321SOL    HW127425   1.517   1.910  10.822 -0.3089  0.3407 -0.3106
 5321SOL    HW227426   1.548   1.912  10.675  0.2119  0.7314 -0.5228
 5322SOL     OW27427   2.861   2.721   0.979  0.0621  0.0244  0.5198
 5322SOL    HW127428   2.940   2.769   1.001  1.6830 -1.5458 -1.8624
 5322SOL    HW227429   2.862   2.740   0.885  0.3531  3.1502  1.1746
 5323SOL     OW27430   3.870   3.110   1.976 -0.3310  0.1390  0.1778
 5323SOL    HW127431   3.870   3.189   1.923  2.1392  0.3601  0.5281
 5323SOL    HW227432   3.964   3.096   1.982 -0.0435  1.9645 -0.0542
 5324SOL     OW27433   0.569   2.580   5.424 -1.0360  0.1350 -0.3329
 5324SOL    HW127434   0.533   2.613   5.342 -0.5214  0.0482 -0.5896
 5324SOL    HW227435   0.555   2.486   5.436  2.4966 -0.2742  0.3670
 5325SOL     OW27436   4.356   3.772   2.856 -0.0899  0.6440  0.0012
 5325SOL    HW127437   4.411   3.704   2.894 -0.2812  0.2408 -0.4430
 5325SOL    HW227438   4.327   3.814   2.937 -1.3641 -2.2051  0.9916
 5326SOL     OW27439   2.448   4.025  10.148 -0.6686 -0.2514  0.3591
 5326SOL    HW127440   2.425   4.039  10.239 -0.3889 -0.0393  0.3971
 5326SOL    HW227441   2.529   3.974  10.160  0.2749  0.9966 -0.6842
 5327SOL     OW27442   3.889   3.196   0.878 -0.2145  0.2292  0.3322
 5327SOL    HW127443   3.918   3.231   0.794  3.8208  0.0592  1.6719
 5327SOL    HW227444   3.889   3.104   0.853 -0.5763  0.9257 -2.2439
 5328SOL     OW27445   4.293   1.542   7.104 -0.2128  0.3741 -0.5799
 5328SOL    HW127446   4.354   1.469   7.094 -0.1091  0.4191 -0.2916
 5328SOL    HW227447   4.263   1.541   7.195  0.5202  1.5212 -0.3243
 5329SOL     OW27448   4.425   3.315  11.074 -0.0856 -0.4707  0.4730
 5329SOL    HW127449   4.421   3.326  11.169  1.1339  0.3116  0.4337
 5329SOL    HW227450   4.421   3.406  11.045  3.1275 -0.8567 -1.1956
 5330SOL     OW27451   0.347   4.623   2.328 -0.5147  0.1610 -0.2181
 5330SOL    HW127452   0.299   4.668   2.399  0.8928  3.3861 -1.2891
 5330SOL    HW227453   0.343   4.670   2.245 -1.8007 -0.2671 -0.3914
 5331SOL     OW27454   2.192   1.502   7.638 -0.7044  0.0212 -0.3221
 5331SOL    HW127455   2.230   1.590   7.641 -1.0735  0.1501  0.6206
 5331SOL    HW227456   2.205   1.484   7.731 -1.2335 -1.3882 -0.5228
 5332SOL     OW27457   3.646   3.071  13.830  0.5626  0.5942  0.5474
 5332SOL    HW127458   3.578   3.034  13.773 -0.4652  0.7943  1.6461
 5332SOL    HW227459   3.637   3.163  13.805 -2.9650  0.1014 -0.0022
 5333SOL     OW27460   3.224   4.372   5.830  0.2390 -0.0455 -0.3005
 5333SOL    HW127461   3.224   4.434   5.903 -0.8683  1.0188 -1.1966
 5333SOL    HW227462   3.312   4.394   5.799  0.1392 -0.6862 -1.0555
 5334SOL     OW27463   2.893   1.827  16.250 -0.0821  0.0646 -0.2679
 5334SOL    HW127464   2.963   1.838  16.186 -1.0811 -2.4288 -1.8148
 5334SOL    HW227465   2.901   1.741  16.292  0.6556  0.4182  0.3096
 5335SOL     OW27466   2.514   3.718   1.119  0.2991  0.0044 -0.2632
 5335SOL    HW127467   2.468   3.635   1.133 -1.4133  0.8137 -1.0693
 5335SOL    HW227468   2.506   3.751   1.208  1.2227 -2.2928  0.6630
 5336SOL     OW27469   1.132   0.122   5.694 -0.4526 -0.1593  0.8299
 5336SOL    HW127470   1.040   0.108   5.671 -0.6569  1.2826  0.7557
 5336SOL    HW227471   1.174   0.049   5.649 -3.1066  0.1126 -2.0859
 5337SOL     OW27472   1.897   1.939   9.058  0.2225 -0.5153  0.2824
 5337SOL    HW127473   1.898   1.965   9.150 -0.0725  1.0459 -0.1512
 5337SOL    HW227474   1.921   1.847   9.066 -1.8005 -0.8171  2.8654
 5338SOL     OW27475   1.909   0.658   0.591  0.4559  0.3610  0.0777
 5338SOL    HW127476   1.864   0.576   0.615 -0.7158  1.4097  1.5137
 5338SOL    HW227477   2.000   0.632   0.604  0.7840  1.1605 -0.7135
 5339SOL     OW27478   4.597   1.946  12.041 -0.0986 -0.0129  0.3494
 5339SOL    HW127479   4.574   1.992  12.121  2.3055  0.8202  0.5755
 5339SOL    HW227480   4.557   1.865  12.072 -1.6574  0.5074 -0.3254
 5340SOL     OW27481   4.530   0.692   5.090 -0.5963  0.7575  0.7268
 5340SOL    HW127482   4.462   0.624   5.097 -0.4741  0.4294 -1.2939
 5340SOL    HW227483   4.594   0.643   5.038  0.0277 -0.2124  2.4161
 5341SOL     OW27484   1.971   4.532   8.433 -0.2774  0.2433  0.1808
 5341SOL    HW127485   2.036   4.557   8.498  0.0521  1.9708 -0.8102
 5341SOL    HW227486   1.897   4.505   8.487 -0.7319 -0.5874 -0.8657
 5342SOL     OW27487   2.470   1.591   2.045  0.3346 -0.0037  0.0849
 5342SOL    HW127488   2.406   1.626   2.108 -0.8769 -0.6103 -0.8283
 5342SOL    HW227489   2.546   1.566   2.097  2.5425 -0.0288 -3.2129
 5343SOL     OW27490   1.005   4.017   6.036  0.2754 -0.5484 -0.1705
 5343SOL    HW127491   0.932   4.044   6.092 -1.2582 -2.0267 -1.4410
 5343SOL    HW227492   0.956   3.955   5.982  1.3312 -1.8094  0.3087
 5344SOL     OW27493   2.801   0.620   5.303 -0.1676 -0.2583  0.4823
 5344SOL    HW127494   2.809   0.706   5.263  0.5376 -0.0009  1.1880
 5344SOL    HW227495   2.894   0.596   5.310  0.2360  1.6126  1.4446
 5345SOL     OW27496   1.170   3.170   6.653 -0.6606 -0.4784 -0.2536
 5345SOL    HW127497   1.198   3.261   6.660 -1.1261 -0.4471  1.2152
 5345SOL    HW227498   1.139   3.162   6.563  0.5647  2.7438 -0.9531
 5346SOL     OW27499   1.736   1.256  13.343  0.4054 -0.6464  0.0104
 5346SOL    HW127500   1.716   1.254  13.437 -0.2309  0.9252 -0.0844
 5346SOL    HW227501   1.824   1.294  13.333  0.0696 -0.4477 -2.0566
 5347SOL     OW27502   0.200   1.790   9.801 -0.4966 -0.3319  0.1155
 5347SOL    HW127503   0.148   1.719   9.841 -1.1691 -0.2969 -0.6851
 5347SOL    HW227504   0.282   1.783   9.850  0.5434 -0.6519 -1.6902
 5348SOL     OW27505   0.457   1.155   4.698  0.4668 -0.4523 -0.0068
 5348SOL    HW127506   0.542   1.163   4.741  0.9303 -1.2816 -0.7580
 5348SOL    HW227507   0.449   1.245   4.667 -0.3796 -0.8648 -0.9921
 5349SOL     OW27508   1.944   3.399   5.355  0.3230 -0.1534  0.2503
 5349SOL    HW127509   2.034   3.371   5.369 -0.0158 -1.0050  0.6758
 5349SOL    HW227510   1.894   3.388   5.435 -0.7240 -1.4039 -0.5793
 5350SOL     OW27511   2.977   0.519   9.702  0.2680  0.0634  0.1077
 5350SOL    HW127512   2.942   0.518   9.613 -0.3139  1.9498  0.3111
 5350SOL    HW227513   3.030   0.439   9.706 -1.0854 -0.8322  0.2243
 5351SOL     OW27514   3.985   3.964  10.765 -0.4725  0.3074  0.3423
 5351SOL    HW127515   4.000   4.058  10.775  1.4364 -0.0034  0.4920
 5351SOL    HW227516   3.930   3.954  10.688 -1.1561  2.4253  0.5639
 5352SOL     OW27517   4.016   1.386   4.776 -0.7309 -0.1901  0.5549
 5352SOL    HW127518   4.075   1.457   4.800  1.9177 -2.2853  0.2479
 5352SOL    HW227519   3.931   1.424   4.796 -1.5044 -1.7608  0.2276
 5353SOL     OW27520   3.050   4.557   5.079  0.3803 -0.0405 -0.7406
 5353SOL    HW127521   3.005   4.483   5.121  4.0904 -0.4740  2.4903
 5353SOL    HW227522   2.996   4.632   5.104 -0.3601 -0.9019  0.2594
 5354SOL     OW27523   0.264   0.423   8.077  0.1222  0.0354  0.1476
 5354SOL    HW127524   0.298   0.448   7.991  0.0549  1.0272  0.4066
 5354SOL    HW227525   0.237   0.505   8.118 -1.5958  0.0270 -0.9831
 5355SOL     OW27526   4.139   3.103   6.213  0.9526 -0.0424  0.2530
 5355SOL    HW127527   4.045   3.104   6.193  0.2547 -1.0058  3.5298
 5355SOL    HW227528   4.155   3.196   6.230 -1.3177  0.6985 -1.7051
 5356SOL     OW27529   3.322   2.532   8.434  0.0398 -0.1501  0.0775
 5356SOL    HW127530   3.353   2.550   8.345  0.6183  2.1876  0.7527
 5356SOL    HW227531   3.246   2.476   8.419 -1.5425  1.4710  2.0084
 5357SOL     OW27532   4.451   0.713  10.115  0.2387 -0.1017 -0.4674
 5357SOL    HW127533   4.357   0.728  10.104  0.5012 -0.3710 -3.0128
 5357SOL    HW227534   4.484   0.793  10.074  2.0884 -0.9843 -0.7146
 5358SOL     OW27535   3.196   4.025   5.539  0.9461 -0.3321 -0.2460
 5358SOL    HW127536   3.153   4.089   5.483 -0.2891 -0.5623  0.4312
 5358SOL    HW227537   3.145   3.944   5.531 -0.3036  0.3022  1.2316
 5359SOL     OW27538   3.189   0.010  11.195  0.0971 -0.1792  0.2985
 5359SOL    HW127539   3.142   4.678  11.131 -1.0608  0.7268  0.3845
 5359SOL    HW227540   3.263   4.674  11.210  0.9511  0.5684 -1.0119
 5360SOL     OW27541   3.524   4.084   8.132  0.0863  0.3959  0.1469
 5360SOL    HW127542   3.597   4.141   8.110  0.9512 -0.4236  0.8788
 5360SOL    HW227543   3.568   4.001   8.112  0.5847  0.3678  1.3561
 5361SOL     OW27544   2.352   2.326  11.427  0.1489 -0.5676 -0.0339
 5361SOL    HW127545   2.428   2.267  11.423  0.1971 -0.4562 -0.6529
 5361SOL    HW227546   2.304   2.292  11.352  0.6076  0.0145 -0.5901
 5362SOL     OW27547   3.874   0.050   6.451 -0.6842 -0.3578  0.0493
 5362SOL    HW127548   3.854   4.707   6.519  2.2936  0.4118  1.6824
 5362SOL    HW227549   3.899   4.708   6.385 -2.2005  0.8294 -1.6746
 5363SOL     OW27550   3.834   3.946  15.718  0.0585 -0.3428 -0.2811
 5363SOL    HW127551   3.803   3.968  15.631  1.2687  1.1293 -0.3499
 5363SOL    HW227552   3.892   3.871  15.714  2.6670  1.4351  3.5204
 5364SOL     OW27553   1.279   3.883   7.868 -0.3240  0.5417  0.0639
 5364SOL    HW127554   1.354   3.943   7.870  0.7257 -0.8226  1.6211
 5364SOL    HW227555   1.213   3.942   7.832  0.3482  1.1777 -0.1453
 5365SOL     OW27556   3.715   4.262   8.048  0.2044  0.6073  0.5754
 5365SOL    HW127557   3.755   4.334   8.095 -3.9176  2.4326  1.2395
 5365SOL    HW227558   3.708   4.306   7.963  0.8707 -1.7195 -0.6981
 5366SOL     OW27559   0.170   4.721  11.645 -0.1383  1.0223  0.1966
 5366SOL    HW127560   0.263   0.011  11.627  0.3426  0.7002  2.3441
 5366SOL    HW227561   0.146   0.065  11.711 -0.1301  0.2590  0.9755
 5367SOL     OW27562   3.030   0.742  11.543 -0.2287  0.4593 -0.4711
 5367SOL    HW127563   2.944   0.702  11.531  0.5020 -0.8149 -1.4474
 5367SOL    HW227564   3.075   0.673  11.592  0.8681  0.1548 -1.9070
 5368SOL     OW27565   4.354   0.361   4.762  0.5606 -0.1901 -0.0877
 5368SOL    HW127566   4.411   0.300   4.808  0.0672 -0.3569  0.2996
 5368SOL    HW227567   4.407   0.430   4.720 -1.5338  2.4230  1.5439
 5369SOL     OW27568   0.693   0.567   6.586 -0.1360 -0.3780 -0.0757
 5369SOL    HW127569   0.735   0.568   6.501 -0.3103  1.5829 -0.1303
 5369SOL    HW227570   0.726   0.646   6.628 -4.2108  0.5037  1.4976
 5370SOL     OW27571   0.878   2.983   0.371  0.0816 -0.0077 -0.3515
 5370SOL    HW127572   0.824   2.977   0.292  0.8047  0.9087 -0.9140
 5370SOL    HW227573   0.919   3.068   0.356  2.5190 -1.1832 -0.3865
 5371SOL     OW27574   1.673   4.087   3.404  0.5115 -0.2564  0.4237
 5371SOL    HW127575   1.596   4.103   3.459  0.3672  1.1644 -0.1737
 5371SOL    HW227576   1.734   4.034   3.455  0.1629  0.2854  1.3995
 5372SOL     OW27577   3.794   1.521  13.403  0.1430  0.1203 -0.2185
 5372SOL    HW127578   3.722   1.584  13.400  0.7548  0.9172  1.7613
 5372SOL    HW227579   3.869   1.574  13.428  0.8438 -0.5381 -0.9467
 5373SOL     OW27580   4.157   1.691   1.630 -0.6063 -0.2653  0.5634
 5373SOL    HW127581   4.183   1.620   1.572 -1.8161  1.0641 -1.5915
 5373SOL    HW227582   4.171   1.769   1.576  1.9779 -1.5643 -0.6665
 5374SOL     OW27583   2.149   0.761  16.285  0.1701 -0.3465  0.9051
 5374SOL    HW127584   2.085   0.756  16.214  0.3785 -2.9142  0.9022
 5374SOL    HW227585   2.082   0.759  16.354 -1.0332  0.5884 -0.2234
 5375SOL     OW27586   2.249   3.041  13.832 -0.3067  0.1637 -0.5356
 5375SOL    HW127587   2.241   3.113  13.770 -2.1230  2.2655  2.1231
 5375SOL    HW227588   2.208   2.972  13.781 -2.0689  0.2859  0.7103
 5376SOL     OW27589   3.504   3.449  13.531  0.0917  0.0192  0.2767
 5376SOL    HW127590   3.511   3.394  13.453 -0.8314  3.1448 -1.9728
 5376SOL    HW227591   3.493   3.534  13.489  0.6721  0.0147  0.1179
 5377SOL     OW27592   1.716   2.548   1.992  0.5765 -0.4401  0.6082
 5377SOL    HW127593   1.751   2.617   1.936 -0.9587 -1.2817 -1.3644
 5377SOL    HW227594   1.650   2.599   2.039  0.7008 -0.3101  0.6456
 5378SOL     OW27595   1.337   2.664  17.194  0.3254  0.1300 -0.2515
 5378SOL    HW127596   1.299   2.726  17.132  0.0439 -2.6207 -2.8422
 5378SOL    HW227597   1.345   2.588  17.136  0.1948  0.2860 -0.4755
 5379SOL     OW27598   4.194   0.732   3.603  0.2161  0.1218 -0.0039
 5379SOL    HW127599   4.192   0.793   3.677 -0.0174 -1.1797  1.0681
 5379SOL    HW227600   4.260   0.776   3.549  0.0790 -2.1529 -2.0016
 5380SOL     OW27601   0.158   2.693   7.437  0.4024  0.1839  0.4137
 5380SOL    HW127602   0.243   2.737   7.431 -0.6498  1.8825 -1.7718
 5380SOL    HW227603   0.183   2.608   7.399 -0.4264 -0.4155  1.2162
 5381SOL     OW27604   4.410   0.921   7.342  0.1266 -0.5144  0.3349
 5381SOL    HW127605   4.451   0.839   7.371  1.8853  0.2684  0.0424
 5381SOL    HW227606   4.405   0.962   7.428  0.0072  0.1813 -0.0081
 5382SOL     OW27607   0.563   3.741   9.624  0.3017 -0.4176  0.1197
 5382SOL    HW127608   0.594   3.659   9.662 -1.4197 -1.6659 -1.1605
 5382SOL    HW227609   0.493   3.768   9.684  0.1114 -1.7445  0.4929
 5383SOL     OW27610   4.668   3.471   5.380 -0.0269 -0.4638 -0.3802
 5383SOL    HW127611   0.003   3.418   5.436 -0.0354  1.1170  1.1252
 5383SOL    HW227612   4.654   3.550   5.431 -1.3305 -0.5749 -0.5750
 5384SOL     OW27613   0.209   4.668   9.048 -0.6653  0.0470 -0.8375
 5384SOL    HW127614   0.277   4.613   9.087 -1.8051 -0.4657  0.4324
 5384SOL    HW227615   0.140   4.657   9.114  1.1248 -2.3063  0.6191
 5385SOL     OW27616   1.852   2.637  16.032 -0.0283 -0.4631 -0.4872
 5385SOL    HW127617   1.776   2.660  16.084 -1.2059 -3.8706 -0.7226
 5385SOL    HW227618   1.855   2.715  15.976  1.5694  1.3355  2.1052
 5386SOL     OW27619   2.936   1.229   2.334  0.1622 -0.1436 -0.3928
 5386SOL    HW127620   2.982   1.263   2.258 -1.4492 -0.6219 -1.5967
 5386SOL    HW227621   3.004   1.243   2.399  0.8517  0.6969 -1.3001
 5387SOL     OW27622   1.218   0.044  10.458  0.1546 -0.0212  0.1172
 5387SOL    HW127623   1.237   0.108  10.527 -2.9409  0.2827  0.7184
 5387SOL    HW227624   1.288   4.706  10.484 -0.3013 -1.6770 -2.5027
 5388SOL     OW27625   0.059   4.543  16.566 -0.8318  0.1177 -0.1386
 5388SOL    HW127626   0.014   4.581  16.490  3.1304  1.9275 -1.5451
 5388SOL    HW227627   0.032   4.602  16.637  0.3746  0.8242 -0.2728
 5389SOL     OW27628   1.328   0.651   5.949 -0.0968 -0.4566 -0.0802
 5389SOL    HW127629   1.414   0.657   5.991  1.2758 -1.1364 -2.7746
 5389SOL    HW227630   1.267   0.684   6.016  2.0009  0.3556  1.4392
 5390SOL     OW27631   0.705   3.987   7.157 -0.2650 -0.4880 -0.1214
 5390SOL    HW127632   0.674   4.073   7.130 -2.4739 -2.0419 -2.4268
 5390SOL    HW227633   0.652   3.972   7.235 -0.4588 -0.3078 -0.2175
 5391SOL     OW27634   3.598   2.797  13.480  0.1858 -0.0884 -0.1682
 5391SOL    HW127635   3.618   2.889  13.464 -1.8506 -0.0952 -2.8778
 5391SOL    HW227636   3.586   2.790  13.574 -0.3831 -0.1356 -0.2444
 5392SOL     OW27637   1.727   4.717   7.158 -0.0557 -0.4249  0.7251
 5392SOL    HW127638   1.709   4.708   7.251  1.6336  1.4537  1.2411
 5392SOL    HW227639   1.674   4.649   7.116 -1.2369  1.3406 -0.6315
 5393SOL     OW27640   2.572   3.445   8.038  0.1039  0.1030  0.0339
 5393SOL    HW127641   2.557   3.368   8.092 -1.5828 -0.0157 -0.6053
 5393SOL    HW227642   2.492   3.431   7.987  0.0591  1.7610 -0.3537
 5394SOL     OW27643   3.362   0.775   2.849  0.1797 -0.2328 -0.2092
 5394SOL    HW127644   3.391   0.693   2.889  0.1675  0.4356  1.1844
 5394SOL    HW227645   3.270   0.756   2.863  0.6268 -1.6103  0.8791
 5395SOL     OW27646   1.267   4.455   9.672 -0.1202 -0.4649  0.3788
 5395SOL    HW127647   1.270   4.394   9.746  0.7170  0.0060  0.7249
 5395SOL    HW227648   1.172   4.456   9.654  0.3892 -0.6646 -2.3541
 5396SOL     OW27649   0.318   4.601   7.916  0.0012 -0.1236  0.0820
 5396SOL    HW127650   0.358   4.651   7.986 -1.6001  0.5392  0.5273
 5396SOL    HW227651   0.234   4.647   7.907 -0.3003 -0.4836  1.1483
 5397SOL     OW27652   3.633   1.814  11.330 -0.3705  0.0080 -0.2796
 5397SOL    HW127653   3.634   1.867  11.250 -1.2474 -0.1054 -0.3663
 5397SOL    HW227654   3.727   1.806  11.342 -0.5799 -1.2673  0.5053
 5398SOL     OW27655   1.338   4.460   1.946  0.0911 -0.3119 -0.3198
 5398SOL    HW127656   1.296   4.392   1.999  1.0815 -1.9270 -1.6083
 5398SOL    HW227657   1.304   4.537   1.991  1.0019  0.1702 -0.4620
 5399SOL     OW27658   4.107   0.218   7.424 -0.1742 -0.6270 -0.3713
 5399SOL    HW127659   4.073   0.160   7.355 -1.1242 -2.0141  1.2785
 5399SOL    HW227660   4.068   0.300   7.395  0.5539  0.1388  0.8341
 5400SOL     OW27661   3.326   4.591  15.417 -0.2993 -0.1220  0.0192
 5400SOL    HW127662   3.348   4.543  15.497  2.7643  2.6557  0.8337
 5400SOL    HW227663   3.267   4.652  15.461 -1.0659 -1.8142  1.3561
 5401SOL     OW27664   2.099   2.979   3.250 -0.1518  0.2303  0.3540
 5401SOL    HW127665   2.139   2.936   3.175 -1.5315  0.2111 -0.3602
 5401SOL    HW227666   2.178   2.986   3.305  0.9453 -0.1905 -1.1529
 5402SOL     OW27667   3.674   2.585   0.520 -0.1565 -0.1920 -0.1632
 5402SOL    HW127668   3.592   2.590   0.472  0.2473 -0.1158 -0.8382
 5402SOL    HW227669   3.715   2.664   0.486 -0.8406 -0.2196 -1.0586
 5403SOL     OW27670   2.474   1.456  14.822  0.4074  0.2397 -0.2580
 5403SOL    HW127671   2.416   1.389  14.857  2.2988 -0.4575  1.5752
 5403SOL    HW227672   2.555   1.405  14.813  1.4002  1.0152  4.2245
 5404SOL     OW27673   0.919   3.958   2.458  0.0470 -0.1160  0.1796
 5404SOL    HW127674   0.859   3.979   2.386 -0.7381 -0.5730  0.7028
 5404SOL    HW227675   0.890   4.021   2.524  1.3375  1.2186 -0.5304
 5405SOL     OW27676   2.990   0.401   0.676  0.1475 -0.2861 -0.5501
 5405SOL    HW127677   3.065   0.437   0.629 -0.2257 -0.1414 -1.0289
 5405SOL    HW227678   2.929   0.433   0.610 -0.9011  0.5934  0.8488
 5406SOL     OW27679   0.326   2.306   6.921  0.5663 -0.4965  0.2852
 5406SOL    HW127680   0.303   2.214   6.931  0.1413 -0.3551  0.6227
 5406SOL    HW227681   0.413   2.300   6.883  0.3282 -0.8769 -0.1970
 5407SOL     OW27682   0.381   3.281   1.874  0.4881 -0.4372 -0.2980
 5407SOL    HW127683   0.400   3.248   1.786  0.5520  0.8106 -0.7502
 5407SOL    HW227684   0.362   3.199   1.920  2.0884 -0.8232 -0.3387
 5408SOL     OW27685   2.630   0.620   6.613  0.4362 -0.0843  0.2093
 5408SOL    HW127686   2.657   0.705   6.578 -1.3403  1.1135  1.7726
 5408SOL    HW227687   2.676   0.565   6.549 -1.7716 -0.8220 -0.7843
 5409SOL     OW27688   3.164   3.424   3.511  0.1550  0.0042 -0.0998
 5409SOL    HW127689   3.071   3.433   3.532  0.3053  1.6035 -0.1380
 5409SOL    HW227690   3.172   3.442   3.417 -0.1771  0.7654  0.0191
 5410SOL     OW27691   3.836   0.780   5.567 -0.1350 -0.3211  0.7176
 5410SOL    HW127692   3.810   0.857   5.517 -0.1997 -1.0605 -0.3758
 5410SOL    HW227693   3.894   0.824   5.629  1.0546 -1.4791  0.4201
 5411SOL     OW27694   3.038   3.439   3.173 -0.1419  0.3370  0.6022
 5411SOL    HW127695   2.981   3.468   3.244  0.7395  1.0692  1.0029
 5411SOL    HW227696   3.083   3.520   3.150 -1.1544  0.7212 -0.0303
 5412SOL     OW27697   1.255   1.969   4.913 -0.0842  0.2474  0.0228
 5412SOL    HW127698   1.294   2.032   4.974  1.9581 -0.8860 -0.1295
 5412SOL    HW227699   1.164   1.995   4.900 -0.0648 -0.6046 -1.8085
 5413SOL     OW27700   3.534   4.414   5.656 -0.1963  0.0111 -0.0821
 5413SOL    HW127701   3.519   4.320   5.656 -0.5694  0.0683 -0.3259
 5413SOL    HW227702   3.505   4.437   5.567  0.2196 -0.1240 -0.2526
 5414SOL     OW27703   0.615   2.980   7.634 -0.0919  0.2799  0.2266
 5414SOL    HW127704   0.617   3.001   7.727  1.0839  2.4990 -0.3033
 5414SOL    HW227705   0.523   2.973   7.610 -0.0183 -1.0673  0.3403
 5415SOL     OW27706   3.740   1.210  14.133  0.3558  0.7626 -0.2566
 5415SOL    HW127707   3.666   1.211  14.073 -1.6275 -0.0132  2.2015
 5415SOL    HW227708   3.716   1.129  14.178 -0.8263  0.3834 -1.5929
 5416SOL     OW27709   4.220   4.158   2.779  0.4334 -0.1546 -0.1536
 5416SOL    HW127710   4.302   4.136   2.823 -0.4414 -1.9227  0.5899
 5416SOL    HW227711   4.258   4.169   2.692  0.7137 -0.9464 -0.1310
 5417SOL     OW27712   3.425   2.210   5.723 -0.0985 -0.7578 -0.2431
 5417SOL    HW127713   3.381   2.159   5.656  0.0131  0.6048 -1.3537
 5417SOL    HW227714   3.506   2.241   5.684 -0.6887  0.5649 -0.4197
 5418SOL     OW27715   0.221   0.451   7.265  0.2400  0.5688  0.0329
 5418SOL    HW127716   0.132   0.469   7.296 -0.0580 -1.2082  0.2150
 5418SOL    HW227717   0.234   0.379   7.327  0.0160  1.2021  0.8120
 5419SOL     OW27718   4.317   0.608   2.372 -0.0859  0.4722  0.3362
 5419SOL    HW127719   4.253   0.540   2.352 -0.7919  0.7091  1.7727
 5419SOL    HW227720   4.341   0.575   2.458 -1.2379 -0.7516  0.1958
 5420SOL     OW27721   2.266   4.071  12.987  0.2983 -0.2558 -0.1135
 5420SOL    HW127722   2.271   4.163  12.962  0.1384 -0.2556 -0.1429
 5420SOL    HW227723   2.218   4.077  13.070  0.3222 -1.2241 -0.0293
 5421SOL     OW27724   1.308   3.133   6.374 -0.0453 -0.6238 -0.0721
 5421SOL    HW127725   1.252   3.117   6.298  0.1941 -0.4342 -0.2930
 5421SOL    HW227726   1.339   3.047   6.402 -0.2440 -0.4448  0.6782
 5422SOL     OW27727   0.266   1.271   3.483 -0.2108  0.1886  0.2337
 5422SOL    HW127728   0.343   1.215   3.488  0.2067  0.7395 -0.0050
 5422SOL    HW227729   0.304   1.358   3.494 -0.4968  0.1045  1.8203
 5423SOL     OW27730   1.419   3.459   2.189  0.0742 -0.6148 -0.3919
 5423SOL    HW127731   1.370   3.499   2.261  0.0943 -1.2307 -0.0301
 5423SOL    HW227732   1.352   3.407   2.145 -1.3860  0.8018  0.1875
 5424SOL     OW27733   1.053   4.360  13.388  0.1379 -0.4594 -1.3161
 5424SOL    HW127734   0.991   4.311  13.442  1.1294 -1.2718 -0.9120
 5424SOL    HW227735   1.032   4.315  13.306  0.1819  0.3783 -1.7868
 5425SOL     OW27736   1.668   3.011   4.020 -0.4138  0.2458  0.2875
 5425SOL    HW127737   1.679   2.995   4.113  0.2732  2.0841  0.5362
 5425SOL    HW227738   1.575   3.034   4.025 -1.0373 -2.1815 -0.2151
 5426SOL     OW27739   3.920   1.146   8.451  0.4367  0.1966  0.1129
 5426SOL    HW127740   3.888   1.183   8.533  1.5975  1.5767 -0.0702
 5426SOL    HW227741   4.003   1.105   8.476  0.1937  0.4275  1.3264
 5427SOL     OW27742   0.229   2.845  15.224 -0.3598  0.1019 -0.4673
 5427SOL    HW127743   0.174   2.815  15.152 -1.0285 -4.3521  1.8768
 5427SOL    HW227744   0.310   2.868  15.180 -1.4520  3.6674 -0.6454
 5428SOL     OW27745   4.564   0.538  15.115  0.1099 -0.3239 -0.9921
 5428SOL    HW127746   4.576   0.574  15.203 -2.6292  0.2634 -0.8578
 5428SOL    HW227747   4.525   0.453  15.137 -2.3060  0.8688 -0.6794
 5429SOL     OW27748   3.821   4.254   5.622 -0.3694 -0.8508 -0.4252
 5429SOL    HW127749   3.772   4.204   5.557 -2.8754 -0.0974  0.8532
 5429SOL    HW227750   3.856   4.175   5.665 -0.3874  0.3339  1.7623
 5430SOL     OW27751   2.055   2.227   4.673 -0.2835  0.6684 -0.0945
 5430SOL    HW127752   1.993   2.157   4.696  1.1962 -0.7645 -0.4626
 5430SOL    HW227753   2.140   2.187   4.693 -0.5995 -1.3646 -2.6849
 5431SOL     OW27754   4.088   3.481   1.120 -0.4170  0.1640  0.1974
 5431SOL    HW127755   4.007   3.431   1.121  0.5474 -1.3787  0.6789
 5431SOL    HW227756   4.140   3.423   1.066  1.0441  2.6994 -1.1217
 5432SOL     OW27757   3.870   1.598   4.224  0.4624  0.1960  0.1336
 5432SOL    HW127758   3.782   1.584   4.188  0.7765 -0.2398 -0.4802
 5432SOL    HW227759   3.912   1.635   4.147 -0.1456 -0.0796 -0.3333
 5433SOL     OW27760   0.632   0.414   3.827  0.3385 -0.5379  0.5097
 5433SOL    HW127761   0.565   0.356   3.791 -0.3735  0.2572  0.5385
 5433SOL    HW227762   0.697   0.354   3.862  0.2246 -0.0639  1.5336
 5434SOL     OW27763   3.609   1.893   8.004 -0.1870  0.1194 -0.3753
 5434SOL    HW127764   3.612   1.908   7.910 -1.0997  2.3370 -0.0363
 5434SOL    HW227765   3.595   1.980   8.041 -1.1691  0.2859 -1.1529
 5435SOL     OW27766   4.028   1.542   2.160  0.2439 -0.5063 -0.7419
 5435SOL    HW127767   3.987   1.495   2.087 -1.8250 -0.8906  0.6697
 5435SOL    HW227768   4.093   1.594   2.113  0.3623 -0.5621 -0.6406
 5436SOL     OW27769   0.483   2.152  16.460 -0.2320 -0.2510  0.3583
 5436SOL    HW127770   0.439   2.068  16.450  0.3601 -0.1791 -3.1486
 5436SOL    HW227771   0.524   2.163  16.374 -0.1974  2.0205  0.6668
 5437SOL     OW27772   2.399   0.597   8.970  0.1745  0.0004  0.1265
 5437SOL    HW127773   2.372   0.688   8.969 -0.3266 -0.1533 -0.7305
 5437SOL    HW227774   2.417   0.591   9.064  0.5911 -1.6608 -0.0551
 5438SOL     OW27775   2.301   1.152   8.942  0.0402  0.1467  0.2745
 5438SOL    HW127776   2.210   1.168   8.918  0.2348 -0.9382 -1.1699
 5438SOL    HW227777   2.317   1.223   9.004 -0.8061  0.6742 -0.1130
 5439SOL     OW27778   2.666   2.173   4.625  0.6253 -0.1665  0.1513
 5439SOL    HW127779   2.639   2.085   4.651  3.2555 -0.6816  1.1186
 5439SOL    HW227780   2.604   2.174   4.552  0.8596 -3.8134 -0.0932
 5440SOL     OW27781   3.819   4.476   7.379 -0.0316  0.5417 -0.1245
 5440SOL    HW127782   3.798   4.540   7.311 -0.5438  0.7552  0.2287
 5440SOL    HW227783   3.734   4.433   7.385  0.1717  0.2189  0.5157
 5441SOL     OW27784   1.824   4.675  17.489  0.2092  0.3049  0.1213
 5441SOL    HW127785   1.768   4.696  17.414  1.4283 -1.4995 -1.2961
 5441SOL    HW227786   1.787   4.715  17.568  0.2213 -1.4278  0.9988
 5442SOL     OW27787   2.044   0.481  16.218 -0.1990  0.2868  0.5662
 5442SOL    HW127788   2.033   0.571  16.186  0.9872  0.3000  0.2092
 5442SOL    HW227789   2.038   0.429  16.138  0.9169  3.2464 -1.4680
 5443SOL     OW27790   1.221   4.643   8.717  0.0577  0.5111 -0.0840
 5443SOL    HW127791   1.314   4.658   8.701 -0.3129  1.6736 -1.1325
 5443SOL    HW227792   1.222   4.625   8.812 -0.5525 -0.8776 -0.3354
 5444SOL     OW27793   4.413   3.978   7.051 -0.3221  0.2067 -0.7249
 5444SOL    HW127794   4.376   3.946   6.969 -1.1617  2.2743 -1.1540
 5444SOL    HW227795   4.362   3.921   7.108  0.9637 -0.7290 -0.4914
 5445SOL     OW27796   3.985   3.327   4.155 -0.1096  0.4457  0.2968
 5445SOL    HW127797   3.931   3.402   4.131  1.1468  0.7492 -1.5965
 5445SOL    HW227798   3.932   3.277   4.217  0.1750 -0.2167  0.0014
 5446SOL     OW27799   1.074   1.869   9.492  0.4667  0.2987 -0.0978
 5446SOL    HW127800   1.048   1.944   9.437 -3.5053  1.0353  2.8010
 5446SOL    HW227801   1.138   1.914   9.547  0.3321 -0.3544  0.5772
 5447SOL     OW27802   0.012   2.878   7.754  0.1278  0.1913 -0.0206
 5447SOL    HW127803   0.083   2.816   7.734  1.9200  2.2505 -0.0946
 5447SOL    HW227804   0.053   2.937   7.817  1.9004  0.0206 -0.9986
 5448SOL     OW27805   0.973   1.213   6.269 -0.2083 -0.0566  0.2906
 5448SOL    HW127806   1.015   1.279   6.324 -1.7680 -0.4476  1.9895
 5448SOL    HW227807   0.889   1.206   6.314 -0.0078  0.8007  0.7946
 5449SOL     OW27808   1.874   4.171   8.976  0.7740 -0.5699  0.0342
 5449SOL    HW127809   1.882   4.266   8.978  2.0040 -0.7133  2.4493
 5449SOL    HW227810   1.810   4.151   9.046  1.4791 -1.8014  0.3260
 5450SOL     OW27811   4.504   3.842   9.602 -0.3863 -1.0648  0.5069
 5450SOL    HW127812   4.435   3.855   9.538  0.2225  0.3593  0.1246
 5450SOL    HW227813   4.554   3.923   9.590 -0.9171 -1.1494 -2.1424
 5451SOL     OW27814   3.535   1.902  13.832  0.1204  0.0772 -0.2502
 5451SOL    HW127815   3.497   1.917  13.918  1.1058  3.8150 -0.4729
 5451SOL    HW227816   3.588   1.981  13.838  0.6463 -0.2485 -0.5826
 5452SOL     OW27817   4.308   3.309   2.784 -0.2008  0.1155 -0.1473
 5452SOL    HW127818   4.397   3.341   2.792 -0.5132  1.2477 -1.2974
 5452SOL    HW227819   4.264   3.394   2.779 -0.3705  0.0754  0.6071
 5453SOL     OW27820   1.717   0.647   8.444  0.5160 -0.2973 -0.0036
 5453SOL    HW127821   1.643   0.646   8.384  0.0999  0.3273  0.5010
 5453SOL    HW227822   1.769   0.723   8.414  1.0864 -0.6995 -0.0417
 5454SOL     OW27823   1.014   2.538   5.143  0.6441  0.0602 -0.4507
 5454SOL    HW127824   0.918   2.542   5.152  0.7688  1.1213  0.4601
 5454SOL    HW227825   1.045   2.595   5.214  1.8758  0.8670 -1.6568
 5455SOL     OW27826   3.625   1.402   3.542  0.4834 -0.6010  0.2440
 5455SOL    HW127827   3.673   1.357   3.611 -0.0011 -1.7316 -0.1630
 5455SOL    HW227828   3.549   1.444   3.583  1.1251  2.5124 -1.7134
 5456SOL     OW27829   0.905   3.900   6.847  0.1795 -1.1260 -0.5347
 5456SOL    HW127830   0.939   3.984   6.879  0.8498 -0.8937 -1.8892
 5456SOL    HW227831   0.971   3.837   6.874  1.6382  0.2615 -0.8422
 5457SOL     OW27832   0.581   3.631   5.508 -0.2212 -0.1261 -0.8098
 5457SOL    HW127833   0.606   3.694   5.440 -1.6604  0.5358 -0.7181
 5457SOL    HW227834   0.669   3.596   5.526 -0.0827  1.1232  1.0103
 5458SOL     OW27835   2.438   0.427   2.784 -0.3756 -0.2587 -0.1452
 5458SOL    HW127836   2.456   0.395   2.696 -0.6873 -1.3965  0.2074
 5458SOL    HW227837   2.416   0.518   2.766 -0.2259 -0.5823 -1.9636
 5459SOL     OW27838   1.667   1.609   6.862  0.4036 -0.3051  0.1038
 5459SOL    HW127839   1.741   1.668   6.874 -0.4492  0.9224 -0.6005
 5459SOL    HW227840   1.678   1.546   6.933  2.1240  0.5765  0.6154
 5460SOL     OW27841   3.509   0.931   9.072 -0.2512 -0.2846  0.4372
 5460SOL    HW127842   3.567   0.989   9.121  0.0345 -0.0548 -0.1841
 5460SOL    HW227843   3.556   0.940   8.990  0.3645 -0.2082  0.8004
 5461SOL     OW27844   2.930   4.267  15.153  0.1702 -0.4653 -0.0550
 5461SOL    HW127845   2.859   4.210  15.184  1.7113 -2.2578  0.1540
 5461SOL    HW227846   2.931   4.237  15.062  1.3789  1.5493 -0.7130
 5462SOL     OW27847   2.111   2.033   1.930  0.6223  0.2386 -0.6791
 5462SOL    HW127848   2.132   1.944   1.960  0.3744  0.6527  0.7314
 5462SOL    HW227849   2.048   2.008   1.863 -1.0995  0.0019  1.0217
 5463SOL     OW27850   2.772   2.563   0.710 -0.3178 -0.4089 -0.2834
 5463SOL    HW127851   2.703   2.627   0.692 -0.4816 -0.5432 -0.1260
 5463SOL    HW227852   2.724   2.488   0.744  0.9140 -0.7702  0.6579
 5464SOL     OW27853   1.535   1.457   3.857 -0.3129 -0.0712 -0.0355
 5464SOL    HW127854   1.456   1.508   3.840 -1.2377 -1.5051 -0.0691
 5464SOL    HW227855   1.605   1.510   3.818 -0.2153  1.0291  1.6481
 5465SOL     OW27856   4.107   1.808   7.275  0.1625  0.4901  0.0510
 5465SOL    HW127857   4.072   1.895   7.290 -0.7423  0.2630 -0.7777
 5465SOL    HW227858   4.095   1.794   7.181  3.4169 -0.9841 -0.1346
 5466SOL     OW27859   3.901   3.890   7.218 -0.0492  0.0969 -0.2001
 5466SOL    HW127860   3.987   3.930   7.218  1.0686 -2.2484  1.8237
 5466SOL    HW227861   3.890   3.893   7.123 -1.3068 -0.6733 -0.0826
 5467SOL     OW27862   1.073   4.548  16.284 -0.0538  0.2356 -0.1848
 5467SOL    HW127863   0.985   4.574  16.312  0.9078  1.5788  1.6521
 5467SOL    HW227864   1.050   4.487  16.215  2.1886 -1.8121  0.8685
 5468SOL     OW27865   1.910   3.370   5.911  0.0554 -0.0321 -0.0811
 5468SOL    HW127866   1.910   3.452   5.961 -0.1089 -0.4088  0.5400
 5468SOL    HW227867   1.830   3.327   5.943 -1.1224  1.2725 -1.2260
 5469SOL     OW27868   1.572   0.380   4.270  0.1920 -0.0343  0.3759
 5469SOL    HW127869   1.505   0.379   4.339 -1.7666 -0.2611 -1.5530
 5469SOL    HW227870   1.601   0.470   4.285 -2.2288  0.8162 -0.0507
 5470SOL     OW27871   1.823   4.700  12.181 -0.0452  0.2544  0.6528
 5470SOL    HW127872   1.915   4.694  12.206  0.1227 -2.5366 -0.7129
 5470SOL    HW227873   1.810   0.071  12.165  1.5583  0.4113  0.2790
 5471SOL     OW27874   0.351   4.658   9.597 -0.0414  0.7993  0.4672
 5471SOL    HW127875   0.388   4.604   9.667  0.9386  1.4006  0.4294
 5471SOL    HW227876   0.294   4.597   9.552  0.7333  1.4181 -1.3845
 5472SOL     OW27877   3.870   1.968   3.403 -0.1947 -0.3205  0.0120
 5472SOL    HW127878   3.848   1.876   3.417  0.5212 -0.1760  2.0618
 5472SOL    HW227879   3.908   1.976   3.490 -2.9805  2.1365  1.0383
 5473SOL     OW27880   1.441   1.765  14.123 -0.1186 -0.7598 -0.3942
 5473SOL    HW127881   1.445   1.832  14.191 -0.4430 -0.6733 -0.4573
 5473SOL    HW227882   1.483   1.694  14.170 -0.1869 -0.3617  0.2760
 5474SOL     OW27883   2.465   3.566   6.246  0.6177  0.5514  0.3759
 5474SOL    HW127884   2.541   3.586   6.191  1.4595  1.8800  2.0289
 5474SOL    HW227885   2.421   3.651   6.239 -1.0297 -0.2801  0.6533
 5475SOL     OW27886   1.336   4.413  10.837 -0.4967 -0.4900 -0.0923
 5475SOL    HW127887   1.408   4.377  10.784  1.6756  1.4042  1.5564
 5475SOL    HW227888   1.263   4.353  10.820 -0.5140 -0.5471  0.1808
 5476SOL     OW27889   2.639   2.609   9.059  0.9105 -0.4943  0.0114
 5476SOL    HW127890   2.665   2.680   9.000 -0.0848  0.2684  0.4748
 5476SOL    HW227891   2.694   2.620   9.136 -0.4071 -1.5840  1.0969
 5477SOL     OW27892   3.672   0.005   2.047  0.0303 -0.0531  0.3053
 5477SOL    HW127893   3.738   4.660   2.025 -2.9796 -2.0347 -2.7213
 5477SOL    HW227894   3.643   0.033   1.960  1.7965 -2.5976 -1.1256
 5478SOL     OW27895   1.579   3.607  11.332 -0.3608  0.0593  0.4717
 5478SOL    HW127896   1.659   3.604  11.280  0.2035  0.1373  1.3376
 5478SOL    HW227897   1.567   3.512  11.334  1.2761 -0.1979 -2.3513
 5479SOL     OW27898   2.031   0.276  10.213  0.4742  0.0064  0.6442
 5479SOL    HW127899   1.937   0.296  10.220 -0.0319 -2.4629  0.6366
 5479SOL    HW227900   2.073   0.361  10.201  0.8987 -0.3179 -0.1128
 5480SOL     OW27901   1.408   1.868  12.784  0.4679 -0.0582  0.4968
 5480SOL    HW127902   1.344   1.934  12.811  0.0447  0.5266 -1.9484
 5480SOL    HW227903   1.479   1.930  12.769  1.3249 -0.7827  1.6094
 5481SOL     OW27904   0.350   2.996   3.042 -0.4563  0.2108  0.5766
 5481SOL    HW127905   0.381   2.996   2.951  0.5209  0.3131  0.9025
 5481SOL    HW227906   0.304   2.913   3.031  1.3504 -0.5571 -1.2378
 5482SOL     OW27907   0.996   2.852  16.872 -0.3699 -0.3038 -0.4136
 5482SOL    HW127908   1.007   2.918  16.804  0.5069  0.1314  0.1410
 5482SOL    HW227909   0.937   2.902  16.929  1.6897  1.7100 -0.0336
 5483SOL     OW27910   1.282   4.416  11.112 -0.8496  0.3239 -0.5428
 5483SOL    HW127911   1.205   4.471  11.124 -0.3568  1.0817 -0.8408
 5483SOL    HW227912   1.303   4.413  11.018  1.3909 -1.2161 -0.0040
 5484SOL     OW27913   1.076   3.913   3.880 -0.1291  0.1358  0.1561
 5484SOL    HW127914   1.125   3.891   3.801 -0.5005 -1.5795  0.4040
 5484SOL    HW227915   1.127   3.875   3.951  2.0884 -0.0721 -1.5329
 5485SOL     OW27916   3.017   3.941   7.168 -0.3170 -0.4906  0.7142
 5485SOL    HW127917   3.038   3.907   7.255  2.1060  0.6606  0.5431
 5485SOL    HW227918   2.949   3.884   7.131 -1.2523  1.3512 -0.4164
 5486SOL     OW27919   3.083   4.109   7.526 -0.3608 -0.5802 -0.3363
 5486SOL    HW127920   3.174   4.108   7.498 -0.4275 -3.0546 -0.4900
 5486SOL    HW227921   3.046   4.031   7.484 -1.3185 -1.3004  1.8956
 5487SOL     OW27922   1.336   1.627   3.917  0.2126 -0.0519 -0.0430
 5487SOL    HW127923   1.251   1.625   3.961  0.5808  0.0022  0.6692
 5487SOL    HW227924   1.385   1.693   3.965  1.8454 -0.4798 -1.1341
 5488SOL     OW27925   0.723   3.094  15.036 -0.2487 -0.6446 -0.7002
 5488SOL    HW127926   0.740   3.124  15.126  2.4703  0.5211 -1.5858
 5488SOL    HW227927   0.740   3.000  15.027  0.6896 -0.5147 -0.2565
 5489SOL     OW27928   3.989   0.534   2.121  0.2419 -0.5066 -0.1873
 5489SOL    HW127929   3.906   0.506   2.159 -0.4177  0.3814 -0.9733
 5489SOL    HW227930   4.006   0.464   2.059 -0.6633 -1.3539  0.5212
 5490SOL     OW27931   1.284   2.119   6.070  0.4888 -0.0443 -0.0591
 5490SOL    HW127932   1.373   2.086   6.082  0.6698  0.3025 -0.4613
 5490SOL    HW227933   1.294   2.214   6.072 -3.4306  0.3738 -1.2516
 5491SOL     OW27934   0.424   3.718  12.552  0.0018  0.3241  0.3093
 5491SOL    HW127935   0.448   3.643  12.499  1.3549  0.8232  0.2061
 5491SOL    HW227936   0.507   3.765  12.551  0.9371 -1.3650 -2.2862
 5492SOL     OW27937   3.303   1.040   4.918 -0.2287 -0.0945 -0.4562
 5492SOL    HW127938   3.348   1.016   4.838 -1.5390 -0.7943 -0.9935
 5492SOL    HW227939   3.259   0.957   4.939  1.3852 -0.9356 -0.4536
 5493SOL     OW27940   4.180   2.923   5.901 -0.5613 -0.7257  0.2375
 5493SOL    HW127941   4.219   3.009   5.917 -0.6723 -0.4607 -0.9328
 5493SOL    HW227942   4.186   2.881   5.987 -2.5958 -3.9090 -1.1821
 5494SOL     OW27943   0.857   3.516   2.958 -1.0978 -0.2122 -0.6032
 5494SOL    HW127944   0.876   3.502   2.865  2.1481  0.9109 -0.1194
 5494SOL    HW227945   0.897   3.602   2.972  0.9333 -1.5549  1.9680
 5495SOL     OW27946   3.365   0.650  11.761 -0.0708  0.4628  0.6742
 5495SOL    HW127947   3.371   0.692  11.676  1.2327 -2.4658 -0.6800
 5495SOL    HW227948   3.292   0.588  11.751  1.2729 -1.2593  1.4389
 5496SOL     OW27949   0.119   1.035   3.005 -0.1160 -0.4655 -0.1864
 5496SOL    HW127950   0.118   0.997   3.093 -1.3340 -1.7071 -0.7324
 5496SOL    HW227951   0.125   1.124   3.038  0.6140  0.2213 -2.1765
 5497SOL     OW27952   3.287   4.484   0.619  0.3754  0.0504 -0.3807
 5497SOL    HW127953   3.297   4.397   0.581 -2.3081 -0.6676  0.5790
 5497SOL    HW227954   3.198   4.512   0.601 -0.1606 -0.1356  2.0706
 5498SOL     OW27955   0.420   4.412   1.025 -0.3510 -0.3636 -0.3476
 5498SOL    HW127956   0.346   4.446   1.076 -0.7861 -0.7617 -0.7095
 5498SOL    HW227957   0.372   4.374   0.951 -2.1391  1.6814 -0.2482
 5499SOL     OW27958   4.595   2.953  15.825 -0.0041  0.0644 -0.3397
 5499SOL    HW127959   4.685   2.967  15.796 -0.0903 -0.2598 -0.7588
 5499SOL    HW227960   4.547   2.996  15.755 -0.6895 -0.6540 -0.3131
 5500SOL     OW27961   3.929   0.522   0.093 -0.4549 -0.1443  0.2007
 5500SOL    HW127962   4.000   0.504   0.031 -0.3020  0.4559  0.2062
 5500SOL    HW227963   3.910   0.443   0.143 -0.1617 -0.1220  0.3460
 5501SOL     OW27964   4.238   0.721  15.027  0.1937  0.0415  0.1514
 5501SOL    HW127965   4.207   0.805  15.062  0.3507 -0.0190  0.4373
 5501SOL    HW227966   4.322   0.746  14.989 -0.1188  0.8044 -0.0440
 5502SOL     OW27967   3.263   1.145   6.298 -0.5582  0.0361 -0.1136
 5502SOL    HW127968   3.235   1.140   6.389  0.3363  0.8916  0.2097
 5502SOL    HW227969   3.257   1.240   6.284  2.5690 -0.0801 -2.3351
 5503SOL     OW27970   1.272   2.281   3.780  0.3067 -0.2163 -0.1658
 5503SOL    HW127971   1.211   2.257   3.850 -0.7252 -1.1460 -1.3807
 5503SOL    HW227972   1.304   2.369   3.801 -2.2257  1.0409 -1.5044
 5504SOL     OW27973   2.822   2.040   7.027 -0.3748 -0.6152  0.0714
 5504SOL    HW127974   2.746   2.046   7.085  0.4322 -1.1241  1.1767
 5504SOL    HW227975   2.798   2.085   6.946  0.6549 -0.0870  0.0565
 5505SOL     OW27976   4.357   1.217  14.963 -0.0416  0.6580  0.1318
 5505SOL    HW127977   4.289   1.149  14.957 -0.3708  1.0333 -0.3831
 5505SOL    HW227978   4.429   1.156  14.980  0.1112  0.8580  0.1868
 5506SOL     OW27979   2.279   1.867   2.405 -0.6204  0.1469  0.5646
 5506SOL    HW127980   2.310   1.778   2.392 -2.1139 -0.5427  1.7156
 5506SOL    HW227981   2.301   1.874   2.498 -1.5548 -1.6153  0.9183
 5507SOL     OW27982   3.569   2.285   1.729  0.0014 -1.4272  0.1011
 5507SOL    HW127983   3.570   2.235   1.647 -0.1905  0.5183 -1.1032
 5507SOL    HW227984   3.536   2.219   1.790 -0.8939 -1.1747 -0.1130
 5508SOL     OW27985   3.030   4.181   5.113 -0.0565 -0.1352 -0.3331
 5508SOL    HW127986   2.979   4.260   5.095  1.0171  0.4606 -0.7265
 5508SOL    HW227987   3.057   4.192   5.204 -0.4158 -1.8032 -0.0285
 5509SOL     OW27988   3.403   2.310   0.874 -0.2597 -0.5316  0.2738
 5509SOL    HW127989   3.414   2.219   0.902 -0.4938 -1.0962 -1.4202
 5509SOL    HW227990   3.452   2.297   0.793 -0.2574  0.3362  0.1352
 5510SOL     OW27991   0.068   1.544   1.876 -0.0875  0.4788  0.2360
 5510SOL    HW127992   0.103   1.468   1.922 -0.6252 -1.1276 -2.0702
 5510SOL    HW227993   0.113   1.536   1.792  0.2593  0.7967  0.3908
 5511SOL     OW27994   1.041   4.048   9.569  0.0011 -0.5677  0.0753
 5511SOL    HW127995   0.988   3.969   9.569 -0.2738 -0.3785  0.6913
 5511SOL    HW227996   1.037   4.074   9.661 -1.0239  0.7336 -0.3342
 5512SOL     OW27997   1.905   0.070  10.642  0.3529  0.4288  0.0797
 5512SOL    HW127998   1.962   4.715  10.638 -0.1187  0.1498 -1.0418
 5512SOL    HW227999   1.943   0.106  10.562 -1.0338  2.0393  0.1424
 5513SOL     OW28000   3.691   1.645  13.792 -0.0185  0.0782 -0.5394
 5513SOL    HW128001   3.702   1.660  13.886 -1.0221 -2.2778 -0.0593
 5513SOL    HW228002   3.660   1.732  13.766 -0.5097 -0.0993 -0.5318
 5514SOL     OW28003   3.466   3.622   8.468 -0.2550 -0.1766 -0.2100
 5514SOL    HW128004   3.424   3.627   8.382 -0.2647 -0.3052 -0.2123
 5514SOL    HW228005   3.552   3.606   8.430  0.0885  2.2824 -0.5067
 5515SOL     OW28006   4.343   2.816   8.073  0.2402 -0.5573 -0.2487
 5515SOL    HW128007   4.301   2.730   8.076  1.3437 -1.0228  1.9816
 5515SOL    HW228008   4.361   2.818   7.979  1.7136  0.2515  0.0549
 5516SOL     OW28009   2.905   4.160   9.166  0.0159  0.3454  0.5627
 5516SOL    HW128010   2.861   4.084   9.205  2.6308 -0.4638  1.9799
 5516SOL    HW228011   2.993   4.131   9.140 -0.9280  0.4592 -2.6744
 5517SOL     OW28012   0.003   0.470   8.362 -0.4112 -0.0904 -0.4633
 5517SOL    HW128013   0.032   0.380   8.344 -2.7242 -0.9516  0.1166
 5517SOL    HW228014   4.653   0.458   8.423 -0.7205  0.4960 -0.7143
 5518SOL     OW28015   4.057   4.378   7.462 -0.8546  0.0612  0.3850
 5518SOL    HW128016   3.970   4.411   7.439 -1.0985 -0.0410  1.1510
 5518SOL    HW228017   4.085   4.339   7.379  1.4582  3.9941 -0.6623
 5519SOL     OW28018   0.774   2.997  10.985  0.1605  0.1420  0.0158
 5519SOL    HW128019   0.753   3.008  10.892  1.7475  0.4152 -0.3010
 5519SOL    HW228020   0.855   2.947  10.979 -0.9590 -1.7841  1.0257
 5520SOL     OW28021   1.814   2.342  16.219  0.0695 -0.2298 -0.0434
 5520SOL    HW128022   1.741   2.383  16.266  1.2189  1.1729  0.5108
 5520SOL    HW228023   1.834   2.262  16.269  1.4487  0.1202 -0.0369
 5521SOL     OW28024   4.122   1.284   8.292  0.3766  0.1503  0.0961
 5521SOL    HW128025   4.064   1.300   8.367 -0.1062 -1.5286  0.0762
 5521SOL    HW228026   4.062   1.246   8.227 -1.5227 -0.1983  2.0582
 5522SOL     OW28027   2.118   1.081   3.039  0.4459  0.2381  0.0624
 5522SOL    HW128028   2.170   1.022   3.094 -1.0593 -1.6068 -0.4917
 5522SOL    HW228029   2.147   1.054   2.952 -1.4963  2.1896 -1.1925
 5523SOL     OW28030   0.698   1.983   1.049  0.2647 -0.8310 -0.7149
 5523SOL    HW128031   0.710   2.057   1.108  1.7156 -0.7216 -1.1325
 5523SOL    HW228032   0.607   1.982   1.020 -0.5173 -0.4417  1.8190
 5524SOL     OW28033   0.174   0.489   9.497  0.3924 -0.2770  0.1409
 5524SOL    HW128034   0.227   0.472   9.575  0.0714  0.0783  0.4343
 5524SOL    HW228035   0.118   0.412   9.501  0.8457 -0.6201 -0.0629
 5525SOL     OW28036   2.070   0.846   8.255 -0.6233 -0.2061  0.4621
 5525SOL    HW128037   2.043   0.930   8.292 -3.5589  0.7674 -3.8671
 5525SOL    HW228038   2.161   0.861   8.227 -0.7688 -0.1738  0.0093
 5526SOL     OW28039   1.299   1.394   5.893 -0.2480 -0.5142 -0.4774
 5526SOL    HW128040   1.219   1.364   5.936 -0.8656  0.1851 -1.1196
 5526SOL    HW228041   1.280   1.487   5.902 -0.4513 -0.4434 -1.5560
 5527SOL     OW28042   1.024   1.750   2.647 -0.4297  0.7115  0.0524
 5527SOL    HW128043   1.114   1.726   2.626 -1.4686 -1.8927 -1.4168
 5527SOL    HW228044   0.981   1.743   2.561  0.4246  0.4649 -0.3476
 5528SOL     OW28045   0.732   3.225   1.210 -0.1998 -0.7888  0.6848
 5528SOL    HW128046   0.638   3.221   1.192 -0.0728  2.2746 -0.6401
 5528SOL    HW228047   0.720   3.207   1.303  2.2815 -1.0680  0.9449
 5529SOL     OW28048   1.836   0.100   0.951 -0.0889 -0.3522 -0.3706
 5529SOL    HW128049   1.826   0.063   1.039 -0.1369 -1.6284 -0.9176
 5529SOL    HW228050   1.931   0.107   0.950 -0.2743  2.0445 -1.5395
 5530SOL     OW28051   4.224   2.360   1.586 -0.2774  0.4849  0.1215
 5530SOL    HW128052   4.240   2.412   1.665 -2.6851  0.8264  0.3696
 5530SOL    HW228053   4.158   2.297   1.613 -0.1440  0.3726  0.1856
 5531SOL     OW28054   3.938   2.825   6.294  0.4711 -0.6073 -0.2630
 5531SOL    HW128055   3.886   2.751   6.325  1.6409 -0.1316  2.8080
 5531SOL    HW228056   4.028   2.795   6.293  0.2649 -1.1795 -1.5519
 5532SOL     OW28057   3.908   1.241   6.535  0.2136  0.0517  0.1177
 5532SOL    HW128058   3.953   1.186   6.599  0.1250  0.8344  0.8537
 5532SOL    HW228059   3.976   1.300   6.502  0.1414 -0.5628 -1.1199
 5533SOL     OW28060   0.419   2.884   6.570 -0.1749 -0.3804  0.1936
 5533SOL    HW128061   0.352   2.896   6.503  0.3011 -2.1973 -0.6220
 5533SOL    HW228062   0.394   2.953   6.632  0.2948 -0.9405  1.0087
 5534SOL     OW28063   0.690   1.228   8.363 -0.6047 -0.1100  0.1050
 5534SOL    HW128064   0.681   1.273   8.447 -1.8108 -0.6069  0.2376
 5534SOL    HW228065   0.733   1.301   8.319 -0.5066  0.8153  1.7115
 5535SOL     OW28066   2.873   0.637   8.019 -0.2093  0.0055  0.0728
 5535SOL    HW128067   2.936   0.611   8.086  1.4173 -2.4912 -2.3917
 5535SOL    HW228068   2.924   0.613   7.941 -1.5190 -2.7520  0.0549
 5536SOL     OW28069   3.967   1.099  12.950 -0.1602  1.0305  0.1513
 5536SOL    HW128070   3.950   1.184  12.910 -0.4055  0.2956 -1.3096
 5536SOL    HW228071   3.902   1.095  13.020 -0.2890  1.8791  0.0855
 5537SOL     OW28072   3.011   3.205   1.433  0.2628  0.3262 -0.3065
 5537SOL    HW128073   2.922   3.238   1.443 -0.3564 -1.2424 -0.6522
 5537SOL    HW228074   3.008   3.194   1.338 -0.7939 -1.3870 -0.0679
 5538SOL     OW28075   4.024   0.279   6.494  0.9667 -0.0819  0.0509
 5538SOL    HW128076   3.982   0.195   6.511  0.7501  0.6063  2.8056
 5538SOL    HW228077   4.101   0.243   6.448  1.1135  0.0502  0.1931
 5539SOL     OW28078   3.521   0.216   3.515 -0.2591 -0.4085 -0.0577
 5539SOL    HW128079   3.443   0.235   3.463  0.4105  1.9421 -0.1835
 5539SOL    HW228080   3.592   0.230   3.453  1.2519 -0.0202  1.7390
 5540SOL     OW28081   0.589   2.359  12.294 -0.0482  0.1249 -0.6439
 5540SOL    HW128082   0.560   2.292  12.355  1.4220  1.2038  1.2384
 5540SOL    HW228083   0.503   2.390  12.265 -0.5362  0.1456  0.8271
 5541SOL     OW28084   4.640   2.218   3.538  0.4857 -0.0072  0.4604
 5541SOL    HW128085   4.565   2.187   3.488  0.3672  0.2495  0.4784
 5541SOL    HW228086   4.634   2.312   3.525  0.1841 -0.2241 -0.9941
 5542SOL     OW28087   2.980   2.846   7.683 -0.2352  0.1858  0.4280
 5542SOL    HW128088   2.905   2.860   7.740  0.3911 -0.2374  1.3602
 5542SOL    HW228089   3.007   2.760   7.715  1.2455  1.1426  1.7197
 5543SOL     OW28090   1.323   0.692   1.843 -0.6257  0.1778 -0.0583
 5543SOL    HW128091   1.398   0.702   1.902  0.5610 -0.0647 -1.5419
 5543SOL    HW228092   1.319   0.603   1.806 -1.1951 -0.2660  1.0538
 5544SOL     OW28093   3.986   3.726  15.435  0.0484  0.0621  0.2696
 5544SOL    HW128094   3.892   3.726  15.420  0.2805 -2.9858 -1.1290
 5544SOL    HW228095   3.987   3.720  15.531  1.3962 -2.3492  0.1073
 5545SOL     OW28096   1.635   4.327   1.027 -0.0022 -0.0031 -0.0299
 5545SOL    HW128097   1.698   4.283   0.970  0.8495  0.9005  0.2239
 5545SOL    HW228098   1.696   4.376   1.083  0.0490  0.3293 -0.3791
 5546SOL     OW28099   0.862   3.875   5.847 -0.0926 -0.4675 -0.0319
 5546SOL    HW128100   0.931   3.845   5.787  0.2714  0.2487  0.0266
 5546SOL    HW228101   0.789   3.815   5.833  0.3194 -1.5100  2.2611
 5547SOL     OW28102   1.159   4.220   5.481  0.4995  0.5480  1.0684
 5547SOL    HW128103   1.138   4.246   5.570  0.0705  0.2603  1.0506
 5547SOL    HW228104   1.070   4.215   5.447  0.6592 -0.7151  0.8152
 5548SOL     OW28105   0.150   0.156   6.443  0.1667  0.3459  0.8092
 5548SOL    HW128106   0.226   0.179   6.496  0.4451  1.2139  0.0241
 5548SOL    HW228107   0.082   0.183   6.505  0.6848  0.3498  1.3764
 5549SOL     OW28108   1.191   1.510   0.849 -0.3024 -0.0132  0.0718
 5549SOL    HW128109   1.136   1.484   0.775  0.9336  1.0762 -1.2491
 5549SOL    HW228110   1.143   1.457   0.912 -0.0038 -0.0554  0.2661
 5550SOL     OW28111   1.540   0.159  14.051  0.4180  0.7431 -0.1460
 5550SOL    HW128112   1.521   0.195  14.137  2.0107 -1.1564  1.0007
 5550SOL    HW228113   1.574   0.073  14.075 -1.1933  0.7031  1.9682
 5551SOL     OW28114   0.375   1.967   7.121  0.3059  0.7149 -0.4706
 5551SOL    HW128115   0.460   1.925   7.115  0.5624  1.0359  0.9354
 5551SOL    HW228116   0.396   2.046   7.170 -1.1176 -0.1397  1.5618
 5552SOL     OW28117   2.763   1.004   4.766  0.0862 -0.4242  0.0514
 5552SOL    HW128118   2.796   1.089   4.736 -3.5596  0.1330 -2.3266
 5552SOL    HW228119   2.686   1.001   4.709 -0.0092 -1.9209  0.2577
 5553SOL     OW28120   3.483   4.111   9.940  0.2955 -0.2909 -0.8459
 5553SOL    HW128121   3.444   4.057  10.009  1.2275 -1.2068 -1.0302
 5553SOL    HW228122   3.538   4.057   9.884  0.5594 -0.0570 -0.8128
 5554SOL     OW28123   0.134   4.123   9.237  0.2735 -0.1899  0.0312
 5554SOL    HW128124   0.165   4.048   9.186 -1.5236 -0.5309 -0.5779
 5554SOL    HW228125   0.203   4.154   9.296  3.1842 -1.4332 -2.7201
 5555SOL     OW28126   0.129   0.863   3.263 -0.0401  0.0726  0.5729
 5555SOL    HW128127   0.070   0.935   3.286  0.3470  0.9389 -1.0989
 5555SOL    HW228128   0.071   0.804   3.216 -0.0986  1.0107 -0.5442
 5556SOL     OW28129   3.632   4.183  17.018 -0.2761 -0.2289  0.1379
 5556SOL    HW128130   3.673   4.107  16.976 -0.4466 -0.6897  0.8070
 5556SOL    HW228131   3.569   4.219  16.955 -0.0687  1.3283  0.8137
 5557SOL     OW28132   3.292   3.043   7.908  0.3057  0.1734 -0.6854
 5557SOL    HW128133   3.334   2.992   7.978  1.6004 -0.3140 -1.8082
 5557SOL    HW228134   3.203   3.012   7.919  0.3797  0.0325 -0.4734
 5558SOL     OW28135   3.835   2.820   1.546 -0.2651 -0.4401 -0.0977
 5558SOL    HW128136   3.767   2.754   1.532  0.0929 -1.0192  0.9327
 5558SOL    HW228137   3.782   2.884   1.594 -1.4075 -2.3844  1.2085
 5559SOL     OW28138   0.280   0.436   9.233 -0.3237  0.2775  0.7670
 5559SOL    HW128139   0.221   0.440   9.308 -1.2456  0.0243  0.0576
 5559SOL    HW228140   0.366   0.416   9.270  0.7072 -0.2616 -1.8917
 5560SOL     OW28141   2.653   2.965   6.880  0.1485 -0.0099 -0.2381
 5560SOL    HW128142   2.623   3.054   6.864 -0.5319  0.1411  2.0169
 5560SOL    HW228143   2.675   2.980   6.972  0.7680  0.8638 -0.5223
 5561SOL     OW28144   0.041   3.721   3.574 -0.9151  0.2957 -0.2346
 5561SOL    HW128145   0.130   3.755   3.569 -0.6429 -0.5091 -0.9010
 5561SOL    HW228146   0.018   3.726   3.481  1.1601 -4.8937 -1.0349
 5562SOL     OW28147   0.440   0.677  16.198 -0.0592 -0.2616  0.4773
 5562SOL    HW128148   0.493   0.652  16.123 -0.3155 -1.0821  0.5673
 5562SOL    HW228149   0.513   0.702  16.254  1.0632 -1.4061 -0.4771
 5563SOL     OW28150   1.456   0.901   9.504  0.3790 -0.3421 -0.6154
 5563SOL    HW128151   1.453   0.846   9.425  0.8672 -1.6656  0.2885
 5563SOL    HW228152   1.412   0.979   9.470  1.1354  0.7905  1.0101
 5564SOL     OW28153   2.665   1.784   6.924 -0.2435 -0.1417  0.0355
 5564SOL    HW128154   2.641   1.778   7.016  0.0993  0.4400  0.1610
 5564SOL    HW228155   2.624   1.704   6.890  0.3256 -0.1967 -0.5242
 5565SOL     OW28156   3.253   2.154   5.343 -0.0140  0.7328  0.0398
 5565SOL    HW128157   3.235   2.106   5.424 -2.0178  0.2175 -0.6921
 5565SOL    HW228158   3.337   2.116   5.316  0.4575  1.2872  0.7601
 5566SOL     OW28159   0.836   1.933   3.377 -0.3062  0.0970  0.0127
 5566SOL    HW128160   0.901   1.863   3.373  0.9180  1.3846 -2.7572
 5566SOL    HW228161   0.881   1.978   3.448 -1.5182 -0.0614  0.8783
 5567SOL     OW28162   2.753   3.788   4.214 -0.0474  0.0904 -0.6233
 5567SOL    HW128163   2.810   3.865   4.212  0.3852 -0.2401 -1.0072
 5567SOL    HW228164   2.772   3.749   4.130 -3.1231  0.0289 -1.2773
 5568SOL     OW28165   0.094   3.937  12.125 -0.1529  0.5988 -0.4281
 5568SOL    HW128166   0.117   3.893  12.207 -0.1685 -1.0644 -1.3156
 5568SOL    HW228167   0.135   4.023  12.132 -0.5729  0.9213 -1.9533
 5569SOL     OW28168   0.892   4.595   3.504 -0.7019 -0.1261 -0.3890
 5569SOL    HW128169   0.924   4.594   3.414  0.2585 -0.4751 -0.0413
 5569SOL    HW228170   0.827   4.665   3.494  1.1193  1.5198 -0.5888
 5570SOL     OW28171   3.139   2.854   1.424 -0.2259  0.0334 -0.6744
 5570SOL    HW128172   3.214   2.896   1.382  0.7865  0.4292  1.5314
 5570SOL    HW228173   3.080   2.885   1.355  0.6984  3.2158 -0.0725
 5571SOL     OW28174   3.506   3.877   6.382 -0.4260 -0.2615  0.0008
 5571SOL    HW128175   3.453   3.957   6.380 -1.2864 -0.7817  1.8933
 5571SOL    HW228176   3.518   3.868   6.287  0.3107  0.7745 -0.0046
 5572SOL     OW28177   2.149   2.207   7.609 -0.9591 -0.1498 -0.0846
 5572SOL    HW128178   2.140   2.259   7.689 -0.5753  2.0050 -1.4334
 5572SOL    HW228179   2.211   2.257   7.557  0.3594  0.4681  2.0880
 5573SOL     OW28180   1.476   3.899  16.155 -0.5013 -0.1782 -0.8201
 5573SOL    HW128181   1.472   3.907  16.250 -3.3275 -0.9736 -0.8746
 5573SOL    HW228182   1.420   3.825  16.135  0.6351 -1.2158 -0.1673
 5574SOL     OW28183   2.715   0.613   5.558 -0.3435  0.1781  0.4693
 5574SOL    HW128184   2.738   0.633   5.467  1.4146  0.6487  1.0037
 5574SOL    HW228185   2.655   0.683   5.583  1.1563  1.5744  0.1606
 5575SOL     OW28186   3.617   2.886  14.751 -0.0519 -0.7709  0.4337
 5575SOL    HW128187   3.709   2.883  14.725  0.2346 -1.2064  1.5331
 5575SOL    HW228188   3.578   2.970  14.727  0.3945 -0.7323 -0.1493
 5576SOL     OW28189   0.695   1.059   2.150 -0.1463 -0.0213  0.3767
 5576SOL    HW128190   0.751   1.124   2.192  3.0648 -2.1730 -0.5442
 5576SOL    HW228191   0.613   1.108   2.145 -0.6723 -0.9407  0.0012
 5577SOL     OW28192   3.097   3.825   7.387 -0.6788 -0.4066 -0.1305
 5577SOL    HW128193   3.182   3.811   7.428 -1.3580 -0.7918  1.1602
 5577SOL    HW228194   3.080   3.734   7.362  1.1344 -0.5120 -0.9490
 5578SOL     OW28195   1.124   1.069   6.894  0.6918 -0.1945 -0.1199
 5578SOL    HW128196   1.132   1.157   6.931  0.6903  0.2617 -1.1994
 5578SOL    HW228197   1.182   1.019   6.952 -1.0908  0.4862  2.2576
 5579SOL     OW28198   1.514   1.846   7.765 -0.0673  0.8368  0.5175
 5579SOL    HW128199   1.420   1.852   7.747 -0.0999 -1.3202 -0.0942
 5579SOL    HW228200   1.553   1.876   7.683  0.4394 -0.5495  0.2485
 5580SOL     OW28201   2.611   2.511   3.861 -0.0861 -0.1467  0.1995
 5580SOL    HW128202   2.588   2.498   3.770 -1.6357 -0.1282  0.5902
 5580SOL    HW228203   2.655   2.596   3.851 -1.0947  0.3110 -0.3101
 5581SOL     OW28204   2.614   4.715  12.452  0.1616  0.2766 -0.1142
 5581SOL    HW128205   2.569   4.648  12.402  0.6987  0.0673 -0.3179
 5581SOL    HW228206   2.690   4.669  12.488 -0.6973 -0.0858  1.2494
 5582SOL     OW28207   2.467   0.624   8.685 -0.2635  0.4030  0.1163
 5582SOL    HW128208   2.437   0.604   8.774  1.0808  1.2169  0.7364
 5582SOL    HW228209   2.533   0.688   8.710  0.0585  0.0168  0.2518
 5583SOL     OW28210   0.364   1.394   3.928  0.4849 -0.4361  0.2039
 5583SOL    HW128211   0.351   1.415   3.836 -0.5449 -0.7002  0.2875
 5583SOL    HW228212   0.372   1.298   3.931 -1.8995 -0.6461 -0.5908
 5584SOL     OW28213   3.261   3.482   6.488  0.4636 -0.0587  0.2596
 5584SOL    HW128214   3.240   3.571   6.462 -0.4303  0.0599  1.3829
 5584SOL    HW228215   3.330   3.462   6.425  2.7152  2.0047  2.0422
 5585SOL     OW28216   2.819   1.214   8.420 -0.2930 -0.1646  0.4734
 5585SOL    HW128217   2.763   1.137   8.429 -1.3274  0.3515 -1.5130
 5585SOL    HW228218   2.765   1.282   8.461 -0.0111 -0.2279  0.9454
 5586SOL     OW28219   0.124   1.446   4.929 -0.4578  0.0281 -0.4788
 5586SOL    HW128220   0.115   1.542   4.930 -0.7172 -0.0049  0.3226
 5586SOL    HW228221   0.032   1.425   4.911 -0.5896  0.9584 -0.9136
 5587SOL     OW28222   3.822   3.665   0.461 -0.2145  0.2709 -0.1900
 5587SOL    HW128223   3.900   3.671   0.404  1.3319  1.3620  2.0524
 5587SOL    HW228224   3.757   3.622   0.406  0.7711 -0.8872 -0.4486
 5588SOL     OW28225   3.201   4.063   0.443  0.2403 -0.3218 -0.0453
 5588SOL    HW128226   3.266   4.131   0.426  0.7568 -0.9278 -0.4882
 5588SOL    HW228227   3.218   4.065   0.538  0.1261  1.0877 -0.0622
 5589SOL     OW28228   2.221   0.661   4.387 -0.5688  0.3513 -0.1622
 5589SOL    HW128229   2.219   0.591   4.452 -1.0342 -0.5602 -1.1467
 5589SOL    HW228230   2.314   0.682   4.400 -0.2527 -1.6594  0.8644
 5590SOL     OW28231   0.691   4.056   8.065 -0.2202 -0.3255 -0.3364
 5590SOL    HW128232   0.617   4.087   8.013 -1.1723  0.9397  1.7877
 5590SOL    HW228233   0.658   4.035   8.152  0.6190  0.8217  0.2404
 5591SOL     OW28234   0.671   3.814   6.460  0.0812  0.2300 -0.1504
 5591SOL    HW128235   0.712   3.890   6.501  1.4618  0.5370 -2.0903
 5591SOL    HW228236   0.596   3.789   6.513 -0.7037 -0.5287 -1.6107
 5592SOL     OW28237   2.124   2.327  16.792 -0.1245 -0.6587 -0.2637
 5592SOL    HW128238   2.166   2.302  16.710 -0.3948 -0.0464 -0.5867
 5592SOL    HW228239   2.100   2.419  16.777 -1.0171 -0.8963 -0.3242
 5593SOL     OW28240   1.579   1.223   6.704  0.2583 -0.2767  0.2482
 5593SOL    HW128241   1.636   1.298   6.686  1.9467 -1.9670 -1.4768
 5593SOL    HW228242   1.558   1.189   6.617 -0.5551 -1.1215  0.7813
 5594SOL     OW28243   3.907   1.408   5.688 -0.0468  0.2580  0.1756
 5594SOL    HW128244   3.917   1.431   5.595 -0.0141 -2.7546 -0.5524
 5594SOL    HW228245   3.999   1.421   5.712 -0.2225  0.8479  0.5195
 5595SOL     OW28246   4.594   4.087   9.271 -0.0862 -0.1393  0.3052
 5595SOL    HW128247   4.688   4.106   9.262 -0.2203  0.5018  0.3107
 5595SOL    HW228248   4.590   4.098   9.366  2.3705 -2.2547  0.6498
 5596SOL     OW28249   1.810   3.468   0.877  0.3441  0.0931  0.7588
 5596SOL    HW128250   1.880   3.403   0.879 -0.3811 -0.7019 -0.5043
 5596SOL    HW228251   1.728   3.419   0.888  0.4727 -0.6218 -1.6286
 5597SOL     OW28252   2.642   3.645   2.830 -0.3253  0.2670 -0.1026
 5597SOL    HW128253   2.627   3.632   2.736 -0.0191  1.4919 -0.3245
 5597SOL    HW228254   2.733   3.619   2.843 -0.2222 -0.1766 -1.6534
 5598SOL     OW28255   3.830   1.970   1.497 -0.3142  0.5165  0.0633
 5598SOL    HW128256   3.823   1.892   1.442  1.1041 -0.2430  0.9710
 5598SOL    HW228257   3.795   1.922   1.572  2.2821  0.2888  1.1313
 5599SOL     OW28258   2.655   0.294   5.847 -0.4679 -0.2798 -0.0302
 5599SOL    HW128259   2.743   0.287   5.882 -0.5668 -2.2413 -0.1994
 5599SOL    HW228260   2.608   0.278   5.928 -0.5518  0.8934  0.1522
 5600SOL     OW28261   0.372   2.122   3.801  0.2133  0.3122 -0.4094
 5600SOL    HW128262   0.361   2.203   3.851  0.8688  0.5838 -0.6978
 5600SOL    HW228263   0.307   2.139   3.733  1.1144 -0.2176 -1.3999
 5601SOL     OW28264   3.448   1.947  14.084  0.2315  0.1484 -0.4656
 5601SOL    HW128265   3.426   1.897  14.163  1.8627  2.1470  1.2571
 5601SOL    HW228266   3.363   1.970  14.048 -1.2342 -0.0155  2.9067
 5602SOL     OW28267   4.192   2.577  14.469  0.4443  0.3264  0.2681
 5602SOL    HW128268   4.170   2.643  14.403  0.9762 -1.9051 -2.1480
 5602SOL    HW228269   4.117   2.573  14.528  1.2932  0.7416  1.3730
 5603SOL     OW28270   0.168   1.422   6.736 -0.3265 -0.3642 -0.7104
 5603SOL    HW128271   0.174   1.473   6.655 -1.4208  2.6427  1.0842
 5603SOL    HW228272   0.259   1.420   6.765 -0.2047 -0.8647 -1.1281
 5604SOL     OW28273   3.786   2.598   4.252 -0.3564  0.6649 -0.2248
 5604SOL    HW128274   3.718   2.636   4.307 -0.2863 -0.0649  0.3685
 5604SOL    HW228275   3.851   2.669   4.257  0.1810  0.2195 -1.0315
 5605SOL     OW28276   1.157   0.576   7.111 -0.2581  0.0982  0.1851
 5605SOL    HW128277   1.249   0.578   7.086 -0.4160  2.6406 -0.1954
 5605SOL    HW228278   1.153   0.616   7.198  2.4904  2.6213 -0.8782
 5606SOL     OW28279   2.217   3.401   3.841  0.3407  0.3658 -0.5294
 5606SOL    HW128280   2.263   3.378   3.921 -1.8806 -0.7956  0.3926
 5606SOL    HW228281   2.139   3.345   3.843  0.2298  0.4619 -1.8824
 5607SOL     OW28282   0.741   1.794   5.623  0.2542 -0.1960 -0.1851
 5607SOL    HW128283   0.708   1.882   5.639  0.2611 -0.0700 -0.8620
 5607SOL    HW228284   0.709   1.740   5.695 -0.8704  0.5622 -0.1306
 5608SOL     OW28285   1.813   2.669  17.272  0.3151  0.3260  0.6200
 5608SOL    HW128286   1.771   2.754  17.255  0.9397 -0.0419 -2.7011
 5608SOL    HW228287   1.772   2.623  17.199  0.3242  1.0248  0.1732
 5609SOL     OW28288   0.078   0.300   8.939  0.1714 -0.3736 -0.0022
 5609SOL    HW128289   0.113   0.217   8.906  0.5711  0.1738 -0.9518
 5609SOL    HW228290   0.035   0.269   9.018 -0.8654  0.1793 -0.3489
 5610SOL     OW28291   2.112   0.180   2.445 -0.1650  0.1588  0.0982
 5610SOL    HW128292   2.175   0.122   2.401 -0.0019  1.3043 -1.1781
 5610SOL    HW228293   2.044   0.207   2.383 -0.6978  1.2108  1.1557
 5611SOL     OW28294   2.139   0.484  12.179 -0.1371  0.0383  0.1424
 5611SOL    HW128295   2.104   0.553  12.237  0.1668 -0.7392  1.2595
 5611SOL    HW228296   2.153   0.532  12.097 -0.8323  2.2403  1.2991
 5612SOL     OW28297   3.390   0.238   6.748 -0.0795  0.2054 -0.3937
 5612SOL    HW128298   3.333   0.185   6.692  0.1412 -1.4392  0.9272
 5612SOL    HW228299   3.405   0.185   6.826 -2.5561  2.1434  1.3746
 5613SOL     OW28300   1.526   1.393   8.892  0.6669 -0.1610  0.5940
 5613SOL    HW128301   1.613   1.427   8.870  0.2222  1.4987  1.4022
 5613SOL    HW228302   1.536   1.301   8.869 -0.0704  0.2300 -1.2385
 5614SOL     OW28303   2.722   3.937   3.677  0.4082 -0.6130 -0.1111
 5614SOL    HW128304   2.664   3.998   3.722  0.2261 -1.1580  0.3825
 5614SOL    HW228305   2.671   3.857   3.664  0.1684 -0.2364 -1.4433
 5615SOL     OW28306   0.173   0.530   3.937  0.0059  0.8255  0.3642
 5615SOL    HW128307   0.128   0.446   3.945  1.5487 -0.0156  0.3367
 5615SOL    HW228308   0.239   0.492   3.879 -0.9672 -1.8310  0.9976
 5616SOL     OW28309   3.417   2.884   2.600 -0.1940  0.1595 -0.5244
 5616SOL    HW128310   3.464   2.962   2.570 -0.8205  0.2059 -1.3973
 5616SOL    HW228311   3.423   2.822   2.527 -0.6951  0.7815 -1.1035
 5617SOL     OW28312   4.328   0.932   3.457 -0.3353  0.3535  0.3031
 5617SOL    HW128313   4.251   0.946   3.402  1.0082 -1.5696 -2.0791
 5617SOL    HW228314   4.336   1.012   3.509 -2.5934 -0.1177  1.3960
 5618SOL     OW28315   0.747   0.697   4.604 -0.4221 -0.0690  0.2097
 5618SOL    HW128316   0.802   0.678   4.680 -1.8320 -0.5603  1.1057
 5618SOL    HW228317   0.813   0.723   4.540 -2.1760  0.1953 -1.5002
 5619SOL     OW28318   0.869   1.181   8.749 -0.2504  0.1212 -0.2913
 5619SOL    HW128319   0.893   1.195   8.840 -2.6014 -1.0251  0.4903
 5619SOL    HW228320   0.886   1.090   8.726 -0.9990 -0.5276  1.7542
 5620SOL     OW28321   0.208   3.452   5.077 -0.2419  0.2674  0.2128
 5620SOL    HW128322   0.223   3.428   4.985  2.6753  2.8951 -0.0144
 5620SOL    HW228323   0.295   3.484   5.101  0.4784 -1.6381  0.1399
 5621SOL     OW28324   1.798   0.965   5.137 -0.1084  0.4250  0.5003
 5621SOL    HW128325   1.782   1.057   5.154  1.6440  0.8072 -0.0068
 5621SOL    HW228326   1.789   0.928   5.225 -0.3815 -0.7091  0.0115
 5622SOL     OW28327   3.739   2.400   1.996  0.2540  0.6435  0.2151
 5622SOL    HW128328   3.773   2.360   1.916 -0.2047  0.7007 -0.0032
 5622SOL    HW228329   3.668   2.446   1.952 -1.1484 -0.6842  1.0986
 5623SOL     OW28330   1.413   4.507  15.548 -0.0028  0.2121  0.0655
 5623SOL    HW128331   1.490   4.523  15.604  0.5297  0.2711 -0.6846
 5623SOL    HW228332   1.374   4.440  15.603 -2.5101  0.9554 -0.7830
 5624SOL     OW28333   3.459   0.298   8.908  0.5477  0.0937 -0.4291
 5624SOL    HW128334   3.393   0.360   8.939  0.6201  0.0906 -0.2714
 5624SOL    HW228335   3.438   0.219   8.958  0.2599  0.4652  0.0320
 5625SOL     OW28336   1.186   1.029   4.314 -0.2129 -0.3804 -0.1589
 5625SOL    HW128337   1.218   1.110   4.274  0.3426 -0.7463 -0.4633
 5625SOL    HW228338   1.254   0.971   4.279 -1.2114 -2.0773  0.7207
 5626SOL     OW28339   0.964   4.377   4.163  0.2882  0.1099 -0.2812
 5626SOL    HW128340   0.945   4.333   4.246 -0.7839  0.0569 -0.5596
 5626SOL    HW228341   1.048   4.422   4.173 -0.0768  0.9707 -1.0772
 5627SOL     OW28342   2.150   2.359   7.842  0.1913  0.0262 -0.0115
 5627SOL    HW128343   2.161   2.454   7.840 -0.0239  0.0453 -0.1923
 5627SOL    HW228344   2.124   2.342   7.933  0.2480 -3.2121 -0.5895
 5628SOL     OW28345   3.880   0.507  13.961  0.0939  0.1953 -0.7673
 5628SOL    HW128346   3.830   0.435  13.921  0.1569  0.9835 -2.2527
 5628SOL    HW228347   3.848   0.581  13.910  0.4001  2.1987  1.9915
 5629SOL     OW28348   2.689   3.062  13.467 -0.4034  0.0835 -0.1991
 5629SOL    HW128349   2.616   3.071  13.529  1.4362  1.7508  1.6961
 5629SOL    HW228350   2.650   3.004  13.402  1.3226  1.9183 -2.8425
 5630SOL     OW28351   0.902   4.065   9.202 -0.1619  0.4374 -0.4743
 5630SOL    HW128352   0.930   4.134   9.141 -0.3526 -1.0929 -2.3049
 5630SOL    HW228353   0.985   4.061   9.248  0.0384  1.3165 -0.7541
 5631SOL     OW28354   3.207   3.137   2.609 -0.7817 -0.3461 -0.6087
 5631SOL    HW128355   3.168   3.129   2.522  0.8486 -1.3449 -1.2470
 5631SOL    HW228356   3.172   3.055   2.644 -2.1020  1.8011  3.0594
 5632SOL     OW28357   1.801   0.322   9.520 -0.1043  0.7243 -0.0933
 5632SOL    HW128358   1.709   0.296   9.528  0.6292 -1.1940  2.0868
 5632SOL    HW228359   1.790   0.412   9.550  0.2220 -0.1889  2.7625
 5633SOL     OW28360   0.195   2.054   9.730 -0.0439 -0.4727 -0.1141
 5633SOL    HW128361   0.201   1.959   9.735  0.4698 -0.4430 -0.1679
 5633SOL    HW228362   0.255   2.056   9.656 -0.4143 -1.7721 -0.4530
 5634SOL     OW28363   2.370   1.374   0.996  0.8558  0.0652 -0.5708
 5634SOL    HW128364   2.449   1.423   1.017  1.1619 -0.8642  0.4852
 5634SOL    HW228365   2.326   1.446   0.951 -1.4476 -0.0649  1.4573
 5635SOL     OW28366   3.918   1.125  16.179 -0.5858 -0.0025  0.1940
 5635SOL    HW128367   3.988   1.066  16.208 -0.9172 -1.4234 -1.8627
 5635SOL    HW228368   3.961   1.208  16.196 -1.9907  1.0879 -1.5721
 5636SOL     OW28369   0.586   4.699   4.359 -1.0207  0.2160 -0.4012
 5636SOL    HW128370   0.547   0.027   4.288 -0.2052 -0.0141 -1.0052
 5636SOL    HW228371   0.511   4.668   4.411 -1.1837  0.2342 -0.6277
 5637SOL     OW28372   2.983   0.298   3.473 -0.9109  0.5977 -0.0640
 5637SOL    HW128373   2.910   0.332   3.422  0.3772 -0.4149 -2.5894
 5637SOL    HW228374   3.052   0.357   3.444  0.2204 -0.4619  0.4604
 5638SOL     OW28375   3.678   3.775   3.741  0.2447 -0.1116  0.7439
 5638SOL    HW128376   3.656   3.749   3.652  1.1344  2.0288 -0.1241
 5638SOL    HW228377   3.636   3.861   3.750 -2.4128 -1.4153  0.5571
 5639SOL     OW28378   2.007   0.526   9.116 -0.1492  0.1459 -0.6199
 5639SOL    HW128379   1.943   0.455   9.121 -1.9902  1.9632  1.6568
 5639SOL    HW228380   2.068   0.506   9.187  1.0761  0.2965 -1.6318
 5640SOL     OW28381   0.671   2.287  13.876 -0.2598  0.5148  0.4233
 5640SOL    HW128382   0.719   2.206  13.893  1.2385  0.6377 -3.2410
 5640SOL    HW228383   0.706   2.300  13.788 -0.0785  0.5590  0.5009
 5641SOL     OW28384   2.900   0.080   5.563 -0.3187 -0.2385  0.5931
 5641SOL    HW128385   2.890   0.033   5.480 -0.2162 -1.3373  1.2150
 5641SOL    HW228386   2.874   0.171   5.546  3.5737  1.0911  1.6498
 5642SOL     OW28387   0.833   0.570   2.845 -0.1205 -0.0874  0.0018
 5642SOL    HW128388   0.804   0.504   2.782  0.4514  0.6926 -1.0786
 5642SOL    HW228389   0.798   0.535   2.926 -1.6349  2.2217  0.3468
 5643SOL     OW28390   3.313   3.752   5.930 -0.0670  0.1595 -0.1807
 5643SOL    HW128391   3.342   3.681   5.873 -0.4265 -1.2902  1.4225
 5643SOL    HW228392   3.387   3.763   5.989  0.6663 -2.0215 -0.7160
 5644SOL     OW28393   1.138   1.498   7.938 -0.2681  0.7959 -0.2000
 5644SOL    HW128394   1.135   1.491   8.033  0.0731  1.0510 -0.1723
 5644SOL    HW228395   1.178   1.583   7.920  1.7161  0.4918  2.7690
 5645SOL     OW28396   2.904   0.320   2.107 -0.3936 -0.4465  0.0238
 5645SOL    HW128397   2.883   0.236   2.066 -2.0258  0.5529 -1.1965
 5645SOL    HW228398   2.851   0.333   2.185 -0.3678  1.9882 -0.3336
 5646SOL     OW28399   2.875   4.413   6.686  0.3072 -0.8370 -0.4634
 5646SOL    HW128400   2.897   4.400   6.778  1.8896  1.5404 -0.4669
 5646SOL    HW228401   2.944   4.469   6.650  0.3805  0.3794  1.5616
 5647SOL     OW28402   4.347   4.112   2.519  0.3397  0.1567 -0.1226
 5647SOL    HW128403   4.374   4.033   2.472  0.5270  0.6097 -0.7785
 5647SOL    HW228404   4.435   4.149   2.518  0.3305  0.1676 -1.1613
 5648SOL     OW28405   3.787   2.328   0.561 -0.6126  0.5124 -0.0857
 5648SOL    HW128406   3.773   2.422   0.551 -0.1554  0.7821  1.8081
 5648SOL    HW228407   3.853   2.312   0.494 -0.6285 -1.0214  0.2486
 5649SOL     OW28408   3.506   0.075   8.413  0.5939  0.7198  0.2469
 5649SOL    HW128409   3.449   0.025   8.354  1.1201  1.7198 -1.1007
 5649SOL    HW228410   3.539   0.005   8.470 -0.9816  0.4573  0.8493
 5650SOL     OW28411   0.478   4.581  12.504 -0.1100 -0.3259  0.0443
 5650SOL    HW128412   0.392   4.544  12.485 -0.2075 -0.4801  0.7921
 5650SOL    HW228413   0.545   4.513  12.505  1.8690  1.6242 -0.3768
 5651SOL     OW28414   1.308   2.970   8.118  0.4166  0.0963 -0.2231
 5651SOL    HW128415   1.275   2.932   8.200  0.0055  1.2260  0.1385
 5651SOL    HW228416   1.235   3.020   8.083 -0.9551 -1.2765  0.6981
 5652SOL     OW28417   3.314   0.503  13.670  0.6004  0.6348  0.1929
 5652SOL    HW128418   3.276   0.585  13.704  1.3597  1.5121 -1.0914
 5652SOL    HW228419   3.246   0.439  13.652 -1.0959  2.7324 -0.9465
 5653SOL     OW28420   0.136   2.975   7.497 -0.2505 -0.5205 -1.0703
 5653SOL    HW128421   0.107   2.886   7.475 -3.2509  0.3198 -0.4977
 5653SOL    HW228422   0.065   3.024   7.456 -0.3378 -1.2907 -1.8298
 5654SOL     OW28423   3.408   0.372   7.191  0.5472  0.3369  0.0790
 5654SOL    HW128424   3.471   0.435   7.225  3.2014 -1.4417 -1.6020
 5654SOL    HW228425   3.406   0.409   7.103 -2.1179 -2.2629 -0.9725
 5655SOL     OW28426   3.636   2.689   2.316  0.0560  0.4605 -0.4471
 5655SOL    HW128427   3.709   2.693   2.379 -1.7695  0.5423  1.6779
 5655SOL    HW228428   3.593   2.774   2.314  0.6502  0.7450 -1.0238
 5656SOL     OW28429   1.029   2.959  11.638 -0.2206  0.0426  0.3851
 5656SOL    HW128430   0.943   2.961  11.679 -1.2537  1.9042 -1.8623
 5656SOL    HW228431   1.012   2.959  11.544  1.6209 -0.2206  0.0550
 5657SOL     OW28432   0.629   3.037   5.720  0.4706  0.2813  0.2038
 5657SOL    HW128433   0.713   2.993   5.708  0.1682 -0.3978  0.5953
 5657SOL    HW228434   0.649   3.121   5.678  1.9599 -0.9202 -1.4824
 5658SOL     OW28435   3.986   0.333   2.699  0.0339  0.5887 -0.1864
 5658SOL    HW128436   3.915   0.304   2.642 -1.1679 -1.5356  2.3674
 5658SOL    HW228437   3.952   0.309   2.785 -0.4429  0.1470 -0.5025
 5659SOL     OW28438   1.482   2.748   4.162 -0.5848  0.0688  0.6852
 5659SOL    HW128439   1.472   2.743   4.067 -1.2120  1.2465  0.6814
 5659SOL    HW228440   1.409   2.805   4.186 -1.1866  0.5660 -2.3596
 5660SOL     OW28441   2.445   1.247   7.696  0.0412  0.4039  0.1779
 5660SOL    HW128442   2.423   1.306   7.623  0.6576 -1.0078 -1.1345
 5660SOL    HW228443   2.531   1.287   7.711  0.9541 -1.2909 -0.6769
 5661SOL     OW28444   3.461   3.358   6.887 -0.5895 -0.1064 -0.2648
 5661SOL    HW128445   3.406   3.280   6.897 -1.8459  0.5466 -2.0640
 5661SOL    HW228446   3.543   3.310   6.880  0.3559  1.1694  2.1131
 5662SOL     OW28447   4.094   1.291   6.238  0.3052  0.0149 -0.0460
 5662SOL    HW128448   4.169   1.239   6.265 -0.2668 -0.6349  0.2887
 5662SOL    HW228449   4.026   1.226   6.219 -0.5847  0.0658  3.0254
 5663SOL     OW28450   0.741   2.954   0.128 -0.1432 -0.5133  0.1948
 5663SOL    HW128451   0.745   3.030   0.070 -0.0534 -1.7224 -1.3992
 5663SOL    HW228452   0.791   2.885   0.083  0.7811  0.7913 -0.7623
 5664SOL     OW28453   1.631   3.702   4.842  0.7729  0.0760  0.6661
 5664SOL    HW128454   1.709   3.751   4.816  1.1216 -0.5203  0.5787
 5664SOL    HW228455   1.557   3.763   4.837  1.2316  0.6048  0.3953
 5665SOL     OW28456   1.423   1.678  14.423  0.0701  0.0334  0.0674
 5665SOL    HW128457   1.467   1.747  14.473  1.2443 -0.8176  0.2126
 5665SOL    HW228458   1.355   1.652  14.486 -1.8772  1.6381 -1.3630
 5666SOL     OW28459   1.430   3.209   5.379  0.2049 -0.3110 -0.4673
 5666SOL    HW128460   1.387   3.157   5.447  0.0651  0.9392  0.3999
 5666SOL    HW228461   1.509   3.250   5.414 -0.7781  2.8540 -1.9410
 5667SOL     OW28462   1.308   4.594  14.676  0.3170 -0.1973 -1.2268
 5667SOL    HW128463   1.226   4.555  14.707  0.6772 -1.0080 -1.2928
 5667SOL    HW228464   1.266   4.666  14.629 -0.4499 -0.7144 -1.3284
 5668SOL     OW28465   0.257   2.972   1.473 -0.1235  0.2772 -0.6297
 5668SOL    HW128466   0.212   2.930   1.546  0.2565  0.7334 -0.1348
 5668SOL    HW228467   0.192   2.961   1.403 -0.6027 -1.2534  0.0582
 5669SOL     OW28468   0.582   4.501  17.058 -0.7816  0.1940 -0.0357
 5669SOL    HW128469   0.521   4.576  17.055 -1.4213 -0.2959  0.9142
 5669SOL    HW228470   0.635   4.536  17.130 -0.0754 -1.6502  0.3202
 5670SOL     OW28471   4.309   1.349   0.942 -0.0369  0.2889  0.1675
 5670SOL    HW128472   4.325   1.275   1.001 -3.0911 -0.6134 -0.1500
 5670SOL    HW228473   4.216   1.332   0.927  0.1733  0.7511 -1.6562
 5671SOL     OW28474   2.735   3.695   8.648 -0.1008 -0.6098  0.0761
 5671SOL    HW128475   2.742   3.731   8.559  0.9262 -0.1522  0.3451
 5671SOL    HW228476   2.652   3.647   8.644  0.6452 -1.8864 -0.0447
 5672SOL     OW28477   0.627   1.582   4.581 -0.0896  0.5435 -0.5135
 5672SOL    HW128478   0.575   1.503   4.599 -0.4487  0.8785 -0.1037
 5672SOL    HW228479   0.711   1.558   4.621 -0.3326  1.0685  0.3111
 5673SOL     OW28480   1.045   1.980   6.159  0.3793  0.4865  1.3041
 5673SOL    HW128481   1.128   2.023   6.136 -0.5018  0.3525 -2.1520
 5673SOL    HW228482   1.004   1.974   6.073  0.4268  0.3410  1.2915
 5674SOL     OW28483   0.880   4.667   6.891 -0.2284  0.2291 -0.5497
 5674SOL    HW128484   0.838   4.710   6.965 -1.6949  0.2748 -1.4049
 5674SOL    HW228485   0.967   4.708   6.892  0.5864 -1.5357  0.7382
 5675SOL     OW28486   3.971   4.173   9.168  0.1622 -0.6758  0.1574
 5675SOL    HW128487   4.061   4.144   9.182  1.3208  2.0083 -1.6295
 5675SOL    HW228488   3.940   4.111   9.102  0.0125  0.0258 -0.4334
 5676SOL     OW28489   3.059   2.832   7.014  0.2348 -0.5175 -0.5986
 5676SOL    HW128490   3.118   2.852   7.087 -0.9728  0.2795  0.1477
 5676SOL    HW228491   3.029   2.745   7.038  0.5951 -0.8041 -1.1802
 5677SOL     OW28492   3.227   2.189  14.241  0.4661 -0.1191  0.5189
 5677SOL    HW128493   3.224   2.230  14.327  1.2356 -1.9293  1.4043
 5677SOL    HW228494   3.197   2.099  14.252  1.2435 -0.2786  1.3253
 5678SOL     OW28495   2.392   1.067   1.641 -0.5704 -0.3847  0.0181
 5678SOL    HW128496   2.351   1.117   1.570 -0.4304 -1.0085 -0.5044
 5678SOL    HW228497   2.371   0.979   1.610 -2.9653 -0.4537  1.8672
 5679SOL     OW28498   0.406   2.830   8.254  0.4961 -0.0988 -0.2808
 5679SOL    HW128499   0.323   2.877   8.255  2.1592  2.9779 -2.3012
 5679SOL    HW228500   0.442   2.896   8.314 -1.5359  1.4155 -0.7302
 5680SOL     OW28501   1.205   3.433  12.725  0.6076  0.0882  0.1383
 5680SOL    HW128502   1.280   3.441  12.666  1.5914 -0.7231  1.2745
 5680SOL    HW228503   1.144   3.396  12.660  0.3245  0.6199  0.1006
 5681SOL     OW28504   3.016   4.710   8.574 -0.1211  0.4907 -0.2733
 5681SOL    HW128505   3.093   0.000   8.519 -0.3452  0.1605 -0.6633
 5681SOL    HW228506   3.033   4.619   8.597  1.6234  0.6286 -1.0148
 5682SOL     OW28507   3.604   1.042   3.402  0.7210  0.1411  0.0385
 5682SOL    HW128508   3.651   0.959   3.412  0.5614 -0.1343 -1.3811
 5682SOL    HW228509   3.530   1.008   3.352  0.2517  1.9340 -0.4937
 5683SOL     OW28510   0.948   0.977   8.469  0.0348  0.2634  0.0860
 5683SOL    HW128511   0.856   0.967   8.445  0.3678  1.2069 -1.5522
 5683SOL    HW228512   0.954   0.916   8.542 -1.2379 -0.3321 -0.3117
 5684SOL     OW28513   0.149   1.935   6.021  0.1218  0.2885  0.2868
 5684SOL    HW128514   0.053   1.937   6.020  0.0824 -0.1145  2.5937
 5684SOL    HW228515   0.153   1.997   6.094 -1.9978  0.1958  0.4841
 5685SOL     OW28516   0.496   3.781   4.993  0.0755 -0.0400  0.3577
 5685SOL    HW128517   0.430   3.739   5.048 -0.9798  1.0021 -0.1138
 5685SOL    HW228518   0.520   3.855   5.049  1.6826  0.2364 -0.6779
 5686SOL     OW28519   2.876   2.953   7.457 -0.6278 -0.1059  0.4703
 5686SOL    HW128520   2.934   2.937   7.383 -0.2502  0.0230  0.7363
 5686SOL    HW228521   2.918   2.912   7.533 -1.7936  0.5481  1.4817
 5687SOL     OW28522   1.339   3.634  12.956  0.2644  0.3372  0.1598
 5687SOL    HW128523   1.402   3.658  13.024 -1.9883  1.4692  1.8818
 5687SOL    HW228524   1.266   3.670  13.008 -0.2549 -0.7270  0.1690
 5688SOL     OW28525   0.672   2.963   3.019  0.8476  0.9320  0.4410
 5688SOL    HW128526   0.671   2.867   3.029  2.4287  1.0125  1.4196
 5688SOL    HW228527   0.588   2.982   2.978  0.0991  0.1890  1.6230
 5689SOL     OW28528   4.480   4.144  16.985  0.3293 -0.2243 -0.0597
 5689SOL    HW128529   4.482   4.068  16.927 -0.4166  0.3507 -0.8224
 5689SOL    HW228530   4.573   4.166  16.990  0.2741  0.5932 -2.7272
 5690SOL     OW28531   3.316   3.810   9.286  0.1192  0.0616 -0.2816
 5690SOL    HW128532   3.356   3.750   9.223  0.8813 -0.8493  1.0691
 5690SOL    HW228533   3.395   3.853   9.319 -0.4512  0.8246  0.0757
 5691SOL     OW28534   0.623   0.765   0.612 -0.0141 -0.1654  0.6420
 5691SOL    HW128535   0.654   0.725   0.531  0.0691  1.2744 -0.0319
 5691SOL    HW228536   0.557   0.698   0.631  1.7119 -2.6247 -2.0608
 5692SOL     OW28537   3.747   4.419   7.804 -0.5097  0.1501  0.7960
 5692SOL    HW128538   3.817   4.477   7.831 -0.6960  0.3324  0.8850
 5692SOL    HW228539   3.797   4.341   7.779  1.2350  1.6581 -0.3808
 5693SOL     OW28540   4.268   3.168   1.235 -0.2916  0.4633  0.0683
 5693SOL    HW128541   4.278   3.253   1.279 -0.4334  2.0222 -2.8746
 5693SOL    HW228542   4.190   3.174   1.179 -0.9175  0.8355  0.9823
 5694SOL     OW28543   1.419   2.023   2.733 -0.4195  0.5755  0.1691
 5694SOL    HW128544   1.494   2.059   2.685 -0.6335  1.7634  0.7318
 5694SOL    HW228545   1.361   1.995   2.662  2.0966 -0.9012 -1.3277
 5695SOL     OW28546   2.707   1.656   0.830  0.3118  0.1990 -0.1860
 5695SOL    HW128547   2.644   1.727   0.845  2.0295  0.8138  4.2124
 5695SOL    HW228548   2.789   1.705   0.824 -0.7713  2.0026 -0.1498
 5696SOL     OW28549   2.575   2.884   3.352 -0.2248  0.2111 -0.2825
 5696SOL    HW128550   2.608   2.801   3.318  0.6393  1.0432 -1.4586
 5696SOL    HW228551   2.571   2.878   3.447 -1.1041  1.7719 -0.2291
 5697SOL     OW28552   3.056   1.593   8.338  0.0894 -0.5518  0.7201
 5697SOL    HW128553   2.989   1.530   8.313  1.1727 -1.1948 -0.5888
 5697SOL    HW228554   3.109   1.545   8.401 -0.1997 -0.0829  1.3163
 5698SOL     OW28555   1.881   1.097  12.464  0.2304  0.0935 -0.2327
 5698SOL    HW128556   1.913   1.183  12.438 -1.0378  0.3033 -1.1380
 5698SOL    HW228557   1.883   1.049  12.381 -1.9922 -0.6360  0.1294
 5699SOL     OW28558   3.660   3.442   3.485  0.4521  0.8802  0.4355
 5699SOL    HW128559   3.652   3.383   3.410 -1.3428 -0.8139  1.9435
 5699SOL    HW228560   3.643   3.385   3.560  0.2177  0.6530  0.2122
 5700SOL     OW28561   3.981   2.899   2.586 -0.3568  0.2815  1.1027
 5700SOL    HW128562   4.027   2.915   2.669  1.2922 -0.4637  0.3172
 5700SOL    HW228563   4.055   2.869   2.535 -1.0319 -1.7762  1.3429
 5701SOL     OW28564   3.149   2.286   2.228  0.5673 -0.6311  0.0576
 5701SOL    HW128565   3.158   2.247   2.315  0.5868 -0.2182  0.2411
 5701SOL    HW228566   3.159   2.379   2.247 -1.9596 -0.1776 -0.8356
 5702SOL     OW28567   3.497   0.842   2.096  0.0181  0.5184 -0.0717
 5702SOL    HW128568   3.484   0.917   2.154  0.6438  0.8215 -0.3281
 5702SOL    HW228569   3.424   0.864   2.038 -0.5352  0.8880  0.7755
 5703SOL     OW28570   1.710   3.948   3.860 -0.0211 -0.3564  0.1577
 5703SOL    HW128571   1.691   3.872   3.804  0.2423 -1.0238  0.9744
 5703SOL    HW228572   1.767   3.996   3.801  1.3237 -1.8574  0.2327
 5704SOL     OW28573   0.291   3.557   3.700  0.0505 -0.1725 -0.2142
 5704SOL    HW128574   0.291   3.467   3.668 -0.1299 -1.3111  3.0223
 5704SOL    HW228575   0.317   3.602   3.619 -1.9126  0.1921 -0.6303
 5705SOL     OW28576   0.279   3.392   5.374  0.3628  0.7809 -0.1083
 5705SOL    HW128577   0.227   3.448   5.316 -1.3010  0.8045  1.3944
 5705SOL    HW228578   0.232   3.310   5.361 -2.2660  2.1973  0.3736
 5706SOL     OW28579   1.703   2.353   9.082 -0.1532  0.3633 -0.2845
 5706SOL    HW128580   1.717   2.313   9.168 -0.2603  0.3461 -0.2759
 5706SOL    HW228581   1.747   2.437   9.093  0.3075  0.0960 -0.0604
 5707SOL     OW28582   2.406   3.442  14.238  0.5749 -0.0117  0.5760
 5707SOL    HW128583   2.346   3.413  14.307  0.6939  0.8457  1.0491
 5707SOL    HW228584   2.481   3.479  14.285  1.0184  1.4549 -1.2544
 5708SOL     OW28585   0.432   1.946   5.455 -0.4195 -0.6232  0.0301
 5708SOL    HW128586   0.419   1.877   5.520  1.7691 -1.5564 -0.5388
 5708SOL    HW228587   0.448   1.894   5.376 -2.1382 -2.6907  1.0280
 5709SOL     OW28588   1.279   2.199   2.005 -0.5382  0.0831  0.3266
 5709SOL    HW128589   1.339   2.132   2.036  0.3534  1.3338  1.3029
 5709SOL    HW228590   1.340   2.273   1.997 -2.2315  1.5658  1.1783
 5710SOL     OW28591   2.257   3.395  14.024 -0.0772  0.1820 -0.0923
 5710SOL    HW128592   2.199   3.461  14.061  2.0975  1.7156  0.5701
 5710SOL    HW228593   2.317   3.388  14.098 -1.5844 -0.6040  1.0494
 5711SOL     OW28594   0.441   1.353   6.775  0.5876  1.0457 -0.5875
 5711SOL    HW128595   0.421   1.379   6.685 -0.7004 -1.8303 -1.1202
 5711SOL    HW228596   0.526   1.389   6.801  0.8957  1.5907 -2.3549
 5712SOL     OW28597   2.799   3.713  14.279 -0.4688  0.0855  0.0442
 5712SOL    HW128598   2.765   3.700  14.190 -0.2081  0.0449 -0.0496
 5712SOL    HW228599   2.891   3.694  14.264 -0.8973 -1.8601 -0.1661
 5713SOL     OW28600   0.656   0.435  14.623 -0.1592 -0.1161 -0.0049
 5713SOL    HW128601   0.699   0.498  14.681 -1.3973  1.1252 -0.4389
 5713SOL    HW228602   0.714   0.419  14.548 -1.1908  0.9183 -1.0182
 5714SOL     OW28603   3.444   3.247   0.506 -0.0617  0.8426  0.6197
 5714SOL    HW128604   3.487   3.239   0.591  0.3298 -0.4623  0.2945
 5714SOL    HW228605   3.508   3.295   0.453  2.8310 -0.2340  3.1352
 5715SOL     OW28606   0.052   3.192   1.718 -0.3256 -0.1941 -0.3340
 5715SOL    HW128607   0.081   3.183   1.627  4.5971  2.6788  0.9650
 5715SOL    HW228608   4.706   3.260   1.714 -0.6707 -0.5549 -0.7073
 5716SOL     OW28609   2.494   0.805   5.636  0.3782 -0.1256 -0.6043
 5716SOL    HW128610   2.455   0.784   5.721  0.3462  1.2007 -0.2928
 5716SOL    HW228611   2.422   0.778   5.579 -1.6555 -1.0787  2.4211
 5717SOL     OW28612   0.687   1.503   3.972 -0.4056  0.3286 -0.3031
 5717SOL    HW128613   0.641   1.503   4.056 -2.1611  0.5373 -1.2618
 5717SOL    HW228614   0.639   1.443   3.915 -2.0840  1.3646  0.0179
 5718SOL     OW28615   4.576   4.286  14.554 -0.4331 -0.2191  0.4027
 5718SOL    HW128616   4.637   4.272  14.481 -0.1088 -3.2172  1.2381
 5718SOL    HW228617   4.618   4.234  14.623 -1.6398 -1.3184  0.3033
 5719SOL     OW28618   0.114   0.390   9.903  0.4949 -0.1501 -0.2142
 5719SOL    HW128619   0.082   0.317   9.851 -0.1366  0.4156 -0.6283
 5719SOL    HW228620   0.030   0.434   9.919  1.4257  2.3199 -2.0659
 5720SOL     OW28621   3.338   0.750   2.589  0.0531  0.3980 -0.4162
 5720SOL    HW128622   3.318   0.843   2.581 -0.8814  0.1368 -1.0772
 5720SOL    HW228623   3.363   0.744   2.681 -1.6536 -0.9500 -0.0544
 5721SOL     OW28624   1.755   1.435   6.682  0.7537  0.3170 -0.4577
 5721SOL    HW128625   1.820   1.453   6.614  0.0208  1.1030 -0.9582
 5721SOL    HW228626   1.793   1.486   6.753  0.3305  1.9060 -1.3571
 5722SOL     OW28627   1.927   2.124  13.183  0.4306  0.5214 -0.2883
 5722SOL    HW128628   1.956   2.116  13.274 -0.5240 -2.3528 -0.2396
 5722SOL    HW228629   2.012   2.110  13.140 -0.3414 -0.1107 -1.6047
 5723SOL     OW28630   3.245   1.940   8.646 -0.3624 -0.4481  0.0645
 5723SOL    HW128631   3.197   1.911   8.569  0.0844 -2.9941  0.7344
 5723SOL    HW228632   3.184   1.906   8.711  0.7825  1.5882  2.2283
 5724SOL     OW28633   0.941   3.229   6.851  0.7084  0.0839 -0.3598
 5724SOL    HW128634   0.937   3.135   6.834  3.2645 -0.3164  1.2977
 5724SOL    HW228635   0.909   3.235   6.940  0.9923  0.0713 -0.2557
 5725SOL     OW28636   3.597   3.777   5.575  0.3034  0.2022  0.1079
 5725SOL    HW128637   3.518   3.789   5.629  0.4053 -0.8407  0.4892
 5725SOL    HW228638   3.643   3.711   5.627  0.7683  0.9031  0.5826
 5726SOL     OW28639   0.906   1.535   4.715 -0.3699 -0.0944 -0.3264
 5726SOL    HW128640   0.911   1.444   4.747  0.7553 -0.3124 -1.1287
 5726SOL    HW228641   0.916   1.575   4.801 -1.9057 -0.6848  0.1368
 5727SOL     OW28642   0.687   2.346   8.977  0.7147  0.0410 -0.5594
 5727SOL    HW128643   0.782   2.341   8.976  0.6647 -0.7338 -1.3479
 5727SOL    HW228644   0.683   2.374   9.069  2.4120 -1.5719  0.0002
 5728SOL     OW28645   1.790   1.725   2.162  0.3246  0.0039  0.2618
 5728SOL    HW128646   1.734   1.787   2.115  1.9892  0.1626 -1.5330
 5728SOL    HW228647   1.730   1.669   2.211 -0.0781  0.1420 -0.0769
 5729SOL     OW28648   3.529   3.769   9.091  0.0930  0.0895 -0.4981
 5729SOL    HW128649   3.580   3.823   9.151  1.3491 -0.3776 -1.1387
 5729SOL    HW228650   3.553   3.685   9.131  0.1512 -0.5119 -1.7845
 5730SOL     OW28651   1.744   0.881   8.285  0.3778  0.0298 -0.0146
 5730SOL    HW128652   1.709   0.970   8.294 -0.1095 -0.3201  1.5869
 5730SOL    HW228653   1.757   0.886   8.190  1.4344 -0.9581  0.0839
 5731SOL     OW28654   1.741   0.801   9.394  0.2049  0.5001 -0.1247
 5731SOL    HW128655   1.749   0.804   9.299  0.7590 -0.6254 -0.1144
 5731SOL    HW228656   1.754   0.895   9.410 -0.2497  0.5470 -0.0309
 5732SOL     OW28657   1.954   3.811   6.436  0.1036  0.6023  0.2818
 5732SOL    HW128658   1.894   3.796   6.363  0.4181 -0.7063  0.2895
 5732SOL    HW228659   2.040   3.790   6.398 -0.1328 -0.7341  0.5068
 5733SOL     OW28660   1.437   2.275   7.129 -0.6761  0.5145 -0.8844
 5733SOL    HW128661   1.478   2.301   7.211  0.4133 -1.2191 -0.8908
 5733SOL    HW228662   1.344   2.285   7.149 -0.2971  0.8089  0.7250
 5734SOL     OW28663   1.546   4.385   2.198 -0.3406  0.0819 -0.6118
 5734SOL    HW128664   1.485   4.402   2.127 -2.0591 -0.6432  0.7100
 5734SOL    HW228665   1.495   4.420   2.272  2.2707  0.3717  1.0749
 5735SOL     OW28666   2.164   3.285   5.917  0.1214 -0.4977 -0.5995
 5735SOL    HW128667   2.073   3.273   5.891  0.2300 -1.6931 -0.4660
 5735SOL    HW228668   2.188   3.193   5.931  1.8423  0.5998  3.8829
 5736SOL     OW28669   3.174   3.436   2.883  0.3733  0.1759  0.3157
 5736SOL    HW128670   3.104   3.387   2.925  1.5319 -0.3210  1.6702
 5736SOL    HW228671   3.247   3.387   2.921  1.2059  0.4304 -0.9870
 5737SOL     OW28672   1.070   1.370   1.238 -0.4515  0.2385  0.8674
 5737SOL    HW128673   0.993   1.327   1.276 -0.6814  0.6737  0.8969
 5737SOL    HW228674   1.045   1.377   1.146  1.1213  0.0835  0.4292
 5738SOL     OW28675   2.990   1.149   5.683 -0.2951 -0.0004  0.2560
 5738SOL    HW128676   2.985   1.203   5.604  2.7534  2.1246  1.5240
 5738SOL    HW228677   3.080   1.144   5.714 -0.6246  0.5531  1.3348
 5739SOL     OW28678   3.168   0.084   4.846  0.4176 -0.4298 -0.0634
 5739SOL    HW128679   3.166   0.168   4.893 -2.2777 -0.0566 -0.8112
 5739SOL    HW228680   3.218   0.024   4.901  2.5777  1.3771 -0.0657
 5740SOL     OW28681   0.674   1.231   5.837  0.3058  0.4517 -0.2618
 5740SOL    HW128682   0.671   1.192   5.925 -0.7650  2.6130  0.6536
 5740SOL    HW228683   0.685   1.155   5.779  0.4621  0.7633 -0.6338
 5741SOL     OW28684   1.289   4.074   7.545  0.3420  0.1317  0.8477
 5741SOL    HW128685   1.306   4.160   7.583  1.3693  0.6560 -0.8152
 5741SOL    HW228686   1.195   4.074   7.525  0.8407 -1.4334 -1.4662
 5742SOL     OW28687   4.018   2.676   6.027  0.3681  0.3075 -0.5823
 5742SOL    HW128688   3.974   2.755   5.995  2.0073  1.3411 -0.2504
 5742SOL    HW228689   4.102   2.707   6.061  0.1304  1.4911 -1.0703
 5743SOL     OW28690   1.293   0.368   6.829 -0.0594 -0.7739  0.0025
 5743SOL    HW128691   1.320   0.339   6.916  0.5483  1.4662  0.5740
 5743SOL    HW228692   1.374   0.367   6.778 -0.5171 -3.3456 -0.6526
 5744SOL     OW28693   3.602   2.212  17.670 -0.0752 -0.2489 -0.2707
 5744SOL    HW128694   3.572   2.302  17.683  0.9101 -0.1977  1.6392
 5744SOL    HW228695   3.612   2.195   0.074 -2.8573  1.2155  0.2909
 5745SOL     OW28696   1.173   2.384   3.128  0.0877  0.3818  0.5269
 5745SOL    HW128697   1.199   2.474   3.146 -0.1173  0.4705  0.3705
 5745SOL    HW228698   1.238   2.351   3.066 -0.4106  0.4939 -0.0608
 5746SOL     OW28699   4.694   3.895   6.138  0.1765 -0.1645 -0.3031
 5746SOL    HW128700   4.690   3.853   6.224 -2.4741  0.2673 -0.2147
 5746SOL    HW228701   0.025   3.971   6.159  0.2953 -0.6658  1.1835
 5747SOL     OW28702   0.026   2.297   7.148  0.4435 -0.5149 -0.5992
 5747SOL    HW128703   0.113   2.305   7.187 -0.2296  0.8182  0.6311
 5747SOL    HW228704   0.012   2.202   7.143  3.9978 -1.0713  0.0077
 5748SOL     OW28705   0.155   3.813   9.446 -0.2852  0.2530  0.1287
 5748SOL    HW128706   0.237   3.863   9.446  0.0854 -0.3524  0.6167
 5748SOL    HW228707   0.130   3.820   9.538 -2.4939  1.9803 -0.5857
 5749SOL     OW28708   3.535   4.204   5.024 -0.0846  0.4266 -0.3765
 5749SOL    HW128709   3.526   4.138   5.093 -0.2656  1.5069  0.6207
 5749SOL    HW228710   3.574   4.157   4.950 -1.5540 -3.2607  1.2181
 5750SOL     OW28711   3.658   2.180   4.622  0.0704  0.5986  0.3462
 5750SOL    HW128712   3.563   2.169   4.626  0.1459 -0.5173 -1.0952
 5750SOL    HW228713   3.658   2.238   4.546 -1.1569  0.6571  0.3921
 5751SOL     OW28714   3.630   1.262   1.752 -0.3865  0.2880 -0.5465
 5751SOL    HW128715   3.705   1.204   1.739 -0.3938  0.1087  0.1976
 5751SOL    HW228716   3.601   1.283   1.664  0.0091 -0.7520 -0.9203
 5752SOL     OW28717   4.388   3.769   6.720  0.0526 -0.0238  0.1184
 5752SOL    HW128718   4.366   3.827   6.647  0.1170 -0.3267 -0.1448
 5752SOL    HW228719   4.482   3.786   6.726  0.2575 -1.2301  0.3737
 5753SOL     OW28720   2.301   1.737   7.665  0.1423  0.4485 -0.1616
 5753SOL    HW128721   2.277   1.827   7.686 -0.0585  0.2259  0.5826
 5753SOL    HW228722   2.382   1.719   7.713  0.3314 -1.0168 -1.0422
 5754SOL     OW28723   4.189   1.386   9.746 -0.2494 -0.0701 -0.3265
 5754SOL    HW128724   4.095   1.403   9.740 -0.0875  1.0389  0.4004
 5754SOL    HW228725   4.222   1.401   9.657 -0.3346 -1.5395 -0.6047
 5755SOL     OW28726   0.701   1.421   7.541 -0.7454  0.2013 -0.0562
 5755SOL    HW128727   0.650   1.351   7.582 -2.5495  2.2734  1.2594
 5755SOL    HW228728   0.761   1.446   7.611  1.1204  0.3589 -1.6897
 5756SOL     OW28729   4.580   0.529   4.139 -0.4376  0.3560  0.6469
 5756SOL    HW128730   4.570   0.623   4.123  1.7745  0.4651 -0.0607
 5756SOL    HW228731   4.674   0.522   4.156 -0.1466 -0.2578 -1.3137
 5757SOL     OW28732   4.464   1.001   1.962 -0.3967 -0.5728  0.0383
 5757SOL    HW128733   4.416   0.991   1.880 -1.3835 -5.1538  1.1750
 5757SOL    HW228734   4.443   0.923   2.013 -2.4876  3.2782  5.0521
 5758SOL     OW28735   1.816   3.893  11.460 -0.4331  0.4081 -0.0937
 5758SOL    HW128736   1.765   3.867  11.536  0.5586  0.9054  0.7482
 5758SOL    HW228737   1.767   3.972  11.438  0.7684  1.0850 -0.3707
 5759SOL     OW28738   4.453   2.911  12.837  0.5826 -0.3490  0.7008
 5759SOL    HW128739   4.500   2.910  12.920 -2.3537  0.5372  2.3862
 5759SOL    HW228740   4.449   2.824  12.798  1.1907 -0.3875  0.7278
 5760SOL     OW28741   2.193   2.821   3.047  0.1830  0.3266  0.3234
 5760SOL    HW128742   2.117   2.776   3.012  0.8713  0.0183 -0.7779
 5760SOL    HW228743   2.254   2.830   2.973 -0.6242  0.8406 -0.2744
 5761SOL     OW28744   3.643   3.733  11.938  0.0570 -0.2430 -0.3082
 5761SOL    HW128745   3.621   3.717  12.030  1.4647 -0.5376 -0.0223
 5761SOL    HW228746   3.727   3.777  11.938 -0.8101  1.4082 -0.9977
 5762SOL     OW28747   3.383   3.681   8.228 -0.2799  0.2530  0.2889
 5762SOL    HW128748   3.426   3.635   8.156  2.2202 -0.4486  2.2296
 5762SOL    HW228749   3.352   3.762   8.188  1.8373  0.8496 -0.1565
 5763SOL     OW28750   0.658   1.188   9.365  0.1263 -0.4611 -0.2442
 5763SOL    HW128751   0.687   1.270   9.326 -1.2655  1.1540  2.1041
 5763SOL    HW228752   0.745   1.149   9.371  0.2293 -0.1215  0.4960
 5764SOL     OW28753   3.816   3.456  15.833  0.3495  0.3780 -0.0769
 5764SOL    HW128754   3.891   3.406  15.865 -1.5320 -1.9825  0.6046
 5764SOL    HW228755   3.763   3.391  15.787  0.7353 -0.7070  1.0073
 5765SOL     OW28756   1.313   1.724   8.005 -0.7242 -0.5599 -0.3683
 5765SOL    HW128757   1.325   1.789   7.936 -0.9182 -0.1828 -0.0506
 5765SOL    HW228758   1.267   1.775   8.072 -0.2762  1.9380 -1.9784
 5766SOL     OW28759   4.620   1.861   7.360 -0.0962  0.1625 -1.1758
 5766SOL    HW128760   4.708   1.862   7.398  0.2226  1.8770 -1.9415
 5766SOL    HW228761   4.582   1.834   7.443  0.6107  1.2874 -0.4856
 5767SOL     OW28762   4.481   4.145   2.927  0.3520 -0.1128  0.3824
 5767SOL    HW128763   4.475   4.143   3.022  0.2461 -1.5642  0.3505
 5767SOL    HW228764   4.556   4.091   2.901 -0.1438 -0.7070  0.1777
 5768SOL     OW28765   0.317   2.855   1.052 -0.0895  0.1431 -0.1968
 5768SOL    HW128766   0.386   2.867   1.118 -2.4488 -0.8922  2.4579
 5768SOL    HW228767   0.363   2.798   0.992  0.7375  0.4173  0.1763
 5769SOL     OW28768   2.524   2.741   3.032 -0.1606 -0.2414  0.1430
 5769SOL    HW128769   2.555   2.711   3.117 -2.0906  0.0027  0.9186
 5769SOL    HW228770   2.543   2.663   2.979 -1.4664  0.2570 -1.0672
 5770SOL     OW28771   1.872   0.087   9.165 -0.2795  0.0518 -0.1865
 5770SOL    HW128772   1.889   4.721   9.199  0.3010 -0.0165 -0.6482
 5770SOL    HW228773   1.951   0.116   9.119 -0.2500  0.3982  0.0843
 5771SOL     OW28774   1.426   2.103  13.699  0.0372 -0.1320 -0.0862
 5771SOL    HW128775   1.411   2.196  13.715  1.0520  0.4402 -2.4654
 5771SOL    HW228776   1.391   2.072  13.783 -0.9757  1.2479  0.0039
 5772SOL     OW28777   1.877   2.922   3.389 -0.6080 -0.7412  0.0695
 5772SOL    HW128778   1.953   2.937   3.331 -0.7163 -1.1708 -0.1828
 5772SOL    HW228779   1.805   2.942   3.329 -0.6809 -0.1590  0.3495
 5773SOL     OW28780   3.187   0.907   2.080  0.0577 -0.3040 -0.2392
 5773SOL    HW128781   3.161   0.815   2.083 -0.5754 -0.0764  1.0555
 5773SOL    HW228782   3.202   0.941   2.168 -2.2944 -1.0552  0.4562
 5774SOL     OW28783   3.002   0.847   4.755 -0.4125  0.1313  0.0561
 5774SOL    HW128784   2.991   0.836   4.849 -1.2401  1.1865  0.0686
 5774SOL    HW228785   2.924   0.899   4.738  0.0891  0.3154 -1.6637
 5775SOL     OW28786   2.546   2.307   6.715 -0.0228 -0.0845  0.2494
 5775SOL    HW128787   2.624   2.254   6.733 -1.3684 -2.2304 -0.1508
 5775SOL    HW228788   2.472   2.249   6.737 -2.0243  0.6924 -4.5008
 5776SOL     OW28789   3.456   4.585   9.186  0.0200 -0.3564  0.2422
 5776SOL    HW128790   3.442   4.631   9.268 -1.0274 -0.2146 -0.0144
 5776SOL    HW228791   3.498   4.649   9.129 -0.5909  1.8369  2.2397
 5777SOL     OW28792   2.004   1.010  13.938 -0.5424 -1.1622 -0.5872
 5777SOL    HW128793   1.915   0.989  13.968 -0.5937 -1.2473 -0.7929
 5777SOL    HW228794   1.985   1.098  13.905  2.8829 -0.0081  0.5933
 5778SOL     OW28795   1.388   4.348   6.828  0.2044  0.1759  0.0424
 5778SOL    HW128796   1.296   4.372   6.818  0.3419 -0.3190 -2.3872
 5778SOL    HW228797   1.426   4.376   6.745 -1.0161 -0.3788 -0.7020
 5779SOL     OW28798   1.406   4.549   7.292  0.3189 -0.4230 -0.0547
 5779SOL    HW128799   1.357   4.485   7.241  0.9038 -0.4703 -0.5554
 5779SOL    HW228800   1.488   4.503   7.306 -0.0625 -1.4843 -1.2498
 5780SOL     OW28801   3.963   3.980   5.331  0.2675 -0.1593  0.0954
 5780SOL    HW128802   3.996   4.042   5.396 -1.0414 -1.4278  1.9529
 5780SOL    HW228803   3.991   3.903   5.380  1.8157 -1.0066 -2.1103
 5781SOL     OW28804   0.732   4.217  10.729  0.7379 -0.3880 -0.1191
 5781SOL    HW128805   0.804   4.165  10.763  2.2521  0.3156 -2.2354
 5781SOL    HW228806   0.754   4.228  10.636 -0.2188  0.2595 -0.2677
 5782SOL     OW28807   3.483   0.615   4.551 -0.6612 -0.4797 -0.1757
 5782SOL    HW128808   3.556   0.677   4.544  0.4339 -1.7036  0.3313
 5782SOL    HW228809   3.425   0.672   4.602  0.6403 -0.0856  0.8949
 5783SOL     OW28810   0.507   0.614   2.155 -0.2065  0.1325 -0.0060
 5783SOL    HW128811   0.471   0.536   2.114  1.8985 -1.4709  1.1936
 5783SOL    HW228812   0.476   0.685   2.099  0.5841  1.4803  1.2698
 5784SOL     OW28813   2.319   3.858   4.018  0.1082 -0.1752 -0.2477
 5784SOL    HW128814   2.311   3.802   4.096  0.9763  1.0834  0.7396
 5784SOL    HW228815   2.386   3.813   3.967 -1.0174  0.3593 -2.1676
 5785SOL     OW28816   0.375   1.927   0.888 -0.0044 -0.1154  0.0069
 5785SOL    HW128817   0.286   1.961   0.879  0.3678 -0.4582 -5.0459
 5785SOL    HW228818   0.419   1.990   0.831  1.3035  0.9843  2.2694
 5786SOL     OW28819   2.127   0.767   6.926  0.1466 -0.2252 -0.1711
 5786SOL    HW128820   2.210   0.793   6.966 -0.5942  0.9770  0.5994
 5786SOL    HW228821   2.121   0.677   6.955 -0.2596 -0.3110 -0.5219
 5787SOL     OW28822   0.741   3.668   3.395  0.5085  0.2568 -0.0289
 5787SOL    HW128823   0.692   3.731   3.448 -0.8553  0.6162 -1.7216
 5787SOL    HW228824   0.793   3.617   3.458 -3.9270  0.0120  3.4677
 5788SOL     OW28825   2.860   1.049   3.498  0.3245 -0.2324  0.1972
 5788SOL    HW128826   2.830   1.127   3.545 -0.0166 -1.1672  1.5254
 5788SOL    HW228827   2.813   0.988   3.555  2.4387  0.0847  2.2541
 5789SOL     OW28828   1.568   4.618   3.252 -0.0065  0.3081 -0.0950
 5789SOL    HW128829   1.647   4.654   3.292  0.0947  0.3430 -0.3213
 5789SOL    HW228830   1.582   4.523   3.250  0.4657  0.3761  0.0486
 5790SOL     OW28831   2.137   0.580   6.272 -0.6012  0.2830 -0.2996
 5790SOL    HW128832   2.069   0.617   6.328 -1.8874  1.6454 -2.7349
 5790SOL    HW228833   2.176   0.524   6.339  0.1888  1.8262  0.5094
 5791SOL     OW28834   4.524   0.357  10.598 -0.3238 -0.5142 -0.1892
 5791SOL    HW128835   4.531   0.422  10.527 -2.7932 -1.0694 -0.9309
 5791SOL    HW228836   4.525   0.425  10.666  1.1472  0.0358 -0.7617
 5792SOL     OW28837   3.134   2.884  12.693  0.2820 -0.1393 -0.5631
 5792SOL    HW128838   3.112   2.969  12.655  1.1506  1.0530  1.6030
 5792SOL    HW228839   3.058   2.856  12.744 -1.1231  0.5127 -2.3150
 5793SOL     OW28840   0.627   0.972   0.370 -0.3724 -0.3274 -0.1869
 5793SOL    HW128841   0.713   0.932   0.380 -1.1571 -2.0907 -0.4995
 5793SOL    HW228842   0.609   1.009   0.457 -1.4198 -0.2541 -0.4331
 5794SOL     OW28843   4.527   3.457   3.985  0.8336  0.4488  0.1689
 5794SOL    HW128844   4.554   3.519   4.054 -1.3605  1.3643  0.2091
 5794SOL    HW228845   4.571   3.496   3.910  2.0367 -0.1798  0.5416
 5795SOL     OW28846   2.940   4.277   4.069  0.1549  0.1706 -0.2098
 5795SOL    HW128847   2.927   4.350   4.130  2.0104 -0.4469  0.9279
 5795SOL    HW228848   2.853   4.276   4.028  0.5182 -0.2985 -0.9682
 5796SOL     OW28849   1.969   1.851  13.634  0.0757  0.2495 -0.2716
 5796SOL    HW128850   2.060   1.863  13.660  0.5813 -2.7069 -0.6810
 5796SOL    HW228851   1.960   1.756  13.633 -0.9492  0.3228  1.4751
 5797SOL     OW28852   1.886   0.948  16.774  0.0980  0.2177  0.0101
 5797SOL    HW128853   1.819   1.015  16.786 -1.5336 -1.4026 -0.1789
 5797SOL    HW228854   1.928   0.948  16.860 -3.8141  0.4153  1.8788
 5798SOL     OW28855   3.769   0.212   8.495 -0.3623  0.2203  0.5747
 5798SOL    HW128856   3.680   0.186   8.471 -0.0767  0.4037 -0.6538
 5798SOL    HW228857   3.739   0.293   8.536 -1.6535  1.2177 -2.3386
 5799SOL     OW28858   0.304   2.823  11.218  0.3547  0.2727  0.3247
 5799SOL    HW128859   0.288   2.864  11.303 -1.4795  2.7827 -1.2599
 5799SOL    HW228860   0.238   2.864  11.162  0.5325  0.2031  0.0626
 5800SOL     OW28861   1.800   0.340   9.221 -0.0144 -0.0515 -0.3032
 5800SOL    HW128862   1.803   0.318   9.314 -0.6711  1.8756  0.1705
 5800SOL    HW228863   1.802   0.258   9.172  0.4809 -0.0883 -0.2194
 5801SOL     OW28864   2.143   3.815  16.045 -0.2030  0.1582 -0.2951
 5801SOL    HW128865   2.137   3.757  16.121  0.9831 -0.3504 -0.6114
 5801SOL    HW228866   2.052   3.817  16.013 -0.2196 -1.1321 -0.3019
 5802SOL     OW28867   0.873   0.112  17.304 -0.1259 -0.3489  0.2755
 5802SOL    HW128868   0.890   0.157  17.221 -0.4479  1.1213  1.0020
 5802SOL    HW228869   0.962   0.083  17.327 -0.0182  1.7466  2.6576
 5803SOL     OW28870   0.369   3.629   9.074 -0.0617  0.3377  0.3634
 5803SOL    HW128871   0.277   3.653   9.088  0.1628  1.9638 -0.9636
 5803SOL    HW228872   0.389   3.601   9.164 -1.5145 -0.0309  0.5740
 5804SOL     OW28873   2.366   1.836   4.017  0.0830 -0.2262 -0.4619
 5804SOL    HW128874   2.373   1.741   4.022  0.4185 -0.2021 -0.5046
 5804SOL    HW228875   2.315   1.848   3.937 -2.8810  0.4860  1.4940
 5805SOL     OW28876   3.269   3.471  14.959 -0.1327  0.0201 -0.8113
 5805SOL    HW128877   3.295   3.389  14.916 -0.4355  0.6637 -2.2375
 5805SOL    HW228878   3.315   3.521  14.891 -0.6992  0.0839 -1.1423
 5806SOL     OW28879   1.701   2.309   7.620 -0.0340  0.3077 -0.9410
 5806SOL    HW128880   1.647   2.306   7.699  0.6811  3.5149 -0.3411
 5806SOL    HW228881   1.716   2.404   7.615 -1.8909  0.6867  0.5039
 5807SOL     OW28882   4.077   1.415   5.307 -0.0250  0.1451 -0.4587
 5807SOL    HW128883   4.058   1.333   5.260  0.5724 -0.9281  1.1573
 5807SOL    HW228884   4.119   1.466   5.238  0.5009  1.1081  0.5842
 5808SOL     OW28885   3.889   2.699   2.787 -0.3381 -0.6177 -0.1757
 5808SOL    HW128886   3.937   2.746   2.718 -1.6077  0.5743 -0.2510
 5808SOL    HW228887   3.857   2.775   2.835  0.5951 -1.3029  1.4942
 5809SOL     OW28888   2.829   3.768   7.960  0.5441  0.2084 -0.4834
 5809SOL    HW128889   2.797   3.728   8.041 -0.4603 -2.3152 -2.1352
 5809SOL    HW228890   2.875   3.700   7.911 -0.5034  1.3333 -3.0408
 5810SOL     OW28891   1.015   4.132   4.683  0.1589  0.6550 -0.2835
 5810SOL    HW128892   1.011   4.042   4.716  1.3373  0.1555 -1.4973
 5810SOL    HW228893   1.046   4.168   4.766 -0.5056 -0.2272  0.3514
 5811SOL     OW28894   0.606   3.194  17.347  0.7420 -0.1526 -0.0351
 5811SOL    HW128895   0.523   3.236  17.326  0.9530  0.8649  1.1745
 5811SOL    HW228896   0.582   3.109  17.382 -0.6729 -0.3432 -1.4624
 5812SOL     OW28897   1.580   2.895   8.085  0.0287 -0.4739 -0.0249
 5812SOL    HW128898   1.613   2.957   8.151 -0.2224 -0.1319 -0.2173
 5812SOL    HW228899   1.489   2.926   8.082  0.0964 -0.0535  1.8150
 5813SOL     OW28900   3.096   2.843   3.625 -0.2071  0.3324 -0.4094
 5813SOL    HW128901   3.071   2.913   3.565  0.4295  0.4502 -0.5365
 5813SOL    HW228902   3.056   2.870   3.707 -0.5770 -1.1939 -0.0926
 5814SOL     OW28903   0.515   0.007   6.280 -0.2388  0.1672 -0.0474
 5814SOL    HW128904   0.530   0.095   6.314 -0.7833  0.0970  0.3802
 5814SOL    HW228905   0.433   4.703   6.323 -0.6094  1.4205  0.0063
 5815SOL     OW28906   4.233   3.650   8.309  0.0922  0.4284  0.1006
 5815SOL    HW128907   4.212   3.722   8.249  0.0758  0.0298 -0.3655
 5815SOL    HW228908   4.153   3.600   8.323  0.2997 -0.0665 -0.4765
 5816SOL     OW28909   2.193   0.569  15.037  0.0873 -0.3567  0.4396
 5816SOL    HW128910   2.225   0.650  14.998 -0.0814 -0.1406  0.7526
 5816SOL    HW228911   2.206   0.592  15.129  0.4842 -1.0328  0.5531
 5817SOL     OW28912   0.733   4.154  17.292 -0.4252  0.4143  0.2176
 5817SOL    HW128913   0.667   4.194  17.349  0.5193  1.4958  0.5460
 5817SOL    HW228914   0.691   4.068  17.282 -0.1960  0.1014  1.9166
 5818SOL     OW28915   2.891   4.020   8.382 -0.8268 -0.2562 -0.0691
 5818SOL    HW128916   2.858   3.931   8.372  2.0008 -1.2825 -0.2220
 5818SOL    HW228917   2.862   4.052   8.297  0.7671  0.7951 -0.2056
 5819SOL     OW28918   3.074   0.634   9.022  0.4040 -0.2596  0.1662
 5819SOL    HW128919   3.076   0.538   9.023  1.4230 -0.2349  0.7473
 5819SOL    HW228920   3.166   0.659   9.009  0.6770 -0.4375  1.7707
 5820SOL     OW28921   1.870   4.217   3.189 -0.1035 -0.1511 -0.3885
 5820SOL    HW128922   1.787   4.170   3.199 -1.4768  2.1042 -1.1593
 5820SOL    HW228923   1.922   4.172   3.122 -2.2848 -3.2459  0.0123
 5821SOL     OW28924   3.137   2.269  17.491 -0.0436  0.0230 -0.2578
 5821SOL    HW128925   3.160   2.178  17.507  1.4226  0.7052  1.6276
 5821SOL    HW228926   3.050   2.262  17.451  0.2468 -0.7873 -0.7335
 5822SOL     OW28927   0.482   0.678   4.516  0.7497 -0.8174 -0.5282
 5822SOL    HW128928   0.569   0.677   4.556  1.0415  3.8750 -1.0486
 5822SOL    HW228929   0.511   0.666   4.425  0.9156 -1.7447 -0.3553
 5823SOL     OW28930   0.244   2.819   2.028  0.2966 -0.7761 -0.2518
 5823SOL    HW128931   0.155   2.788   2.016  0.3189 -0.4424 -1.3206
 5823SOL    HW228932   0.256   2.823   2.123 -1.6907 -0.1639 -0.0469
 5824SOL     OW28933   3.637   0.716   2.384  0.1687  0.2878 -0.4992
 5824SOL    HW128934   3.598   0.639   2.344  0.7770  0.5442 -1.5805
 5824SOL    HW228935   3.675   0.762   2.309  1.4633 -2.2366 -1.3931
 5825SOL     OW28936   0.411   2.033   6.864 -0.3753  0.2395  0.2639
 5825SOL    HW128937   0.438   1.995   6.780  0.9582  1.4526  0.1392
 5825SOL    HW228938   0.404   1.960   6.925  0.7465  0.3758  0.5455
 5826SOL     OW28939   2.861   1.836   4.063 -0.2057  1.0319  0.1984
 5826SOL    HW128940   2.831   1.900   4.128  0.4788  1.5943 -0.0299
 5826SOL    HW228941   2.936   1.798   4.110 -0.8364  1.3402  1.4519
 5827SOL     OW28942   0.290   0.680   3.380 -0.2747 -0.9174 -0.0573
 5827SOL    HW128943   0.232   0.754   3.361  1.7694  0.5353 -0.6844
 5827SOL    HW228944   0.327   0.702   3.465  0.9852 -1.2828 -0.5152
 5828SOL     OW28945   3.711   3.294   3.264 -0.1567  0.6607 -0.3519
 5828SOL    HW128946   3.729   3.314   3.173  1.2284 -0.7615 -0.3850
 5828SOL    HW228947   3.774   3.227   3.289 -1.0568 -0.2663 -0.5737
 5829SOL     OW28948   1.601   2.411   2.948  0.0433  0.1772 -0.3120
 5829SOL    HW128949   1.684   2.396   2.994 -1.0791 -2.2928  0.8836
 5829SOL    HW228950   1.640   2.378   2.867 -0.6085  0.5758 -0.7822
 5830SOL     OW28951   2.134   2.879  10.538  0.5674 -0.7935 -0.1923
 5830SOL    HW128952   2.101   2.792  10.559 -0.1548 -0.8863 -1.6785
 5830SOL    HW228953   2.201   2.865  10.606 -0.1842  1.5245  1.0096
 5831SOL     OW28954   4.129   2.228   4.387 -0.2810 -0.3933 -0.0307
 5831SOL    HW128955   4.042   2.260   4.410  0.8394 -0.2085  3.8816
 5831SOL    HW228956   4.182   2.308   4.387  1.3910 -1.4978 -0.6834
 5832SOL     OW28957   0.070   3.362  15.476  0.5852 -0.6213  0.1601
 5832SOL    HW128958   0.038   3.424  15.410 -1.4053  0.1322  1.8311
 5832SOL    HW228959   0.111   3.286  15.436 -0.9299 -0.4589 -1.7039
 5833SOL     OW28960   2.227   2.310  16.185 -0.5620 -0.1660 -0.0382
 5833SOL    HW128961   2.161   2.379  16.186 -2.5333 -2.0544  0.2363
 5833SOL    HW228962   2.299   2.373  16.178 -0.5714 -0.2206 -0.6213
 5834SOL     OW28963   3.728   0.873  15.956 -0.5049 -0.4064  0.1983
 5834SOL    HW128964   3.642   0.870  15.998  1.6870 -2.6741  4.5125
 5834SOL    HW228965   3.749   0.966  15.964  2.6034 -1.0309 -0.6191
 5835SOL     OW28966   2.743   4.720   2.398 -0.1922  0.0068  0.5949
 5835SOL    HW128967   2.657   4.687   2.421  1.1380 -1.9159  2.8245
 5835SOL    HW228968   2.804   4.658   2.437  1.2621  0.7987 -0.3753
 5836SOL     OW28969   4.433   4.114   4.709  0.1935 -0.6982  0.5090
 5836SOL    HW128970   4.509   4.108   4.651  0.1830 -0.3400  0.4569
 5836SOL    HW228971   4.446   4.029   4.751 -1.8911 -2.5565 -2.6266
 5837SOL     OW28972   4.455   4.662   8.852 -0.0325  0.2147 -0.1159
 5837SOL    HW128973   4.379   4.609   8.879 -1.5608  1.7980 -1.3371
 5837SOL    HW228974   4.445   0.019   8.906  2.3357  1.0372 -0.8932
 5838SOL     OW28975   0.047   3.463  11.731 -0.1927  0.0102 -0.3131
 5838SOL    HW128976   4.676   3.479  11.717 -1.1709 -4.1097  1.3979
 5838SOL    HW228977   0.078   3.441  11.643  0.6003  0.5177 -0.1594
 5839SOL     OW28978   3.448   2.033   6.440  0.0574  0.1008  0.1352
 5839SOL    HW128979   3.435   1.954   6.387  1.6936  1.0098 -1.5953
 5839SOL    HW228980   3.521   2.003   6.495  1.2528 -0.7048 -1.9102
 5840SOL     OW28981   0.567   3.959  12.851 -0.0776  0.4168 -0.1141
 5840SOL    HW128982   0.517   4.040  12.840 -1.0848 -0.3049 -0.8639
 5840SOL    HW228983   0.574   3.936  12.758  1.4741  1.5850 -0.2837
 5841SOL     OW28984   0.352   0.352   3.783  0.2205 -0.1491  0.0606
 5841SOL    HW128985   0.303   0.285   3.831  1.2859 -0.2502  0.9899
 5841SOL    HW228986   0.314   0.358   3.695 -1.3669  0.3702  0.7637
 5842SOL     OW28987   3.593   2.335   4.381 -0.2696 -0.2012  0.4637
 5842SOL    HW128988   3.539   2.318   4.304 -0.7388 -3.9968  1.5984
 5842SOL    HW228989   3.644   2.414   4.363  0.4280  0.0524  3.5350
 5843SOL     OW28990   4.077   0.593   4.302  0.7889  0.3544  0.2180
 5843SOL    HW128991   4.156   0.627   4.343  0.4853  1.2105  0.0995
 5843SOL    HW228992   4.010   0.605   4.370 -2.1847 -1.5456 -2.3455
 5844SOL     OW28993   2.697   0.944   7.227  0.8252 -0.0056 -0.0316
 5844SOL    HW128994   2.637   0.978   7.293 -0.4346  0.2206 -1.2891
 5844SOL    HW228995   2.641   0.946   7.149 -0.4359  0.9444  0.8885
 5845SOL     OW28996   0.589   2.959  17.499  0.1137 -0.7656 -0.3762
 5845SOL    HW128997   0.515   2.900  17.512 -0.0362 -0.3039  0.8371
 5845SOL    HW228998   0.614   2.976  17.590  0.5351 -2.2601 -0.2070
 5846SOL     OW28999   1.145   4.425  11.503  0.0437  0.7063 -0.3177
 5846SOL    HW129000   1.217   4.484  11.478  0.4313  0.0920 -0.6326
 5846SOL    HW229001   1.129   4.378  11.421 -2.1336  0.9053  0.0100
 5847SOL     OW29002   1.727   0.233   4.930  0.6644 -0.0617 -0.0678
 5847SOL    HW129003   1.643   0.238   4.976  0.4456 -0.3450 -0.4316
 5847SOL    HW229004   1.770   0.312   4.962  0.3313  0.2229 -0.3104
 5848SOL     OW29005   2.741   3.557   3.160 -0.3385 -0.1271 -0.2327
 5848SOL    HW129006   2.794   3.563   3.081  1.0036  1.0691  0.7552
 5848SOL    HW229007   2.719   3.650   3.168 -1.1516 -0.3582  0.2275
 5849SOL     OW29008   1.824   4.688   3.325  0.2155  0.0809 -0.1342
 5849SOL    HW129009   1.862   4.669   3.239 -1.3821  0.9805 -1.0409
 5849SOL    HW229010   1.843   0.058   3.345 -1.3913  0.4677 -0.4198
 5850SOL     OW29011   2.250   3.231   3.192  0.0916  1.0183 -0.0007
 5850SOL    HW129012   2.315   3.191   3.133  2.0196  0.0954  2.7151
 5850SOL    HW229013   2.275   3.176   3.267 -0.1441 -0.3666 -0.9489
 5851SOL     OW29014   2.519   0.391  12.805  0.0576 -0.6291 -0.2973
 5851SOL    HW129015   2.572   0.341  12.743 -0.5792 -0.3698 -1.0440
 5851SOL    HW229016   2.510   0.476  12.761 -1.0864  0.3698  1.8186
 5852SOL     OW29017   4.408   3.635   8.904  0.0986 -0.2911  0.1523
 5852SOL    HW129018   4.501   3.624   8.922 -0.2972 -1.6789  1.3345
 5852SOL    HW229019   4.407   3.654   8.810 -1.1819 -1.2822 -0.0338
 5853SOL     OW29020   0.358   0.730   8.041  0.4938 -0.4761 -0.1934
 5853SOL    HW129021   0.274   0.711   8.000 -0.4311  0.7958  1.1249
 5853SOL    HW229022   0.403   0.646   8.036 -0.4879 -0.9074 -1.8697
 5854SOL     OW29023   3.948   3.943   2.039 -0.4299  0.0691  0.0817
 5854SOL    HW129024   4.011   3.914   1.973 -0.8490 -1.1030  0.1930
 5854SOL    HW229025   3.954   4.036   2.018  0.9609 -0.0476  0.0066
 5855SOL     OW29026   1.941   0.621   2.897 -0.1477 -0.4553  0.1495
 5855SOL    HW129027   1.861   0.606   2.948 -0.8802  1.5119 -0.4221
 5855SOL    HW229028   1.914   0.696   2.844 -0.0665 -1.0725 -0.7598
 5856SOL     OW29029   3.523   3.186   0.746  0.0277  0.2027  0.3523
 5856SOL    HW129030   3.484   3.175   0.833  1.5315  2.2042  1.2872
 5856SOL    HW229031   3.583   3.112   0.743 -1.2578 -0.8291  0.3698
 5857SOL     OW29032   3.823   3.586   5.362 -0.3368  0.6063 -0.3692
 5857SOL    HW129033   3.862   3.653   5.419 -2.2842  2.5784 -1.3340
 5857SOL    HW229034   3.826   3.515   5.426 -0.2266  0.2507 -0.7726
 5858SOL     OW29035   4.513   0.715   8.019 -0.4921 -0.2679  0.3237
 5858SOL    HW129036   4.486   0.807   8.012 -0.9007 -0.4086  0.0323
 5858SOL    HW229037   4.573   0.737   8.090  0.2933  0.1994 -0.4811
 5859SOL     OW29038   1.071   3.114   1.010  0.3177 -0.0764  0.6416
 5859SOL    HW129039   1.085   3.028   0.970 -2.5361 -0.9416  1.5202
 5859SOL    HW229040   0.976   3.118   1.017  0.3647 -0.7816  1.7565
 5860SOL     OW29041   2.385   4.089   8.619 -0.4712 -0.2469 -0.3946
 5860SOL    HW129042   2.430   4.081   8.703 -2.6119 -1.0779  0.6699
 5860SOL    HW229043   2.296   4.088   8.654 -0.1463 -2.9337  0.3678
 5861SOL     OW29044   1.882   0.181   5.964  0.1853  0.4155  0.1235
 5861SOL    HW129045   1.956   0.242   5.959  1.4202 -1.0500  0.4123
 5861SOL    HW229046   1.863   0.179   6.057  0.3012 -0.7421  0.1188
 5862SOL     OW29047   1.615   4.315   2.770 -0.2473  0.6982  0.1652
 5862SOL    HW129048   1.699   4.317   2.816  0.2508 -1.1502 -0.6875
 5862SOL    HW229049   1.586   4.407   2.770  0.1536  0.8216  0.2300
 5863SOL     OW29050   3.825   4.628   5.106 -0.0224 -0.0284 -0.4144
 5863SOL    HW129051   3.730   4.623   5.110  0.1482 -1.8032  1.0376
 5863SOL    HW229052   3.853   4.614   5.196 -1.1387  1.1920  0.1137
 5864SOL     OW29053   0.977   2.095  16.485 -0.4513 -0.1598 -0.1636
 5864SOL    HW129054   0.905   2.153  16.461 -1.1381 -1.8095 -2.1258
 5864SOL    HW229055   1.019   2.166  16.534  0.5822 -1.1352  0.3689
 5865SOL     OW29056   4.538   0.234   0.460 -0.5870 -0.3620  0.1750
 5865SOL    HW129057   4.531   0.306   0.398 -0.7210 -0.8344 -0.3512
 5865SOL    HW229058   4.448   0.208   0.478 -0.9044  1.0632  0.6765
 5866SOL     OW29059   2.946   1.588   0.126  0.1674  0.0155  0.8441
 5866SOL    HW129060   2.878   1.544   0.176 -0.9802 -0.2608 -0.9714
 5866SOL    HW229061   2.943   1.531   0.050 -0.2584  0.6447  0.3888
 5867SOL     OW29062   1.352   0.548   4.711  0.3270 -0.0870  0.5506
 5867SOL    HW129063   1.426   0.575   4.765 -0.4731  2.2539  0.4963
 5867SOL    HW229064   1.280   0.578   4.766 -0.3559 -2.8520  1.1518
 5868SOL     OW29065   0.439   0.192   8.664  0.5171 -0.0552  0.1895
 5868SOL    HW129066   0.459   0.131   8.736  0.1631 -1.0887 -0.5866
 5868SOL    HW229067   0.347   0.178   8.642  0.5147 -0.8660  0.6928
 5869SOL     OW29068   1.271   1.061  14.571  0.2357 -0.0168 -0.7321
 5869SOL    HW129069   1.207   0.992  14.585 -0.3996  0.7412  0.1198
 5869SOL    HW229070   1.308   1.075  14.658 -2.0289 -0.9689  0.3592
 5870SOL     OW29071   1.766   1.388  11.084  0.4575  0.2840 -0.5356
 5870SOL    HW129072   1.778   1.364  10.992 -1.6917  0.9202 -0.9758
 5870SOL    HW229073   1.682   1.432  11.093  0.3174  0.2737 -1.9072
 5871SOL     OW29074   1.434   4.243   5.789  0.0023  0.6790  0.0921
 5871SOL    HW129075   1.388   4.306   5.734 -0.4793  1.2662  1.1587
 5871SOL    HW229076   1.393   4.163   5.757  0.6432  0.5194 -0.3211
 5872SOL     OW29077   0.145   4.159   5.823 -0.6661 -0.2693 -0.8411
 5872SOL    HW129078   0.052   4.174   5.803 -1.1829 -3.4827 -0.7411
 5872SOL    HW229079   0.182   4.247   5.813 -0.1468 -0.4830 -0.8222
 5873SOL     OW29080   3.428   3.131  14.157 -0.4083  0.0979 -0.1185
 5873SOL    HW129081   3.502   3.076  14.131  0.3865  0.2967  1.7380
 5873SOL    HW229082   3.484   3.203  14.185 -2.1325  1.0721  0.7995
 5874SOL     OW29083   2.966   1.210   8.714  0.0033 -0.4460  0.1161
 5874SOL    HW129084   2.990   1.144   8.650  2.4542  1.4941 -0.9606
 5874SOL    HW229085   2.981   1.294   8.670 -0.7908 -1.5116 -2.1602
 5875SOL     OW29086   1.793   3.232   1.232 -0.2447 -0.3693 -0.5350
 5875SOL    HW129087   1.820   3.141   1.218  0.6412 -0.1477 -0.2542
 5875SOL    HW229088   1.738   3.214   1.309  1.1993 -0.2954  0.5262
 5876SOL     OW29089   1.494   2.882   6.684 -0.4498  0.2106  0.2700
 5876SOL    HW129090   1.441   2.811   6.722  0.5676  0.0077  1.2851
 5876SOL    HW229091   1.585   2.859   6.701 -0.6776 -0.0874  1.0874
 5877SOL     OW29092   1.123   3.415   3.130 -0.0267  0.1923 -0.6052
 5877SOL    HW129093   1.028   3.423   3.144 -0.1064  1.4690 -1.7471
 5877SOL    HW229094   1.122   3.377   3.042  2.0937 -1.8337  0.2769
 5878SOL     OW29095   4.501   3.411  15.529 -0.4847  0.2034 -0.0358
 5878SOL    HW129096   4.503   3.373  15.442 -0.0134 -1.4778  0.6997
 5878SOL    HW229097   4.596   3.418  15.541 -0.2381 -1.7540 -0.8574
 5879SOL     OW29098   1.178   2.130   3.235 -0.4521 -0.1342 -0.4103
 5879SOL    HW129099   1.153   2.101   3.147 -0.8930 -3.6026  0.8612
 5879SOL    HW229100   1.154   2.222   3.226  0.9998  0.3239  0.4989
 5880SOL     OW29101   1.130   0.780   6.114 -0.0780 -0.1169 -0.4906
 5880SOL    HW129102   1.143   0.874   6.100 -1.4771  0.4487  1.9189
 5880SOL    HW229103   1.043   0.788   6.155 -0.3385  1.5281 -1.3266
 5881SOL     OW29104   0.243   4.048   3.256  0.4695 -0.4454  0.2431
 5881SOL    HW129105   0.304   4.072   3.186 -0.5156  0.3825 -0.3277
 5881SOL    HW229106   0.290   4.055   3.339 -0.3922  3.1629  0.4010
 5882SOL     OW29107   2.526   0.121   9.067  0.5237  0.1286  0.0314
 5882SOL    HW129108   2.466   0.176   9.017  0.6179  2.3592  2.4116
 5882SOL    HW229109   2.581   0.185   9.112 -1.1773  1.7418 -0.2090
 5883SOL     OW29110   2.534   2.769   7.763  0.1935 -0.8433  0.2050
 5883SOL    HW129111   2.526   2.812   7.678 -2.2883 -0.5111  0.5972
 5883SOL    HW229112   2.452   2.800   7.802  0.9408  0.6860  0.5822
 5884SOL     OW29113   2.095   2.049   6.253 -0.3162 -0.2691  0.0047
 5884SOL    HW129114   2.101   2.020   6.162  0.6393  1.1035 -0.3692
 5884SOL    HW229115   2.173   2.104   6.260 -1.4465  1.4257 -0.7447
 5885SOL     OW29116   1.304   2.071   6.394 -0.1133  0.1125  0.0519
 5885SOL    HW129117   1.398   2.064   6.407 -0.3972 -0.8550  1.5345
 5885SOL    HW229118   1.285   1.987   6.434 -0.9744  1.0421  1.5947
 5886SOL     OW29119   2.218   0.262  14.541 -0.1684 -1.0266 -0.3163
 5886SOL    HW129120   2.127   0.245  14.518 -0.6465 -1.0201  1.5643
 5886SOL    HW229121   2.216   0.357  14.549 -0.1068 -1.0666  0.2425
 5887SOL     OW29122   1.514   1.403   9.166 -0.2945 -0.3125  0.0963
 5887SOL    HW129123   1.475   1.366   9.087 -1.2946 -0.1052  0.4862
 5887SOL    HW229124   1.457   1.477   9.189  0.2035 -0.0946  0.6275
 5888SOL     OW29125   3.908   2.870  11.883  0.2367 -0.0791  0.0736
 5888SOL    HW129126   3.877   2.785  11.913  0.6532  0.3304  1.6359
 5888SOL    HW229127   3.930   2.910  11.967  0.5510  0.4534 -0.2578
 5889SOL     OW29128   2.187   3.726   5.997 -0.1817 -0.1350  0.0613
 5889SOL    HW129129   2.172   3.778   5.918  1.5572  0.3844  0.0797
 5889SOL    HW229130   2.278   3.744   6.022  0.0289  2.1698 -2.3806
 5890SOL     OW29131   2.320   3.243   4.912  0.1996  0.2014 -0.3233
 5890SOL    HW129132   2.391   3.187   4.882  0.1799 -0.7747  1.4401
 5890SOL    HW229133   2.266   3.257   4.835 -2.2811 -1.7916  1.0609
 5891SOL     OW29134   1.145   4.671  10.788  0.5386  0.5514  0.3310
 5891SOL    HW129135   1.204   4.698  10.717  0.1664 -0.3626 -0.3316
 5891SOL    HW229136   1.125   4.580  10.766 -0.9931  1.0270 -0.2558
 5892SOL     OW29137   1.188   0.995   7.274  0.3566 -0.1954  0.0095
 5892SOL    HW129138   1.253   1.063   7.296 -1.7757  2.5485 -2.2176
 5892SOL    HW229139   1.217   0.954   7.193  0.6889 -0.0106  0.0339
 5893SOL     OW29140   3.688   3.945  16.755  0.1534  0.4156 -0.0311
 5893SOL    HW129141   3.782   3.956  16.746  0.3512 -0.9270  0.4152
 5893SOL    HW229142   3.653   3.959  16.667 -3.6959 -0.1185  1.4191
 5894SOL     OW29143   2.112   2.950  16.445  0.3571  0.1493 -0.1718
 5894SOL    HW129144   2.143   3.034  16.412 -0.3987 -1.1038 -4.0936
 5894SOL    HW229145   2.143   2.893  16.375 -0.3883  0.4473 -0.7499
 5895SOL     OW29146   4.220   2.776   2.444  0.2789 -0.0559 -0.5031
 5895SOL    HW129147   4.310   2.799   2.469  0.7201  1.1670 -3.2635
 5895SOL    HW229148   4.221   2.784   2.349 -1.7447  1.0602 -0.4287
 5896SOL     OW29149   2.968   3.769  10.567  0.1366  0.5313 -0.4725
 5896SOL    HW129150   3.063   3.769  10.555  0.3195  2.6642  1.0705
 5896SOL    HW229151   2.970   3.763  10.662 -1.1506  1.4364 -0.3881
 5897SOL     OW29152   4.569   4.164   8.270  0.0635  0.0490  0.2102
 5897SOL    HW129153   4.611   4.078   8.272 -1.1449 -0.5349 -0.0916
 5897SOL    HW229154   4.650   4.214   8.256  0.7208 -0.9595  0.4299
 5898SOL     OW29155   4.150   4.233   5.229  0.0438  0.2110 -0.3016
 5898SOL    HW129156   4.133   4.192   5.313  1.1182 -1.8843 -1.1186
 5898SOL    HW229157   4.232   4.200   5.194  0.1561  0.4686 -0.2812
 5899SOL     OW29158   2.586   1.071  14.925  0.3370 -0.3733  0.4048
 5899SOL    HW129159   2.545   1.063  15.011  0.1769 -1.4168  0.2249
 5899SOL    HW229160   2.523   1.026  14.870  1.1759 -2.1908  0.9375
 5900SOL     OW29161   4.247   2.307   6.909  0.2042  0.1510 -0.7664
 5900SOL    HW129162   4.165   2.271   6.876 -0.4306 -0.1087  1.1206
 5900SOL    HW229163   4.222   2.377   6.969 -0.5531 -1.2039  0.4999
 5901SOL     OW29164   3.203   2.623   0.602  0.7161  0.4489  1.0223
 5901SOL    HW129165   3.209   2.571   0.682  0.8484 -1.4972 -0.2565
 5901SOL    HW229166   3.274   2.686   0.608  1.7053 -0.5746  0.0270
 5902SOL     OW29167   3.155   2.244   5.010  0.7954 -0.0979  0.3984
 5902SOL    HW129168   3.125   2.319   4.958  1.1689 -0.2737 -0.0723
 5902SOL    HW229169   3.199   2.296   5.077  2.2498 -2.1981  1.0467
 5903SOL     OW29170   1.080   1.660   9.300 -0.2138  0.1649  0.0287
 5903SOL    HW129171   1.165   1.617   9.298  0.3469  1.2246  1.1242
 5903SOL    HW229172   1.085   1.718   9.376  0.4244 -0.5364  0.5159
 5904SOL     OW29173   4.279   1.220  16.180 -0.5276  0.1062  0.2023
 5904SOL    HW129174   4.351   1.174  16.137  0.0478  1.2625 -0.0660
 5904SOL    HW229175   4.249   1.143  16.228  0.2242 -0.5048 -0.3054
 5905SOL     OW29176   3.089   0.149  15.821  0.1653  0.4907 -0.7550
 5905SOL    HW129177   3.086   0.075  15.761  1.0208  1.7936 -2.3765
 5905SOL    HW229178   3.003   0.151  15.864 -0.0742  0.2993 -1.2219
 5906SOL     OW29179   4.107   3.878   1.805 -0.2828  0.7372 -0.1900
 5906SOL    HW129180   4.085   3.915   1.720  1.4282  1.4096 -0.3386
 5906SOL    HW229181   4.163   3.948   1.838 -0.0585  1.0396 -1.2251
 5907SOL     OW29182   2.830   2.394   1.482  0.5486  0.2557  0.7117
 5907SOL    HW129183   2.920   2.412   1.453  0.8758 -0.1070  1.4896
 5907SOL    HW229184   2.788   2.464   1.432 -1.2044  1.5294  3.9809
 5908SOL     OW29185   4.002   1.913   5.940  0.4954  0.1889 -0.2797
 5908SOL    HW129186   4.020   1.837   5.995 -1.5604  0.2427  0.4501
 5908SOL    HW229187   3.986   1.981   6.005  0.2944  0.3405 -0.4867
 5909SOL     OW29188   1.692   2.550  17.054 -0.4302 -0.5451 -0.6345
 5909SOL    HW129189   1.716   2.544  16.961  1.4252 -1.8124 -0.0611
 5909SOL    HW229190   1.603   2.521  17.030 -1.2412  0.4805  1.1400
 5910SOL     OW29191   1.472   2.700  10.951 -0.0344  0.8541 -0.4661
 5910SOL    HW129192   1.532   2.665  10.886  0.3936  1.5036 -0.4192
 5910SOL    HW229193   1.457   2.623  11.007 -0.7677  1.2409 -0.1265
 5911SOL     OW29194   3.498   4.408  10.959 -0.5114 -0.3461  0.6304
 5911SOL    HW129195   3.581   4.395  10.913 -0.0639 -1.1798  1.6816
 5911SOL    HW229196   3.471   4.316  10.963  1.1122 -0.8279  0.4222
 5912SOL     OW29197   0.217   3.869   8.747  0.0116  0.5952 -0.2030
 5912SOL    HW129198   0.241   3.788   8.792  1.3546  0.1548 -1.6999
 5912SOL    HW229199   0.197   3.837   8.659 -0.2830  1.0314 -0.2919
 5913SOL     OW29200   4.180   2.267  11.271 -0.4922  0.6299  0.0254
 5913SOL    HW129201   4.216   2.329  11.335 -1.8799  3.5939 -2.0629
 5913SOL    HW229202   4.229   2.294  11.194 -0.2421 -0.2120 -0.1071
 5914SOL     OW29203   1.672   2.904   3.551  0.0446  0.5444 -0.3101
 5914SOL    HW129204   1.751   2.912   3.498  0.0665  1.2180 -0.1667
 5914SOL    HW229205   1.704   2.936   3.636  0.9587 -1.7162  0.2165
 5915SOL     OW29206   0.069   0.761   9.446 -0.2770 -0.0952 -0.3115
 5915SOL    HW129207   0.121   0.681   9.450 -2.8731 -1.6248  2.3360
 5915SOL    HW229208   0.050   0.782   9.537  0.9751 -0.9394  0.1396
 5916SOL     OW29209   2.046   0.128  14.811  0.2016 -0.4482  0.4832
 5916SOL    HW129210   2.096   0.208  14.831  1.8686 -1.6510  1.1192
 5916SOL    HW229211   1.959   0.163  14.794  0.1477 -0.8094  0.0252
 5917SOL     OW29212   2.531   4.015   9.576  0.1982  0.1261 -0.5743
 5917SOL    HW129213   2.542   3.950   9.646 -1.4081 -0.6144 -1.0180
 5917SOL    HW229214   2.520   3.950   9.507 -1.1296  0.5800 -0.7907
 5918SOL     OW29215   4.630   1.520   5.456  0.0956 -0.3149  0.8996
 5918SOL    HW129216   4.643   1.457   5.527 -0.4639 -2.4320 -0.8946
 5918SOL    HW229217   4.721   1.531   5.428 -0.8581 -0.8630 -2.4713
 5919SOL     OW29218   4.064   0.674  10.616  0.3525 -0.1887 -0.3500
 5919SOL    HW129219   4.129   0.681  10.546 -0.1106  2.0228 -0.5595
 5919SOL    HW229220   4.035   0.765  10.618 -1.2830 -0.7368  1.0248
 5920SOL     OW29221   4.076   4.285   0.368  0.1735  0.0707 -0.0913
 5920SOL    HW129222   4.014   4.297   0.297 -0.6954  1.1616  0.8458
 5920SOL    HW229223   4.025   4.235   0.433 -0.9099  1.0629 -0.1802
 5921SOL     OW29224   0.031   1.055   1.902  0.1169  0.1291  0.2641
 5921SOL    HW129225   4.664   1.050   1.935  0.9311  0.6170  2.5019
 5921SOL    HW229226   0.063   0.972   1.937  1.4590  0.1728 -0.8606
 5922SOL     OW29227   1.446   1.794   8.642  0.5986  0.2321 -0.5584
 5922SOL    HW129228   1.468   1.849   8.717 -0.4200 -0.4847  0.2630
 5922SOL    HW229229   1.434   1.707   8.680  0.0559  0.1737 -0.8561
 5923SOL     OW29230   2.687   1.558   5.263 -0.3137  0.5047 -0.4715
 5923SOL    HW129231   2.666   1.478   5.214 -1.9034  0.2209  0.6896
 5923SOL    HW229232   2.702   1.525   5.351 -0.5597  2.7222  0.3954
 5924SOL     OW29233   0.180   2.988   8.225 -0.1807  0.6169  0.1101
 5924SOL    HW129234   0.137   2.986   8.310 -2.9178  0.4081 -1.2576
 5924SOL    HW229235   0.154   3.072   8.188  2.4505  1.0076 -0.8565
 5925SOL     OW29236   3.720   0.963  17.020  0.4695 -0.0024  0.0393
 5925SOL    HW129237   3.642   0.995  16.973 -0.2220  0.1506  1.2785
 5925SOL    HW229238   3.733   1.046  17.066 -0.6779  1.7675 -2.8234
 5926SOL     OW29239   0.664   4.139  11.440 -0.2331 -0.5454 -0.3878
 5926SOL    HW129240   0.637   4.231  11.430 -1.9967 -1.0430 -0.1909
 5926SOL    HW229241   0.588   4.085  11.420 -0.4811  0.7169 -2.9795
 5927SOL     OW29242   4.436   0.210   4.367  0.5840  0.0926 -0.1211
 5927SOL    HW129243   4.376   0.280   4.393  2.8066  2.2607 -0.8405
 5927SOL    HW229244   4.394   0.186   4.284  2.3237  0.0483 -0.9866
 5928SOL     OW29245   4.490   3.928   3.853 -0.3317 -0.2208 -0.1355
 5928SOL    HW129246   4.477   3.943   3.759 -1.7997 -0.3622  0.0557
 5928SOL    HW229247   4.410   3.888   3.885  0.1484  0.9881  2.5492
 5929SOL     OW29248   4.492   2.742   3.659  1.0921 -0.1715  0.1613
 5929SOL    HW129249   4.406   2.777   3.640  1.4770  0.7184  0.0627
 5929SOL    HW229250   4.538   2.826   3.669 -0.4827  0.6318  0.5495
 5930SOL     OW29251   1.541   0.247   2.393  0.0661 -0.2504 -0.2185
 5930SOL    HW129252   1.558   0.339   2.374  0.5314 -0.5430 -1.2108
 5930SOL    HW229253   1.446   0.235   2.384 -0.3131  1.8334  0.8938
 5931SOL     OW29254   2.795   2.500   7.681 -0.2312 -0.0494 -0.0207
 5931SOL    HW129255   2.792   2.525   7.589  0.9700 -1.2181 -0.3708
 5931SOL    HW229256   2.880   2.540   7.699 -0.7068  1.2150 -0.6156
 5932SOL     OW29257   1.211   3.358  16.435 -0.0451 -0.0395  0.6882
 5932SOL    HW129258   1.301   3.389  16.422  0.1284 -1.0761 -0.5623
 5932SOL    HW229259   1.172   3.396  16.355  0.4670 -0.9312  0.0212
 5933SOL     OW29260   0.755   0.503   1.855  0.3088 -0.3014  0.2854
 5933SOL    HW129261   0.824   0.559   1.821  1.7465 -2.5031 -0.4841
 5933SOL    HW229262   0.770   0.426   1.800 -0.6536 -1.6014  1.8477
 5934SOL     OW29263   2.230   1.258  11.429 -0.2106  0.0880  0.2342
 5934SOL    HW129264   2.224   1.282  11.337  1.1542  0.4600  0.2473
 5934SOL    HW229265   2.146   1.291  11.462 -1.6050 -1.7515 -1.5096
 5935SOL     OW29266   2.375   1.265   0.598  0.0056 -0.4342 -0.3047
 5935SOL    HW129267   2.410   1.346   0.635 -0.8313 -0.5099  0.6384
 5935SOL    HW229268   2.309   1.241   0.663  0.5912 -0.0183  0.4596
 5936SOL     OW29269   2.399   1.891   6.231  0.3643 -1.0369  0.1449
 5936SOL    HW129270   2.405   1.897   6.136 -1.5015  0.2775  0.1152
 5936SOL    HW229271   2.328   1.826   6.234 -0.8376  0.2846  0.1887
 5937SOL     OW29272   0.287   1.438   6.207  0.3149  0.0402  0.0055
 5937SOL    HW129273   0.340   1.478   6.138  2.6313 -0.6760  1.3623
 5937SOL    HW229274   0.214   1.499   6.206  1.3746  1.2945 -1.1059
 5938SOL     OW29275   4.626   4.407   6.121  0.1720  0.9105 -0.3538
 5938SOL    HW129276   4.649   4.372   6.207  3.9462  0.7274 -1.4069
 5938SOL    HW229277   4.575   4.343   6.072  0.6337  0.5853 -0.4082
 5939SOL     OW29278   1.535   0.663   6.084 -0.0574 -0.4904 -0.5748
 5939SOL    HW129279   1.618   0.662   6.036  0.5297  0.2786  0.4298
 5939SOL    HW229280   1.560   0.697   6.170  0.0034  0.6518 -1.0390
 5940SOL     OW29281   3.014   4.288   7.746  0.0649 -0.4588 -0.3245
 5940SOL    HW129282   3.047   4.258   7.831 -0.9321  1.8413  0.8916
 5940SOL    HW229283   3.034   4.220   7.683 -1.9146 -0.3642 -1.0684
 5941SOL     OW29284   1.210   0.302   8.796  0.0452  0.0086 -0.4232
 5941SOL    HW129285   1.232   0.241   8.866 -0.5739  0.1808 -0.0716
 5941SOL    HW229286   1.201   0.244   8.720  4.8227 -0.2084 -0.8006
 5942SOL     OW29287   2.552   0.523   3.458  0.1491 -0.5060  0.2269
 5942SOL    HW129288   2.492   0.594   3.438  1.0899  0.3607  0.5123
 5942SOL    HW229289   2.489   0.453   3.475 -0.7504  0.6680  1.7435
 5943SOL     OW29290   1.242   2.355  17.315  0.0838  0.4831  0.1417
 5943SOL    HW129291   1.314   2.308  17.274  0.2457  1.7375 -0.9998
 5943SOL    HW229292   1.168   2.344  17.256  0.5231 -0.2864 -0.2546
 5944SOL     OW29293   1.831   3.286   4.637 -0.0925 -0.0837 -0.2603
 5944SOL    HW129294   1.814   3.379   4.654  1.9789  0.0232  1.2976
 5944SOL    HW229295   1.795   3.278   4.549  0.2903 -0.7626 -0.3592
 5945SOL     OW29296   0.988   0.528   9.097 -0.2620  0.1395 -0.7393
 5945SOL    HW129297   1.048   0.503   9.167  2.6939 -0.2817 -3.4093
 5945SOL    HW229298   0.929   0.586   9.145  1.4931  0.2497  1.2428
 5946SOL     OW29299   2.700   2.063   9.174 -0.0485  0.4244  0.0684
 5946SOL    HW129300   2.747   2.057   9.091  1.3609  1.8481  0.7723
 5946SOL    HW229301   2.685   2.157   9.188  0.4006  0.2784  1.5481
 5947SOL     OW29302   3.756   1.531   3.059  0.2083 -0.2151 -0.3603
 5947SOL    HW129303   3.716   1.596   3.002  1.2797  0.9832  0.2645
 5947SOL    HW229304   3.766   1.581   3.140 -1.2681  0.2830 -0.5015
 5948SOL     OW29305   4.168   2.138   6.584 -0.3871  0.2466 -0.3900
 5948SOL    HW129306   4.220   2.057   6.586 -2.8322 -1.3170 -0.2756
 5948SOL    HW229307   4.124   2.140   6.668 -0.5132 -1.8821 -0.3913
 5949SOL     OW29308   0.711   0.159  13.291 -0.0911  0.6960  0.2901
 5949SOL    HW129309   0.677   0.162  13.202  1.6198 -0.1998 -0.4026
 5949SOL    HW229310   0.631   0.170  13.343  0.8947  1.0761  1.7243
 5950SOL     OW29311   3.553   4.322   9.317  0.1559  0.4852 -0.1274
 5950SOL    HW129312   3.530   4.376   9.241  1.1757 -0.0618 -0.8273
 5950SOL    HW229313   3.584   4.390   9.377 -0.0767  0.0852  0.4493
 5951SOL     OW29314   0.810   0.269   0.070 -0.2091 -0.0698 -0.2893
 5951SOL    HW129315   0.785   0.251  17.669  0.5707  1.7173 -0.8516
 5951SOL    HW229316   0.898   0.232   0.079 -0.3812 -0.2868  0.4923
 5952SOL     OW29317   2.731   1.316   9.607 -0.7675 -0.0476 -0.1710
 5952SOL    HW129318   2.804   1.334   9.666  0.1614 -0.6724 -1.1367
 5952SOL    HW229319   2.699   1.232   9.641  0.7315 -0.6243 -0.1724
 5953SOL     OW29320   1.152   0.888   9.120  0.1901  0.5020 -0.2960
 5953SOL    HW129321   1.202   0.895   9.039 -1.0673  0.7194 -1.0470
 5953SOL    HW229322   1.127   0.796   9.123 -1.0013  0.8347 -0.0398
 5954SOL     OW29323   2.828   3.298   9.679 -0.0822  0.3790 -0.4998
 5954SOL    HW129324   2.792   3.271   9.763  1.3864 -0.9927 -0.3178
 5954SOL    HW229325   2.896   3.355   9.715  1.4936 -0.6590 -1.8488
 5955SOL     OW29326   4.673   2.446   6.284 -0.0032 -0.2498 -0.5005
 5955SOL    HW129327   4.655   2.412   6.372 -0.3450  3.0026  0.6951
 5955SOL    HW229328   0.033   2.491   6.305 -0.5294 -0.3938  1.8008
 5956SOL     OW29329   1.561   1.829  17.661 -0.2070 -0.2183  0.1589
 5956SOL    HW129330   1.476   1.808   0.010 -0.2068 -0.2217  0.1576
 5956SOL    HW229331   1.558   1.924  17.666  0.3099 -0.2390  0.7650
 5957SOL     OW29332   4.628   0.810   4.113  0.4943 -0.6313  0.1561
 5957SOL    HW129333   4.697   0.802   4.048  0.3762  0.2173 -0.0713
 5957SOL    HW229334   4.606   0.902   4.125 -1.3822 -1.3073  2.0252
 5958SOL     OW29335   2.963   4.286  13.848 -0.1903 -0.4064 -0.2128
 5958SOL    HW129336   2.941   4.196  13.823 -0.7055 -0.0261 -1.1289
 5958SOL    HW229337   3.057   4.285  13.831  0.0265  0.0355  0.9950
 5959SOL     OW29338   1.413   0.767   0.320  0.2430 -0.2936 -0.2277
 5959SOL    HW129339   1.470   0.748   0.245  2.0707  1.0836  0.8209
 5959SOL    HW229340   1.472   0.760   0.395 -1.3854 -0.5411  1.0294
 5960SOL     OW29341   1.909   0.476  14.832 -0.3510  0.1499  0.3988
 5960SOL    HW129342   1.896   0.448  14.742 -1.1070 -1.6637  1.0603
 5960SOL    HW229343   2.001   0.452  14.845 -0.3357 -0.9323 -1.6719
 5961SOL     OW29344   1.074   0.566   6.740 -0.4219  0.7308 -0.1157
 5961SOL    HW129345   1.017   0.609   6.804  0.9668  1.5000  0.6076
 5961SOL    HW229346   1.112   0.494   6.791 -1.5022  0.9422  1.0030
 5962SOL     OW29347   3.491   0.247   2.421  0.4340 -0.5035  0.7972
 5962SOL    HW129348   3.526   0.313   2.361 -0.2132 -0.2593  0.6986
 5962SOL    HW229349   3.481   0.304   2.497  1.3050 -1.5965  1.7395
 5963SOL     OW29350   0.679   0.939   9.848 -0.1630  0.1932 -0.1668
 5963SOL    HW129351   0.745   0.985   9.796  0.1018 -1.0817 -0.9536
 5963SOL    HW229352   0.601   0.980   9.809 -0.0161  0.5011 -0.1371
 5964SOL     OW29353   2.828   2.418   7.987  0.6541  0.0541  0.3273
 5964SOL    HW129354   2.732   2.413   7.996  0.9305 -2.3633  1.7824
 5964SOL    HW229355   2.831   2.415   7.891  0.8989  2.2791  0.2756
 5965SOL     OW29356   4.377   1.752   6.056  0.4509 -0.3018 -0.3123
 5965SOL    HW129357   4.438   1.810   6.009  0.5878  0.0439  0.2997
 5965SOL    HW229358   4.392   1.664   6.021 -1.4572 -0.3245 -1.0936
 5966SOL     OW29359   4.016   3.032   8.014  0.1629 -0.0298 -0.1091
 5966SOL    HW129360   4.077   2.985   7.958  1.2388  1.5933 -0.3015
 5966SOL    HW229361   3.994   3.102   7.952  0.5042  0.5330  0.4011
 5967SOL     OW29362   2.019   3.701  11.503  0.1230 -0.7566  0.3259
 5967SOL    HW129363   2.095   3.756  11.520 -1.7898  0.5180  4.5348
 5967SOL    HW229364   1.961   3.760  11.455  4.4092  3.4858  0.3808
 5968SOL     OW29365   0.724   2.950  11.463  0.0034 -0.0689 -0.0033
 5968SOL    HW129366   0.761   2.953  11.552 -0.6832 -0.2632  0.2851
 5968SOL    HW229367   0.803   2.954  11.408  0.0885 -0.5627  0.0827
 5969SOL     OW29368   2.101   2.956   4.386  0.3243 -0.2455 -0.4451
 5969SOL    HW129369   2.084   2.969   4.479  0.1740 -1.8462 -0.2386
 5969SOL    HW229370   2.165   3.020   4.356  0.3129  0.1977  0.4823
 5970SOL     OW29371   3.819   0.030  14.591  0.5553  0.0851  0.4209
 5970SOL    HW129372   3.742   0.054  14.642  1.8652 -0.3625  2.6083
 5970SOL    HW229373   3.783   0.013  14.504 -1.6727 -1.0545  1.5588
 5971SOL     OW29374   1.257   2.514   2.039  0.1994  0.1172 -0.0326
 5971SOL    HW129375   1.304   2.498   1.957  0.2024 -0.3401  0.0613
 5971SOL    HW229376   1.263   2.610   2.043 -0.6860  0.1110  1.4920
 5972SOL     OW29377   3.358   3.201   4.103 -0.4923 -0.1457  0.1923
 5972SOL    HW129378   3.306   3.129   4.140 -2.0290  0.1516 -1.3923
 5972SOL    HW229379   3.292   3.250   4.054 -0.6643 -1.4074 -0.8180
 5973SOL     OW29380   2.565   3.454   6.483  0.2813 -0.6125 -0.0098
 5973SOL    HW129381   2.493   3.393   6.466 -2.4797  2.7760 -0.3675
 5973SOL    HW229382   2.539   3.516   6.415 -1.1337 -2.3487 -1.0664
 5974SOL     OW29383   0.700   2.567   4.581  0.2431  0.3177 -0.5073
 5974SOL    HW129384   0.669   2.483   4.547 -0.0587 -0.3620  1.4439
 5974SOL    HW229385   0.718   2.633   4.514 -0.2667 -1.5557 -2.4922
 5975SOL     OW29386   4.139   2.911   8.825  0.4893  0.5474  0.0817
 5975SOL    HW129387   4.194   2.871   8.892  0.2738 -1.7659 -1.1351
 5975SOL    HW229388   4.097   2.835   8.786  0.7000  1.7309 -2.4582
 5976SOL     OW29389   3.523   0.876  10.367  0.1327  0.3298  0.0129
 5976SOL    HW129390   3.510   0.905  10.457  0.0860 -0.7273  0.3466
 5976SOL    HW229391   3.484   0.949  10.319  0.7650  1.2531  0.9112
 5977SOL     OW29392   0.469   3.140   0.169 -0.1479  0.2104 -0.5129
 5977SOL    HW129393   0.466   3.081   0.244  0.2474  1.1941  0.2888
 5977SOL    HW229394   0.560   3.169   0.174 -0.1932  0.3008 -0.1895
 5978SOL     OW29395   1.971   4.300   9.780  0.0677 -0.2095 -0.0909
 5978SOL    HW129396   2.020   4.220   9.763 -0.4130  0.0419 -2.7273
 5978SOL    HW229397   1.925   4.272   9.859  0.6076  2.6830  1.2531
 5979SOL     OW29398   0.857   3.858   7.991  0.4221  0.2967 -0.2870
 5979SOL    HW129399   0.830   3.938   8.037 -0.8001 -0.1858 -0.1699
 5979SOL    HW229400   0.777   3.805   7.994  1.3361 -1.0696 -0.0164
 5980SOL     OW29401   2.611   3.232   4.858 -0.2159  0.0911  0.4751
 5980SOL    HW129402   2.614   3.287   4.937 -0.8491  0.4145  0.2806
 5980SOL    HW229403   2.671   3.164   4.888  0.8135  0.2935 -1.1450
 5981SOL     OW29404   2.876   2.756   9.000 -0.8629 -0.2363 -0.0366
 5981SOL    HW129405   2.900   2.797   8.917  0.5703 -0.8238  0.0966
 5981SOL    HW229406   2.843   2.834   9.045 -1.5067 -0.2656 -0.4533
 5982SOL     OW29407   1.194   3.664  10.959  0.2430  0.0196 -0.1395
 5982SOL    HW129408   1.123   3.682  11.021 -0.3363  2.5720 -1.5418
 5982SOL    HW229409   1.265   3.641  11.019  1.1203 -1.6616 -1.8195
 5983SOL     OW29410   4.392   0.881   0.557 -0.0602 -0.1775  0.0869
 5983SOL    HW129411   4.332   0.822   0.511 -1.9035  0.4359  1.6606
 5983SOL    HW229412   4.459   0.815   0.574  0.5363 -0.0166 -1.6965
 5984SOL     OW29413   3.386   3.061   7.332 -0.2152  0.2161  0.2889
 5984SOL    HW129414   3.327   3.039   7.404 -0.3597 -0.7245 -0.1101
 5984SOL    HW229415   3.412   3.145   7.368  0.5476  0.1852 -0.1730
 5985SOL     OW29416   3.122   3.919   6.222  0.2417  0.1405 -0.1379
 5985SOL    HW129417   3.091   3.936   6.133 -1.2699  1.3795  0.6258
 5985SOL    HW229418   3.165   4.002   6.240 -0.5501  0.3398  0.8349
 5986SOL     OW29419   1.936   2.204  16.984  0.2080 -0.4269  0.6734
 5986SOL    HW129420   1.991   2.261  16.930 -1.6914  0.1559 -0.6539
 5986SOL    HW229421   1.974   2.116  16.977 -1.0845 -0.7809 -2.0210
 5987SOL     OW29422   0.474   2.949   1.278 -0.1445  0.1930 -0.5149
 5987SOL    HW129423   0.557   2.904   1.291 -0.4309  0.5971  2.8127
 5987SOL    HW229424   0.431   2.919   1.358  0.5239  2.0530  0.5412
 5988SOL     OW29425   4.152   2.347  17.322  0.5159  0.1818  0.0285
 5988SOL    HW129426   4.138   2.285  17.251 -0.7623  2.3219 -1.5613
 5988SOL    HW229427   4.158   2.281  17.392  1.9493 -1.1072 -1.3186
 5989SOL     OW29428   1.909   0.931   1.514 -0.1225  0.1449  0.0609
 5989SOL    HW129429   1.901   1.024   1.537  0.7378  0.5823 -1.4054
 5989SOL    HW229430   1.859   0.936   1.432  0.7415  2.3347 -0.3394
 5990SOL     OW29431   0.511   2.502   5.800  1.0160 -0.2072  0.2305
 5990SOL    HW129432   0.419   2.529   5.801  0.4280 -2.1733 -1.6352
 5990SOL    HW229433   0.565   2.562   5.748  3.0190 -0.3447  2.1232
 5991SOL     OW29434   4.233   4.293   7.656 -0.2004 -0.0634 -0.5656
 5991SOL    HW129435   4.183   4.303   7.575 -1.9785 -0.7263  0.4624
 5991SOL    HW229436   4.307   4.353   7.642 -1.0444  1.2599  0.6607
 5992SOL     OW29437   2.475   2.795   0.438  0.5075  0.1051 -0.3746
 5992SOL    HW129438   2.397   2.846   0.416  0.6490  0.9694  1.1744
 5992SOL    HW229439   2.501   2.771   0.348 -0.9865 -1.2426 -0.4421
 5993SOL     OW29440   2.286   4.196   4.330  0.5043 -0.5469  0.3769
 5993SOL    HW129441   2.253   4.135   4.397  2.3094  0.5149  2.2325
 5993SOL    HW229442   2.377   4.179   4.309  0.2309  0.1971 -1.3278
 5994SOL     OW29443   3.218   2.036   5.570 -0.4302  0.3496 -0.3980
 5994SOL    HW129444   3.207   1.941   5.571  0.4376  0.2645  1.3477
 5994SOL    HW229445   3.153   2.054   5.638  0.5330 -0.3556  0.7216
 5995SOL     OW29446   1.854   0.631   1.115  0.1306  0.2706 -0.0250
 5995SOL    HW129447   1.947   0.644   1.135 -0.3589  2.3295  0.9447
 5995SOL    HW229448   1.849   0.535   1.117 -2.0316  0.4709  4.1188
 5996SOL     OW29449   2.585   4.134   2.645  0.8940 -0.5468  0.1023
 5996SOL    HW129450   2.501   4.180   2.642  0.2277 -1.9027 -1.8087
 5996SOL    HW229451   2.565   4.061   2.705 -1.6692  0.6076  0.6650
 5997SOL     OW29452   0.704   2.589   6.143  0.4208  0.1237  0.0981
 5997SOL    HW129453   0.730   2.579   6.234 -0.9498  1.0923  0.5785
 5997SOL    HW229454   0.636   2.655   6.140 -1.8330 -2.2851 -1.9266
 5998SOL     OW29455   0.335   3.841   0.539 -0.3161  0.0815  0.6734
 5998SOL    HW129456   0.372   3.754   0.551  0.1919  0.4086  1.4878
 5998SOL    HW229457   0.301   3.818   0.453  0.2478  4.1114 -0.6034
 5999SOL     OW29458   3.360   0.720  15.018  0.1414  0.0641 -0.8194
 5999SOL    HW129459   3.276   0.756  14.989  0.4998  0.7111 -1.0608
 5999SOL    HW229460   3.419   0.747  14.947 -0.3902  1.0703 -0.8744
 6000SOL     OW29461   1.130   2.009   2.989 -0.1943  0.2524 -0.2648
 6000SOL    HW129462   1.079   1.928   2.989  3.2075 -1.9089 -0.0594
 6000SOL    HW229463   1.119   2.039   2.898  0.2772 -1.2549 -0.8167
 6001SOL     OW29464   0.509   1.909  14.888  0.6034  0.6091  0.6733
 6001SOL    HW129465   0.582   1.876  14.836 -0.1569  1.9541 -1.2477
 6001SOL    HW229466   0.449   1.924  14.816 -0.5394 -0.1177  1.4840
 6002SOL     OW29467   0.286   1.670   1.673 -0.2550  0.1802  0.0955
 6002SOL    HW129468   0.247   1.607   1.612 -2.3047  1.1305  0.4141
 6002SOL    HW229469   0.371   1.627   1.677 -0.1117  0.4446 -0.0944
 6003SOL     OW29470   2.230   3.829   4.323 -0.0380  0.4041  0.5511
 6003SOL    HW129471   2.316   3.818   4.283 -0.1987 -0.6237  0.4937
 6003SOL    HW229472   2.238   3.784   4.407  1.0079 -2.3637 -1.0345
 6004SOL     OW29473   2.244   3.124   8.345 -0.0999  0.7736  0.2269
 6004SOL    HW129474   2.302   3.193   8.378 -1.2309  2.0737 -0.5068
 6004SOL    HW229475   2.298   3.096   8.271  1.2699  2.3587  0.6277
 6005SOL     OW29476   1.633   0.117  14.341 -0.0547 -0.0744  0.6288
 6005SOL    HW129477   1.668   0.028  14.340 -0.3546 -0.1667 -1.2340
 6005SOL    HW229478   1.567   0.121  14.411 -3.0337 -0.9682 -2.1694
 6006SOL     OW29479   0.843   2.946  10.516 -0.3081 -0.0713 -0.0582
 6006SOL    HW129480   0.785   2.979  10.584  1.6651  2.8009  0.2430
 6006SOL    HW229481   0.921   2.999  10.534  0.2051 -0.5053 -0.9703
 6007SOL     OW29482   1.329   3.457   7.788 -0.0022 -0.2251 -0.2619
 6007SOL    HW129483   1.338   3.533   7.731 -1.5624 -1.2508 -1.8719
 6007SOL    HW229484   1.320   3.504   7.871 -3.5904 -2.6836  0.7228
 6008SOL     OW29485   3.429   2.420   7.033  0.1980  0.2451 -0.6992
 6008SOL    HW129486   3.518   2.419   7.068  0.3296  1.2111 -1.0233
 6008SOL    HW229487   3.371   2.439   7.107  1.1952  0.7099 -0.0361
 6009SOL     OW29488   2.742   1.956   5.038 -0.1847 -0.4908 -0.0697
 6009SOL    HW129489   2.807   1.959   5.107  0.1134  0.9148 -0.4178
 6009SOL    HW229490   2.714   1.865   5.033  2.7455 -1.4036  0.3484
 6010SOL     OW29491   2.487   0.570  12.578 -0.0538  0.4231 -0.1293
 6010SOL    HW129492   2.582   0.586  12.583 -0.1705  0.8876  0.7306
 6010SOL    HW229493   2.484   0.549  12.485 -0.4825  2.5916 -0.6115
 6011SOL     OW29494   3.665   1.422  13.633 -0.5173 -0.4459  0.0792
 6011SOL    HW129495   3.631   1.456  13.550  0.4987  0.8135  0.1895
 6011SOL    HW229496   3.679   1.499  13.688  1.4705 -0.7370 -0.0182
 6012SOL     OW29497   3.782   1.111   0.036 -0.0442  0.0327 -0.2657
 6012SOL    HW129498   3.864   1.161   0.039  0.0379 -0.1803  0.7573
 6012SOL    HW229499   3.817   1.023   0.023  1.5233  0.5903  0.1851
 6013SOL     OW29500   1.355   1.983   6.806  0.8462 -0.2581  0.1085
 6013SOL    HW129501   1.369   1.930   6.726  1.4396  2.4497 -1.5756
 6013SOL    HW229502   1.340   1.913   6.869  0.5447  0.8767  1.2908
 6014SOL     OW29503   4.021   0.095  13.322 -0.2971  0.2769  0.1354
 6014SOL    HW129504   3.968   0.163  13.281 -1.3084 -0.3682  0.3890
 6014SOL    HW229505   4.030   0.030  13.252  0.2453 -0.1414  0.5912
 6015SOL     OW29506   2.141   4.027   0.586  0.8211 -0.0485  0.2532
 6015SOL    HW129507   2.184   4.112   0.576 -1.4816  0.8613 -2.0463
 6015SOL    HW229508   2.205   3.965   0.551 -0.0112 -0.5079 -0.4595
 6016SOL     OW29509   2.904   4.702  12.497 -0.4318  0.5516 -0.0817
 6016SOL    HW129510   2.883   4.625  12.444  0.7517 -0.0149  0.2600
 6016SOL    HW229511   2.949   0.044  12.442  1.7938 -1.3854 -0.5115
 6017SOL     OW29512   0.997   3.658   6.166  0.0890 -0.3385  0.4302
 6017SOL    HW129513   1.049   3.737   6.177  2.6172 -2.0726  0.9990
 6017SOL    HW229514   0.910   3.695   6.178  0.9500  1.2990  1.5653
 6018SOL     OW29515   2.011   0.842   2.348 -0.3536  0.3019 -0.3330
 6018SOL    HW129516   1.998   0.747   2.350 -2.5975  0.6249 -0.3486
 6018SOL    HW229517   2.050   0.844   2.261  0.8254  0.5368  0.1939
 6019SOL     OW29518   0.953   3.946  13.430 -0.0244  0.7017 -0.1534
 6019SOL    HW129519   0.970   4.029  13.388  0.7126 -0.1276 -1.4783
 6019SOL    HW229520   0.934   3.894  13.352  0.7238 -0.3347  0.3571
 6020SOL     OW29521   1.200   3.647   6.377 -0.6437 -0.6849  0.3307
 6020SOL    HW129522   1.136   3.644   6.306  0.4629 -1.2353 -0.6244
 6020SOL    HW229523   1.226   3.557   6.394 -1.2670 -1.1646 -1.2303
 6021SOL     OW29524   0.689   2.876  17.257  0.4967  0.1430  0.2978
 6021SOL    HW129525   0.687   2.920  17.342 -0.0772  0.5363  0.0787
 6021SOL    HW229526   0.595   2.863  17.239  1.1127 -0.9188 -2.1626
 6022SOL     OW29527   4.329   0.517   6.296  0.4486 -0.4125 -0.0567
 6022SOL    HW129528   4.259   0.480   6.349  1.3982 -0.7811  0.9212
 6022SOL    HW229529   4.321   0.612   6.303 -0.0196 -0.3958 -0.7539
 6023SOL     OW29530   2.341   2.610   1.763  0.2007 -0.0661 -0.1445
 6023SOL    HW129531   2.412   2.546   1.762  0.8124  0.6320 -1.0506
 6023SOL    HW229532   2.330   2.634   1.671  0.7164 -1.0476 -0.4556
 6024SOL     OW29533   3.229   3.322   1.966  0.5407  0.8000 -0.4093
 6024SOL    HW129534   3.273   3.301   2.048  0.1905 -0.3578 -0.5015
 6024SOL    HW229535   3.269   3.262   1.903  4.1241  3.0607 -0.2488
 6025SOL     OW29536   3.397   3.899   1.688 -0.6114 -0.2773 -0.2111
 6025SOL    HW129537   3.303   3.895   1.672 -0.9117 -0.4817  1.6394
 6025SOL    HW229538   3.416   3.981   1.734 -0.2227 -1.1971  1.2488
 6026SOL     OW29539   3.372   3.824   8.678  0.0600 -0.2787  0.6221
 6026SOL    HW129540   3.294   3.860   8.636 -0.3158 -1.4809  0.2935
 6026SOL    HW229541   3.393   3.747   8.626  1.0650 -0.3481  1.1329
 6027SOL     OW29542   4.623   3.811   3.342 -0.4051 -0.0233  0.6036
 6027SOL    HW129543   4.669   3.744   3.291 -1.2004 -0.9538  1.1302
 6027SOL    HW229544   4.602   3.877   3.276 -0.3682 -1.7558 -1.1639
 6028SOL     OW29545   3.188   2.057   5.891  0.2645 -0.4253 -0.0314
 6028SOL    HW129546   3.247   2.076   5.964 -0.4311 -2.6665  1.1096
 6028SOL    HW229547   3.223   1.969   5.875 -0.5722 -0.8948  0.7493
 6029SOL     OW29548   1.590   4.354   3.356 -0.0142 -0.5906  0.8483
 6029SOL    HW129549   1.599   4.259   3.363 -0.6087 -0.5007  2.7695
 6029SOL    HW229550   1.656   4.381   3.419 -3.1921  3.1054  2.5947
 6030SOL     OW29551   2.594   3.749   9.478  0.1358 -0.2125 -0.1539
 6030SOL    HW129552   2.646   3.725   9.554  0.1575  0.4638  0.0518
 6030SOL    HW229553   2.664   3.789   9.426  0.8078  0.7089  1.4410
 6031SOL     OW29554   2.160   0.763  17.365  0.2158  0.0051 -0.2342
 6031SOL    HW129555   2.255   0.755  17.359  0.0816  1.4822 -4.1684
 6031SOL    HW229556   2.136   0.679  17.405  1.1275  1.3518  3.1468
 6032SOL     OW29557   0.240   3.369   8.948  0.0296 -0.0577 -0.3595
 6032SOL    HW129558   0.180   3.381   9.022  0.1834 -0.1596 -0.2168
 6032SOL    HW229559   0.324   3.355   8.993 -0.6083  0.5399  1.0121
 6033SOL     OW29560   2.417   2.619   4.975 -0.2636 -0.0301 -0.7961
 6033SOL    HW129561   2.335   2.581   5.005 -0.2713  1.3785  0.9799
 6033SOL    HW229562   2.464   2.545   4.938 -1.5675 -1.9950  1.5512
 6034SOL     OW29563   4.390   3.179  15.922  0.3245 -0.7408  0.1494
 6034SOL    HW129564   4.462   3.230  15.959 -1.2502  0.9625  0.8714
 6034SOL    HW229565   4.396   3.207  15.831 -0.6328 -1.9207 -0.2791
 6035SOL     OW29566   3.214   2.910   1.971 -0.2632 -0.1591  0.1456
 6035SOL    HW129567   3.161   2.859   1.911  1.3806 -1.0060 -0.5847
 6035SOL    HW229568   3.156   2.942   2.040 -2.8770 -0.6833 -1.8070
 6036SOL     OW29569   1.864   3.401   7.913 -0.1208  0.4833  0.3255
 6036SOL    HW129570   1.775   3.432   7.932 -0.1386 -0.1332  1.2499
 6036SOL    HW229571   1.918   3.480   7.921  0.5638 -0.0664  1.2351
 6037SOL     OW29572   2.408   3.092   3.022  0.1883 -0.2306  0.8439
 6037SOL    HW129573   2.421   3.003   2.990  0.4356  0.0182  0.2356
 6037SOL    HW229574   2.446   3.143   2.950  1.6464 -0.6456  1.3118
 6038SOL     OW29575   0.095   4.105   2.188 -0.2145  0.2090  0.1434
 6038SOL    HW129576   0.005   4.074   2.199 -0.6717  0.1715 -3.6052
 6038SOL    HW229577   0.125   4.081   2.275 -5.5969 -2.1852  1.3306
 6039SOL     OW29578   2.210   3.822   9.661 -0.3975  0.1386 -0.2359
 6039SOL    HW129579   2.243   3.833   9.750  0.9277 -0.2368 -0.6893
 6039SOL    HW229580   2.195   3.728   9.652  2.8190 -0.2057 -1.6394
 6040SOL     OW29581   1.036   1.311   9.876  0.0244 -0.6393  0.1224
 6040SOL    HW129582   1.117   1.265   9.897  0.1501 -1.4426 -2.1306
 6040SOL    HW229583   1.066   1.346   9.792  0.3309 -2.2872 -0.4423
 6041SOL     OW29584   3.176   1.975  14.442  0.4549  0.2178 -0.3295
 6041SOL    HW129585   3.110   2.020  14.496  0.0467 -0.5900 -0.1352
 6041SOL    HW229586   3.118   1.962  14.367 -0.7018 -0.1258  0.6065
 6042SOL     OW29587   0.080   1.316   5.969 -0.3642  0.4959  0.1502
 6042SOL    HW129588   0.144   1.362   5.914  0.2650  0.0830  0.5414
 6042SOL    HW229589   0.069   1.238   5.915  0.0083 -0.2282  1.1209
 6043SOL     OW29590   3.527   4.006   3.749 -0.3052 -0.3237  0.2643
 6043SOL    HW129591   3.568   4.070   3.690 -2.4809  1.9886  1.2795
 6043SOL    HW229592   3.588   4.018   3.821 -0.0270  2.7322 -0.4489
 6044SOL     OW29593   3.125   4.222   1.301 -0.0404 -0.7433 -0.1160
 6044SOL    HW129594   3.129   4.307   1.346 -2.3338 -0.8826  0.3616
 6044SOL    HW229595   3.197   4.229   1.238 -0.0307  1.7534  0.1419
 6045SOL     OW29596   3.821   0.191   5.093 -0.2031  0.2258  0.2708
 6045SOL    HW129597   3.914   0.212   5.080 -0.1461 -2.2618 -3.2039
 6045SOL    HW229598   3.829   0.096   5.084 -3.0008  0.0494 -0.1901
 6046SOL     OW29599   0.877   0.801   7.131  0.7712 -0.0956  0.0420
 6046SOL    HW129600   0.781   0.805   7.138  0.7288 -0.3901 -0.3885
 6046SOL    HW229601   0.888   0.813   7.225 -2.3458  0.4600  0.3572
 6047SOL     OW29602   0.534   0.532   6.003 -0.2256  0.7296  0.2669
 6047SOL    HW129603   0.626   0.528   6.031  0.4407  1.5865 -1.8071
 6047SOL    HW229604   0.534   0.624   5.976  0.9097  0.3666 -0.9707
 6048SOL     OW29605   0.703   1.175   7.099 -0.3839 -0.1954 -0.1367
 6048SOL    HW129606   0.679   1.084   7.116  2.6816 -0.8855  0.4142
 6048SOL    HW229607   0.701   1.207   7.189  4.0396  2.2504 -0.9118
 6049SOL     OW29608   4.295   1.661  10.812 -0.2349  0.0604 -0.4366
 6049SOL    HW129609   4.300   1.752  10.781 -1.2737  0.0563 -0.5939
 6049SOL    HW229610   4.201   1.647  10.805 -0.3961  0.5962  0.7398
 6050SOL     OW29611   1.817   0.605   8.915  0.4660 -0.3065  0.1968
 6050SOL    HW129612   1.875   0.644   8.849  0.2046 -0.1599  0.0550
 6050SOL    HW229613   1.871   0.585   8.992  1.0371  0.3511 -0.0269
 6051SOL     OW29614   1.554   3.037   9.284 -0.1755 -0.4360  0.4416
 6051SOL    HW129615   1.484   3.101   9.299  0.3406  0.3688 -0.5941
 6051SOL    HW229616   1.503   2.964   9.250  2.0095 -1.7486  0.0268
 6052SOL     OW29617   3.301   2.469   9.242 -0.1098 -0.1956  0.1591
 6052SOL    HW129618   3.286   2.438   9.153  2.1759 -0.0188 -0.2985
 6052SOL    HW229619   3.210   2.457   9.268 -0.2014  0.8270  0.3022
 6053SOL     OW29620   0.497   4.392  14.663 -0.8392 -0.3756  0.0168
 6053SOL    HW129621   0.521   4.435  14.745 -0.4563  2.2277 -1.4906
 6053SOL    HW229622   0.496   4.302  14.696  2.8107 -0.0771  0.8673
 6054SOL     OW29623   0.494   4.132   9.650 -0.4279  0.1379 -0.1934
 6054SOL    HW129624   0.435   4.072   9.695 -1.2665  0.7030 -0.5467
 6054SOL    HW229625   0.569   4.124   9.709 -0.0055 -0.3205 -0.7873
 6055SOL     OW29626   0.167   4.306   3.680 -0.1493 -0.0193 -0.7483
 6055SOL    HW129627   0.259   4.285   3.697 -0.2960  0.0745  0.1576
 6055SOL    HW229628   0.125   4.220   3.679 -1.0946  0.4319  0.1436
 6056SOL     OW29629   2.710   4.193   1.008 -0.3079  0.2799  0.5144
 6056SOL    HW129630   2.665   4.109   0.997 -0.4514  0.2147  1.6705
 6056SOL    HW229631   2.787   4.185   0.951  0.7845 -1.0119  2.1856
 6057SOL     OW29632   1.642   3.173   7.829 -0.3174  0.2043  0.1911
 6057SOL    HW129633   1.547   3.172   7.843 -0.6114  1.9630 -1.6538
 6057SOL    HW229634   1.659   3.217   7.912 -0.0101  1.5208 -0.5711
 6058SOL     OW29635   4.069   4.612   8.714  0.6558 -0.1760  0.4651
 6058SOL    HW129636   4.082   4.601   8.620 -1.0992  2.1206 -0.0255
 6058SOL    HW229637   3.977   4.589   8.729  0.2819  0.2957 -1.1581
 6059SOL     OW29638   2.330   3.121   3.713 -0.0634  0.5469  0.3195
 6059SOL    HW129639   2.321   3.027   3.725  0.0047  0.6462  1.1424
 6059SOL    HW229640   2.388   3.140   3.786 -0.9578  2.6336  0.5096
 6060SOL     OW29641   4.465   1.433  15.543 -0.1265  0.2045 -0.1813
 6060SOL    HW129642   4.458   1.522  15.507  1.9060  0.9033  1.0914
 6060SOL    HW229643   4.414   1.433  15.624  2.2431 -1.4566  1.2911
 6061SOL     OW29644   3.689   0.247   7.458 -0.6736  0.2613  0.0748
 6061SOL    HW129645   3.670   0.186   7.386  0.4435  0.1894 -0.1586
 6061SOL    HW229646   3.661   0.193   7.532  1.5175 -1.6550 -0.4738
 6062SOL     OW29647   3.977   3.445   2.806 -0.0702  0.1947 -0.6370
 6062SOL    HW129648   4.061   3.487   2.823  0.0819 -1.0444  1.6414
 6062SOL    HW229649   3.984   3.425   2.713  0.2569 -4.0741  0.3022
 6063SOL     OW29650   3.443   2.724   9.341 -0.4553 -0.0901  0.0201
 6063SOL    HW129651   3.399   2.642   9.319  0.7031 -1.1982  1.8946
 6063SOL    HW229652   3.422   2.770   9.259  0.8710  1.4661  0.5540
 6064SOL     OW29653   0.157   3.468   6.732  0.3023  0.3451  0.7943
 6064SOL    HW129654   0.108   3.482   6.651 -0.3346  2.1534  1.4745
 6064SOL    HW229655   0.110   3.395   6.773  0.8216  0.6445  1.9432
 6065SOL     OW29656   1.414   3.471  16.778  0.1199 -0.3908  0.2445
 6065SOL    HW129657   1.360   3.404  16.734  0.4824 -0.0472 -0.7192
 6065SOL    HW229658   1.411   3.537  16.709  0.5937 -0.9853 -0.3565
 6066SOL     OW29659   2.244   4.579   5.056  0.0814  0.1075 -0.2103
 6066SOL    HW129660   2.282   4.666   5.044  1.2055 -0.3071  0.3059
 6066SOL    HW229661   2.227   4.555   4.965  0.7967 -1.4118  0.0580
 6067SOL     OW29662   3.593   0.532   2.822 -0.0613 -0.1787 -0.0781
 6067SOL    HW129663   3.591   0.622   2.788  0.9317 -0.8163 -1.7821
 6067SOL    HW229664   3.684   0.524   2.851  0.7391 -3.7038 -3.5841
 6068SOL     OW29665   2.859   3.655   6.182 -0.1245  0.1011  0.3024
 6068SOL    HW129666   2.937   3.609   6.152 -1.5212 -0.6251 -2.2514
 6068SOL    HW229667   2.865   3.632   6.274  2.6553  1.2217  0.3864
 6069SOL     OW29668   2.777   1.415   2.685 -0.1991 -0.1626 -0.0967
 6069SOL    HW129669   2.721   1.482   2.646 -1.4972 -1.1159  0.1669
 6069SOL    HW229670   2.793   1.348   2.619  2.9226 -0.1502  0.5995
 6070SOL     OW29671   4.002   3.309   0.640  1.0220 -0.5143  0.1787
 6070SOL    HW129672   4.028   3.399   0.619  1.0207 -1.3519 -3.3928
 6070SOL    HW229673   4.053   3.254   0.580  1.0473 -2.3416  1.8792
 6071SOL     OW29674   1.753   3.361   3.157 -0.5522  0.1993 -0.1305
 6071SOL    HW129675   1.754   3.383   3.250 -1.6783  1.3721 -0.4064
 6071SOL    HW229676   1.675   3.412   3.135 -0.5475  0.4518  0.4294
 6072SOL     OW29677   1.668   3.834   7.166 -0.0289  0.5323  0.2218
 6072SOL    HW129678   1.664   3.894   7.241 -0.4036  2.4625 -1.3257
 6072SOL    HW229679   1.662   3.745   7.200 -1.0099  0.4311 -0.2191
 6073SOL     OW29680   3.551   2.136   5.341 -0.0405 -0.5098  0.3898
 6073SOL    HW129681   3.589   2.102   5.260 -0.9923  1.6610 -0.9688
 6073SOL    HW229682   3.524   2.223   5.312 -1.9016 -0.6725  1.6043
 6074SOL     OW29683   1.857   2.293   3.531 -0.2050  0.1899  0.2984
 6074SOL    HW129684   1.829   2.332   3.448  2.1387 -2.0384 -1.5256
 6074SOL    HW229685   1.915   2.356   3.574  2.3246 -1.8740 -0.0905
 6075SOL     OW29686   1.885   4.363   6.689  0.0824  0.0762  0.0331
 6075SOL    HW129687   1.849   4.305   6.623 -1.2143 -0.7365  1.4610
 6075SOL    HW229688   1.858   4.315   6.767 -0.7973  1.8359  0.8304
 6076SOL     OW29689   4.067   2.958  10.804 -0.1249 -0.1705 -0.2999
 6076SOL    HW129690   4.018   3.040  10.803  1.9098  1.0521 -0.8767
 6076SOL    HW229691   4.107   2.950  10.890 -1.4773  1.6434  0.4996
 6077SOL     OW29692   1.419   2.561   3.466 -0.1633 -0.4632  0.0635
 6077SOL    HW129693   1.413   2.545   3.560 -0.1400 -1.2217 -0.0662
 6077SOL    HW229694   1.329   2.537   3.446 -0.0914 -0.2526 -0.5369
 6078SOL     OW29695   4.045   2.023  14.772 -0.1325  0.0361 -0.5322
 6078SOL    HW129696   4.103   1.967  14.721  0.4775 -0.4747  0.7268
 6078SOL    HW229697   3.991   2.057  14.700 -0.2394 -2.0662 -1.4454
 6079SOL     OW29698   3.666   4.364   6.598 -0.4731 -1.1501  0.0205
 6079SOL    HW129699   3.754   4.360   6.562 -0.2520  0.5584  0.3543
 6079SOL    HW229700   3.676   4.316   6.681  0.4388 -0.2521  0.4347
 6080SOL     OW29701   2.534   1.932   9.573  0.3171 -0.0362 -0.1264
 6080SOL    HW129702   2.442   1.922   9.547 -0.6251 -0.7477  3.4018
 6080SOL    HW229703   2.570   2.002   9.518 -1.1346  1.2741  0.5623
 6081SOL     OW29704   1.698   0.431   1.500  0.8668 -0.1107  0.2373
 6081SOL    HW129705   1.687   0.513   1.548 -2.5770 -0.5352  0.1673
 6081SOL    HW229706   1.790   0.412   1.519  0.8800 -0.2714  0.0106
 6082SOL     OW29707   2.334   0.219   5.218  0.2199  0.7368 -0.4141
 6082SOL    HW129708   2.353   0.157   5.148  3.0758  0.0225  0.9860
 6082SOL    HW229709   2.266   0.162   5.257 -0.5255  1.4391 -0.6939
 6083SOL     OW29710   1.940   0.745   6.715 -0.0675  0.6337  0.1427
 6083SOL    HW129711   1.986   0.681   6.661 -0.3915 -0.1737  0.8262
 6083SOL    HW229712   1.994   0.729   6.792 -0.9143 -0.4841  0.4950
 6084SOL     OW29713   1.138   4.342   9.391  0.1606 -0.2005 -0.2435
 6084SOL    HW129714   1.080   4.375   9.460 -1.5043 -0.7120 -1.3864
 6084SOL    HW229715   1.224   4.364   9.427  1.2362 -3.0005 -1.1116
 6085SOL     OW29716   1.344   4.537   7.891 -0.1669  0.2906 -0.3196
 6085SOL    HW129717   1.419   4.478   7.886  0.8046  1.1580  3.8580
 6085SOL    HW229718   1.363   4.588   7.813  1.8045 -0.0865 -0.0884
 6086SOL     OW29719   4.647   0.224   2.545  0.6907 -0.1783 -0.6686
 6086SOL    HW129720   4.561   0.254   2.576  0.5016  1.8486 -3.1142
 6086SOL    HW229721   4.682   0.310   2.521 -1.7864  0.3740 -2.3762
 6087SOL     OW29722   2.636   3.496  14.382  0.0495  0.0567 -0.5583
 6087SOL    HW129723   2.653   3.590  14.392  1.3616 -0.1989 -0.3711
 6087SOL    HW229724   2.717   3.450  14.361  1.1157  1.5710  0.2734
 6088SOL     OW29725   4.211   0.314   5.301 -0.9406  0.0646  0.3512
 6088SOL    HW129726   4.118   0.301   5.280 -0.6702  0.1988 -0.9388
 6088SOL    HW229727   4.196   0.368   5.378 -2.7246  0.2629 -0.1410
 6089SOL     OW29728   3.714   1.329   7.471  0.2791 -0.2482  0.0852
 6089SOL    HW129729   3.719   1.251   7.526  0.5064 -0.2182  0.1063
 6089SOL    HW229730   3.688   1.395   7.536  0.5898 -1.8447  1.8320
 6090SOL     OW29731   2.586   4.076   9.147  0.1606  0.6427 -0.3772
 6090SOL    HW129732   2.633   4.033   9.218  0.0973  0.4805 -0.4319
 6090SOL    HW229733   2.518   4.009   9.135 -1.2141  2.0483 -0.3432
 6091SOL     OW29734   4.414   3.838  12.335 -0.2445  0.4256 -0.0173
 6091SOL    HW129735   4.385   3.912  12.388 -4.6021  0.5600 -2.6130
 6091SOL    HW229736   4.338   3.780  12.335  0.0379  0.0328  2.7867
 6092SOL     OW29737   3.250   4.266   7.038 -0.1322  0.5052 -0.2457
 6092SOL    HW129738   3.188   4.310   6.980  1.4092  1.1599 -1.3847
 6092SOL    HW229739   3.317   4.334   7.046 -0.6025  0.8368  1.0120
 6093SOL     OW29740   0.027   1.842   1.732  0.0380 -0.1146  0.2211
 6093SOL    HW129741   0.101   1.781   1.734 -0.7041 -1.0212  0.1385
 6093SOL    HW229742   0.071   1.907   1.677 -0.6072 -0.5696 -0.8450
 6094SOL     OW29743   2.471   4.654  12.156  0.2859 -0.1967 -0.4569
 6094SOL    HW129744   2.425   4.583  12.200 -1.2236 -1.2577 -3.7426
 6094SOL    HW229745   2.453   4.653  12.062 -0.8291 -1.6630 -0.2167
 6095SOL     OW29746   1.954   1.711   7.147 -0.2647 -0.4597  0.4990
 6095SOL    HW129747   1.905   1.629   7.142 -1.4641  0.3761 -1.5874
 6095SOL    HW229748   1.980   1.725   7.238 -1.6394  3.1628  0.3382
 6096SOL     OW29749   4.159   1.786   2.005 -0.4066  0.0253 -0.4366
 6096SOL    HW129750   4.149   1.855   2.070 -2.3006 -0.5364 -0.1239
 6096SOL    HW229751   4.148   1.837   1.925 -0.6988  0.2577 -0.2468
 6097SOL     OW29752   4.373   1.180   5.261 -0.7596  0.3562 -0.2859
 6097SOL    HW129753   4.282   1.176   5.232 -0.8928  1.9482 -0.1047
 6097SOL    HW229754   4.397   1.093   5.291  1.4785  0.6312 -1.2951
 6098SOL     OW29755   0.188   1.873   8.584 -0.1505  0.3980 -0.2904
 6098SOL    HW129756   0.245   1.841   8.514  0.8500  0.4778  0.4807
 6098SOL    HW229757   0.161   1.963   8.568 -0.4389  0.4555  0.5146
 6099SOL     OW29758   2.397   3.352   8.473 -0.0828  0.1511  0.2276
 6099SOL    HW129759   2.395   3.313   8.561 -0.0953 -0.7265 -0.1655
 6099SOL    HW229760   2.467   3.414   8.490  0.1534  0.3162 -1.3600
 6100SOL     OW29761   0.366   2.381   6.510 -0.1063 -0.1220  0.1071
 6100SOL    HW129762   0.391   2.338   6.429 -0.0670 -0.2642  0.1944
 6100SOL    HW229763   0.428   2.454   6.513  0.7588 -0.7833 -1.6424
 6101SOL     OW29764   2.890   2.381   5.499  0.5121 -0.8975 -0.1819
 6101SOL    HW129765   2.983   2.385   5.520  0.3061 -0.3436  0.6086
 6101SOL    HW229766   2.878   2.474   5.515  2.2810 -0.6572 -0.2262
 6102SOL     OW29767   2.095   0.494  15.784 -0.3093 -0.0440  0.3939
 6102SOL    HW129768   2.013   0.471  15.829 -0.5046  1.0996  0.6032
 6102SOL    HW229769   2.153   0.426  15.818  1.3029  1.0999 -0.1084
 6103SOL     OW29770   0.399   1.755   2.283 -0.7808  0.2223  0.2750
 6103SOL    HW129771   0.433   1.845   2.284 -0.8208  0.2332  0.7136
 6103SOL    HW229772   0.314   1.768   2.324 -1.4276  1.6185 -1.4899
 6104SOL     OW29773   3.060   3.230  14.115 -0.2732  0.5527  0.5642
 6104SOL    HW129774   3.095   3.244  14.027 -0.9610  0.8056  0.3292
 6104SOL    HW229775   2.998   3.158  14.101 -2.8647  2.3759  2.9262
 6105SOL     OW29776   4.003   0.565   7.907 -0.3192 -0.4232  0.1164
 6105SOL    HW129777   3.993   0.652   7.946  1.4202  0.5542 -1.6823
 6105SOL    HW229778   4.089   0.582   7.870  0.1922 -2.0868  0.5299
 6106SOL     OW29779   2.476   0.549  12.286 -0.2669  0.0577  0.2648
 6106SOL    HW129780   2.453   0.539  12.194 -2.5250 -2.2928  1.0836
 6106SOL    HW229781   2.502   0.640  12.273  1.3659 -0.5507 -0.7432
 6107SOL     OW29782   1.430   3.462   5.978  0.0272  0.0953  0.0080
 6107SOL    HW129783   1.470   3.538   5.934 -1.0287  0.8045  0.2741
 6107SOL    HW229784   1.423   3.495   6.067 -1.8619 -3.2684  1.0978
 6108SOL     OW29785   4.097   1.880   2.359 -0.4877  0.0233 -0.0593
 6108SOL    HW129786   4.113   1.930   2.439  2.5546  1.4155 -1.5566
 6108SOL    HW229787   4.137   1.936   2.292 -0.9656 -0.3603 -0.6651
 6109SOL     OW29788   1.054   3.366   8.694 -0.5223 -0.1261  0.2534
 6109SOL    HW129789   1.016   3.322   8.771  1.0377  0.4381  1.3507
 6109SOL    HW229790   1.035   3.454   8.725 -0.0328  0.5097 -1.2571
 6110SOL     OW29791   1.389   1.114  17.243  0.3009 -0.3338  0.2950
 6110SOL    HW129792   1.434   1.143  17.322 -1.1575 -0.4672  1.1739
 6110SOL    HW229793   1.312   1.170  17.251 -0.4282 -1.2416 -0.4250
 6111SOL     OW29794   2.257   4.572   3.152 -0.1141 -0.1476  0.2323
 6111SOL    HW129795   2.257   4.576   3.247 -1.1475  0.7178  0.2027
 6111SOL    HW229796   2.166   4.593   3.130  0.6188  2.7040 -0.0536
 6112SOL     OW29797   1.466   0.806   4.495  0.5368 -0.0631 -0.0598
 6112SOL    HW129798   1.407   0.806   4.571  1.2940 -1.0228  0.5232
 6112SOL    HW229799   1.491   0.898   4.491  1.5276 -0.2769  1.4832
 6113SOL     OW29800   0.480   1.065   7.843  0.4397 -0.0204 -0.1273
 6113SOL    HW129801   0.497   1.139   7.901  1.5674 -0.7243  0.4288
 6113SOL    HW229802   0.510   0.989   7.893  1.9619  0.8281  0.2368
 6114SOL     OW29803   4.192   4.633   2.097 -0.1313  0.2634 -0.1192
 6114SOL    HW129804   4.170   0.001   2.123 -0.1886  1.0502 -2.9162
 6114SOL    HW229805   4.151   4.634   2.011 -1.5523  0.3053  0.5428
 6115SOL     OW29806   3.884   1.944   3.037  0.0091 -0.7600 -0.2596
 6115SOL    HW129807   3.921   2.019   2.992  1.1330 -1.1619  0.0036
 6115SOL    HW229808   3.811   1.989   3.079 -2.3023 -3.0016 -1.8446
 6116SOL     OW29809   2.795   0.714   8.443 -0.1161 -0.0703  0.1580
 6116SOL    HW129810   2.774   0.634   8.491 -2.1349 -1.3469 -2.8265
 6116SOL    HW229811   2.888   0.702   8.428  0.0760  1.7249 -0.1927
 6117SOL     OW29812   2.594   2.534  12.133 -0.7082  0.0900  0.3126
 6117SOL    HW129813   2.530   2.468  12.106 -0.2867 -0.4923  0.7166
 6117SOL    HW229814   2.614   2.505  12.222  0.3710 -2.1481 -0.6574
 6118SOL     OW29815   1.586   1.092   4.624 -0.3547 -0.3410 -0.2076
 6118SOL    HW129816   1.539   1.106   4.706 -1.1408  3.4247 -1.2950
 6118SOL    HW229817   1.515   1.128   4.570  0.2209  1.8127  0.4869
 6119SOL     OW29818   1.752   1.405   8.697  0.5589  0.1629 -0.1536
 6119SOL    HW129819   1.733   1.403   8.603 -1.5941  0.7191  0.2487
 6119SOL    HW229820   1.767   1.315   8.724 -1.7841 -0.0320  0.5400
 6120SOL     OW29821   3.150   2.818   8.565 -0.2378 -0.4712  0.4274
 6120SOL    HW129822   3.243   2.812   8.542 -0.2965  0.5306 -0.0744
 6120SOL    HW229823   3.105   2.765   8.499 -0.0162  0.0501 -0.1434
 6121SOL     OW29824   1.832   0.946   8.538  0.3326  0.7991  0.2880
 6121SOL    HW129825   1.826   0.915   8.448 -2.9658  0.8588  0.4855
 6121SOL    HW229826   1.740   0.941   8.564  0.7027 -0.2821  1.3895
 6122SOL     OW29827   2.697   4.313   9.044 -0.2174 -0.3054  0.5249
 6122SOL    HW129828   2.789   4.293   9.060  0.2939  1.1806 -0.4833
 6122SOL    HW229829   2.662   4.230   9.073 -1.9189 -0.9543 -3.4169
 6123SOL     OW29830   3.826   1.596  16.121 -0.5756  0.1876 -0.2530
 6123SOL    HW129831   3.906   1.648  16.117  0.4318 -1.5083 -2.4880
 6123SOL    HW229832   3.779   1.628  16.044 -0.3920 -0.0722 -0.4765
 6124SOL     OW29833   3.391   1.625  16.370  0.1469 -0.6968  0.1499
 6124SOL    HW129834   3.365   1.668  16.288 -0.6602  0.1294  0.8424
 6124SOL    HW229835   3.484   1.617  16.348  0.5350 -0.5644  1.7273
 6125SOL     OW29836   2.620   4.025  14.413 -0.5222 -0.0387 -0.9392
 6125SOL    HW129837   2.715   4.022  14.414 -0.5386 -0.2630  1.3186
 6125SOL    HW229838   2.606   3.947  14.467 -0.8073  2.0815  2.0611
 6126SOL     OW29839   1.423   3.934   3.108 -0.0505 -0.0626  0.3028
 6126SOL    HW129840   1.489   3.911   3.043  1.2804 -0.4067  1.7648
 6126SOL    HW229841   1.400   3.844   3.133 -0.4617 -0.0832 -0.1580
 6127SOL     OW29842   4.375   2.822   8.966 -0.5374  0.0435  0.6846
 6127SOL    HW129843   4.405   2.865   8.886  0.8419 -1.9619  0.1145
 6127SOL    HW229844   4.380   2.881   9.041  0.8409  1.1909 -0.3004
 6128SOL     OW29845   2.563   4.583   2.063 -0.2297 -0.6131  0.0591
 6128SOL    HW129846   2.565   4.579   1.967 -4.1610  1.4404 -0.1094
 6128SOL    HW229847   2.603   4.497   2.074 -2.6812 -1.5391  1.6389
 6129SOL     OW29848   3.974   1.370   3.887 -0.5259  0.0868  0.3758
 6129SOL    HW129849   3.925   1.307   3.939  0.2681 -0.8415  0.0004
 6129SOL    HW229850   3.930   1.356   3.804 -1.5190 -1.3175  1.1378
 6130SOL     OW29851   1.524   0.995   5.633 -0.0817 -0.0220 -0.1902
 6130SOL    HW129852   1.430   0.980   5.646  0.0133 -0.9972 -0.6080
 6130SOL    HW229853   1.530   1.090   5.620 -2.2629  0.3513  1.4499
 6131SOL     OW29854   4.093   0.078  11.841 -0.3370  0.4683  0.3681
 6131SOL    HW129855   4.163   0.038  11.788 -0.1656  1.5054 -0.1965
 6131SOL    HW229856   4.109   0.171  11.825  2.3651 -0.2100 -0.8982
 6132SOL     OW29857   0.017   1.475   6.982  0.1020 -0.5309  0.1892
 6132SOL    HW129858   0.073   1.473   6.904 -0.3637 -1.2563 -0.1256
 6132SOL    HW229859   0.070   1.436   7.051  1.2368 -3.1211 -2.1461
 6133SOL     OW29860   1.238   1.269   4.180  0.2693  0.1611 -0.1145
 6133SOL    HW129861   1.330   1.279   4.156  0.0997  1.8140 -0.1205
 6133SOL    HW229862   1.197   1.298   4.099  0.8113 -1.5762 -0.9992
 6134SOL     OW29863   0.090   3.969  17.095  0.7621  0.2404  0.0493
 6134SOL    HW129864   0.091   4.061  17.069 -0.2384  0.5297  1.0406
 6134SOL    HW229865   0.029   3.982  17.168  1.2097  0.4649  0.3872
 6135SOL     OW29866   2.544   4.113   7.415 -0.1205  0.2579  0.3347
 6135SOL    HW129867   2.546   4.017   7.408  2.8690  0.4060 -1.0508
 6135SOL    HW229868   2.461   4.128   7.370  0.8748  1.2807 -1.1936
 6136SOL     OW29869   2.832   4.078   4.221  0.2170  0.5944  0.3016
 6136SOL    HW129870   2.842   4.118   4.307  1.0083 -1.7306  1.3046
 6136SOL    HW229871   2.875   4.140   4.163  2.7238 -1.4541 -0.0313
 6137SOL     OW29872   1.367   3.348   1.869  0.1710 -0.6812 -0.3400
 6137SOL    HW129873   1.370   3.296   1.950 -1.2077 -0.2934 -0.0414
 6137SOL    HW229874   1.277   3.380   1.875  0.4586 -0.1368  1.1804
 6138SOL     OW29875   0.433   1.992  11.104  0.4941  0.5780  0.6084
 6138SOL    HW129876   0.493   1.964  11.174 -0.2588  0.7352  1.3108
 6138SOL    HW229877   0.345   1.984  11.140  0.5050 -3.1898 -0.1794
 6139SOL     OW29878   2.772   3.782   5.137 -0.4294  0.3574  0.8832
 6139SOL    HW129879   2.849   3.725   5.127 -2.7698 -2.6453 -0.1203
 6139SOL    HW229880   2.789   3.855   5.078  2.0512 -0.0201  1.1104
 6140SOL     OW29881   1.353   2.706   0.264 -0.6174 -0.4427 -0.0671
 6140SOL    HW129882   1.448   2.692   0.258 -0.3442  2.1196 -2.0986
 6140SOL    HW229883   1.322   2.616   0.258  0.0404 -0.6893  0.2148
 6141SOL     OW29884   0.848   0.281   4.583  0.0215  0.4302 -0.1588
 6141SOL    HW129885   0.849   0.218   4.654  1.4227 -0.2018 -0.7492
 6141SOL    HW229886   0.938   0.282   4.550  0.2244 -1.6717  0.3507
 6142SOL     OW29887   0.630   4.450   2.792  0.2650 -0.0530 -0.4464
 6142SOL    HW129888   0.706   4.479   2.844 -0.5071 -1.3991  1.4293
 6142SOL    HW229889   0.652   4.487   2.707  2.3544 -1.4150 -0.4822
 6143SOL     OW29890   2.802   0.934   3.886  0.1405  0.0506  0.2040
 6143SOL    HW129891   2.877   0.941   3.828 -0.0838  0.4447 -0.0430
 6143SOL    HW229892   2.839   0.993   3.952 -0.2164  2.0338 -1.3395
 6144SOL     OW29893   0.139   0.929  11.226 -0.1141 -0.1716 -0.6674
 6144SOL    HW129894   0.162   0.987  11.153  0.1238  1.1649  0.4563
 6144SOL    HW229895   0.214   0.872  11.235  0.8354  1.3484  1.0044
 6145SOL     OW29896   2.766   3.264   3.747 -0.4081 -0.3344  0.1608
 6145SOL    HW129897   2.833   3.331   3.731  1.0350 -1.5291  1.2027
 6145SOL    HW229898   2.785   3.202   3.676 -0.1694  1.1343 -1.0517
 6146SOL     OW29899   0.978   4.213   3.394  0.1289  0.2636  0.4182
 6146SOL    HW129900   0.998   4.132   3.348 -0.0897  1.0335 -1.0426
 6146SOL    HW229901   1.062   4.249   3.423 -0.1546 -0.0993  1.6689
 6147SOL     OW29902   4.237   2.191   4.769  0.8240 -0.0259 -0.1551
 6147SOL    HW129903   4.155   2.222   4.732 -0.7449  0.0834  3.4251
 6147SOL    HW229904   4.306   2.219   4.709  0.1518 -1.9237 -1.8497
 6148SOL     OW29905   1.826   1.241   5.450  0.2317  0.1094  0.2816
 6148SOL    HW129906   1.872   1.319   5.482  1.2122  1.0100 -3.3574
 6148SOL    HW229907   1.871   1.208   5.372 -1.1793 -0.7603 -0.1662
 6149SOL     OW29908   4.359   0.195   5.927  0.0294 -0.2675 -0.1380
 6149SOL    HW129909   4.395   0.158   6.008  3.1415  1.2260 -0.8158
 6149SOL    HW229910   4.441   0.207   5.879  0.6461 -0.8923  0.7464
 6150SOL     OW29911   0.924   3.277   7.124 -0.4280 -0.1699 -0.2384
 6150SOL    HW129912   0.952   3.367   7.139 -1.2704 -0.0480  0.5616
 6150SOL    HW229913   0.925   3.238   7.212  0.4798  0.5915  0.0848
 6151SOL     OW29914   4.403   2.164   3.775 -0.7989 -0.4567 -1.0086
 6151SOL    HW129915   4.425   2.077   3.809  1.9506 -0.3248 -2.4359
 6151SOL    HW229916   4.394   2.210   3.858 -1.2348  0.2420 -1.4451
 6152SOL     OW29917   0.644   1.243   4.466  0.4583  0.6522 -0.0897
 6152SOL    HW129918   0.570   1.190   4.437  0.2988  1.8676 -1.9175
 6152SOL    HW229919   0.665   1.195   4.546  0.3409 -0.3680 -0.6818
 6153SOL     OW29920   0.278   0.235   5.319 -0.1650 -0.3166 -0.2037
 6153SOL    HW129921   0.279   0.173   5.392  2.8138 -2.0114 -1.6953
 6153SOL    HW229922   0.186   0.258   5.309 -0.3046 -1.7987 -2.2254
 6154SOL     OW29923   1.823   1.074   9.371 -0.0504 -0.2810 -0.3306
 6154SOL    HW129924   1.736   1.108   9.350  0.4886  0.5647 -1.2044
 6154SOL    HW229925   1.880   1.110   9.302 -0.8255  1.8624  0.1636
 6155SOL     OW29926   4.634   1.354   9.432  0.3527  0.9325 -0.6779
 6155SOL    HW129927   4.637   1.448   9.412 -1.8121  0.6686 -2.3483
 6155SOL    HW229928   4.592   1.323   9.351  2.1458  0.2044 -1.3203
 6156SOL     OW29929   4.528   1.451   7.658  0.1609  0.1260  0.4087
 6156SOL    HW129930   4.476   1.409   7.589  1.9856  1.5258 -1.8202
 6156SOL    HW229931   4.619   1.441   7.632 -0.4702  1.1726 -2.2683
 6157SOL     OW29932   1.863   2.609   0.283  0.2434 -0.0166 -0.2294
 6157SOL    HW129933   1.798   2.676   0.261  0.0935  0.1682  0.7657
 6157SOL    HW229934   1.923   2.618   0.209  2.3716  1.7477  1.6926
 6158SOL     OW29935   4.622   1.691  14.111  0.1825 -0.5777  0.2051
 6158SOL    HW129936   4.662   1.767  14.151  0.2313  0.1345 -1.1821
 6158SOL    HW229937   4.542   1.697  14.164 -0.7103 -3.0715 -0.8452
 6159SOL     OW29938   1.583   4.164   6.906 -0.5207  0.1270 -0.0803
 6159SOL    HW129939   1.521   4.091   6.901 -1.4042  0.9410 -0.9823
 6159SOL    HW229940   1.516   4.229   6.885 -0.6895 -0.7421 -2.2180
 6160SOL     OW29941   2.420   0.774   5.940  0.0498 -0.6292  0.3280
 6160SOL    HW129942   2.328   0.798   5.926 -0.4380 -1.3413  2.4744
 6160SOL    HW229943   2.446   0.866   5.949 -0.3921 -0.3528 -1.1409
 6161SOL     OW29944   4.323   1.717   3.002  0.3848 -0.1597  1.0809
 6161SOL    HW129945   4.321   1.752   2.913 -0.8443  1.3763  1.7242
 6161SOL    HW229946   4.242   1.757   3.032  0.7408  2.5917 -1.6241
 6162SOL     OW29947   1.794   2.078  16.343  0.3738  0.0698 -0.6080
 6162SOL    HW129948   1.793   2.074  16.247 -3.3707  1.5451 -0.6245
 6162SOL    HW229949   1.735   2.006  16.365  0.2819  0.2011 -0.4288
 6163SOL     OW29950   0.028   2.522   8.413  0.0222  0.0662  0.4210
 6163SOL    HW129951   0.119   2.547   8.396 -0.5502  0.1424 -2.4107
 6163SOL    HW229952   0.023   2.439   8.365 -1.6926  0.2992  0.2302
 6164SOL     OW29953   2.543   3.875  15.650  0.0310 -1.0168 -0.0132
 6164SOL    HW129954   2.518   3.959  15.688 -0.7965 -0.6988 -1.2553
 6164SOL    HW229955   2.491   3.828  15.715 -0.6357 -0.0063  0.1656
 6165SOL     OW29956   2.637   2.005   4.094 -0.5963 -0.2680  0.0160
 6165SOL    HW129957   2.634   2.100   4.086 -0.8962 -0.3486 -0.7825
 6165SOL    HW229958   2.545   1.989   4.118 -0.7824  0.6749 -0.0406
 6166SOL     OW29959   3.809   1.721   5.594  0.2618 -0.6081 -0.3488
 6166SOL    HW129960   3.894   1.708   5.551 -0.5008 -1.2148 -1.6657
 6166SOL    HW229961   3.832   1.806   5.631 -1.7281  0.0477 -0.6466
 6167SOL     OW29962   3.105   4.574   4.276  0.7054  0.1795  0.0191
 6167SOL    HW129963   3.100   4.546   4.367  1.8221  1.4880  0.4847
 6167SOL    HW229964   3.182   4.629   4.289 -0.6341  2.0976 -0.1166
 6168SOL     OW29965   3.863   4.705   5.821 -0.1180  0.0666 -0.1693
 6168SOL    HW129966   3.860   4.655   5.739 -0.7470 -0.4076  0.1450
 6168SOL    HW229967   3.822   0.065   5.794 -2.1344 -0.7260  0.5089
 6169SOL     OW29968   0.560   3.398   3.867 -0.3280 -0.1925  0.4603
 6169SOL    HW129969   0.600   3.318   3.835 -1.2951 -0.8084  0.7753
 6169SOL    HW229970   0.529   3.441   3.788 -0.3803 -1.1081 -0.0169
 6170SOL     OW29971   4.321   4.445   2.229  0.4291  0.3453 -0.5761
 6170SOL    HW129972   4.316   4.538   2.209  2.8999  0.5928  0.0079
 6170SOL    HW229973   4.261   4.404   2.167 -0.2610  0.3836  0.0606
 6171SOL     OW29974   2.577   2.377   4.805  0.4052  0.6781  0.4453
 6171SOL    HW129975   2.553   2.315   4.873  0.1065  0.7084  0.3712
 6171SOL    HW229976   2.614   2.317   4.741 -1.1240  0.2538 -0.0489
 6172SOL     OW29977   1.118   0.350  17.226 -0.2590 -0.6015  0.4147
 6172SOL    HW129978   1.143   0.262  17.252  0.4298 -0.1084  1.4595
 6172SOL    HW229979   1.180   0.392  17.286 -1.0749 -0.4107  1.1306
 6173SOL     OW29980   4.390   4.385   0.064  0.1532  0.2338  0.1419
 6173SOL    HW129981   4.333   4.372  17.678  1.9299  1.1961 -1.3405
 6173SOL    HW229982   4.442   4.456   0.028 -0.8240  1.9909  2.2017
 6174SOL     OW29983   0.382   1.412  16.484 -0.0546 -0.0981  0.5313
 6174SOL    HW129984   0.293   1.405  16.519 -0.5324  1.1024 -0.4352
 6174SOL    HW229985   0.397   1.336  16.428  0.1912 -0.3784  0.9763
 6175SOL     OW29986   1.079   3.140   8.048  0.8248 -0.2811 -0.3301
 6175SOL    HW129987   0.990   3.148   8.013  0.3142 -1.1318  0.7795
 6175SOL    HW229988   1.117   3.192   7.977  2.3270  0.0611  0.7252
 6176SOL     OW29989   3.657   2.725  11.003  0.1352 -0.1169  0.2394
 6176SOL    HW129990   3.576   2.771  10.981 -0.3948 -1.7265 -1.1243
 6176SOL    HW229991   3.705   2.792  11.053  1.0945  0.3673 -1.3514
 6177SOL     OW29992   1.102   3.633   6.714  0.2012  0.4526 -0.2919
 6177SOL    HW129993   1.122   3.700   6.648  1.4728 -0.3838 -0.7623
 6177SOL    HW229994   1.111   3.678   6.798  0.5239 -0.1803  0.0133
 6178SOL     OW29995   4.717   0.950   0.145  0.0974  0.2859 -0.7716
 6178SOL    HW129996   4.673   0.885   0.200 -0.4797  1.3117 -0.0169
 6178SOL    HW229997   0.008   0.908   0.060 -0.6221 -2.9624  0.7197
 6179SOL     OW29998   4.268   0.571   7.514 -0.5423  0.5656 -0.7570
 6179SOL    HW129999   4.307   0.490   7.548  1.2248  1.7105 -0.0790
 6179SOL    HW230000   4.209   0.537   7.446  0.3908 -2.2819 -0.1463
 6180SOL     OW30001   4.137   1.062   1.856 -0.1404  0.1372 -0.0416
 6180SOL    HW130002   4.080   1.004   1.906  0.3008 -0.7700 -0.5841
 6180SOL    HW230003   4.077   1.127   1.818  1.3740  1.0246 -0.9240
 6181SOL     OW30004   0.083   0.836  15.841  0.1873  0.0616 -0.0515
 6181SOL    HW130005   0.157   0.776  15.834  0.8450  0.4509  3.5639
 6181SOL    HW230006   0.053   0.837  15.750 -2.3756  1.8573  0.7941
 6182SOL     OW30007   0.269   2.730   2.879  0.4143 -0.1126  0.2567
 6182SOL    HW130008   0.271   2.689   2.966 -0.0209 -1.9536 -0.6097
 6182SOL    HW230009   0.270   2.653   2.823 -0.7829  0.6913 -0.8619
 6183SOL     OW30010   3.537   4.025   7.263 -0.4033  0.0655  0.2295
 6183SOL    HW130011   3.447   4.020   7.233  0.1576 -1.1570 -1.2734
 6183SOL    HW230012   3.568   3.943   7.225  1.5744  1.2923 -0.8161
 6184SOL     OW30013   0.358   1.776   5.221  0.5777 -0.6343 -0.8952
 6184SOL    HW130014   0.391   1.699   5.174  2.3458 -1.2433  1.3338
 6184SOL    HW230015   0.406   1.840   5.169  1.8053 -0.2967  0.6460
 6185SOL     OW30016   3.841   1.792   9.121  0.7124 -0.1235  0.1057
 6185SOL    HW130017   3.832   1.805   9.216 -1.2892  0.6537 -0.2097
 6185SOL    HW230018   3.937   1.791   9.112  1.0143  0.1595  3.0298
 6186SOL     OW30019   1.382   1.336   8.184 -0.1006  0.2327 -0.7164
 6186SOL    HW130020   1.458   1.357   8.130  1.5087 -1.8947  0.7731
 6186SOL    HW230021   1.330   1.414   8.163 -1.5463 -0.8403 -1.1706
 6187SOL     OW30022   3.345   1.239   1.806 -0.5055  0.0246 -0.1515
 6187SOL    HW130023   3.440   1.249   1.818 -0.7043  0.6899  0.8674
 6187SOL    HW230024   3.309   1.327   1.799  1.1638  0.7427  0.2478
 6188SOL     OW30025   3.719   3.945  10.878  0.1358 -0.7132 -0.4806
 6188SOL    HW130026   3.749   3.963  10.967  0.9085  0.2947 -0.9449
 6188SOL    HW230027   3.788   3.886  10.845  0.9363 -0.4501  0.7270
 6189SOL     OW30028   4.333   2.783   3.405  0.4344 -0.7001  0.0243
 6189SOL    HW130029   4.366   2.855   3.352 -1.7534 -0.7268 -1.3966
 6189SOL    HW230030   4.239   2.802   3.408  1.0216  2.4424 -1.6966
 6190SOL     OW30031   4.640   1.204   2.586 -0.2986  0.1099 -0.2883
 6190SOL    HW130032   4.610   1.130   2.534 -2.4145  0.1430  0.8912
 6190SOL    HW230033   4.635   1.283   2.533 -0.1752 -0.0459 -0.5296
 6191SOL     OW30034   0.074   2.425  16.677 -0.1775 -0.2014  0.0769
 6191SOL    HW130035   0.124   2.346  16.656 -0.5861 -0.1089 -1.2562
 6191SOL    HW230036   4.709   2.390  16.696 -0.2449 -1.4608 -2.5104
 6192SOL     OW30037   1.173   4.157  10.343  0.3723  0.4779  0.3358
 6192SOL    HW130038   1.100   4.098  10.362 -0.5828  1.2725 -0.8317
 6192SOL    HW230039   1.123   4.238  10.336 -1.4558 -0.8704 -2.1765
 6193SOL     OW30040   2.222   2.891   5.120  0.5610  0.7797  0.0204
 6193SOL    HW130041   2.202   2.868   5.030 -1.1016  0.6793  0.4272
 6193SOL    HW230042   2.298   2.835   5.138  0.3069  0.1319 -0.9238
 6194SOL     OW30043   1.258   3.902   2.716  0.5929 -0.0518  0.3956
 6194SOL    HW130044   1.306   3.969   2.765 -0.5796  0.4377  0.8789
 6194SOL    HW230045   1.321   3.889   2.646  1.1017 -1.1758  1.0538
 6195SOL     OW30046   4.499   1.337   3.125  0.3923 -0.2283 -0.0714
 6195SOL    HW130047   4.546   1.408   3.170 -2.1597  1.2439  0.2943
 6195SOL    HW230048   4.523   1.353   3.034 -2.1777 -0.4232 -0.7921
 6196SOL     OW30049   0.305   0.931  16.215  0.1029  0.5828 -0.1730
 6196SOL    HW130050   0.358   0.875  16.157 -3.5125 -1.6553 -1.2913
 6196SOL    HW230051   0.239   0.963  16.153 -2.2677 -1.5068  1.2818
 6197SOL     OW30052   1.732   0.622  14.010  0.1316 -0.5070 -0.5299
 6197SOL    HW130053   1.793   0.588  13.945 -0.1071  0.4243 -1.2457
 6197SOL    HW230054   1.677   0.543  14.009 -3.5583  2.0671 -0.7001
 6198SOL     OW30055   3.416   3.811  16.525  0.3362 -0.2519 -0.1710
 6198SOL    HW130056   3.412   3.764  16.608  0.6209  1.1626  0.6245
 6198SOL    HW230057   3.394   3.900  16.549 -1.4448 -0.4042 -1.2244
 6199SOL     OW30058   1.168   1.034   6.348  0.1473  0.0618 -0.2721
 6199SOL    HW130059   1.190   1.072   6.433  1.5486  1.5514 -1.2798
 6199SOL    HW230060   1.081   1.070   6.331 -0.2591 -0.5665  0.5475
 6200SOL     OW30061   0.983   1.674   9.052 -0.3860  0.1934 -0.6604
 6200SOL    HW130062   1.017   1.670   9.142 -0.8851  1.4375 -0.4141
 6200SOL    HW230063   1.029   1.748   9.012 -0.4333  0.6767  0.1783
 6201SOL     OW30064   0.193   1.821   2.468  0.2910  0.2499  0.3241
 6201SOL    HW130065   0.215   1.849   2.557  1.4501  1.5913 -0.3900
 6201SOL    HW230066   0.131   1.754   2.496 -2.1162  0.7554 -3.9010
 6202SOL     OW30067   2.483   3.143   7.441 -0.4271 -0.2222  0.0943
 6202SOL    HW130068   2.543   3.199   7.491  1.5860 -0.9991 -1.4352
 6202SOL    HW230069   2.507   3.161   7.350 -0.7070  2.1083  0.4757
 6203SOL     OW30070   2.097   3.895   3.716 -0.1896 -0.3732  0.3390
 6203SOL    HW130071   2.048   3.866   3.793 -0.9124 -1.1844 -0.4315
 6203SOL    HW230072   2.128   3.809   3.688  0.3073 -0.3458  0.8094
 6204SOL     OW30073   0.375   3.645  13.842 -0.2371  0.4458  0.1781
 6204SOL    HW130074   0.438   3.587  13.885  1.6641  0.3717 -2.6748
 6204SOL    HW230075   0.409   3.733  13.857 -2.2064  0.9635  1.5402
 6205SOL     OW30076   3.429   3.720   6.167 -0.3459 -0.1010 -0.7335
 6205SOL    HW130077   3.509   3.668   6.176 -1.2110 -1.5139 -1.1948
 6205SOL    HW230078   3.398   3.719   6.258  0.4207 -0.6488 -0.4830
 6206SOL     OW30079   1.801   3.044  11.196  0.2499  0.1237 -0.0713
 6206SOL    HW130080   1.766   2.957  11.177 -2.1645  1.6076 -2.4133
 6206SOL    HW230081   1.890   3.018  11.220  0.4511  0.9867  0.1178
 6207SOL     OW30082   3.071   1.570   5.322 -0.1641 -0.1221 -0.7596
 6207SOL    HW130083   3.040   1.621   5.248 -0.2303  1.1254  0.1217
 6207SOL    HW230084   3.165   1.587   5.316  0.2133 -1.4033  1.5376
 6208SOL     OW30085   4.222   3.990   6.261  0.1303 -0.4723  0.0222
 6208SOL    HW130086   4.175   3.988   6.344  0.2489  2.7196  0.1589
 6208SOL    HW230087   4.188   4.072   6.227  0.1536  0.4751  2.2960
 6209SOL     OW30088   1.648   1.581  14.277  0.3758 -0.5100 -0.0505
 6209SOL    HW130089   1.668   1.488  14.263  1.0741 -0.7008  2.1275
 6209SOL    HW230090   1.586   1.591  14.349 -1.9556  1.3310 -2.3165
 6210SOL     OW30091   1.982   1.543   2.928 -0.0450 -0.8403  0.1661
 6210SOL    HW130092   1.974   1.611   2.994  1.7261 -1.0553  0.5937
 6210SOL    HW230093   1.945   1.461   2.962 -0.2005 -0.2047  1.5260
 6211SOL     OW30094   0.739   1.840   4.939  0.6892 -0.2015  0.6583
 6211SOL    HW130095   0.785   1.756   4.935  0.0578 -0.3758 -2.4879
 6211SOL    HW230096   0.672   1.835   4.872  1.6127  2.9593 -0.4628
 6212SOL     OW30097   0.259   4.071  11.549 -0.2161 -0.1707  0.2195
 6212SOL    HW130098   0.325   4.079  11.481  0.8328 -1.6296  1.0583
 6212SOL    HW230099   0.223   3.982  11.538  2.3800 -0.7210 -4.0511
 6213SOL     OW30100   4.437   2.019  16.383  0.0844  0.0762  0.3442
 6213SOL    HW130101   4.492   2.002  16.459  0.1547  3.5901  1.0989
 6213SOL    HW230102   4.458   1.951  16.319  0.5316  0.8883 -0.3768
 6214SOL     OW30103   0.727   2.722   6.730  0.0633  0.5865  0.1375
 6214SOL    HW130104   0.634   2.700   6.730  0.4042 -0.8598 -2.4047
 6214SOL    HW230105   0.730   2.786   6.801 -1.3944 -1.7389  2.2921
 6215SOL     OW30106   0.663   3.297   4.652 -0.4885 -0.5791  0.1967
 6215SOL    HW130107   0.746   3.279   4.697  0.8317  2.5582 -0.9988
 6215SOL    HW230108   0.619   3.351   4.719  0.2573 -0.8766  0.9282
 6216SOL     OW30109   4.569   1.941   8.945  0.3208  0.6739 -0.1626
 6216SOL    HW130110   4.480   1.905   8.945 -0.3578  2.3351  1.4695
 6216SOL    HW230111   4.591   1.912   8.856  0.6567  1.0367 -0.1927
 6217SOL     OW30112   4.706   1.809  17.170  0.1778 -0.1419 -0.6846
 6217SOL    HW130113   4.646   1.878  17.201  0.1867 -0.0059 -0.9734
 6217SOL    HW230114   0.039   1.857  17.108  0.2086 -0.8166 -1.1672
 6218SOL     OW30115   4.537   0.833   4.530  0.2204  0.3871  0.2899
 6218SOL    HW130116   4.591   0.795   4.599 -0.7593 -2.4916 -0.5269
 6218SOL    HW230117   4.511   0.910   4.582 -1.5428 -1.5996  2.3638
 6219SOL     OW30118   2.495   4.531   7.527 -0.4790 -0.0123 -0.1833
 6219SOL    HW130119   2.418   4.496   7.483 -2.0213  1.1822  1.5901
 6219SOL    HW230120   2.564   4.491   7.473 -0.3038  2.0960 -1.5411
 6220SOL     OW30121   1.698   4.472   6.053  0.1195 -0.3886 -0.0147
 6220SOL    HW130122   1.769   4.474   6.116  0.5003 -0.7331 -0.4337
 6220SOL    HW230123   1.721   4.550   6.002  4.7866 -2.2337 -0.7218
 6221SOL     OW30124   1.249   3.757   2.199  0.8252 -0.1008 -0.1229
 6221SOL    HW130125   1.328   3.743   2.147 -0.0876 -0.2925 -1.4854
 6221SOL    HW230126   1.182   3.747   2.131 -0.1127  1.6183  0.5428
 6222SOL     OW30127   1.133   1.851   8.816 -0.1037 -0.3602  0.3376
 6222SOL    HW130128   1.140   1.772   8.763  0.4249  0.0595 -0.2196
 6222SOL    HW230129   1.226   1.861   8.839 -0.6037  2.2296  1.3240
 6223SOL     OW30130   2.377   3.761   8.222  0.2924 -0.4138 -0.2313
 6223SOL    HW130131   2.300   3.710   8.197 -0.4770 -0.3219  1.9478
 6223SOL    HW230132   2.362   3.848   8.184 -0.8534 -0.4432  0.1705
 6224SOL     OW30133   2.837   2.063   8.952 -0.3027  0.4112 -0.5458
 6224SOL    HW130134   2.830   1.977   8.911  2.5889 -1.0838  2.1164
 6224SOL    HW230135   2.795   2.115   8.884  0.4535  1.3968 -0.2517
 6225SOL     OW30136   1.271   0.390   2.604  0.8277  0.1080 -0.1865
 6225SOL    HW130137   1.246   0.355   2.518 -0.3143  1.2599 -0.3267
 6225SOL    HW230138   1.289   0.305   2.644 -0.3936 -0.6451 -1.2284
 6226SOL     OW30139   3.000   4.437   7.375  0.6530 -0.1765  0.1509
 6226SOL    HW130140   3.091   4.425   7.402 -0.0035 -1.6598  1.7214
 6226SOL    HW230141   2.979   4.347   7.348 -1.4058  0.3250  0.0808
 6227SOL     OW30142   3.803   2.736  12.848  1.0386  0.3766 -0.2249
 6227SOL    HW130143   3.894   2.728  12.821  1.0743 -0.6503  0.2235
 6227SOL    HW230144   3.774   2.659  12.897 -0.1321  2.0581  1.7186
 6228SOL     OW30145   3.832   2.952   5.451  0.4015  0.0970 -0.0074
 6228SOL    HW130146   3.877   2.890   5.508  0.2862 -1.4283 -1.5621
 6228SOL    HW230147   3.905   2.997   5.409  0.5958  1.2222  1.5286
 6229SOL     OW30148   0.129   1.358  12.106 -0.0011  0.1481  0.0828
 6229SOL    HW130149   0.200   1.399  12.057  1.3565 -2.9002 -0.5241
 6229SOL    HW230150   0.082   1.426  12.154  0.1299 -0.1303  0.6086
 6230SOL     OW30151   0.070   0.074   8.481  0.0127 -0.0047  0.0602
 6230SOL    HW130152   0.105   0.111   8.562 -0.6622 -0.6838  0.6548
 6230SOL    HW230153   4.703   0.061   8.514  0.2631  1.5838  1.3818
 6231SOL     OW30154   0.147   2.537   4.860  0.5099  0.2043 -0.2482
 6231SOL    HW130155   0.220   2.537   4.799  0.6740  0.1169 -0.0522
 6231SOL    HW230156   0.186   2.470   4.917  0.3482 -0.0032 -0.3817
 6232SOL     OW30157   2.960   1.252   9.313  0.3111 -0.2957  0.0338
 6232SOL    HW130158   2.982   1.178   9.369 -1.3232 -0.0014  1.0541
 6232SOL    HW230159   3.023   1.311   9.354 -1.7294  0.3292  2.2636
 6233SOL     OW30160   3.138   0.298   0.090  0.2526 -0.0276 -0.1017
 6233SOL    HW130161   3.162   0.282   0.181  0.1348 -1.6364 -0.3527
 6233SOL    HW230162   3.129   0.207   0.061  0.0037 -0.1207  0.2631
 6234SOL     OW30163   3.715   2.474  11.785 -0.3982  0.1843  0.3781
 6234SOL    HW130164   3.659   2.536  11.738 -0.2285 -0.1202 -0.2242
 6234SOL    HW230165   3.663   2.395  11.796  0.4706 -0.3346  0.7568
 6235SOL     OW30166   2.828   4.351   5.087  0.4623  0.0241 -0.2960
 6235SOL    HW130167   2.743   4.374   5.050 -0.8052 -2.4538  1.0830
 6235SOL    HW230168   2.800   4.339   5.177  2.5175 -0.5938  0.2697
 6236SOL     OW30169   2.630   1.795   7.192 -0.2527  0.0695 -1.0392
 6236SOL    HW130170   2.627   1.760   7.280  2.8109  2.6340  0.0927
 6236SOL    HW230171   2.557   1.856   7.205 -0.2414 -0.1695  0.0871
 6237SOL     OW30172   2.058   3.838   4.966  0.3998 -0.8451  0.1344
 6237SOL    HW130173   2.053   3.744   4.946  1.1096 -0.9603  0.5036
 6237SOL    HW230174   2.012   3.850   5.050  0.4186 -1.0220  0.1708
 6238SOL     OW30175   0.587   4.420   3.252 -0.2836  0.1741  0.2734
 6238SOL    HW130176   0.556   4.443   3.340 -0.9773  1.1021 -0.2085
 6238SOL    HW230177   0.615   4.329   3.261 -1.1132 -0.2382 -1.3381
 6239SOL     OW30178   0.977   3.757   8.599  0.5501 -0.2919 -0.0498
 6239SOL    HW130179   1.065   3.787   8.620  0.6943 -0.4462 -0.4366
 6239SOL    HW230180   0.993   3.692   8.531 -0.1782  1.2020 -1.6533
 6240SOL     OW30181   4.439   2.552   9.499 -0.0274  0.1677 -0.1874
 6240SOL    HW130182   4.486   2.551   9.582  2.0778 -0.1944 -1.3798
 6240SOL    HW230183   4.498   2.592   9.435 -1.1586  0.2949 -1.1442
 6241SOL     OW30184   4.164   4.571   5.008 -0.0803  0.4449  0.4319
 6241SOL    HW130185   4.079   4.553   4.968  0.9732 -1.9009 -0.7346
 6241SOL    HW230186   4.225   4.531   4.946 -1.8996 -2.1595  0.3136
 6242SOL     OW30187   4.513   3.987  14.794 -1.0641 -0.4300  0.1737
 6242SOL    HW130188   4.537   3.974  14.702 -1.1981  0.2938  0.0362
 6242SOL    HW230189   4.438   3.928  14.801 -2.4235  1.2509 -0.2702
 6243SOL     OW30190   2.153   4.398   9.548 -0.5599  0.0724 -0.2440
 6243SOL    HW130191   2.085   4.371   9.610 -0.9454  0.5701 -0.4395
 6243SOL    HW230192   2.160   4.489   9.579  0.9644  0.2422 -1.0850
 6244SOL     OW30193   2.048   1.124   9.189 -0.2251 -0.1434  0.3772
 6244SOL    HW130194   2.052   1.141   9.094  0.8753  0.6704  0.5745
 6244SOL    HW230195   2.052   1.029   9.194  0.0050 -0.1563 -0.0672
 6245SOL     OW30196   2.966   3.649   7.682  0.2173  0.3122  0.0691
 6245SOL    HW130197   3.029   3.722   7.682  1.6876 -0.9564  0.7990
 6245SOL    HW230198   3.032   3.583   7.702 -2.0549 -1.9310  0.1421
 6246SOL     OW30199   3.819   3.080  14.366  0.2811  0.4772  0.0749
 6246SOL    HW130200   3.773   3.066  14.283  3.3030  0.2474 -1.5394
 6246SOL    HW230201   3.759   3.138  14.413  0.4135  0.9669 -0.3631
 6247SOL     OW30202   4.110   1.651   6.664  0.6265 -0.2809 -0.0520
 6247SOL    HW130203   4.077   1.697   6.740 -1.3984  0.6474 -1.4884
 6247SOL    HW230204   4.177   1.592   6.697  0.7923 -0.4710 -0.7138
 6248SOL     OW30205   1.076   3.611   8.846  0.0112 -0.2121  0.0360
 6248SOL    HW130206   0.982   3.626   8.861 -0.0198 -1.0016  0.6285
 6248SOL    HW230207   1.113   3.655   8.922  1.2017 -0.3453 -0.4726
 6249SOL     OW30208   1.842   1.694   8.723  0.4311  0.5042  0.1565
 6249SOL    HW130209   1.796   1.626   8.771  1.6841  0.7048  1.6510
 6249SOL    HW230210   1.816   1.673   8.634 -1.1499 -1.8279  1.1786
 6250SOL     OW30211   2.729   3.453   8.821  0.1601  0.1543  0.2190
 6250SOL    HW130212   2.713   3.547   8.812  0.2533 -0.0866 -2.2707
 6250SOL    HW230213   2.651   3.419   8.866  1.3259 -1.4113  1.0883
 6251SOL     OW30214   2.779   4.455  13.923 -0.2785 -0.6360 -0.0371
 6251SOL    HW130215   2.706   4.394  13.936 -0.9140  0.1795  0.2224
 6251SOL    HW230216   2.851   4.402  13.957  2.2868  1.0270 -2.9788
 6252SOL     OW30217   1.055   1.269   7.660  0.2481 -0.2475 -0.8329
 6252SOL    HW130218   1.000   1.347   7.666  2.6110  1.4684 -1.6414
 6252SOL    HW230219   1.139   1.307   7.635  0.2374  0.0061 -0.4852
 6253SOL     OW30220   2.109   3.150  14.063  0.0995 -0.1993 -0.3908
 6253SOL    HW130221   2.116   3.242  14.036  0.1395 -0.9544 -3.0224
 6253SOL    HW230222   2.189   3.121  14.019  0.7145 -1.6511  1.7294
 6254SOL     OW30223   3.826   2.612   3.453  0.5452 -0.2436  0.0970
 6254SOL    HW130224   3.846   2.520   3.473  0.2289 -0.5327 -0.9501
 6254SOL    HW230225   3.739   2.621   3.491 -0.2523 -0.1850 -1.7663
 6255SOL     OW30226   4.709   2.362   5.407  0.3916  0.0688  0.8619
 6255SOL    HW130227   4.626   2.400   5.380  1.0144  1.1203  0.3744
 6255SOL    HW230228   0.035   2.354   5.324 -1.9687  0.4303 -0.5305
 6256SOL     OW30229   3.970   3.676  15.716 -0.7289 -0.6303  0.3449
 6256SOL    HW130230   3.913   3.600  15.729 -0.7236 -0.5994  0.5528
 6256SOL    HW230231   4.019   3.679  15.798  2.5534 -0.7492 -1.6118
 6257SOL     OW30232   0.579   0.545  12.862 -0.9706 -0.0625 -0.0278
 6257SOL    HW130233   0.501   0.566  12.913 -1.4304  1.4063 -1.3297
 6257SOL    HW230234   0.549   0.483  12.796 -1.1568  1.0323 -0.9715
 6258SOL     OW30235   0.649   4.184  15.088 -0.9524 -0.0362 -0.1888
 6258SOL    HW130236   0.606   4.107  15.052 -0.3487  0.9301 -2.9347
 6258SOL    HW230237   0.676   4.223  15.006  1.0939 -0.6667  0.1736
 6259SOL     OW30238   2.310   3.364   7.989 -0.1591  0.7187 -0.2620
 6259SOL    HW130239   2.226   3.370   8.034  0.9799 -0.3767  2.0222
 6259SOL    HW230240   2.309   3.276   7.953 -0.8458  1.1560 -1.2986
 6260SOL     OW30241   1.692   2.037   4.011 -0.5623 -0.9202 -0.2768
 6260SOL    HW130242   1.769   2.028   4.066  0.3779  3.6545 -0.8300
 6260SOL    HW230243   1.625   2.027   4.079 -0.6788  0.5696 -0.1773
 6261SOL     OW30244   4.179   2.696   6.653 -0.0310 -0.1737  0.0155
 6261SOL    HW130245   4.093   2.691   6.696 -0.7234  0.0181 -1.3262
 6261SOL    HW230246   4.230   2.754   6.710 -0.0794  0.2965 -0.4173
 6262SOL     OW30247   2.157   3.672   6.281 -0.2249  0.0568  0.4975
 6262SOL    HW130248   2.215   3.729   6.231 -0.7273 -0.4783 -0.6944
 6262SOL    HW230249   2.142   3.600   6.220  1.4094 -1.0575  1.3988
 6263SOL     OW30250   2.284   2.430   3.583 -0.3146  0.1342 -0.3541
 6263SOL    HW130251   2.286   2.359   3.518 -0.8950 -0.0031 -0.2241
 6263SOL    HW230252   2.195   2.466   3.573 -0.9098 -0.8236  1.6903
 6264SOL     OW30253   1.596   0.409   9.932  0.0625 -0.5422 -0.1657
 6264SOL    HW130254   1.539   0.357   9.876  1.0282  0.3664 -1.9965
 6264SOL    HW230255   1.547   0.488   9.954 -1.2921 -0.6830 -2.8177
 6265SOL     OW30256   0.117   0.582   6.504 -0.4074 -0.2637  0.6042
 6265SOL    HW130257   0.201   0.562   6.463 -0.9801 -1.5990  0.1087
 6265SOL    HW230258   0.134   0.624   6.589 -1.2187 -0.2274  0.7527
 6266SOL     OW30259   2.721   0.103  12.059 -0.0620 -0.0939  0.6194
 6266SOL    HW130260   2.717   0.124  11.966 -1.3812 -0.7156  0.5451
 6266SOL    HW230261   2.815   0.083  12.065  0.0046  0.2215  0.6215
 6267SOL     OW30262   0.949   4.018   0.841 -0.5230 -0.2057  0.3763
 6267SOL    HW130263   1.023   3.959   0.856  0.5375  0.4636 -2.1389
 6267SOL    HW230264   0.981   4.091   0.789  0.8372  1.2534  3.2550
 6268SOL     OW30265   1.042   4.367   7.617  0.4208  0.3868  0.3868
 6268SOL    HW130266   1.133   4.372   7.647  0.6892  0.2586 -0.4172
 6268SOL    HW230267   1.055   4.356   7.523 -1.0244  2.6853 -0.1064
 6269SOL     OW30268   3.610   0.512  12.626  0.3519 -0.6786  0.2288
 6269SOL    HW130269   3.573   0.509  12.538  0.0017 -1.4945  0.4027
 6269SOL    HW230270   3.699   0.538  12.600  0.4327 -0.6135  0.5726
 6270SOL     OW30271   3.792   1.010  14.479 -0.3275 -0.5081  0.2737
 6270SOL    HW130272   3.742   0.930  14.461 -0.0046 -0.4790 -0.7417
 6270SOL    HW230273   3.864   1.013  14.415  0.6154 -3.1884  1.1627
 6271SOL     OW30274   3.367   3.878  13.949 -0.4876  0.2297 -0.1386
 6271SOL    HW130275   3.325   3.891  13.864 -0.3668  1.8277  0.0377
 6271SOL    HW230276   3.361   3.969  13.980 -0.5073  0.9249 -2.1677
 6272SOL     OW30277   4.505   4.684   4.184 -0.5669 -0.3280  0.4776
 6272SOL    HW130278   4.597   4.661   4.195 -0.0396  0.9509 -1.1999
 6272SOL    HW230279   4.484   0.004   4.268 -0.2701  0.8271 -0.0256
 6273SOL     OW30280   0.264   3.381   6.437  0.1840 -0.3727  0.0501
 6273SOL    HW130281   0.332   3.361   6.502  1.2959  0.6851 -0.8009
 6273SOL    HW230282   0.296   3.325   6.366  1.8345 -0.2516  0.6956
 6274SOL     OW30283   0.050   1.280   8.859  0.2454 -0.3097 -0.1366
 6274SOL    HW130284   0.027   1.265   8.950  4.1816 -0.6401  0.8182
 6274SOL    HW230285   0.012   1.200   8.823 -1.3658  1.3996 -2.2422
 6275SOL     OW30286   4.405   2.308  12.934  0.1130  0.0075  0.3664
 6275SOL    HW130287   4.496   2.293  12.908  0.1095 -0.2392  0.5040
 6275SOL    HW230288   4.380   2.233  12.987  1.2807 -1.0524 -0.6032
 6276SOL     OW30289   4.190   0.954   7.217  0.5007 -0.5724 -0.2092
 6276SOL    HW130290   4.261   0.933   7.277  1.2655 -1.0518 -1.2893
 6276SOL    HW230291   4.129   0.882   7.231 -0.3595 -0.1474 -1.6504
 6277SOL     OW30292   0.323   1.144   8.863 -0.0327  0.2788 -0.5112
 6277SOL    HW130293   0.236   1.185   8.870  0.4282  1.3871 -1.3541
 6277SOL    HW230294   0.355   1.139   8.953 -0.6285  1.7403 -0.2163
 6278SOL     OW30295   2.132   0.519   7.651  0.2502  0.4808  0.1636
 6278SOL    HW130296   2.160   0.605   7.620 -1.9959  0.8205 -0.9567
 6278SOL    HW230297   2.045   0.533   7.688 -0.1503 -1.5917 -0.0042
 6279SOL     OW30298   1.566   3.341  11.345 -0.8960 -0.0156 -0.5516
 6279SOL    HW130299   1.514   3.305  11.417  0.9504 -3.0298 -0.7089
 6279SOL    HW230300   1.542   3.276  11.279 -2.1230  0.6371 -0.7495
 6280SOL     OW30301   0.962   1.792   8.070 -0.0006 -0.2618 -0.2919
 6280SOL    HW130302   0.902   1.761   8.138 -0.0110 -1.8142 -0.9970
 6280SOL    HW230303   1.020   1.839   8.129 -0.1855  1.2226 -1.3022
 6281SOL     OW30304   2.173   3.483   5.726 -0.1196 -0.0241 -0.1017
 6281SOL    HW130305   2.224   3.415   5.681  0.1805  1.0834 -1.4379
 6281SOL    HW230306   2.172   3.445   5.814 -2.6716 -0.9284 -0.5185
 6282SOL     OW30307   4.047   1.532  15.807  0.4838  0.1784  0.3346
 6282SOL    HW130308   4.015   1.534  15.716 -0.9158  1.3764  0.8595
 6282SOL    HW230309   4.049   1.624  15.833  0.9189  0.4722 -0.7214
 6283SOL     OW30310   0.886   0.855   0.451  0.1888 -0.5304 -0.3532
 6283SOL    HW130311   0.953   0.821   0.511  1.5868 -1.4784 -2.4516
 6283SOL    HW230312   0.829   0.778   0.441  1.0935 -1.3318  0.6442
 6284SOL     OW30313   1.273   2.472   6.481  0.1892  0.9585 -0.9430
 6284SOL    HW130314   1.359   2.501   6.510 -0.5025  0.6096  1.4408
 6284SOL    HW230315   1.249   2.547   6.427 -0.7186  0.9206 -0.5979
 6285SOL     OW30316   4.304   4.492   9.932  0.0805  0.2672 -0.3789
 6285SOL    HW130317   4.275   4.424   9.871  3.7288 -2.3338  0.7738
 6285SOL    HW230318   4.221   4.527   9.962 -0.1678 -1.6541  1.1751
 6286SOL     OW30319   1.501   3.492  11.037 -0.8098 -0.0716  1.0138
 6286SOL    HW130320   1.536   3.406  11.059 -2.2338 -0.8858  0.0574
 6286SOL    HW230321   1.548   3.504  10.954  0.1504 -0.8269  1.4441
 6287SOL     OW30322   1.198   0.403  13.228  0.3132 -0.4283  0.0034
 6287SOL    HW130323   1.130   0.373  13.168  1.5651 -0.1467 -1.5658
 6287SOL    HW230324   1.214   0.326  13.282  0.0579 -1.2207 -1.0634
 6288SOL     OW30325   0.611   4.093   8.700  0.0398  0.1629 -0.0705
 6288SOL    HW130326   0.622   3.998   8.708  1.5934  0.3442  0.0032
 6288SOL    HW230327   0.700   4.113   8.730 -0.6199  2.6828  0.1946
 6289SOL     OW30328   3.714   1.306   7.002  0.0232  0.5459 -0.0776
 6289SOL    HW130329   3.738   1.367   6.933  0.1820  0.4655 -0.0951
 6289SOL    HW230330   3.648   1.347   7.058  2.3295  2.4384  1.2678
 6290SOL     OW30331   3.247   2.777   0.017  0.4451 -0.2439  0.6403
 6290SOL    HW130332   3.277   2.867   0.028 -2.1407  0.8166 -1.1548
 6290SOL    HW230333   3.311   2.738  17.647  1.3766  0.7761  0.9690
 6291SOL     OW30334   0.339   3.646   4.482 -0.3879 -0.6545  0.1941
 6291SOL    HW130335   0.415   3.635   4.425  0.2259  2.3819  0.4194
 6291SOL    HW230336   0.285   3.699   4.423  0.4051  1.0706  1.0360
 6292SOL     OW30337   2.814   3.759   8.378 -0.0601  0.0336  0.0800
 6292SOL    HW130338   2.899   3.735   8.341  0.2729  0.6768  0.4064
 6292SOL    HW230339   2.763   3.740   8.300  0.1241 -0.5869  0.1122
 6293SOL     OW30340   0.139   0.912   5.425 -0.3498  0.5788  0.4802
 6293SOL    HW130341   0.102   0.998   5.408 -1.2200  0.1316  0.0883
 6293SOL    HW230342   0.070   0.863   5.381 -0.7704  2.2244 -0.6461
 6294SOL     OW30343   1.586   4.377   5.325 -0.3156 -0.1326  0.4999
 6294SOL    HW130344   1.574   4.414   5.238 -0.3324  2.4971  1.6202
 6294SOL    HW230345   1.620   4.446   5.382 -2.2695  1.0054  0.2541
 6295SOL     OW30346   2.681   3.675   7.596 -0.0011  0.2392 -0.2610
 6295SOL    HW130347   2.774   3.678   7.617 -0.0509  1.0861 -0.1884
 6295SOL    HW230348   2.648   3.683   7.685 -2.3509  0.0294 -1.1021
 6296SOL     OW30349   3.275   3.424  16.926  0.3019 -0.1744  0.7844
 6296SOL    HW130350   3.246   3.397  16.838 -0.8222  2.4259  0.3569
 6296SOL    HW230351   3.366   3.450  16.914 -1.1393  4.7169  0.5143
 6297SOL     OW30352   0.438   4.365   3.637  0.1613  0.4634 -0.0995
 6297SOL    HW130353   0.437   4.436   3.574 -2.0352 -0.6862 -1.3685
 6297SOL    HW230354   0.530   4.367   3.664  0.3867  2.3355 -1.0518
 6298SOL     OW30355   3.589   3.248  12.001 -0.0404  0.2980 -0.1409
 6298SOL    HW130356   3.495   3.263  12.006 -0.2510 -1.2519  0.4711
 6298SOL    HW230357   3.598   3.184  11.930 -2.1843 -1.4044  1.1440
 6299SOL     OW30358   0.046   0.338   6.668  0.2327  0.0889  0.0980
 6299SOL    HW130359   0.071   0.426   6.641 -0.4600  0.1967 -0.1986
 6299SOL    HW230360   0.011   0.357   6.755 -0.4210 -0.2886 -0.0765
 6300SOL     OW30361   3.765   0.130  15.044 -0.7218 -0.4940 -0.2437
 6300SOL    HW130362   3.691   0.153  14.987  0.0824  1.4682 -0.5150
 6300SOL    HW230363   3.716   0.074  15.104  0.6325  0.1108  1.4390
 6301SOL     OW30364   3.329   0.827   6.284 -0.6531  0.2640 -0.3030
 6301SOL    HW130365   3.289   0.884   6.219 -0.4088  1.5971  0.7138
 6301SOL    HW230366   3.344   0.749   6.231 -0.9543  0.6592 -0.9666
 6302SOL     OW30367   3.445   0.741   8.333  0.0433  0.1275  0.0660
 6302SOL    HW130368   3.525   0.764   8.380 -0.4812 -1.3665  1.6897
 6302SOL    HW230369   3.448   0.648   8.358 -0.3075  0.0816 -0.0613
 6303SOL     OW30370   3.142   3.393  15.667 -0.0517  0.3139  0.1871
 6303SOL    HW130371   3.133   3.488  15.657  0.1888  0.0244 -2.6586
 6303SOL    HW230372   3.198   3.388  15.745  0.0460  0.5400  0.1341
 6304SOL     OW30373   4.088   2.051   9.263  0.4037 -0.5502 -0.1803
 6304SOL    HW130374   4.027   2.066   9.335 -1.4516 -0.1208 -1.8237
 6304SOL    HW230375   4.165   2.078   9.314 -0.7829  1.4221  0.5639
 6305SOL     OW30376   2.251   2.029   3.095  0.0983 -0.3758  0.0287
 6305SOL    HW130377   2.201   2.050   3.016  0.9686 -2.1170 -0.9747
 6305SOL    HW230378   2.335   2.072   3.076 -1.3641  1.4330 -2.3489
 6306SOL     OW30379   1.411   4.627  17.301  0.4862 -0.0307  0.2636
 6306SOL    HW130380   1.382   4.678  17.377 -1.8444 -0.3460 -0.4236
 6306SOL    HW230381   1.361   4.662  17.228 -0.1632  0.4952  0.9608
 6307SOL     OW30382   0.278   4.050  10.180 -0.1212 -0.2432  0.0133
 6307SOL    HW130383   0.268   4.047  10.275  1.9249 -1.2268  0.2049
 6307SOL    HW230384   0.245   3.963  10.156 -2.9231 -0.3719  4.1988
 6308SOL     OW30385   3.265   2.157  11.619  0.0006  0.2147  0.6602
 6308SOL    HW130386   3.267   2.063  11.642 -0.1697  0.5974  2.2788
 6308SOL    HW230387   3.343   2.178  11.671  2.0905  0.8065 -2.7035
 6309SOL     OW30388   3.457   3.838   0.823 -0.0965 -0.3731  0.3176
 6309SOL    HW130389   3.527   3.893   0.789  1.3718 -1.7553  1.1078
 6309SOL    HW230390   3.423   3.788   0.749  0.1866 -0.5918  0.3341
 6310SOL     OW30391   1.228   1.408   4.807  0.2187 -0.0496 -0.0798
 6310SOL    HW130392   1.209   1.461   4.730 -1.6535 -1.4211 -0.5602
 6310SOL    HW230393   1.317   1.384   4.782 -0.5357 -3.0274  0.1450
 6311SOL     OW30394   1.992   2.109  15.768  0.2224  0.4413  0.2129
 6311SOL    HW130395   1.904   2.137  15.743  0.5391  2.1752  1.0956
 6311SOL    HW230396   1.960   2.019  15.782  0.0572  0.7020  1.4958
 6312SOL     OW30397   2.646   3.488  11.049 -0.0280 -0.1526  0.2031
 6312SOL    HW130398   2.576   3.433  11.083  0.0688 -0.1603  0.3920
 6312SOL    HW230399   2.718   3.426  11.040 -0.0697  0.0734 -1.6371
 6313SOL     OW30400   1.738   0.643  17.573 -0.2305  0.3995  0.1527
 6313SOL    HW130401   1.799   0.579  17.610 -0.2973  1.1033  1.4772
 6313SOL    HW230402   1.791   0.694  17.511  1.7712 -3.2638 -1.1668
 6314SOL     OW30403   0.395   4.010   8.526  0.0713 -0.0751 -0.5136
 6314SOL    HW130404   0.323   3.951   8.548  0.9772 -1.0785 -0.2155
 6314SOL    HW230405   0.438   4.012   8.611 -0.7675 -1.1122 -0.0628
 6315SOL     OW30406   2.968   3.024   5.890 -0.3886  0.2943 -0.1403
 6315SOL    HW130407   3.034   3.019   5.959 -0.4370  1.4344 -0.0171
 6315SOL    HW230408   2.884   3.024   5.934 -0.1609  2.3273  0.2977
 6316SOL     OW30409   0.235   1.869  12.407 -0.7157 -0.0167  0.1239
 6316SOL    HW130410   0.318   1.865  12.453 -0.6484  2.3980  0.1848
 6316SOL    HW230411   0.227   1.949  12.355 -1.2366  0.2870  0.6672
 6317SOL     OW30412   1.744   3.901  12.826  0.2798  0.2640 -0.0228
 6317SOL    HW130413   1.733   3.818  12.778 -1.9864  0.1122  0.7490
 6317SOL    HW230414   1.837   3.903  12.848  0.1712  0.3891  0.4156
 6318SOL     OW30415   1.363   0.352   9.752 -0.0982 -0.1829  0.1676
 6318SOL    HW130416   1.380   0.442   9.724 -1.1048 -0.0906 -0.1582
 6318SOL    HW230417   1.436   0.316   9.703  0.0321 -0.7550  0.7802
 6319SOL     OW30418   0.150   0.192   7.943 -0.3221 -0.0360  0.4786
 6319SOL    HW130419   0.211   0.264   7.956  2.1061 -2.0405  0.2243
 6319SOL    HW230420   0.137   0.164   8.034  0.3453  1.9214  1.1546
 6320SOL     OW30421   3.612   1.751   5.408 -0.0240 -0.3372  0.1577
 6320SOL    HW130422   3.669   1.763   5.332 -1.9149 -0.8241 -1.3478
 6320SOL    HW230423   3.671   1.733   5.481  0.7605  1.1458 -0.1048
 6321SOL     OW30424   0.141   2.102   6.250 -0.2390 -0.1929 -0.5365
 6321SOL    HW130425   0.217   2.159   6.259 -0.3879 -0.1929  0.7787
 6321SOL    HW230426   0.093   2.125   6.330 -0.0644 -1.2258 -0.1341
 6322SOL     OW30427   3.124   0.936   4.483 -0.4447  0.0753  0.2119
 6322SOL    HW130428   3.101   0.938   4.575  0.5341 -0.3163  0.4692
 6322SOL    HW230429   3.192   1.000   4.462 -0.0682 -0.5181 -0.3923
 6323SOL     OW30430   1.951   0.309  14.491  0.1650  0.4105  0.0398
 6323SOL    HW130431   1.882   0.368  14.462 -0.7084  0.0086  1.2793
 6323SOL    HW230432   1.910   0.264  14.566  0.6271  0.3189  0.2372
 6324SOL     OW30433   2.942   2.161   8.284 -0.8124 -0.6946 -0.5143
 6324SOL    HW130434   2.885   2.211   8.343  0.8171 -0.1692  0.6084
 6324SOL    HW230435   2.957   2.084   8.339  0.4456  0.1566  0.3315
 6325SOL     OW30436   0.913   0.111   4.803 -0.0073  0.1370  0.5009
 6325SOL    HW130437   0.982   0.174   4.820 -0.3949  0.2287  1.7541
 6325SOL    HW230438   0.846   0.158   4.854 -2.4282 -0.6330 -1.9760
 6326SOL     OW30439   1.277   1.315  13.550 -0.0576  0.3015 -0.3885
 6326SOL    HW130440   1.342   1.248  13.574 -1.4186 -0.7142  0.5370
 6326SOL    HW230441   1.218   1.306  13.626 -1.0286  1.7266 -0.9860
 6327SOL     OW30442   0.674   0.953   8.447 -0.1588  0.6270  0.4545
 6327SOL    HW130443   0.593   0.902   8.443 -1.3485  2.5613 -0.5275
 6327SOL    HW230444   0.651   1.027   8.390 -0.9337  0.0935  0.0773
 6328SOL     OW30445   3.982   2.045   6.375 -0.1819 -0.5810 -0.1951
 6328SOL    HW130446   3.994   2.065   6.468 -0.4023 -0.7020 -0.1414
 6328SOL    HW230447   4.055   1.989   6.350  0.0856  0.6364 -2.1878
 6329SOL     OW30448   0.068   4.512  11.798 -0.2809  0.2934 -0.1612
 6329SOL    HW130449   0.101   4.586  11.746  2.3058  1.2423  2.8783
 6329SOL    HW230450   0.105   4.436  11.752  1.6392  2.0691 -1.5291
 6330SOL     OW30451   1.780   2.117   2.100  0.1144  0.3134  0.3648
 6330SOL    HW130452   1.722   2.049   2.066  0.3091 -0.0369  0.7310
 6330SOL    HW230453   1.719   2.158   2.161 -0.1581 -1.3690  1.2393
 6331SOL     OW30454   3.251   3.961  13.710 -0.5204  0.0414  0.1678
 6331SOL    HW130455   3.263   3.969  13.616 -0.9039 -3.1941 -0.1524
 6331SOL    HW230456   3.155   3.958  13.712 -0.4852 -1.8226 -1.2102
 6332SOL     OW30457   2.533   2.793  11.057  0.7677 -0.0863  0.0582
 6332SOL    HW130458   2.512   2.864  10.997  3.6732  1.3488  0.7255
 6332SOL    HW230459   2.606   2.749  11.014 -0.0678 -3.7263  2.3299
 6333SOL     OW30460   4.630   2.604   8.094  0.3186  0.4911  0.4710
 6333SOL    HW130461   4.625   2.526   8.148 -0.0374 -0.9745 -1.6684
 6333SOL    HW230462   4.612   2.668   8.164 -0.9276  3.1321 -2.2376
 6334SOL     OW30463   0.629   0.961   7.450  0.7335  0.5681  0.4636
 6334SOL    HW130464   0.721   0.982   7.434  0.6663  0.2052 -0.3756
 6334SOL    HW230465   0.639   0.900   7.523 -1.8942 -2.2143 -1.4937
 6335SOL     OW30466   0.021   4.107   6.330  0.3016 -0.7103  0.0068
 6335SOL    HW130467   0.114   4.081   6.329  0.2588 -0.8577 -0.4225
 6335SOL    HW230468   0.006   4.084   6.421 -0.8879 -0.4619 -0.1307
 6336SOL     OW30469   3.053   1.052   6.924  0.2073  0.1715 -0.1309
 6336SOL    HW130470   2.998   1.128   6.941  0.7699  0.7617 -0.9840
 6336SOL    HW230471   3.031   1.021   6.836  0.0982  0.7282 -0.3014
 6337SOL     OW30472   4.055   0.345   4.764  0.7272  0.0603  0.0982
 6337SOL    HW130473   4.034   0.373   4.853 -1.9778 -1.7643  0.0232
 6337SOL    HW230474   4.135   0.298   4.789 -0.2699 -1.1396  1.0795
 6338SOL     OW30475   3.544   4.611   6.689  0.2960  0.1236 -0.2302
 6338SOL    HW130476   3.569   4.522   6.663  1.6430  0.8125 -1.2658
 6338SOL    HW230477   3.628   4.643   6.723  0.9112  0.5117 -2.1391
 6339SOL     OW30478   0.195   3.779   8.497  0.2089  0.3619  0.5880
 6339SOL    HW130479   0.270   3.737   8.455  0.8956  0.0674  2.1190
 6339SOL    HW230480   0.129   3.710   8.491  0.4945  0.1642 -0.2069
 6340SOL     OW30481   1.870   0.696   5.019  0.4203 -0.3568  0.1733
 6340SOL    HW130482   1.821   0.735   5.091  0.5851 -2.6523  1.5242
 6340SOL    HW230483   1.823   0.735   4.946 -1.1852 -1.3532  0.6760
 6341SOL     OW30484   4.681   2.569   7.277  0.0944  0.2883  0.7075
 6341SOL    HW130485   0.029   2.534   7.223  0.1416  1.6820 -0.1476
 6341SOL    HW230486   4.721   2.639   7.330 -0.7150 -0.3288  2.1202
 6342SOL     OW30487   1.795   0.660   4.223  0.1495 -0.3342  0.1491
 6342SOL    HW130488   1.867   0.613   4.265 -0.1815 -0.4140  0.6371
 6342SOL    HW230489   1.810   0.649   4.130  1.6863  0.9079  0.2477
 6343SOL     OW30490   1.637   1.626  16.735 -0.2222  0.0999 -0.0907
 6343SOL    HW130491   1.732   1.634  16.725 -0.1039 -0.6076  0.4853
 6343SOL    HW230492   1.621   1.670  16.818  0.7787 -0.3905  0.3623
 6344SOL     OW30493   1.606   3.629  13.953  0.3608  0.0852 -0.9836
 6344SOL    HW130494   1.540   3.663  13.892  0.4514  2.3243  0.1855
 6344SOL    HW230495   1.547   3.620  14.027  2.6714  0.6877  0.9262
 6345SOL     OW30496   4.714   4.110   5.321 -0.1420 -0.1005 -0.1742
 6345SOL    HW130497   4.688   4.085   5.410 -1.7246 -1.6288 -1.0736
 6345SOL    HW230498   0.011   4.203   5.333 -1.4393  0.7612 -4.6928
 6346SOL     OW30499   1.682   3.940  15.952 -0.1037  0.0364  0.0570
 6346SOL    HW130500   1.604   3.923  16.005 -0.2459  5.2801  1.6172
 6346SOL    HW230501   1.658   4.026  15.917 -0.7522  0.3593  1.2881
 6347SOL     OW30502   1.268   1.859   8.407  0.0278 -0.3892  0.2946
 6347SOL    HW130503   1.328   1.871   8.481  1.0692 -0.4053 -0.5374
 6347SOL    HW230504   1.281   1.944   8.364  1.6197 -0.7185  0.1225
 6348SOL     OW30505   0.068   1.975   2.092 -0.0454  0.1894 -0.2001
 6348SOL    HW130506   0.030   2.058   2.121  1.5558  0.5558  0.8461
 6348SOL    HW230507   0.153   1.998   2.054  0.0888  2.6573  1.6425
 6349SOL     OW30508   2.322   1.863   1.873 -0.1972  0.3012 -0.0524
 6349SOL    HW130509   2.331   1.939   1.931 -0.0585 -0.5371  1.0262
 6349SOL    HW230510   2.411   1.831   1.889 -0.1687  0.5820  0.3643
 6350SOL     OW30511   1.457   2.087   3.691  0.0518 -0.1247 -0.0663
 6350SOL    HW130512   1.414   2.078   3.606 -1.5319  1.1713  0.6085
 6350SOL    HW230513   1.397   2.149   3.732 -0.3113 -0.7890  0.4265
 6351SOL     OW30514   1.023   2.648  17.075 -1.0718 -0.2679 -0.0605
 6351SOL    HW130515   1.042   2.707  17.149 -0.0471  0.6910 -1.0861
 6351SOL    HW230516   1.017   2.711  17.003 -0.5022  0.7400  0.7672
 6352SOL     OW30517   1.309   1.255  15.848  0.3085 -0.7448 -0.4873
 6352SOL    HW130518   1.218   1.281  15.835  0.0184 -0.7864  1.3886
 6352SOL    HW230519   1.309   1.166  15.812 -0.2340 -0.3226 -1.5003
 6353SOL     OW30520   2.539   1.300   3.385 -0.3573  0.1552 -0.0145
 6353SOL    HW130521   2.454   1.299   3.428 -0.6719  1.0260 -0.6067
 6353SOL    HW230522   2.507   1.276   3.298  1.0800 -1.7997 -0.0022
 6354SOL     OW30523   4.257   0.660   7.839 -0.0408 -0.6296  0.0649
 6354SOL    HW130524   4.308   0.584   7.867  0.9945 -0.7071 -2.0314
 6354SOL    HW230525   4.318   0.727   7.872 -0.6297  0.8302 -1.7507
 6355SOL     OW30526   0.638   1.396   6.347  0.0682  0.4034  0.3337
 6355SOL    HW130527   0.554   1.392   6.393  0.3195 -1.0165  0.6508
 6355SOL    HW230528   0.684   1.447   6.414 -0.4121 -0.9617  1.6968
 6356SOL     OW30529   3.131   0.643   2.188  0.1609  0.3342 -0.2161
 6356SOL    HW130530   3.136   0.554   2.153 -2.4934  0.0979 -0.0597
 6356SOL    HW230531   3.143   0.622   2.281  0.2363  2.7681  0.3278
 6357SOL     OW30532   3.424   1.604  10.206 -0.6493 -0.3817  0.4506
 6357SOL    HW130533   3.516   1.611  10.233 -0.5174 -0.7318  0.0989
 6357SOL    HW230534   3.418   1.515  10.170 -0.0660 -0.2223 -0.0554
 6358SOL     OW30535   2.275   3.075   6.068  0.1035  0.3548 -0.3030
 6358SOL    HW130536   2.239   3.069   6.157 -4.7362 -0.7919 -2.3840
 6358SOL    HW230537   2.350   3.134   6.078 -0.2158  0.6108  0.6545
 6359SOL     OW30538   2.662   0.597   5.892 -0.2242  0.0502  0.3223
 6359SOL    HW130539   2.669   0.502   5.887 -0.8947 -0.0175  0.6341
 6359SOL    HW230540   2.576   0.617   5.856 -0.3071 -0.8161  0.0509
 6360SOL     OW30541   3.941   2.514   9.287 -0.0324 -0.4617 -0.3842
 6360SOL    HW130542   4.012   2.508   9.351  0.0285 -2.8129 -0.6697
 6360SOL    HW230543   3.965   2.442   9.229  0.6064 -0.7840  0.2737
 6361SOL     OW30544   2.736   0.813   9.673  0.2653 -0.4574 -0.1994
 6361SOL    HW130545   2.777   0.778   9.751 -0.1722  0.3213  0.3754
 6361SOL    HW230546   2.708   0.897   9.711  2.0183 -0.5810  1.3328
 6362SOL     OW30547   3.999   2.381   5.290 -0.1611  0.0484  0.0151
 6362SOL    HW130548   4.069   2.403   5.351 -0.6582  0.3571  0.4767
 6362SOL    HW230549   3.982   2.292   5.320  0.1192 -0.2179 -0.6197
 6363SOL     OW30550   4.593   0.856   6.358 -0.3066  0.1593  0.2476
 6363SOL    HW130551   4.551   0.838   6.442 -1.2055  0.7423 -0.0777
 6363SOL    HW230552   4.636   0.941   6.371 -1.0311  0.5294  0.2236
 6364SOL     OW30553   0.498   2.989   4.597 -0.4118  0.2792 -0.1258
 6364SOL    HW130554   0.593   2.990   4.589 -0.2316 -0.4953  1.9778
 6364SOL    HW230555   0.471   3.068   4.551  0.8710  0.5867 -0.3414
 6365SOL     OW30556   4.625   3.061   6.808  0.0277  0.3142  0.1857
 6365SOL    HW130557   4.602   2.968   6.814  0.2779  0.4614  3.3657
 6365SOL    HW230558   4.546   3.098   6.848 -0.6232  0.2676 -1.0414
 6366SOL     OW30559   2.828   2.301  10.368  0.1268 -0.7670  0.1986
 6366SOL    HW130560   2.849   2.272  10.278 -0.6806 -0.0090 -0.2306
 6366SOL    HW230561   2.895   2.370  10.371  0.2412 -0.8315 -0.7655
 6367SOL     OW30562   1.528   0.695   2.045 -0.3681 -0.3059  0.3024
 6367SOL    HW130563   1.611   0.690   2.092 -0.7072  0.3262  0.9601
 6367SOL    HW230564   1.468   0.647   2.103  0.9856 -1.3852  0.7906
 6368SOL     OW30565   3.289   4.468  13.882  0.3191 -0.1124 -0.5326
 6368SOL    HW130566   3.286   4.372  13.890 -2.4404  0.0728  0.5021
 6368SOL    HW230567   3.383   4.485  13.893  0.4664 -0.5540 -1.1031
 6369SOL     OW30568   1.554   1.256   4.874 -0.5909 -0.7900  0.8101
 6369SOL    HW130569   1.648   1.259   4.859 -0.4794 -1.0830  1.4507
 6369SOL    HW230570   1.524   1.347   4.865  0.8576 -0.3632  0.3309
 6370SOL     OW30571   3.047   2.189   9.123 -0.1861 -0.2087 -0.0811
 6370SOL    HW130572   2.977   2.176   9.058  0.3792 -1.3310 -0.4631
 6370SOL    HW230573   3.114   2.124   9.104  0.5809 -0.0925  2.2742
 6371SOL     OW30574   0.058   0.689   6.065 -0.6029  0.0225  0.4864
 6371SOL    HW130575   4.717   0.655   6.128 -2.4277 -1.8866 -2.3356
 6371SOL    HW230576   0.130   0.627   6.077 -1.0075 -0.8621 -1.6461
 6372SOL     OW30577   1.384   1.614   0.266  0.4156  0.1310  0.2516
 6372SOL    HW130578   1.335   1.687   0.229 -1.6621 -1.6410 -0.4976
 6372SOL    HW230579   1.315   1.589   0.328 -0.8675  4.0771  0.4067
 6373SOL     OW30580   0.556   0.455   2.675  0.4810 -0.0606 -0.4469
 6373SOL    HW130581   0.647   0.431   2.662  0.3088 -0.0784 -1.6023
 6373SOL    HW230582   0.544   0.521   2.607  1.0009 -0.0191 -0.4978
 6374SOL     OW30583   2.854   2.145  17.460  0.6380 -0.5312  0.0031
 6374SOL    HW130584   2.800   2.141  17.381 -1.8335  2.7720  1.5585
 6374SOL    HW230585   2.785   2.142  17.526  2.0879  0.4500  1.5417
 6375SOL     OW30586   3.025   2.237   1.102 -0.2332 -0.0403 -0.1331
 6375SOL    HW130587   3.035   2.245   1.007  0.8157  1.2411  0.0916
 6375SOL    HW230588   3.065   2.152   1.120 -0.8107 -0.2634  0.1213
 6376SOL     OW30589   3.365   3.925   8.956  0.6179  0.1490 -0.0264
 6376SOL    HW130590   3.370   3.921   8.860 -0.6625 -0.2884 -0.0689
 6376SOL    HW230591   3.405   3.841   8.978  3.2677  1.6224  0.8109
 6377SOL     OW30592   0.818   2.650   8.663  0.0769 -0.3295 -0.4504
 6377SOL    HW130593   0.786   2.666   8.752  2.3280 -2.1600  0.6793
 6377SOL    HW230594   0.895   2.596   8.679  0.7815  0.8393  0.2012
 6378SOL     OW30595   2.665   2.493   8.678 -0.2715 -0.3760  0.2627
 6378SOL    HW130596   2.651   2.579   8.717 -0.0610  0.0071 -0.4827
 6378SOL    HW230597   2.761   2.492   8.675 -0.1966 -0.8111  3.2971
 6379SOL     OW30598   2.920   4.538  10.716 -0.1653 -0.5498 -0.1721
 6379SOL    HW130599   2.880   4.455  10.692 -1.9173 -0.1059  1.2136
 6379SOL    HW230600   3.009   4.507  10.731 -0.5672 -1.9515 -0.7138
 6380SOL     OW30601   0.935   1.647   9.733  0.0629 -0.0236 -0.2139
 6380SOL    HW130602   0.991   1.710   9.780  0.3866  0.0808 -0.7367
 6380SOL    HW230603   0.867   1.704   9.698  1.3740  0.6748 -1.6118
 6381SOL     OW30604   3.206   4.395   8.235 -0.5683  0.0929 -0.2264
 6381SOL    HW130605   3.143   4.443   8.288 -0.0748  0.0458  0.3997
 6381SOL    HW230606   3.172   4.423   8.150  0.1874  0.3439 -0.4505
 6382SOL     OW30607   2.537   3.865  15.317 -0.2442  0.1099  0.3811
 6382SOL    HW130608   2.464   3.927  15.319  0.6050  1.1498 -0.5310
 6382SOL    HW230609   2.539   3.838  15.225  2.0360 -1.0426  0.7784
 6383SOL     OW30610   0.459   0.555   4.034  0.3704  0.2942 -0.2653
 6383SOL    HW130611   0.495   0.502   3.963  0.7440 -0.3697  0.4143
 6383SOL    HW230612   0.497   0.509   4.109 -0.1687 -0.9164 -0.7405
 6384SOL     OW30613   0.107   3.220   8.153  0.0412  0.5950 -0.0409
 6384SOL    HW130614   0.014   3.243   8.141 -0.9014 -2.6184  1.1041
 6384SOL    HW230615   0.129   3.259   8.238 -1.8006  3.7743 -1.0136
 6385SOL     OW30616   4.700   1.472   7.442 -0.1246 -0.2092 -0.0671
 6385SOL    HW130617   0.046   1.515   7.391  0.7134 -1.7580 -0.2783
 6385SOL    HW230618   4.703   1.384   7.403 -1.2951  0.3599 -1.4413
 6386SOL     OW30619   3.282   3.947   4.110 -0.2784 -0.3030  0.3791
 6386SOL    HW130620   3.262   4.030   4.068  1.0511  0.2271  0.7812
 6386SOL    HW230621   3.376   3.955   4.126 -0.0405  2.0515 -2.1395
 6387SOL     OW30622   4.118   3.833   3.785 -0.2742  0.2591  0.2130
 6387SOL    HW130623   4.185   3.783   3.831 -0.0459  0.0754 -0.3198
 6387SOL    HW230624   4.047   3.769   3.793 -1.7366  2.0025  1.1673
 6388SOL     OW30625   1.555   2.734   4.704  0.3829  0.3875 -0.2361
 6388SOL    HW130626   1.501   2.804   4.741  0.3497  0.1689  0.1204
 6388SOL    HW230627   1.593   2.697   4.783  0.5714  1.0228 -0.0285
 6389SOL     OW30628   2.769   2.636  13.731  0.3762  0.2772 -0.0244
 6389SOL    HW130629   2.737   2.552  13.763  1.9125 -1.3563 -2.8090
 6389SOL    HW230630   2.779   2.686  13.812 -1.6958  2.4586 -1.1277
 6390SOL     OW30631   1.664   2.942   4.305 -0.1275  0.1684  0.4721
 6390SOL    HW130632   1.699   2.918   4.390 -0.4229 -0.2142  0.4855
 6390SOL    HW230633   1.589   2.883   4.307  0.5365 -0.7503 -2.3840
 6391SOL     OW30634   2.835   0.640  13.201  0.4512  0.0761  0.1124
 6391SOL    HW130635   2.816   0.595  13.283  1.2013 -1.4963 -0.5727
 6391SOL    HW230636   2.887   0.574  13.155  0.1668 -1.5849  2.1665
 6392SOL     OW30637   3.581   4.514   8.450  0.3062 -0.3905 -0.5477
 6392SOL    HW130638   3.545   4.574   8.384 -1.0331  0.3602  0.8502
 6392SOL    HW230639   3.503   4.487   8.499  0.7471 -1.3314 -0.3684
 6393SOL     OW30640   3.695   0.572   5.083  0.1921  0.0211 -0.0774
 6393SOL    HW130641   3.626   0.506   5.085 -0.7200  0.8823 -2.4236
 6393SOL    HW230642   3.746   0.533   5.012  1.0956  0.5411  0.2897
 6394SOL     OW30643   3.799   0.476  10.731  0.2778 -0.2452 -0.4849
 6394SOL    HW130644   3.867   0.463  10.664  0.7081 -0.7655  0.0535
 6394SOL    HW230645   3.733   0.523  10.681 -0.2216 -1.4184 -0.9264
 6395SOL     OW30646   3.735   1.370  13.167  0.0906  0.2355  0.2273
 6395SOL    HW130647   3.724   1.442  13.105  1.6614 -0.8373 -1.2840
 6395SOL    HW230648   3.760   1.422  13.244  1.9806  1.3407 -1.1309
 6396SOL     OW30649   4.684   1.864   4.465  0.5488 -0.2284  0.4507
 6396SOL    HW130650   4.683   1.926   4.392  1.5333 -0.0038  0.6297
 6396SOL    HW230651   0.051   1.831   4.455  0.4405 -0.1792 -0.6127
 6397SOL     OW30652   3.568   3.848   1.165  0.0949  0.2350 -0.0365
 6397SOL    HW130653   3.606   3.920   1.115  0.8462 -0.6414 -0.7347
 6397SOL    HW230654   3.569   3.888   1.252  0.9454 -0.3738  0.2403
 6398SOL     OW30655   2.965   3.319   8.922 -0.1045 -0.1368  0.3888
 6398SOL    HW130656   2.960   3.380   8.996 -1.3068  3.1246 -2.4179
 6398SOL    HW230657   2.876   3.329   8.887 -0.3119 -2.0017  0.3814
 6399SOL     OW30658   0.093   4.163   1.911 -0.1866 -0.9088 -0.3516
 6399SOL    HW130659   0.115   4.132   1.998  0.3181 -1.2407 -0.5941
 6399SOL    HW230660   0.185   4.166   1.883  0.4456  1.9108  1.9357
 6400SOL     OW30661   4.010   0.037  14.986 -0.2577  0.4673 -0.1704
 6400SOL    HW130662   4.013   4.669  15.019 -0.5223  0.2087 -0.8436
 6400SOL    HW230663   3.928   0.073  15.018  0.4953  0.6031  1.5645
 6401SOL     OW30664   4.707   3.015   9.294  0.2075  0.2101 -0.9808
 6401SOL    HW130665   4.636   3.065   9.333  0.5980  1.1572 -1.4812
 6401SOL    HW230666   0.049   3.010   9.366 -2.0290  0.0214  0.9828
 6402SOL     OW30667   2.226   0.253   7.707 -0.0135 -0.4500 -0.0575
 6402SOL    HW130668   2.189   0.269   7.793  0.3727  0.7357 -0.1114
 6402SOL    HW230669   2.199   0.331   7.659 -0.3101 -0.5510 -0.0553
 6403SOL     OW30670   1.172   0.526   3.435 -0.4868 -0.1020 -0.1127
 6403SOL    HW130671   1.098   0.472   3.461 -0.9911  1.2527  1.2784
 6403SOL    HW230672   1.250   0.474   3.454  0.2117  0.2400 -2.0947
 6404SOL     OW30673   2.124   0.636   6.022  0.6704  0.2349  0.1840
 6404SOL    HW130674   2.135   0.608   6.113  0.4504  0.7002  0.3513
 6404SOL    HW230675   2.137   0.729   6.038  0.5728  0.5218 -1.3772
 6405SOL     OW30676   3.187   1.086  16.487  0.1958  0.1208  0.1083
 6405SOL    HW130677   3.202   1.147  16.415 -0.6361  2.0019  1.5427
 6405SOL    HW230678   3.097   1.102  16.515  0.9410 -0.7996  2.9963
 6406SOL     OW30679   2.782   4.173   6.593  0.5286  0.4291 -0.3304
 6406SOL    HW130680   2.726   4.136   6.661 -0.3162 -0.1807 -1.3504
 6406SOL    HW230681   2.834   4.240   6.638 -0.5925  1.7674 -1.0236
 6407SOL     OW30682   3.708   2.795   6.717  0.0474 -0.4597  0.2387
 6407SOL    HW130683   3.643   2.751   6.771 -1.5783  1.0192 -0.5078
 6407SOL    HW230684   3.657   2.860   6.669 -0.6033 -0.9172  0.2962
 6408SOL     OW30685   2.371   0.086   4.990  0.3037 -0.2583 -0.2935
 6408SOL    HW130686   2.385   0.159   4.930  1.1183  0.1412  0.3875
 6408SOL    HW230687   2.442   0.030   4.958 -0.8226 -1.3189 -0.9397
 6409SOL     OW30688   0.747   4.530   8.957 -0.7890 -0.1660  0.2139
 6409SOL    HW130689   0.770   4.466   8.890 -1.9166 -1.8193  1.4190
 6409SOL    HW230690   0.748   4.614   8.909 -0.4970  1.2501  2.7056
 6410SOL     OW30691   2.582   1.318   4.844  0.0562  0.1764  0.0094
 6410SOL    HW130692   2.568   1.319   4.749  0.1482  0.9114  0.0014
 6410SOL    HW230693   2.515   1.255   4.869  0.5929  0.0506  1.1227
 6411SOL     OW30694   1.839   3.676   1.368 -0.0475  0.0872  0.0519
 6411SOL    HW130695   1.870   3.612   1.304  0.4787  1.0301 -0.6112
 6411SOL    HW230696   1.753   3.683   1.326  1.3494  0.7217 -2.7135
 6412SOL     OW30697   1.348   4.668   3.716  0.5353 -0.5326 -0.5860
 6412SOL    HW130698   1.304   4.640   3.797  1.7489  1.6389  0.8293
 6412SOL    HW230699   1.357   4.583   3.673  0.6505 -0.6037 -0.4222
 6413SOL     OW30700   1.836   1.278   4.853  0.3713 -0.4711  0.4378
 6413SOL    HW130701   1.829   1.337   4.778 -1.7127 -1.7358 -0.3665
 6413SOL    HW230702   1.883   1.205   4.813  1.6808  0.4864  0.2261
 6414SOL     OW30703   2.740   4.526   6.099 -0.0115  0.1759  0.2401
 6414SOL    HW130704   2.731   4.436   6.130 -0.9269  0.6364  1.3363
 6414SOL    HW230705   2.679   4.533   6.025 -1.0109 -0.1983  1.0264
 6415SOL     OW30706   2.440   0.167   5.531 -0.2218 -0.1691  0.5222
 6415SOL    HW130707   2.511   0.125   5.579 -0.3332 -2.6397 -1.4679
 6415SOL    HW230708   2.362   0.144   5.581  0.6276 -2.9572  0.5897
 6416SOL     OW30709   3.325   3.233   2.210 -0.0730 -0.2337 -0.0120
 6416SOL    HW130710   3.313   3.310   2.265  0.5245 -0.7725  0.8877
 6416SOL    HW230711   3.402   3.190   2.247 -0.7822 -0.6007  1.0389
 6417SOL     OW30712   1.984   0.107   3.548 -0.2516  0.3311 -0.1588
 6417SOL    HW130713   1.997   0.014   3.528  2.3539  0.6332  0.0509
 6417SOL    HW230714   1.995   0.108   3.643  2.9353  0.2217 -0.5208
 6418SOL     OW30715   2.334   3.842   0.550  0.1014  1.1185 -0.0078
 6418SOL    HW130716   2.312   3.801   0.634 -4.3126 -0.9745 -2.1591
 6418SOL    HW230717   2.397   3.907   0.581 -1.6477  2.6944  0.2609
 6419SOL     OW30718   3.253   0.150   2.180 -0.6296 -0.1141  0.1184
 6419SOL    HW130719   3.247   0.142   2.275 -2.7099  3.0169  0.2338
 6419SOL    HW230720   3.335   0.104   2.162  0.3019  1.3752  0.5894
 6420SOL     OW30721   4.440   0.291   2.722  0.1452 -0.0272  0.5030
 6420SOL    HW130722   4.389   0.212   2.702 -1.2821  0.6887  1.3185
 6420SOL    HW230723   4.363   0.344   2.746 -0.1006 -1.2131  2.2987
 6421SOL     OW30724   2.567   0.873   4.915 -0.1966 -0.1685  0.5288
 6421SOL    HW130725   2.652   0.916   4.912 -0.4978  0.4699  0.9780
 6421SOL    HW230726   2.587   0.791   4.960 -1.9635 -0.8543  0.0549
 6422SOL     OW30727   2.313   1.965  17.135 -0.0086  0.6356 -0.8016
 6422SOL    HW130728   2.259   2.029  17.182 -0.0243 -1.4537  2.0186
 6422SOL    HW230729   2.338   2.017  17.059 -0.9359  1.3238 -0.6353
 6423SOL     OW30730   0.996   1.278   8.468 -0.2716 -0.0417  0.2107
 6423SOL    HW130731   0.907   1.313   8.472 -0.6095 -0.9075  0.4319
 6423SOL    HW230732   0.975   1.191   8.434 -0.4778 -0.5073  1.5084
 6424SOL     OW30733   3.586   1.743   4.927 -0.1945 -0.1554 -0.3599
 6424SOL    HW130734   3.576   1.765   4.834 -1.6985 -1.1345 -0.4372
 6424SOL    HW230735   3.520   1.674   4.931  0.0492 -0.3997 -0.4929
 6425SOL     OW30736   1.777   0.353  14.229 -0.2319 -0.0465  0.4347
 6425SOL    HW130737   1.720   0.286  14.266 -0.5970  1.4991  2.6747
 6425SOL    HW230738   1.859   0.328  14.272  0.8529  1.1210 -0.9695
 6426SOL     OW30739   1.839   4.182   7.202 -0.3187  0.3814  0.6888
 6426SOL    HW130740   1.882   4.197   7.286  2.0433  1.1226 -0.6552
 6426SOL    HW230741   1.900   4.125   7.156 -0.8162 -0.0748  0.5955
 6427SOL     OW30742   2.291   1.543   2.919  0.1753  0.0469  0.1085
 6427SOL    HW130743   2.209   1.585   2.944  0.0215 -0.8644  1.1316
 6427SOL    HW230744   2.248   1.492   2.850 -2.3537 -0.1908  1.8551
 6428SOL     OW30745   1.220   0.081  11.257  0.0518 -0.5980 -0.6315
 6428SOL    HW130746   1.229   0.039  11.172  1.0594 -2.2567  0.2972
 6428SOL    HW230747   1.188   0.170  11.241 -0.0131 -0.5186 -0.0656
 6429SOL     OW30748   3.793   4.697  13.454  0.0973  0.1859 -0.4142
 6429SOL    HW130749   3.723   0.016  13.505  0.8187  1.4096 -0.4213
 6429SOL    HW230750   3.831   0.053  13.415 -2.2374  0.6880 -1.7286
 6430SOL     OW30751   2.355   2.726  17.443 -0.0510 -0.1080 -0.4732
 6430SOL    HW130752   2.353   2.646  17.494  0.0664 -1.5075 -2.6692
 6430SOL    HW230753   2.450   2.728  17.439 -0.0799  1.2460 -0.7910
 6431SOL     OW30754   0.470   1.482   7.748 -0.1268 -0.7886 -0.0355
 6431SOL    HW130755   0.402   1.475   7.680 -0.4512 -0.9777  0.3063
 6431SOL    HW230756   0.505   1.569   7.730 -2.1466 -0.1650 -0.9585
 6432SOL     OW30757   0.124   2.139  13.552  0.4196 -0.1885  0.0503
 6432SOL    HW130758   0.075   2.217  13.576  0.2137  0.2352 -1.7460
 6432SOL    HW230759   0.049   2.081  13.567  0.6092  0.0931  2.0312
 6433SOL     OW30760   2.279   2.473   7.534  0.4174  0.0732  0.1575
 6433SOL    HW130761   2.352   2.464   7.595  2.1160 -0.1856 -1.8896
 6433SOL    HW230762   2.231   2.542   7.579 -0.2793  0.6215 -1.4445
 6434SOL     OW30763   1.456   0.389  14.284  0.3860  0.1484 -0.2095
 6434SOL    HW130764   1.519   0.415  14.218  0.6785  0.8903  0.3714
 6434SOL    HW230765   1.484   0.440  14.360  0.1572  0.0176 -0.0372
 6435SOL     OW30766   0.497   2.317   5.484 -0.3020 -0.1863 -0.3446
 6435SOL    HW130767   0.404   2.332   5.503 -0.6458 -2.7070 -0.0117
 6435SOL    HW230768   0.530   2.284   5.568 -0.6207  2.0588  0.6608
 6436SOL     OW30769   2.259   4.123   6.800 -0.1670 -0.3150 -0.3611
 6436SOL    HW130770   2.301   4.197   6.757 -1.5563  0.4790 -0.3581
 6436SOL    HW230771   2.191   4.159   6.857  0.9346  1.5524 -0.2284
 6437SOL     OW30772   2.029   0.998  16.524 -0.1151 -0.1035 -0.3759
 6437SOL    HW130773   1.970   0.946  16.470 -1.3159 -0.7982  1.5975
 6437SOL    HW230774   1.980   1.005  16.606 -1.2856 -0.7810 -1.0164
 6438SOL     OW30775   0.050   1.168   7.843  0.4342  0.0305  0.3644
 6438SOL    HW130776   0.121   1.190   7.903  0.4125 -2.0143  1.1625
 6438SOL    HW230777   0.093   1.103   7.787 -2.6311  1.0941 -3.2920
 6439SOL     OW30778   3.789   1.395   2.486 -0.4130 -0.1239 -0.6468
 6439SOL    HW130779   3.735   1.435   2.418 -1.3027 -0.8810 -0.3862
 6439SOL    HW230780   3.839   1.462   2.532  0.2927 -1.6545  0.8176
 6440SOL     OW30781   0.013   4.079  13.977  0.1295 -0.5004  0.1599
 6440SOL    HW130782   4.649   4.078  13.935 -0.2777 -1.0821  1.0033
 6440SOL    HW230783   0.068   4.107  13.903 -1.9002 -0.1748 -1.2378
 6441SOL     OW30784   4.334   0.494   5.092 -0.8275  0.0442  0.1673
 6441SOL    HW130785   4.382   0.411   5.091  0.9399  1.0748 -0.0816
 6441SOL    HW230786   4.256   0.479   5.146 -0.2381 -1.2394  0.6401
 6442SOL     OW30787   3.504   1.097   8.380 -0.2725  0.3369 -0.1852
 6442SOL    HW130788   3.432   1.038   8.360 -0.1649 -0.1687  0.9022
 6442SOL    HW230789   3.518   1.144   8.298  0.5711 -1.3788 -1.0253
 6443SOL     OW30790   4.671   2.368   6.025  0.0627 -0.3627  0.1460
 6443SOL    HW130791   4.599   2.305   6.034 -0.6339  0.5522  1.0375
 6443SOL    HW230792   4.684   2.398   6.115  0.8530  0.4557 -0.2416
 6444SOL     OW30793   2.511   1.593   8.079  0.4495  0.0250 -0.3860
 6444SOL    HW130794   2.583   1.598   8.143 -0.7994 -0.9461  1.0991
 6444SOL    HW230795   2.438   1.552   8.126  0.7355 -0.3244 -0.2422
 6445SOL     OW30796   3.132   1.902   6.814  0.4251 -0.2569 -0.2887
 6445SOL    HW130797   3.102   1.984   6.854 -1.9507 -1.8647  1.2173
 6445SOL    HW230798   3.053   1.848   6.818 -0.0165  0.4908  1.3569
 6446SOL     OW30799   1.243   0.951   2.626 -0.4831  0.3988 -0.7595
 6446SOL    HW130800   1.288   0.872   2.658 -0.7543  0.3479 -0.5016
 6446SOL    HW230801   1.156   0.917   2.648 -0.4156  1.0218  0.4925
 6447SOL     OW30802   0.313   3.995   9.021 -0.1173 -0.5087  0.2750
 6447SOL    HW130803   0.269   3.926   8.971  1.6720 -1.0871 -0.4830
 6447SOL    HW230804   0.342   4.056   8.954 -0.2788 -0.3368  0.3639
 6448SOL     OW30805   3.086   2.442   1.761  0.4838  0.4263  0.4769
 6448SOL    HW130806   3.100   2.534   1.784 -0.2015  0.7496 -0.4064
 6448SOL    HW230807   3.134   2.390   1.825  1.5749  1.3448  0.4124
 6449SOL     OW30808   2.393   4.260   9.999  0.0793 -0.1626 -0.3920
 6449SOL    HW130809   2.488   4.262   9.986 -0.0260  2.9649 -0.5443
 6449SOL    HW230810   2.379   4.172  10.036 -0.7101  0.1650  0.0846
 6450SOL     OW30811   1.657   1.865   8.020 -0.0401 -0.0303 -0.2312
 6450SOL    HW130812   1.698   1.943   7.984 -0.9061 -0.0624 -1.3027
 6450SOL    HW230813   1.614   1.841   7.937 -3.4281  0.7721  1.2929
 6451SOL     OW30814   4.435   4.292  14.976  1.1573 -0.4982  0.5567
 6451SOL    HW130815   4.405   4.379  14.951 -0.7591 -1.1879  0.5118
 6451SOL    HW230816   4.441   4.253  14.889  1.5670  2.1948 -0.6303
 6452SOL     OW30817   1.928   3.262   7.469  0.0915 -0.3099  0.4481
 6452SOL    HW130818   1.959   3.294   7.554 -0.1901 -1.8760  1.1470
 6452SOL    HW230819   2.001   3.210   7.435  0.3456  1.2809 -1.4199
 6453SOL     OW30820   4.531   1.140   5.002 -0.5768 -0.5228 -0.0580
 6453SOL    HW130821   4.452   1.164   4.954  0.4169  0.5860 -1.1373
 6453SOL    HW230822   4.496   1.096   5.079 -1.3024 -0.2208 -0.2216
 6454SOL     OW30823   2.769   0.780  10.123  0.7831 -0.4039 -0.2820
 6454SOL    HW130824   2.690   0.729  10.142  0.1520  0.8633  0.5239
 6454SOL    HW230825   2.784   0.769  10.030 -0.4674  1.2554 -0.6901
 6455SOL     OW30826   1.735   1.554   9.070  0.1019 -0.1722  0.0440
 6455SOL    HW130827   1.669   1.489   9.093  1.8519 -1.1452  2.2902
 6455SOL    HW230828   1.765   1.584   9.156  3.4804 -0.3655 -1.0393
 6456SOL     OW30829   0.349   2.400   8.202  0.2401  0.0472 -0.5136
 6456SOL    HW130830   0.444   2.408   8.199  0.2260  1.0566  1.7293
 6456SOL    HW230831   0.333   2.466   8.269  1.0356  2.6612 -2.8920
 6457SOL     OW30832   1.140   2.151   5.839  0.7217 -0.1033 -0.1395
 6457SOL    HW130833   1.198   2.134   5.913  1.3109  4.3450  0.4013
 6457SOL    HW230834   1.067   2.201   5.875 -0.4377 -0.7967 -1.4973
 6458SOL     OW30835   4.556   3.326   9.025  0.0600 -0.3489 -0.3139
 6458SOL    HW130836   4.536   3.410   8.983 -0.2027  0.2771  1.0804
 6458SOL    HW230837   4.645   3.348   9.052 -0.8440  0.2009  2.2109
 6459SOL     OW30838   1.361   2.110   8.355 -0.3450 -0.6737  0.4489
 6459SOL    HW130839   1.390   2.122   8.445  0.6618  2.2606 -0.2925
 6459SOL    HW230840   1.441   2.107   8.303 -0.7135  0.3389 -0.1562
 6460SOL     OW30841   2.062   0.326   7.918 -0.0997 -0.3009  0.0895
 6460SOL    HW130842   1.980   0.344   7.871  0.8998 -1.4575 -2.0877
 6460SOL    HW230843   2.060   0.412   7.959 -1.6993 -0.8608  1.2090
 6461SOL     OW30844   2.078   2.026   0.976  0.0744  0.1902 -0.7039
 6461SOL    HW130845   1.983   2.038   0.972 -0.3551 -2.1810  2.1464
 6461SOL    HW230846   2.092   2.041   1.070  0.3839  0.4049 -0.7842
 6462SOL     OW30847   3.610   0.444  13.393  0.9026 -0.7085 -0.4630
 6462SOL    HW130848   3.628   0.357  13.428 -0.6062  0.0587  2.1630
 6462SOL    HW230849   3.576   0.427  13.305  0.1189 -0.3222 -0.2303
 6463SOL     OW30850   0.804   1.827   9.576  0.3530 -0.1118  0.2248
 6463SOL    HW130851   0.792   1.778   9.495  3.1832  0.9398 -0.8531
 6463SOL    HW230852   0.898   1.845   9.573 -0.1033  1.9622 -1.9224
 6464SOL     OW30853   2.680   3.578   4.670  0.1131 -0.2947  0.2828
 6464SOL    HW130854   2.762   3.623   4.688 -0.1897  1.1795 -2.1226
 6464SOL    HW230855   2.625   3.650   4.642  1.9691  0.7159 -0.7459
 6465SOL     OW30856   1.261   4.179  13.018  0.1347 -0.0552 -0.3116
 6465SOL    HW130857   1.200   4.153  12.949  2.4617 -2.5743 -1.4552
 6465SOL    HW230858   1.344   4.139  12.991  0.8823  0.6705  0.9141
 6466SOL     OW30859   2.364   0.719  17.627 -0.0447 -0.0892  0.0956
 6466SOL    HW130860   2.379   0.705  17.534 -1.2527  0.0017 -0.1095
 6466SOL    HW230861   2.319   0.638  17.651  0.9168 -0.2932  1.1931
 6467SOL     OW30862   3.100   2.956  12.236 -0.1513  0.1990  0.2588
 6467SOL    HW130863   3.045   3.031  12.216 -0.8139 -0.5773 -0.8202
 6467SOL    HW230864   3.164   2.953  12.164  1.6729  1.1268  1.8570
 6468SOL     OW30865   1.395   2.791  16.003  0.4163  0.1770  0.3777
 6468SOL    HW130866   1.301   2.780  16.020  0.2455  2.7768  1.0841
 6468SOL    HW230867   1.386   2.858  15.935 -1.6784  0.7573  1.2405
 6469SOL     OW30868   1.939   1.295  12.263 -0.5819  0.4807  0.3376
 6469SOL    HW130869   1.904   1.219  12.215 -1.3979  1.1307 -0.1062
 6469SOL    HW230870   1.953   1.355  12.189  0.1224 -1.0148 -0.7481
 6470SOL     OW30871   2.302   0.702   2.948 -0.2546 -0.7326  0.1072
 6470SOL    HW130872   2.355   0.773   2.912 -2.0110  0.6454  0.2571
 6470SOL    HW230873   2.277   0.656   2.868  2.3327 -1.9782 -0.0031
 6471SOL     OW30874   2.945   4.717   8.182  0.2405 -0.5137 -0.2407
 6471SOL    HW130875   2.863   0.001   8.133  1.7053 -1.0573 -2.7765
 6471SOL    HW230876   2.978   4.628   8.175  1.8704  0.0700  0.0712
 6472SOL     OW30877   3.585   4.165   4.280  0.3374  0.6619 -0.2158
 6472SOL    HW130878   3.568   4.226   4.208  0.1168 -0.0156 -0.7399
 6472SOL    HW230879   3.583   4.083   4.231  0.7181  0.6628 -0.2277
 6473SOL     OW30880   3.559   3.392   8.125 -0.2052 -0.2488 -0.7152
 6473SOL    HW130881   3.517   3.338   8.058  0.4068 -1.9301  0.2462
 6473SOL    HW230882   3.490   3.379   8.190 -0.1048 -0.7641 -0.7148
 6474SOL     OW30883   1.724   2.420   2.712  0.1884  0.0455 -0.3707
 6474SOL    HW130884   1.730   2.430   2.617 -3.1386  3.2424 -0.2619
 6474SOL    HW230885   1.817   2.413   2.735  0.2976  1.6853 -0.3175
 6475SOL     OW30886   3.616   0.195  15.332 -0.2756 -0.5365  0.2651
 6475SOL    HW130887   3.569   0.220  15.412  0.5149  1.4315  0.1102
 6475SOL    HW230888   3.666   0.122  15.369  1.1600  0.2206 -0.1728
 6476SOL     OW30889   0.042   2.994   4.644  0.2055 -0.1732 -0.0639
 6476SOL    HW130890   4.705   3.012   4.716  0.6796  1.3405 -0.0559
 6476SOL    HW230891   0.089   3.077   4.651  2.4938 -1.4557 -0.2158
 6477SOL     OW30892   4.119   0.867   4.591 -0.1537  0.5009 -0.3371
 6477SOL    HW130893   4.092   0.939   4.534 -0.7750 -0.0926 -0.7975
 6477SOL    HW230894   4.200   0.900   4.630  0.5241  0.1622 -1.4611
 6478SOL     OW30895   0.950   2.985   8.376 -0.0688  0.1024  0.0095
 6478SOL    HW130896   0.859   2.974   8.405  0.5046  1.2950  2.2632
 6478SOL    HW230897   1.011   2.974   8.449  0.2254 -0.1232 -0.2712
 6479SOL     OW30898   3.420   3.749   4.305 -0.7020  0.0079 -0.0952
 6479SOL    HW130899   3.361   3.676   4.289  1.0674 -1.4070 -0.1766
 6479SOL    HW230900   3.378   3.800   4.375  0.9797  0.3009  0.7139
 6480SOL     OW30901   0.281   0.337  11.059 -0.1924 -0.2788  0.1929
 6480SOL    HW130902   0.224   0.320  10.984  0.2282  0.1176 -0.2247
 6480SOL    HW230903   0.361   0.285  11.047  0.7550  0.7963  1.8775
 6481SOL     OW30904   2.869   2.214   5.103 -0.4839  0.3982  0.1219
 6481SOL    HW130905   2.964   2.222   5.093  0.0706 -0.3448  4.7223
 6481SOL    HW230906   2.855   2.135   5.050 -2.0083 -1.3030  3.0341
 6482SOL     OW30907   3.443   4.066   8.500  0.5346  0.3026  0.0633
 6482SOL    HW130908   3.404   4.068   8.413  0.8574  0.4581 -0.0764
 6482SOL    HW230909   3.453   3.971   8.511 -2.7865 -0.3863 -2.7181
 6483SOL     OW30910   1.941   3.497  10.403  0.7071  0.1243 -0.0081
 6483SOL    HW130911   2.035   3.492  10.385  0.3612 -0.7061 -1.6144
 6483SOL    HW230912   1.913   3.446  10.327  0.4252 -2.8531  2.1162
 6484SOL     OW30913   3.760   1.021   2.706  0.5938  0.2833  0.1250
 6484SOL    HW130914   3.784   1.046   2.795  3.3926 -0.3760 -0.4617
 6484SOL    HW230915   3.850   0.998   2.681  0.0512 -2.2559  0.4800
 6485SOL     OW30916   1.669   4.154  11.354  0.5522  0.5290 -0.3221
 6485SOL    HW130917   1.582   4.189  11.333  0.7130  1.6766  0.9542
 6485SOL    HW230918   1.696   4.139  11.263 -0.7579  3.2101 -1.1553
 6486SOL     OW30919   3.550   2.455   2.657 -0.0167  0.1064  0.4253
 6486SOL    HW130920   3.629   2.494   2.620 -2.1632  2.5050 -1.6168
 6486SOL    HW230921   3.529   2.528   2.714  0.8129  1.9572 -1.6553
 6487SOL     OW30922   3.114   4.502   3.803 -0.1194 -0.1676  0.4275
 6487SOL    HW130923   3.133   4.529   3.893 -2.0632  1.4357  0.3688
 6487SOL    HW230924   3.197   4.529   3.763 -0.6570  1.2773  0.2627
 6488SOL     OW30925   0.127   1.450   0.624  0.1201  0.4507 -0.0599
 6488SOL    HW130926   0.154   1.398   0.549 -0.8678  0.7080 -0.5890
 6488SOL    HW230927   0.034   1.428   0.621  0.4225 -1.0986  1.8003
 6489SOL     OW30928   2.810   2.876   1.845  0.5076 -0.1399  0.1467
 6489SOL    HW130929   2.747   2.945   1.866 -0.4588 -1.2795  0.9958
 6489SOL    HW230930   2.846   2.896   1.759 -0.2925 -0.8062 -0.3371
 6490SOL     OW30931   3.023   4.175  11.727  0.3723 -0.8095 -0.9057
 6490SOL    HW130932   2.944   4.183  11.674  0.9858 -1.6853 -1.9868
 6490SOL    HW230933   3.053   4.098  11.678  2.2084  0.3579 -1.6156
 6491SOL     OW30934   0.578   3.278   5.261 -0.1714 -1.0013 -0.0607
 6491SOL    HW130935   0.595   3.289   5.355 -0.8885  0.6285 -0.1117
 6491SOL    HW230936   0.501   3.223   5.274  0.1612 -2.0233 -2.4451
 6492SOL     OW30937   0.577   0.762   1.906  0.1333 -0.1157 -0.0326
 6492SOL    HW130938   0.654   0.706   1.897 -0.4035 -0.6735 -1.1220
 6492SOL    HW230939   0.514   0.724   1.845 -0.1796 -1.0813  0.8980
 6493SOL     OW30940   1.205   0.328   1.948  0.2129 -0.8623  0.0479
 6493SOL    HW130941   1.196   0.373   1.864 -0.3543  0.7457  0.9686
 6493SOL    HW230942   1.242   0.248   1.912  0.3883 -0.5347 -0.4953
 6494SOL     OW30943   2.703   1.171   8.777  0.0230 -0.7359 -0.0896
 6494SOL    HW130944   2.798   1.181   8.774 -0.1456  0.4793 -1.6725
 6494SOL    HW230945   2.673   1.234   8.711  2.0390  0.3338  0.0142
 6495SOL     OW30946   0.136   1.980  11.915 -0.0822 -0.0827 -0.7159
 6495SOL    HW130947   0.098   2.012  11.834  0.1950 -1.0123 -1.2039
 6495SOL    HW230948   0.058   1.963  11.967  0.8385  0.0517  0.7254
 6496SOL     OW30949   1.999   2.057  13.454  0.3362  0.3816  0.0368
 6496SOL    HW130950   1.942   2.109  13.511 -1.1000 -0.7447 -0.3497
 6496SOL    HW230951   1.994   1.979  13.509  1.3488  0.0572 -0.3524
 6497SOL     OW30952   0.137   2.144   8.557 -0.1931  0.8021 -0.1345
 6497SOL    HW130953   0.130   2.187   8.472  0.8589  0.8503 -0.1901
 6497SOL    HW230954   0.210   2.194   8.594  0.1666  0.1014  0.1201
 6498SOL     OW30955   0.921   3.420  16.281 -0.1799 -0.9494 -0.0351
 6498SOL    HW130956   0.983   3.371  16.227 -1.0826 -2.8448  0.6567
 6498SOL    HW230957   0.843   3.377  16.244 -0.3509 -0.9380  0.3074
 6499SOL     OW30958   0.129   3.450   2.025  0.7633  0.1973 -0.3096
 6499SOL    HW130959   0.104   3.465   2.116 -0.8221  0.6684 -0.8158
 6499SOL    HW230960   0.068   3.378   2.008  0.4176  0.1820  1.0358
 6500SOL     OW30961   0.644   2.420   7.018 -0.2687 -0.3007  0.0884
 6500SOL    HW130962   0.637   2.417   6.922  0.5978  3.8243 -0.0879
 6500SOL    HW230963   0.666   2.512   7.029  2.6480 -0.6983 -2.2402
 6501SOL     OW30964   3.111   4.432   3.016 -0.1373  0.3334  0.4662
 6501SOL    HW130965   3.135   4.488   2.942 -0.4644  1.4218  1.1722
 6501SOL    HW230966   3.195   4.415   3.059  0.3667  0.6174 -0.4160
 6502SOL     OW30967   2.519   3.359  14.825  0.3128 -0.7386  0.0972
 6502SOL    HW130968   2.549   3.347  14.735  0.9706 -2.0725  0.4970
 6502SOL    HW230969   2.431   3.322  14.815 -0.0298  0.4249 -1.1599
 6503SOL     OW30970   4.493   1.071   3.256  0.7017  0.4795 -0.8491
 6503SOL    HW130971   4.468   1.145   3.200 -0.8590  0.0237 -0.7589
 6503SOL    HW230972   4.415   1.016   3.250  0.6997  0.3693  0.1968
 6504SOL     OW30973   3.126   3.206   1.142  0.0475  0.2177 -0.1190
 6504SOL    HW130974   3.122   3.278   1.078  0.4016 -0.0669 -0.4618
 6504SOL    HW230975   3.203   3.242   1.187  1.7221 -0.7354 -2.1848
 6505SOL     OW30976   0.776   0.322   6.550 -0.4481  0.1535  0.1667
 6505SOL    HW130977   0.739   0.403   6.586 -0.6744  0.7128 -1.3286
 6505SOL    HW230978   0.868   0.347   6.539 -0.1806 -1.0828 -0.3856
 6506SOL     OW30979   1.116   3.876   5.446  0.3187  0.1659 -0.5129
 6506SOL    HW130980   1.061   3.880   5.368  1.6692 -0.9875 -1.5296
 6506SOL    HW230981   1.067   3.931   5.507  1.9142  1.4401 -0.3587
 6507SOL     OW30982   0.178   4.429   5.812  0.4351 -0.1933 -0.2047
 6507SOL    HW130983   0.116   4.482   5.862  0.6538 -0.4886  0.3770
 6507SOL    HW230984   0.262   4.466   5.839 -0.1617  0.8026  0.2809
 6508SOL     OW30985   2.888   1.015   2.960 -0.6651  0.0540  0.1853
 6508SOL    HW130986   2.862   0.960   2.886  0.1666 -1.7926  1.2678
 6508SOL    HW230987   2.905   0.951   3.029 -1.9720  1.0959  1.4674
 6509SOL     OW30988   0.627   4.157   1.468 -0.0820 -0.5243 -0.3913
 6509SOL    HW130989   0.559   4.188   1.526  2.4021  0.1560  2.1520
 6509SOL    HW230990   0.640   4.068   1.503  1.2231  0.8020  2.4751
 6510SOL     OW30991   4.671   4.094   3.676  0.0593 -0.9709 -0.1093
 6510SOL    HW130992   4.660   4.002   3.700  0.7662 -1.0911 -0.2334
 6510SOL    HW230993   4.648   4.086   3.583 -0.4716  3.2602 -0.3451
 6511SOL     OW30994   2.072   0.453   5.226 -0.4572 -0.0883  0.8655
 6511SOL    HW130995   2.084   0.365   5.263 -2.0568 -1.0582 -0.9043
 6511SOL    HW230996   2.085   0.504   5.306  0.4718  0.3170  0.4503
 6512SOL     OW30997   2.858   0.530   0.486 -0.5274  0.5198 -0.4843
 6512SOL    HW130998   2.807   0.595   0.438 -0.2493  0.5296 -0.7696
 6512SOL    HW230999   2.944   0.539   0.444  0.5945 -0.9564  1.4843
 6513SOL     OW31000   1.171   0.029  16.409  0.0245  0.1085 -0.3065
 6513SOL    HW131001   1.172   0.107  16.353  0.8750  0.5366  0.2871
 6513SOL    HW231002   1.128   4.683  16.357  0.2760 -0.6339  0.4529
 6514SOL     OW31003   3.565   0.186   6.337  0.3142  0.2536  0.3316
 6514SOL    HW131004   3.620   0.129   6.391 -0.1189 -1.5219 -1.1111
 6514SOL    HW231005   3.620   0.193   6.259  1.5610 -1.0273  1.0929
 6515SOL     OW31006   1.476   2.218   5.580 -0.2944 -0.6197 -0.1070
 6515SOL    HW131007   1.421   2.242   5.654  0.4131  0.8247 -0.0594
 6515SOL    HW231008   1.519   2.300   5.556  0.6875 -0.8658  0.8339
 6516SOL     OW31009   0.194   0.977   3.598  0.0537  0.4953  0.0058
 6516SOL    HW131010   0.176   1.067   3.624 -2.2487 -0.0200  0.1418
 6516SOL    HW231011   0.124   0.960   3.535  0.1042 -1.1411  0.4131
 6517SOL     OW31012   2.918   2.404   8.671 -0.2094  0.6243  0.0847
 6517SOL    HW131013   2.986   2.351   8.630 -0.7665  0.0524 -0.0948
 6517SOL    HW231014   2.974   2.472   8.708  1.1311  0.0566 -0.9095
 6518SOL     OW31015   0.179   1.076   2.499 -0.7121 -0.4787  0.1879
 6518SOL    HW131016   0.159   1.027   2.579 -1.2446  1.1087  1.0183
 6518SOL    HW231017   0.153   1.163   2.528 -0.4701 -0.2311 -0.3559
 6519SOL     OW31018   3.199   1.981   4.997  0.5926 -0.3472 -0.0760
 6519SOL    HW131019   3.152   1.955   5.075 -0.2149  1.0936 -0.0784
 6519SOL    HW231020   3.198   2.075   5.019  0.7525 -0.2848 -0.3314
 6520SOL     OW31021   0.593   2.936   7.126 -0.1611  0.0095 -0.0517
 6520SOL    HW131022   0.534   2.983   7.066 -0.3478  0.2750  0.3366
 6520SOL    HW231023   0.607   3.007   7.188 -0.1102 -1.4160  1.5597
 6521SOL     OW31024   1.499   1.819  15.724 -0.0561  0.1447 -0.4914
 6521SOL    HW131025   1.561   1.820  15.651 -0.0528 -0.2003 -0.4926
 6521SOL    HW231026   1.493   1.912  15.746  4.4068  0.6025 -1.2571
 6522SOL     OW31027   4.646   2.155   9.443  0.6596 -0.1125  0.5248
 6522SOL    HW131028   4.658   2.163   9.348  2.8618 -3.1410  0.5412
 6522SOL    HW231029   4.722   2.200   9.480 -0.5111  0.0266  2.7260
 6523SOL     OW31030   2.045   0.782   9.428  0.2477  0.3500 -0.2283
 6523SOL    HW131031   1.956   0.748   9.442  0.6852 -0.1904  1.2676
 6523SOL    HW231032   2.043   0.806   9.335 -2.3643 -2.3966 -0.9001
 6524SOL     OW31033   4.590   0.541   7.836  0.0260  0.4401  0.2621
 6524SOL    HW131034   4.591   0.458   7.884  0.6171  0.4804  0.3231
 6524SOL    HW231035   4.596   0.602   7.909  0.0213  0.2092  0.4552
 6525SOL     OW31036   1.879   3.651   9.623  0.0327  0.0094 -0.0111
 6525SOL    HW131037   1.850   3.709   9.553 -1.4463 -1.3405 -0.5044
 6525SOL    HW231038   1.957   3.622   9.575 -1.0583  0.5482 -2.1108
 6526SOL     OW31039   3.502   3.755   3.161  0.0412  0.3090 -0.5018
 6526SOL    HW131040   3.445   3.721   3.092 -0.4693 -0.7545  0.4415
 6526SOL    HW231041   3.575   3.692   3.157  1.7464  2.2545 -0.1148
 6527SOL     OW31042   2.147   0.061   7.548 -0.0753 -0.0726  0.5063
 6527SOL    HW131043   2.056   0.090   7.555  0.0021 -0.1280  1.8525
 6527SOL    HW231044   2.192   0.132   7.595 -0.7602  0.5793  0.1813
 6528SOL     OW31045   2.886   3.135   4.083  0.3316  0.6386  1.0744
 6528SOL    HW131046   2.854   3.059   4.132 -0.8887 -0.6677 -1.7438
 6528SOL    HW231047   2.896   3.100   3.994 -2.2203  0.9612  0.6408
 6529SOL     OW31048   1.170   4.241   6.001 -0.4830  0.0768  0.2248
 6529SOL    HW131049   1.142   4.150   6.006  0.7208 -0.2701  0.5835
 6529SOL    HW231050   1.259   4.230   6.034  0.3301  1.1615 -1.5811
 6530SOL     OW31051   0.991   2.460   4.586 -0.0239  0.4557  0.2972
 6530SOL    HW131052   0.985   2.365   4.580  1.9659  0.4771 -1.8632
 6530SOL    HW231053   0.896   2.475   4.592  0.0227  1.2043 -0.6844
 6531SOL     OW31054   3.843   3.684   8.112 -0.2269 -0.2505 -0.3700
 6531SOL    HW131055   3.904   3.636   8.169  0.9898 -0.1148 -1.5534
 6531SOL    HW231056   3.886   3.687   8.027 -1.4252 -1.9115 -1.0376
 6532SOL     OW31057   2.433   3.448   6.785 -0.2345  0.1056 -0.0620
 6532SOL    HW131058   2.379   3.483   6.857  0.0208 -2.3135  1.2991
 6532SOL    HW231059   2.367   3.407   6.730  0.3430 -0.1002 -0.6018
 6533SOL     OW31060   3.505   2.460   5.067  0.2404  0.5919 -0.1012
 6533SOL    HW131061   3.469   2.549   5.060 -1.0499  0.2864  2.5641
 6533SOL    HW231062   3.432   2.419   5.113  0.5372  0.1224 -0.0514
 6534SOL     OW31063   4.627   1.618   8.885 -0.1439 -0.0401 -0.4990
 6534SOL    HW131064   4.644   1.571   8.803 -0.3256 -1.5751  0.3476
 6534SOL    HW231065   4.720   1.630   8.904 -0.4196 -1.2773  1.5437
 6535SOL     OW31066   2.129   0.629  11.944 -0.4525  0.0569 -0.3491
 6535SOL    HW131067   2.068   0.598  11.876  0.0300  0.7489 -1.1067
 6535SOL    HW231068   2.193   0.675  11.889 -0.2187  0.4645  0.2651
 6536SOL     OW31069   1.318   2.654   7.288  1.0113  0.0541 -0.2134
 6536SOL    HW131070   1.361   2.671   7.205  0.7988 -1.8198 -0.7204
 6536SOL    HW231071   1.227   2.652   7.259  1.1235 -0.0708 -0.5556
 6537SOL     OW31072   1.368   0.966   3.266  0.7241 -0.0129  0.1596
 6537SOL    HW131073   1.284   1.003   3.240  0.9680  0.9610  0.7829
 6537SOL    HW231074   1.341   0.910   3.339  3.2293 -0.4481  0.7552
 6538SOL     OW31075   2.335   2.171   6.793  0.1168 -0.1061  0.1771
 6538SOL    HW131076   2.322   2.082   6.761  0.3086 -0.1929  0.3387
 6538SOL    HW231077   2.253   2.186   6.842 -0.4398 -1.4696 -0.3569
 6539SOL     OW31078   1.313   1.458   5.444  0.0360  0.0078  0.0816
 6539SOL    HW131079   1.252   1.437   5.516  1.0392 -1.4337  0.5318
 6539SOL    HW231080   1.346   1.544   5.468  0.4573 -0.3460  0.8095
 6540SOL     OW31081   3.679   0.593   9.539 -0.4572  0.4534 -0.6944
 6540SOL    HW131082   3.685   0.628   9.628 -2.3014  0.5443 -0.6131
 6540SOL    HW231083   3.750   0.645   9.501  2.0468 -2.7088 -0.2699
 6541SOL     OW31084   1.474   4.362  12.312  0.1419  0.0360  0.3625
 6541SOL    HW131085   1.537   4.422  12.353 -1.2664  1.1996  0.8092
 6541SOL    HW231086   1.509   4.352  12.224  3.9740 -0.3149  1.9311
 6542SOL     OW31087   2.294   3.332   9.220  0.0507  0.6417 -0.1073
 6542SOL    HW131088   2.237   3.407   9.208 -0.3788  0.2384 -0.6265
 6542SOL    HW231089   2.385   3.362   9.219  0.6678 -1.2377 -0.4002
 6543SOL     OW31090   3.822   2.945   4.409 -0.2279 -0.1419 -0.1116
 6543SOL    HW131091   3.741   2.910   4.447 -0.7100 -0.2450 -1.2260
 6543SOL    HW231092   3.808   2.943   4.314  1.6945  1.3832 -0.4195
 6544SOL     OW31093   2.632   2.020   1.004 -0.3324  0.0564 -0.3510
 6544SOL    HW131094   2.589   1.958   0.946  0.4824 -2.7287  1.9740
 6544SOL    HW231095   2.561   2.048   1.062 -1.3196 -1.6387 -0.7440
 6545SOL     OW31096   0.606   1.774   3.233  0.1991 -0.2957 -0.4271
 6545SOL    HW131097   0.587   1.715   3.306  1.3200  0.9438  0.8602
 6545SOL    HW231098   0.688   1.814   3.260 -0.3979  0.2977  0.5166
 6546SOL     OW31099   0.358   0.499  10.027  0.1452  0.4091  0.0918
 6546SOL    HW131100   0.310   0.551  10.091  0.4971  0.6170  0.1869
 6546SOL    HW231101   0.287   0.453   9.980 -0.6737  2.1381 -0.3486
 6547SOL     OW31102   1.178   0.257  14.236  0.1978 -0.0134  0.5149
 6547SOL    HW131103   1.192   0.163  14.249  2.1085  0.2907  0.7458
 6547SOL    HW231104   1.266   0.277  14.268  0.1281 -3.2082  2.6876
 6548SOL     OW31105   2.998   3.197   5.646  0.1694 -0.0008 -0.4049
 6548SOL    HW131106   3.013   3.138   5.720 -1.0889 -0.4289 -0.4861
 6548SOL    HW231107   2.970   3.276   5.693  0.6328  0.0219 -0.1634
 6549SOL     OW31108   0.392   0.650   5.425 -0.2796  0.4492  0.1711
 6549SOL    HW131109   0.338   0.596   5.483 -0.8899  1.2283  0.3291
 6549SOL    HW231110   0.418   0.712   5.492 -0.4384 -2.0636  2.5581
 6550SOL     OW31111   2.486   2.825   7.108 -0.5698  0.3382  0.0008
 6550SOL    HW131112   2.505   2.768   7.182  0.2617  1.6394  0.7985
 6550SOL    HW231113   2.547   2.788   7.044 -1.6681 -0.6386 -0.4831
 6551SOL     OW31114   3.477   3.072  10.852  0.6178 -0.4022 -0.3250
 6551SOL    HW131115   3.477   2.981  10.822  1.1884 -0.5646  0.1669
 6551SOL    HW231116   3.571   3.086  10.839  1.0595 -0.8295  2.4688
 6552SOL     OW31117   2.421   2.988  10.916  0.4554 -0.2298 -0.0874
 6552SOL    HW131118   2.342   2.995  10.970  0.9334  1.2850  0.4150
 6552SOL    HW231119   2.434   3.078  10.887  2.2833 -0.0707  1.2260
 6553SOL     OW31120   1.060   1.421  12.331 -0.5559 -0.4761  0.1416
 6553SOL    HW131121   1.037   1.328  12.341 -2.7883 -0.0024 -0.6237
 6553SOL    HW231122   1.066   1.419  12.236  1.1211 -3.8321  0.2988
 6554SOL     OW31123   2.719   1.833   8.039 -0.1116  0.4302 -0.0742
 6554SOL    HW131124   2.728   1.928   8.034 -1.3344  0.4437 -2.2405
 6554SOL    HW231125   2.803   1.806   8.077  0.0593  1.8320  0.5351
 6555SOL     OW31126   3.286   3.655   2.976 -0.7456  0.2612  0.1573
 6555SOL    HW131127   3.243   3.584   2.927 -0.5064 -0.1956  0.6060
 6555SOL    HW231128   3.323   3.699   2.899 -0.9357  1.0216  0.5116
 6556SOL     OW31129   3.701   3.767   8.812  0.6298  0.5191 -0.1638
 6556SOL    HW131130   3.692   3.797   8.902  0.0826 -0.1124 -0.0102
 6556SOL    HW231131   3.608   3.755   8.792  0.9447 -0.9609 -0.7010
 6557SOL     OW31132   2.717   4.189   5.909 -0.1092  0.5127  0.7597
 6557SOL    HW131133   2.637   4.242   5.907 -0.6875 -0.3673  0.3822
 6557SOL    HW231134   2.746   4.217   5.995  1.8932 -3.9229  1.5275
 6558SOL     OW31135   4.578   0.759   5.664 -0.0891  0.2074  0.4420
 6558SOL    HW131136   4.495   0.735   5.705 -0.0236 -1.7281 -0.6065
 6558SOL    HW231137   4.634   0.704   5.720  0.5164  0.2739 -0.0983
 6559SOL     OW31138   0.453   2.065  11.784  0.4805  0.3208 -0.0758
 6559SOL    HW131139   0.377   2.083  11.728 -1.1734 -1.1021  1.7443
 6559SOL    HW231140   0.430   1.990  11.838 -1.6789 -0.5902 -2.2446
 6560SOL     OW31141   2.136   3.691  13.419  0.1632 -0.1403  0.4337
 6560SOL    HW131142   2.075   3.650  13.480  0.7229 -2.7515 -0.7645
 6560SOL    HW231143   2.219   3.705  13.464  1.3265 -0.7328 -1.5466
 6561SOL     OW31144   1.437   2.176   8.621  0.4349 -0.1045 -0.2083
 6561SOL    HW131145   1.454   2.237   8.692  1.1987 -0.4311 -0.1146
 6561SOL    HW231146   1.501   2.108   8.641  0.4438 -0.7387 -2.3128
 6562SOL     OW31147   4.027   2.786   3.473  0.4315  0.6449  1.0237
 6562SOL    HW131148   4.035   2.810   3.381 -3.8021  0.4095  0.5816
 6562SOL    HW231149   3.963   2.715   3.465 -0.8439  2.1627 -2.0354
 6563SOL     OW31150   0.309   3.365  13.195  0.1352  0.8937  0.6167
 6563SOL    HW131151   0.251   3.319  13.255 -1.4851  0.4622 -1.2914
 6563SOL    HW231152   0.250   3.371  13.120  0.1420 -0.0188  0.5294
 6564SOL     OW31153   3.403   4.448   7.944 -0.2212 -0.3685 -0.1412
 6564SOL    HW131154   3.467   4.519   7.948  0.8548 -1.3235 -0.6483
 6564SOL    HW231155   3.431   4.409   8.027 -0.6284  2.4745  1.3289
 6565SOL     OW31156   2.726   0.362   5.284 -0.3737 -0.1330 -0.2905
 6565SOL    HW131157   2.636   0.352   5.317 -0.3414 -0.5654 -0.3363
 6565SOL    HW231158   2.748   0.448   5.321 -1.1949  0.8195 -2.0335
 6566SOL     OW31159   0.987   2.145   3.658  0.1359  0.6570 -0.0769
 6566SOL    HW131160   1.075   2.168   3.628  0.1400  1.1346  0.3106
 6566SOL    HW231161   1.003   2.132   3.751  0.0437 -1.0999 -0.3077
 6567SOL     OW31162   0.081   1.758   0.917 -0.5071 -0.1083  0.4092
 6567SOL    HW131163   4.711   1.759   0.890 -0.8166  2.4587  1.5605
 6567SOL    HW231164   0.102   1.851   0.910 -0.5002 -0.2983 -2.2184
 6568SOL     OW31165   4.133   1.895   7.956 -0.3846  0.4319  0.0612
 6568SOL    HW131166   4.176   1.811   7.941  0.2825  0.5700  1.1775
 6568SOL    HW231167   4.138   1.888   8.052  3.0461 -1.7772 -0.2679
 6569SOL     OW31168   3.951   4.486  15.501  0.2874 -0.0177  0.2568
 6569SOL    HW131169   3.891   4.482  15.576  0.6448 -0.0502  0.5431
 6569SOL    HW231170   3.927   4.575  15.476 -1.1396 -0.0522  1.4873
 6570SOL     OW31171   1.733   2.219  13.539 -0.4432  0.5378  0.5083
 6570SOL    HW131172   1.805   2.199  13.599 -0.2157 -0.4514 -0.1020
 6570SOL    HW231173   1.746   2.314  13.539 -0.1595  0.5074  2.4575
 6571SOL     OW31174   4.362   2.193  10.259  0.0350 -0.3758 -0.2206
 6571SOL    HW131175   4.289   2.252  10.274  0.7366  0.7708 -1.2801
 6571SOL    HW231176   4.308   2.124  10.220 -0.1705 -0.1540 -0.3312
 6572SOL     OW31177   0.915   1.494  13.052  0.3320  0.0584 -0.5068
 6572SOL    HW131178   0.962   1.576  13.067 -0.5921  1.1381 -3.3983
 6572SOL    HW231179   0.990   1.444  13.022  0.3538 -0.1237 -0.1466
 6573SOL     OW31180   0.190   1.972  11.270  0.0991 -0.0432 -0.0143
 6573SOL    HW131181   0.116   1.940  11.218  1.4327  0.4044 -2.1906
 6573SOL    HW231182   0.164   1.934  11.353  1.1096 -1.5187 -0.3718
 6574SOL     OW31183   3.579   3.094   6.834  0.0294  0.4539 -0.4138
 6574SOL    HW131184   3.500   3.088   6.780 -3.0337  2.2684  3.7709
 6574SOL    HW231185   3.577   3.014   6.885 -0.1469 -1.0351 -2.7745
 6575SOL     OW31186   1.270   0.771  14.380  0.1209  0.2354 -0.3777
 6575SOL    HW131187   1.237   0.713  14.311  0.3070  0.8118 -0.9560
 6575SOL    HW231188   1.190   0.813  14.414  1.0672  2.5038 -0.9351
 6576SOL     OW31189   4.078   2.244  16.389  0.4145  0.4481 -0.0981
 6576SOL    HW131190   4.101   2.153  16.368  1.9224  1.1767 -1.6031
 6576SOL    HW231191   3.986   2.248  16.362  0.3861  1.9691  0.2156
 6577SOL     OW31192   0.928   3.259  12.738 -0.0395  0.1393 -0.2762
 6577SOL    HW131193   0.979   3.297  12.666 -0.5611 -0.7092 -1.0884
 6577SOL    HW231194   0.971   3.295  12.815 -0.5427  1.5346 -0.6507
 6578SOL     OW31195   3.691   3.212   3.894 -0.1385 -0.3156 -0.7502
 6578SOL    HW131196   3.677   3.226   3.988 -0.8420  1.3706 -1.1119
 6578SOL    HW231197   3.605   3.229   3.857 -0.7708 -1.5104  0.1712
 6579SOL     OW31198   3.957   4.001   4.685 -0.0708 -0.4881  0.4882
 6579SOL    HW131199   3.933   4.065   4.619 -0.2585  1.0599  2.0748
 6579SOL    HW231200   3.876   3.996   4.736 -0.9324  2.7209 -0.5635
 6580SOL     OW31201   3.056   1.022   6.133  0.0278 -0.1169  0.6293
 6580SOL    HW131202   3.117   1.044   6.203 -1.4241  1.7794  1.2880
 6580SOL    HW231203   3.041   1.105   6.087  1.7424  0.4544  1.1085
 6581SOL     OW31204   2.059   2.051   9.844  0.4519  0.5221  0.0459
 6581SOL    HW131205   2.049   2.014   9.756 -0.3564  1.7755 -0.3944
 6581SOL    HW231206   2.017   2.137   9.843  2.4452  1.5018  2.2089
 6582SOL     OW31207   3.861   1.445  17.427  0.3294 -0.1731  0.3831
 6582SOL    HW131208   3.808   1.366  17.415  2.2860 -1.4089 -0.0209
 6582SOL    HW231209   3.924   1.411  17.490  1.5542 -0.6183 -1.1011
 6583SOL     OW31210   4.325   0.936   8.033 -0.1402 -0.4316 -0.0089
 6583SOL    HW131211   4.239   0.973   8.013  0.8637  0.8356 -1.9863
 6583SOL    HW231212   4.386   0.991   7.984  2.9056 -1.2380  2.8114
 6584SOL     OW31213   2.624   3.252   7.230  0.0183  0.4599  0.4144
 6584SOL    HW131214   2.700   3.270   7.174  0.5046 -1.2402  0.5229
 6584SOL    HW231215   2.567   3.326   7.209 -1.7857 -0.8588  0.6721
 6585SOL     OW31216   1.567   3.403   6.511  0.0913  0.6103  0.2495
 6585SOL    HW131217   1.569   3.309   6.494  1.1677  0.6361  0.2528
 6585SOL    HW231218   1.554   3.410   6.605 -1.8894 -1.8542  0.1533
 6586SOL     OW31219   2.190   1.557  15.376 -0.4829 -0.2095  0.2482
 6586SOL    HW131220   2.264   1.542  15.317  0.4589 -1.5589  1.7987
 6586SOL    HW231221   2.140   1.633  15.345 -0.6780 -1.2666 -2.0519
 6587SOL     OW31222   0.153   2.503   6.611  0.1797  0.0242  0.4477
 6587SOL    HW131223   0.072   2.452   6.609  0.4516 -0.3615 -0.7545
 6587SOL    HW231224   0.217   2.448   6.564 -0.0180 -0.5470  0.8502
 6588SOL     OW31225   3.906   0.640   2.689  0.0290  0.4063  0.5279
 6588SOL    HW131226   3.819   0.676   2.679  0.4526  1.4061  0.4760
 6588SOL    HW231227   3.911   0.567   2.627  1.0825 -0.0832  1.1861
 6589SOL     OW31228   0.491   3.867   4.707  0.3688  0.0765 -0.0435
 6589SOL    HW131229   0.517   3.821   4.627 -1.8820 -2.5227  0.7280
 6589SOL    HW231230   0.487   3.812   4.786 -0.7215 -2.3301 -1.7793
 6590SOL     OW31231   4.380   1.916   6.942 -0.4840  0.0244  0.2098
 6590SOL    HW131232   4.421   1.999   6.968  0.9688 -1.6088  3.1728
 6590SOL    HW231233   4.438   1.869   7.003 -0.7415  0.8719  1.0993
 6591SOL     OW31234   4.002   1.017   3.551  0.5695  0.2986 -0.4969
 6591SOL    HW131235   3.946   0.948   3.517  2.9261 -1.4753 -0.8018
 6591SOL    HW231236   4.039   0.969   3.626 -3.3012 -1.3260  0.3659
 6592SOL     OW31237   0.975   4.121  10.777 -0.4889 -0.1981  0.4121
 6592SOL    HW131238   1.042   4.183  10.751 -0.4170 -0.6324 -0.4376
 6592SOL    HW231239   1.004   4.032  10.759  1.0345  0.5229 -0.6819
 6593SOL     OW31240   2.725   0.141   4.015 -0.5209 -0.0512  0.1685
 6593SOL    HW131241   2.779   0.215   4.040 -1.1605 -0.2602  2.1531
 6593SOL    HW231242   2.792   0.072   4.013 -1.1871 -0.7133  0.6965
 6594SOL     OW31243   3.247   2.949   5.272 -0.7388 -0.0686  0.4219
 6594SOL    HW131244   3.313   2.963   5.204  0.6841 -3.3644  1.1641
 6594SOL    HW231245   3.164   2.978   5.233 -0.9896 -1.2690  0.0648
 6595SOL     OW31246   3.951   3.118  16.269 -0.3750  0.2623 -0.0329
 6595SOL    HW131247   3.940   3.180  16.341 -2.6044 -2.2976  1.8524
 6595SOL    HW231248   3.955   3.175  16.193  1.3912  0.0807 -0.0753
 6596SOL     OW31249   2.588   2.625   1.060  0.3423 -0.0317  0.1364
 6596SOL    HW131250   2.665   2.663   1.018  0.5939 -0.3861  0.2779
 6596SOL    HW231251   2.581   2.662   1.148 -0.1704  0.1900  0.0039
 6597SOL     OW31252   2.568   1.937   1.586 -0.0884  0.1517  0.5854
 6597SOL    HW131253   2.573   2.032   1.580 -0.4230  0.1445  0.1580
 6597SOL    HW231254   2.660   1.923   1.610  0.1953 -1.1469 -1.2627
 6598SOL     OW31255   1.472   2.313   4.141  0.0662  0.1162  0.4693
 6598SOL    HW131256   1.533   2.373   4.183 -0.6317  1.1336  0.0389
 6598SOL    HW231257   1.497   2.341   4.053  2.3655  1.2373  1.4851
 6599SOL     OW31258   3.950   0.426   8.792  0.1482  0.0465  0.2681
 6599SOL    HW131259   4.021   0.459   8.847  0.0649  0.2061  0.2821
 6599SOL    HW231260   3.984   0.342   8.763  1.2070  0.6751 -0.3156
 6600SOL     OW31261   1.111   3.741  11.225  0.1944  0.0182  0.2873
 6600SOL    HW131262   1.102   3.690  11.305  2.0482  1.9708  1.7559
 6600SOL    HW231263   1.206   3.752  11.221  0.1411  0.6832  0.8386
 6601SOL     OW31264   2.522   0.374   8.556 -0.8239  0.3477 -0.1728
 6601SOL    HW131265   2.502   0.465   8.576  3.1086  1.0087  0.6618
 6601SOL    HW231266   2.439   0.339   8.522 -1.0742  1.4498 -0.6722
 6602SOL     OW31267   0.262   4.111  12.448  0.4924  0.5114  0.1625
 6602SOL    HW131268   0.206   4.171  12.497 -1.5855  2.2579 -4.3454
 6602SOL    HW231269   0.329   4.168  12.411 -0.2232  1.9803  1.1402
 6603SOL     OW31270   0.571   3.480   3.600 -0.0468 -0.1441 -0.0613
 6603SOL    HW131271   0.571   3.412   3.533  1.2488 -1.6807  1.4889
 6603SOL    HW231272   0.534   3.556   3.556  0.2141 -1.3494 -2.3646
 6604SOL     OW31273   2.738   0.098  14.124  0.4354  0.7045 -0.0193
 6604SOL    HW131274   2.675   0.082  14.194  1.2243  1.7947  0.9337
 6604SOL    HW231275   2.696   0.041  14.060 -0.7571 -0.4006  1.7439
 6605SOL     OW31276   4.245   1.686   7.471 -0.2668  0.3841 -0.5171
 6605SOL    HW131277   4.194   1.734   7.406 -0.2226 -0.8387 -1.4557
 6605SOL    HW231278   4.196   1.604   7.465  0.4079  0.0641 -1.5973
 6606SOL     OW31279   1.589   2.313   1.873  0.0323  0.0486 -0.4657
 6606SOL    HW131280   1.655   2.382   1.882  0.0243 -0.1304  1.0397
 6606SOL    HW231281   1.599   2.267   1.957 -0.3577 -0.4201 -0.6785
 6607SOL     OW31282   1.647   1.074  16.828 -0.2210 -0.2042  0.4672
 6607SOL    HW131283   1.611   0.999  16.876 -1.6144  1.1550  1.5660
 6607SOL    HW231284   1.626   1.148  16.885  0.6908 -0.7313  1.4825
 6608SOL     OW31285   3.605   2.527   0.779 -0.4415 -0.4886  0.3732
 6608SOL    HW131286   3.601   2.498   0.688  0.5117  1.3845 -0.2650
 6608SOL    HW231287   3.616   2.444   0.826  0.9307 -0.7970 -0.5095
 6609SOL     OW31288   2.006   1.611   2.652  0.1079 -0.3105  0.1564
 6609SOL    HW131289   2.087   1.655   2.678 -0.8949  1.4675  0.2770
 6609SOL    HW231290   1.991   1.559   2.731 -0.6873 -0.4339 -0.0713
 6610SOL     OW31291   0.483   4.135  10.370  0.1953  0.9715 -0.2618
 6610SOL    HW131292   0.411   4.186  10.408 -0.4743 -1.4748  1.7497
 6610SOL    HW231293   0.474   4.163  10.279 -1.7004  1.2850  0.0166
 6611SOL     OW31294   3.286   2.613  12.774  0.4111 -0.2559 -0.1993
 6611SOL    HW131295   3.279   2.519  12.758  2.5969 -0.1927 -1.4423
 6611SOL    HW231296   3.236   2.617  12.856 -0.5727  0.4076 -0.8251
 6612SOL     OW31297   0.180   2.547  11.779 -0.1400 -0.2426 -0.4161
 6612SOL    HW131298   0.147   2.512  11.697 -2.3001 -0.0867  0.3672
 6612SOL    HW231299   0.222   2.631  11.761 -1.1588  0.5511  0.8553
 6613SOL     OW31300   2.418   2.449   3.184  0.7284  0.0174  0.4994
 6613SOL    HW131301   2.340   2.395   3.168  1.5471 -1.2142  0.6390
 6613SOL    HW231302   2.443   2.470   3.094 -0.8548 -0.3798 -0.0319
 6614SOL     OW31303   0.145   1.441   5.309  0.3485  0.0178 -0.1934
 6614SOL    HW131304   0.177   1.389   5.235 -0.0240 -1.0560  0.4019
 6614SOL    HW231305   0.225   1.472   5.352  1.1684 -0.4164 -1.4194
 6615SOL     OW31306   0.840   1.563  13.379 -0.1595 -0.5869  0.3486
 6615SOL    HW131307   0.876   1.646  13.349  0.4480 -0.3908  1.6195
 6615SOL    HW231308   0.918   1.537  13.428  0.3285 -0.3685 -0.2989
 6616SOL     OW31309   4.472   2.616  12.557 -0.1781  0.3035 -0.2228
 6616SOL    HW131310   4.432   2.596  12.642  0.1582  1.0906  0.1241
 6616SOL    HW231311   4.533   2.687  12.580 -0.3976  1.0242 -1.8688
 6617SOL     OW31312   3.420   3.353   3.228  0.2362 -0.5323 -0.1215
 6617SOL    HW131313   3.515   3.362   3.234  0.4217 -1.0250 -2.3850
 6617SOL    HW231314   3.413   3.304   3.146 -0.2046 -0.6129 -0.0332
 6618SOL     OW31315   3.675   0.247   9.146  0.3533 -0.1828 -0.8219
 6618SOL    HW131316   3.724   0.328   9.129 -0.0662  0.3486  0.5367
 6618SOL    HW231317   3.624   0.278   9.220 -0.2088 -0.6993 -0.9985
 6619SOL     OW31318   0.629   1.434   1.172 -0.5834  0.1037 -0.4333
 6619SOL    HW131319   0.596   1.383   1.098 -0.5683 -0.8460  0.2114
 6619SOL    HW231320   0.676   1.368   1.222  0.9205  1.1908 -0.4232
 6620SOL     OW31321   4.150   2.595   9.557  0.3447  0.3319 -0.3633
 6620SOL    HW131322   4.245   2.584   9.548 -0.0474 -1.8640 -1.9464
 6620SOL    HW231323   4.145   2.616   9.650  2.8388  1.8201 -0.5720
 6621SOL     OW31324   0.740   1.385  15.168  0.0644 -0.2349 -0.0718
 6621SOL    HW131325   0.657   1.430  15.181 -0.5179 -1.3512  0.1329
 6621SOL    HW231326   0.731   1.321  15.240 -3.0582  0.0591 -0.1917
 6622SOL     OW31327   3.455   1.481   5.909 -0.8823 -0.2721 -0.1732
 6622SOL    HW131328   3.546   1.493   5.881 -1.4694 -0.4590 -2.1710
 6622SOL    HW231329   3.462   1.469   6.004  0.4285  0.6205 -0.1518
 6623SOL     OW31330   3.968   4.072   5.787  0.7650  0.2513 -0.0186
 6623SOL    HW131331   3.993   4.119   5.867 -1.5973  0.1460  0.7867
 6623SOL    HW231332   3.944   3.985   5.821 -1.3548  1.0516  0.5395
 6624SOL     OW31333   0.684   4.346   4.470  0.2012 -0.1242  0.0498
 6624SOL    HW131334   0.694   4.314   4.559  0.4224  0.4740  0.2407
 6624SOL    HW231335   0.589   4.342   4.453 -0.1800  0.1070  2.1856
 6625SOL     OW31336   1.046   2.378  17.116 -0.2754  0.1899 -0.0282
 6625SOL    HW131337   0.956   2.352  17.098 -0.3514  0.0988  0.4679
 6625SOL    HW231338   1.038   2.473  17.109  2.5426  0.4912  0.5304
 6626SOL     OW31339   1.574   0.804   6.845  0.0706  0.0824  0.5206
 6626SOL    HW131340   1.582   0.770   6.935  0.2136  0.0289  0.4875
 6626SOL    HW231341   1.487   0.770   6.824  0.5124 -0.8956  0.2411
 6627SOL     OW31342   1.645   2.119   4.988  0.5543  0.2585 -0.2735
 6627SOL    HW131343   1.608   2.184   5.047  0.4194  0.7190 -0.8668
 6627SOL    HW231344   1.682   2.184   4.928  1.5941 -1.5842 -1.6278
 6628SOL     OW31345   3.705   0.939   3.693  0.4285  0.0753  0.3217
 6628SOL    HW131346   3.674   0.872   3.632 -0.9869  0.3776  0.7202
 6628SOL    HW231347   3.699   0.888   3.773 -0.4607  2.1070  1.5507
 6629SOL     OW31348   3.733   3.789   5.126  0.8302  0.2724  0.2622
 6629SOL    HW131349   3.730   3.882   5.150  0.6512  0.3493 -0.0432
 6629SOL    HW231350   3.677   3.752   5.194  0.0145 -1.0794 -1.1262
 6630SOL     OW31351   3.273   1.905   2.202  0.1669  0.0033 -0.4506
 6630SOL    HW131352   3.240   1.857   2.278 -0.1297  1.7124  0.5029
 6630SOL    HW231353   3.366   1.916   2.223 -0.0375  0.1694  0.3977
 6631SOL     OW31354   0.472   4.433   9.940  0.2788  0.2970 -0.0699
 6631SOL    HW131355   0.550   4.487   9.938  1.2977 -1.1461  0.9834
 6631SOL    HW231356   0.463   4.402   9.850 -0.0528  1.2783 -0.3684
 6632SOL     OW31357   2.171   0.520  10.144 -0.1741 -0.2840  0.2171
 6632SOL    HW131358   2.162   0.615  10.129  0.6517 -0.2533 -0.0778
 6632SOL    HW231359   2.243   0.496  10.086 -0.7777  0.1929 -0.7458
 6633SOL     OW31360   0.655   3.801   3.665 -0.3307  0.0522  0.0074
 6633SOL    HW131361   0.742   3.842   3.667  0.2820 -1.2510  0.1628
 6633SOL    HW231362   0.615   3.818   3.750  0.2854 -1.9704  0.7081
 6634SOL     OW31363   3.988   0.034   4.586 -0.3038  0.5900  0.0484
 6634SOL    HW131364   4.057   0.082   4.632  0.6858 -0.5813 -0.1816
 6634SOL    HW231365   3.935   0.006   4.660  2.0117 -1.2688  1.0085
 6635SOL     OW31366   2.158   2.647   4.347 -0.1270  0.7540  0.1081
 6635SOL    HW131367   2.153   2.742   4.354 -1.1020  0.7980 -1.1910
 6635SOL    HW231368   2.065   2.623   4.353 -0.4496  1.7864 -0.6906
 6636SOL     OW31369   0.084   3.348   7.563  0.2778 -0.2646 -0.1852
 6636SOL    HW131370   0.063   3.427   7.612  0.1532  0.3013 -1.1487
 6636SOL    HW231371   0.166   3.326   7.608  1.0870  1.0361 -1.0070
 6637SOL     OW31372   3.374   3.911   5.700  0.3534 -0.0184  0.4258
 6637SOL    HW131373   3.312   3.945   5.636  0.9844  0.5667  0.1279
 6637SOL    HW231374   3.315   3.859   5.755  0.6168 -2.8791 -2.0717
 6638SOL     OW31375   3.639   2.942   1.344  0.2628  0.0911  0.0398
 6638SOL    HW131376   3.689   3.022   1.360 -0.7788  0.4450  1.4796
 6638SOL    HW231377   3.713   2.882   1.333  2.3330  2.7035 -0.1854
 6639SOL     OW31378   4.100   0.766   2.484  0.3493  0.3430  0.2156
 6639SOL    HW131379   4.190   0.745   2.510  0.1322  1.3307  1.7448
 6639SOL    HW231380   4.105   0.820   2.406 -0.9924  1.3538  0.8370
 6640SOL     OW31381   1.883   1.832   6.797 -0.1497  0.0766 -0.4999
 6640SOL    HW131382   1.940   1.902   6.830  0.5066 -1.2383  1.1170
 6640SOL    HW231383   1.943   1.777   6.747  1.5372  0.8171  0.7029
 6641SOL     OW31384   1.700   2.028  13.326  0.1874 -0.3125  0.6817
 6641SOL    HW131385   1.787   2.060  13.352 -0.8384  1.9039  1.3267
 6641SOL    HW231386   1.704   2.040  13.231 -1.3910  0.7800  0.7532
 6642SOL     OW31387   1.018   4.462  17.112  0.1722 -0.1374  0.4433
 6642SOL    HW131388   0.994   4.434  17.200  0.0439 -1.4102  0.0050
 6642SOL    HW231389   0.938   4.442  17.062  0.9666 -0.5825 -0.6452
 6643SOL     OW31390   3.648   3.464   7.556 -0.4420  0.0968  0.5118
 6643SOL    HW131391   3.721   3.458   7.618 -0.9461  1.1939  1.2047
 6643SOL    HW231392   3.707   3.459   7.480 -1.3764 -1.2093 -0.1341
 6644SOL     OW31393   2.332   1.521   4.044 -0.4060  0.3523 -0.3505
 6644SOL    HW131394   2.360   1.430   4.048  1.0279  0.7940 -0.6641
 6644SOL    HW231395   2.260   1.526   3.981  0.9671  1.0442 -1.8421
 6645SOL     OW31396   4.660   3.974   4.080 -0.5215  0.3577  0.0284
 6645SOL    HW131397   4.635   4.061   4.112  1.4894  1.0359 -0.2501
 6645SOL    HW231398   4.617   3.980   3.995 -2.6462 -0.8379  1.0336
 6646SOL     OW31399   4.440   2.786   2.161  0.1185 -0.1585 -0.3160
 6646SOL    HW131400   4.516   2.826   2.204 -0.1308 -0.5744  0.5071
 6646SOL    HW231401   4.392   2.864   2.132 -2.1234 -0.9843  1.2192
 6647SOL     OW31402   3.919   2.158  17.679 -0.0699 -0.1572  0.2225
 6647SOL    HW131403   3.874   2.075  17.664 -0.4791  0.5446 -2.3386
 6647SOL    HW231404   3.998   2.132   0.037  1.2687  1.2554 -1.2304
 6648SOL     OW31405   2.764   4.696  13.839 -0.4081 -0.7235 -0.3493
 6648SOL    HW131406   2.754   4.603  13.860 -0.8431 -0.1578  1.9629
 6648SOL    HW231407   2.846   4.696  13.789 -0.7488 -1.3978 -0.8958
 6649SOL     OW31408   0.822   4.374   9.835 -0.3658 -0.7210  0.1388
 6649SOL    HW131409   0.844   4.328   9.916  1.7859 -1.7070 -1.0138
 6649SOL    HW231410   0.786   4.450   9.880  0.0779 -0.7356  0.5235
 6650SOL     OW31411   3.631   2.260   6.023 -0.0708 -0.4875  0.5440
 6650SOL    HW131412   3.619   2.274   6.117 -2.4173  1.7031 -0.1037
 6650SOL    HW231413   3.561   2.319   5.995  0.7129 -0.6576 -1.7425
 6651SOL     OW31414   3.320   1.910   7.088 -0.3854  0.3976 -0.4596
 6651SOL    HW131415   3.263   1.842   7.052  0.4166  0.0290 -1.0287
 6651SOL    HW231416   3.399   1.865   7.119 -2.2537 -1.7661  1.2056
 6652SOL     OW31417   0.717   1.139  12.072 -0.7669  0.2830 -0.1715
 6652SOL    HW131418   0.676   1.155  12.156 -0.3711 -0.1146  0.0981
 6652SOL    HW231419   0.777   1.211  12.056  0.6233 -0.2248  2.8691
 6653SOL     OW31420   2.497   1.103   6.570  0.5104  0.0984  0.1625
 6653SOL    HW131421   2.491   1.050   6.491  1.4981  1.0487 -0.5636
 6653SOL    HW231422   2.404   1.125   6.581  0.0674 -2.2906  0.9894
 6654SOL     OW31423   4.382   3.220   8.827 -0.3653  0.8020  0.0395
 6654SOL    HW131424   4.302   3.193   8.872  0.2164 -1.4822 -0.2778
 6654SOL    HW231425   4.435   3.252   8.900 -0.5306 -0.5440  0.7541
 6655SOL     OW31426   1.269   0.974   0.428  0.3326  0.3312 -0.0024
 6655SOL    HW131427   1.312   0.917   0.365 -0.3285 -0.6756  0.4690
 6655SOL    HW231428   1.283   0.928   0.511  0.3341 -2.3457 -1.5040
 6656SOL     OW31429   4.635   4.130   2.588  0.2928 -0.1325  0.6513
 6656SOL    HW131430   4.631   4.217   2.548 -0.4121  0.4466  1.9857
 6656SOL    HW231431   4.704   4.089   2.536  1.4466  3.7567 -0.9064
 6657SOL     OW31432   3.809   1.454   0.554  0.2073 -0.6265  0.0531
 6657SOL    HW131433   3.797   1.367   0.517 -2.6195 -1.0411  1.9149
 6657SOL    HW231434   3.752   1.505   0.496  0.3664 -1.1685 -0.5730
 6658SOL     OW31435   0.825   4.418   8.692  0.2256 -0.5560  0.3046
 6658SOL    HW131436   0.751   4.366   8.662  1.4989 -0.8593 -2.3478
 6658SOL    HW231437   0.792   4.501   8.657 -2.5515 -2.5430 -1.7677
 6659SOL     OW31438   3.956   3.348   7.109  0.3887  0.1292 -0.3189
 6659SOL    HW131439   3.903   3.280   7.066 -0.9908  0.5154  0.7722
 6659SOL    HW231440   3.907   3.426   7.083 -0.2330  0.1061  0.7777
 6660SOL     OW31441   1.978   1.476   1.631 -0.3130 -0.1988  0.3393
 6660SOL    HW131442   1.956   1.533   1.704 -0.2757  0.7526 -0.3992
 6660SOL    HW231443   2.042   1.527   1.582 -0.4229  0.1567  0.5678
 6661SOL     OW31444   0.225   2.907   5.947  0.0283  0.4625  0.5205
 6661SOL    HW131445   0.207   2.917   6.041  2.0829  2.4847  0.7027
 6661SOL    HW231446   0.294   2.970   5.926  1.2935 -0.9595  0.3601
 6662SOL     OW31447   1.712   1.065   7.642 -0.0168 -0.2158  1.0853
 6662SOL    HW131448   1.759   1.011   7.706  2.9024  0.3720 -0.5719
 6662SOL    HW231449   1.786   1.098   7.591  1.1895 -3.0008  1.0240
 6663SOL     OW31450   4.570   3.765   8.558  0.1197  1.2389  0.2221
 6663SOL    HW131451   4.488   3.731   8.594  0.0023 -0.5816 -1.7856
 6663SOL    HW231452   4.630   3.698   8.590  0.4021  1.0840 -0.6384
 6664SOL     OW31453   0.847   0.150   5.679  0.1665 -0.0993 -0.2640
 6664SOL    HW131454   0.769   0.104   5.710 -0.7144  0.5018 -1.5592
 6664SOL    HW231455   0.801   0.223   5.637 -3.1818 -0.3089  3.0208
 6665SOL     OW31456   1.493   3.268   8.164  0.6061 -0.4630 -0.1937
 6665SOL    HW131457   1.419   3.259   8.223 -0.6874 -2.0745 -2.0586
 6665SOL    HW231458   1.562   3.225   8.215  1.4204 -1.0785 -1.8020
 6666SOL     OW31459   1.197   2.319   8.615  0.5438 -0.1564  0.2526
 6666SOL    HW131460   1.259   2.262   8.660  0.5348 -0.7016 -0.4477
 6666SOL    HW231461   1.202   2.279   8.529 -0.7937 -0.1881  0.1870
 6667SOL     OW31462   0.682   4.252   0.891  0.3377 -0.2442  0.5778
 6667SOL    HW131463   0.730   4.329   0.921  0.5219  0.6025 -1.8855
 6667SOL    HW231464   0.704   4.194   0.964  1.1611  0.8967  1.2278
 6668SOL     OW31465   0.525   3.816   6.102  0.5888 -0.6799 -0.0917
 6668SOL    HW131466   0.466   3.867   6.046 -0.2735 -0.3619  1.1035
 6668SOL    HW231467   0.459   3.748   6.117  1.1150 -1.6046 -2.0293
 6669SOL     OW31468   2.462   3.536   5.864 -0.1979  0.5913  0.1766
 6669SOL    HW131469   2.390   3.591   5.833  0.1877  0.6483 -0.6083
 6669SOL    HW231470   2.496   3.572   5.946  1.9755 -0.4766 -0.2656
 6670SOL     OW31471   3.571   3.201   1.812 -0.2920 -0.5483  0.4385
 6670SOL    HW131472   3.488   3.153   1.806 -1.3950  1.4265 -0.2334
 6670SOL    HW231473   3.574   3.244   1.897 -0.5685 -0.1499  0.2442
 6671SOL     OW31474   2.329   3.183  13.444  0.1551 -0.0859  0.4713
 6671SOL    HW131475   2.373   3.148  13.521  1.6340  2.6735  0.9027
 6671SOL    HW231476   2.340   3.274  13.472 -0.8222 -0.2085  1.2162
 6672SOL     OW31477   4.131   1.490   3.321  0.6443 -0.0798  0.3672
 6672SOL    HW131478   4.039   1.496   3.347  0.7487 -4.2897  1.7756
 6672SOL    HW231479   4.168   1.429   3.386  0.1326 -1.2733 -0.4592
 6673SOL     OW31480   4.602   3.000  11.921 -0.5418  0.0224 -0.0079
 6673SOL    HW131481   4.667   3.068  11.904 -0.3840 -0.3583 -0.9604
 6673SOL    HW231482   4.655   2.923  11.942 -1.6191 -0.9170 -0.7163
 6674SOL     OW31483   0.791   0.441   5.131  0.2038  0.1232 -0.0463
 6674SOL    HW131484   0.771   0.458   5.223  2.8738  0.6464  0.4517
 6674SOL    HW231485   0.741   0.504   5.080 -1.2292  0.4075  1.7296
 6675SOL     OW31486   0.499   1.564   9.299 -0.1791 -0.2258  0.1037
 6675SOL    HW131487   0.518   1.623   9.372 -1.4531 -0.7450  0.8362
 6675SOL    HW231488   0.549   1.485   9.318 -1.5259 -0.9337  0.6957
 6676SOL     OW31489   3.437   4.441   4.957 -0.0076 -0.5652 -0.2196
 6676SOL    HW131490   3.520   4.476   4.925  1.8189 -3.1645  1.7040
 6676SOL    HW231491   3.464   4.353   4.984  0.3996  0.0808  1.4805
 6677SOL     OW31492   3.787   0.568  15.965  0.0835  0.1522  0.1820
 6677SOL    HW131493   3.754   0.657  15.954 -0.3454  0.2864  2.3830
 6677SOL    HW231494   3.723   0.529  16.025 -0.8632 -2.0888 -2.2916
 6678SOL     OW31495   3.737   1.614   1.826  0.1517  0.2988  0.2886
 6678SOL    HW131496   3.745   1.663   1.908  2.2134  0.2022  0.1383
 6678SOL    HW231497   3.698   1.532   1.854 -0.3855  0.1149 -1.0089
 6679SOL     OW31498   1.766   2.230   4.533 -0.1805 -0.4372  0.5620
 6679SOL    HW131499   1.791   2.143   4.563 -2.8266 -0.4835  2.5917
 6679SOL    HW231500   1.846   2.253   4.486 -1.7875 -1.5452 -2.6910
 6680SOL     OW31501   1.544   4.114   1.264  0.2858  0.3932 -0.2873
 6680SOL    HW131502   1.570   4.170   1.191 -0.1482  0.3438 -0.4832
 6680SOL    HW231503   1.562   4.025   1.232 -1.9093 -0.0367 -0.3213
 6681SOL     OW31504   0.311   0.195   5.055  0.2177 -0.5275 -0.3278
 6681SOL    HW131505   0.360   0.277   5.057  1.2873 -1.0993 -2.4525
 6681SOL    HW231506   0.280   0.186   5.145 -0.3741  2.3316 -0.2663
 6682SOL     OW31507   4.416   1.892  13.260  0.4766 -0.4232  0.1748
 6682SOL    HW131508   4.414   1.974  13.309  2.8924 -1.0216  1.3018
 6682SOL    HW231509   4.486   1.841  13.302  0.5682 -0.1125  0.3984
 6683SOL     OW31510   2.877   3.248  13.419 -0.0167  0.2863  0.3812
 6683SOL    HW131511   2.909   3.209  13.337 -0.2793  2.1898 -0.6080
 6683SOL    HW231512   2.814   3.185  13.453  0.5702 -0.7998 -0.5270
 6684SOL     OW31513   1.449   4.428   6.596  0.2189  0.7276  1.0171
 6684SOL    HW131514   1.421   4.365   6.530  1.5611 -0.1607  1.3017
 6684SOL    HW231515   1.387   4.500   6.587 -2.5119 -1.9869 -1.8409
 6685SOL     OW31516   4.205   3.028  13.793 -0.3582  0.0040  0.0707
 6685SOL    HW131517   4.296   3.055  13.785  0.7999 -3.0489  3.1339
 6685SOL    HW231518   4.195   2.977  13.713 -1.8292  0.3728  0.0081
 6686SOL     OW31519   1.356   3.127  16.698 -0.9312 -0.3678  0.5036
 6686SOL    HW131520   1.432   3.123  16.640 -2.6557  2.2193 -1.9600
 6686SOL    HW231521   1.298   3.091  16.631  1.4178 -0.4464 -1.4732
 6687SOL     OW31522   0.395   4.387   7.108 -0.3533  0.1611 -0.4600
 6687SOL    HW131523   0.320   4.389   7.168  1.3516 -1.2236  1.6746
 6687SOL    HW231524   0.444   4.459   7.148  2.1473 -2.0042  0.3246
 6688SOL     OW31525   3.376   0.290   8.455  0.6296  0.5980 -0.2027
 6688SOL    HW131526   3.370   0.332   8.370 -1.2670  0.8499  0.0708
 6688SOL    HW231527   3.442   0.224   8.433 -0.3988 -0.5530  0.1715
 6689SOL     OW31528   1.664   0.706  10.287 -0.7624 -0.0410  0.3441
 6689SOL    HW131529   1.632   0.744  10.205 -1.5653 -1.0526  0.1924
 6689SOL    HW231530   1.742   0.761  10.300  0.3352 -1.5911  0.2847
 6690SOL     OW31531   1.669   4.076  12.453  0.0269  0.3307 -0.0061
 6690SOL    HW131532   1.740   4.015  12.472 -1.7315 -1.4798  0.8509
 6690SOL    HW231533   1.715   4.150  12.414  0.7354 -0.8634 -1.4170
 6691SOL     OW31534   2.569   3.111   1.649 -0.1142 -0.2894 -0.1501
 6691SOL    HW131535   2.632   3.079   1.584  2.8592  0.4152  2.4296
 6691SOL    HW231536   2.535   3.197   1.626 -0.4568 -0.9608 -2.1612
 6692SOL     OW31537   2.716   4.233   3.935  0.2430  0.1755  0.0673
 6692SOL    HW131538   2.641   4.176   3.919  1.1155  0.0010 -3.4273
 6692SOL    HW231539   2.713   4.288   3.857  0.5052  0.5489  0.3186
 6693SOL     OW31540   0.934   0.586   6.974 -0.0508  0.3947  0.5875
 6693SOL    HW131541   1.019   0.596   7.017 -0.0046 -0.5086  0.6967
 6693SOL    HW231542   0.889   0.663   7.008 -1.6512 -1.7303  3.2764
 6694SOL     OW31543   4.451   4.447   7.518  0.4909 -0.3171 -0.5357
 6694SOL    HW131544   4.420   4.534   7.495 -2.0094 -1.0675  0.0198
 6694SOL    HW231545   4.409   4.393   7.451  1.3990 -3.7245  1.6117
 6695SOL     OW31546   0.814   2.142  17.346  0.3524  0.0306  0.1197
 6695SOL    HW131547   0.777   2.229  17.364  0.5055  0.4680 -1.7329
 6695SOL    HW231548   0.758   2.077  17.388  1.3016  0.1239  1.5496
 6696SOL     OW31549   1.413   0.965   4.182 -0.5479  0.1208  0.2121
 6696SOL    HW131550   1.427   0.892   4.121  2.1098 -1.0550  2.2237
 6696SOL    HW231551   1.501   1.000   4.184  0.0220 -1.3374  1.3269
 6697SOL     OW31552   3.654   2.799   4.707  0.2771 -0.5160 -0.6014
 6697SOL    HW131553   3.671   2.886   4.745  0.8866 -1.5794  1.5360
 6697SOL    HW231554   3.718   2.749   4.757  1.1678  1.6029  0.3940
 6698SOL     OW31555   3.468   3.014   5.100 -0.0927 -0.7606 -0.1511
 6698SOL    HW131556   3.439   3.049   5.015 -1.2532  1.4296  1.1272
 6698SOL    HW231557   3.563   3.022   5.098 -0.1614  0.8912  2.2076
 6699SOL     OW31558   3.875   1.487   7.286 -0.0273 -0.3816 -0.4915
 6699SOL    HW131559   3.830   1.442   7.358 -0.3723 -1.0235 -1.1139
 6699SOL    HW231560   3.963   1.478   7.322 -0.8027 -3.1346  0.6939
 6700SOL     OW31561   2.756   3.119  17.645 -0.1636 -0.1351 -0.5587
 6700SOL    HW131562   2.845   3.121  17.611 -0.6350 -3.8774 -1.9772
 6700SOL    HW231563   2.777   3.186   0.021 -1.1218  0.8153 -1.2255
 6701SOL     OW31564   2.829   3.669   7.333  0.0044 -0.2350 -0.7035
 6701SOL    HW131565   2.744   3.711   7.343 -0.1854 -1.0091  0.8626
 6701SOL    HW231566   2.825   3.617   7.413  2.3140  0.1514 -0.3186
 6702SOL     OW31567   1.823   0.926   0.726 -0.3185  0.2041 -0.1218
 6702SOL    HW131568   1.909   0.885   0.737 -1.3338 -2.0527 -0.6724
 6702SOL    HW231569   1.799   0.917   0.634 -0.8469 -0.2773  0.0603
 6703SOL     OW31570   3.957   4.561   9.037  0.7026  0.2437 -0.5968
 6703SOL    HW131571   3.927   4.514   9.115  1.3947  0.2143 -0.3467
 6703SOL    HW231572   3.872   4.561   8.993  0.8147 -0.5710 -0.8116
 6704SOL     OW31573   3.454   3.283   7.487 -0.0502  0.2003  0.2500
 6704SOL    HW131574   3.380   3.337   7.460 -1.5901 -2.1832 -0.3183
 6704SOL    HW231575   3.507   3.344   7.538  1.1214 -0.1355 -0.5553
 6705SOL     OW31576   1.447   1.771  13.228 -0.4102 -0.4069 -0.1941
 6705SOL    HW131577   1.432   1.787  13.321  1.4934 -2.3044  0.4286
 6705SOL    HW231578   1.542   1.760  13.229 -0.0857  2.2434 -1.8085
 6706SOL     OW31579   3.909   0.632   8.576 -0.6079  0.2690  0.3554
 6706SOL    HW131580   3.926   0.571   8.648 -0.2146  1.4350  1.2459
 6706SOL    HW231581   3.994   0.676   8.570  0.5405 -2.0559 -0.4142
 6707SOL     OW31582   1.217   3.111  16.924  0.0095 -0.5332 -0.5050
 6707SOL    HW131583   1.186   3.200  16.940  1.2624  0.0268 -1.1623
 6707SOL    HW231584   1.277   3.124  16.849  0.3419  1.6676  0.1402
 6708SOL     OW31585   2.347   0.871   8.166 -0.4706  0.4457  0.4957
 6708SOL    HW131586   2.409   0.807   8.201 -1.4906 -1.2037 -0.7557
 6708SOL    HW231587   2.339   0.840   8.076 -2.6496  1.2528  0.4161
 6709SOL     OW31588   4.419   1.886   4.443 -0.7628 -0.1926 -0.5958
 6709SOL    HW131589   4.510   1.857   4.432 -0.6710  0.1025 -0.6151
 6709SOL    HW231590   4.393   1.900   4.352  0.6106  1.7763 -0.6912
 6710SOL     OW31591   1.888   0.240   3.355  0.4186  0.3943 -0.2623
 6710SOL    HW131592   1.907   0.329   3.383  1.6397 -0.2355  0.9430
 6710SOL    HW231593   1.932   0.192   3.425 -1.2310  0.6922  0.9971
 6711SOL     OW31594   1.673   1.284  11.469 -0.5090  0.0206 -0.2517
 6711SOL    HW131595   1.677   1.379  11.468  2.3633 -0.1160 -1.7854
 6711SOL    HW231596   1.579   1.277  11.452 -0.7019 -0.9583  1.2924
 6712SOL     OW31597   4.691   0.316   5.266  0.2373  0.0614  0.2309
 6712SOL    HW131598   4.625   0.314   5.196  0.9949  1.8232 -0.5207
 6712SOL    HW231599   4.681   0.229   5.305 -0.2149  0.0474  0.0962
 6713SOL     OW31600   1.595   3.463   5.717 -0.0544 -0.3418 -0.7264
 6713SOL    HW131601   1.535   3.529   5.752 -0.6027 -2.6355  2.6691
 6713SOL    HW231602   1.675   3.468   5.769 -0.6704  1.2542  0.0663
 6714SOL     OW31603   0.581   2.209   2.657 -0.2818 -0.4479  1.0551
 6714SOL    HW131604   0.531   2.170   2.586 -0.6618  0.8446  0.6136
 6714SOL    HW231605   0.516   2.225   2.726 -0.7723 -0.4311  0.5830
 6715SOL     OW31606   4.187   1.119   9.337 -0.1124 -0.0686  0.1260
 6715SOL    HW131607   4.153   1.045   9.388 -4.5060  2.2254  0.5834
 6715SOL    HW231608   4.114   1.179   9.321  1.1780  1.1904 -0.9746
 6716SOL     OW31609   1.492   1.447  16.063  0.6422 -0.3449  0.8433
 6716SOL    HW131610   1.543   1.526  16.045 -1.6115  1.1385  0.9363
 6716SOL    HW231611   1.462   1.481  16.147 -1.0114  0.9749 -0.2756
 6717SOL     OW31612   0.999   2.323   3.381 -1.1561  0.0791 -0.5038
 6717SOL    HW131613   1.010   2.229   3.370  2.4823  0.5633 -1.0229
 6717SOL    HW231614   0.956   2.354   3.301 -1.7873 -1.2253 -0.6657
 6718SOL     OW31615   1.526   0.580  13.230 -0.5485  0.3745 -0.0833
 6718SOL    HW131616   1.582   0.651  13.198 -0.7377 -0.6099 -2.5357
 6718SOL    HW231617   1.575   0.501  13.207 -0.5986  0.0788  0.8262
 6719SOL     OW31618   4.720   1.951  13.253  0.1751  0.6338  0.0077
 6719SOL    HW131619   4.704   1.911  13.339  1.2162  2.5944  1.1185
 6719SOL    HW231620   0.083   1.912  13.236 -0.0866  0.5081 -1.0249
 6720SOL     OW31621   1.758   0.566   7.522  0.0669 -0.0115  0.6592
 6720SOL    HW131622   1.801   0.540   7.603 -0.1495  0.7109  1.0026
 6720SOL    HW231623   1.791   0.655   7.509 -1.4733  0.0584 -2.8867
 6721SOL     OW31624   0.673   1.021   1.330 -0.0046  0.0295  0.0524
 6721SOL    HW131625   0.737   1.047   1.397 -0.8908  1.7884  0.2087
 6721SOL    HW231626   0.666   1.096   1.271 -1.1126 -0.7235 -0.7611
 6722SOL     OW31627   0.359   4.361   8.018  0.4062 -0.1972 -0.8448
 6722SOL    HW131628   0.348   4.440   7.966  1.7502 -0.4956 -1.6021
 6722SOL    HW231629   0.273   4.349   8.056  0.3824 -0.1737 -0.8917
 6723SOL     OW31630   1.533   4.220   9.699  0.2538 -0.4863 -0.0481
 6723SOL    HW131631   1.612   4.185   9.658 -0.1505 -0.5012 -0.8161
 6723SOL    HW231632   1.465   4.176   9.648 -0.6665 -0.9529  1.5868
 6724SOL     OW31633   3.346   4.158   7.478  0.5723  0.4137  0.5770
 6724SOL    HW131634   3.376   4.114   7.399 -1.8237 -2.1959  1.1202
 6724SOL    HW231635   3.393   4.110   7.546  0.1462  0.4303  0.8860
 6725SOL     OW31636   1.678   1.837   4.963  0.1354 -0.4898 -0.3070
 6725SOL    HW131637   1.612   1.790   4.911  0.4075 -2.0079  0.7128
 6725SOL    HW231638   1.628   1.905   5.008  2.0707 -0.1480  1.3261
 6726SOL     OW31639   4.362   1.449  10.638  0.2972  0.2304  0.1017
 6726SOL    HW131640   4.350   1.526  10.693 -2.9418  0.4771 -0.9663
 6726SOL    HW231641   4.269   1.431  10.621 -0.0534 -0.6635  2.8626
 6727SOL     OW31642   0.872   3.520  13.458 -0.2802  0.1548 -0.1807
 6727SOL    HW131643   0.777   3.513  13.472 -0.2320  0.1451  0.1264
 6727SOL    HW231644   0.873   3.612  13.432  3.1405  0.7358  2.0183
 6728SOL     OW31645   0.117   1.693   3.444 -0.1494  0.3475 -0.3265
 6728SOL    HW131646   0.034   1.692   3.492  1.0077 -0.8254  1.6822
 6728SOL    HW231647   0.168   1.754   3.497 -2.7806  0.8705  1.6352
 6729SOL     OW31648   1.129   2.906   8.585  0.4600 -0.6417 -0.6320
 6729SOL    HW131649   1.201   2.967   8.601  0.7581 -0.7571 -1.5694
 6729SOL    HW231650   1.113   2.872   8.673 -0.0466 -1.1322 -0.9091
 6730SOL     OW31651   0.740   3.182   8.334  0.1935  0.1636 -0.5008
 6730SOL    HW131652   0.828   3.204   8.363  0.1519 -0.7711  0.3198
 6730SOL    HW231653   0.686   3.237   8.390 -0.1686 -1.2412  0.5127
 6731SOL     OW31654   1.919   0.307   3.084  0.0152 -0.6084  0.0114
 6731SOL    HW131655   1.842   0.308   3.141 -0.5066  0.2680 -0.7113
 6731SOL    HW231656   1.965   0.387   3.109 -1.1440  1.0526 -3.2223
 6732SOL     OW31657   0.879   2.152   8.742 -0.3313  0.3941  0.0801
 6732SOL    HW131658   0.871   2.085   8.809  2.0548  2.4487  2.4225
 6732SOL    HW231659   0.950   2.204   8.779  1.0468 -0.7409 -1.0134
 6733SOL     OW31660   3.228   0.603   3.499 -0.0617 -0.0139  0.4398
 6733SOL    HW131661   3.160   0.613   3.433 -1.3125 -0.1263  1.7264
 6733SOL    HW231662   3.174   0.565   3.568 -0.6624 -1.8803 -1.0467
 6734SOL     OW31663   3.705   0.808  14.968 -0.4328  0.2371 -0.3573
 6734SOL    HW131664   3.800   0.802  14.971 -0.7057 -1.9805  2.8427
 6734SOL    HW231665   3.690   0.893  15.009  1.6231  1.6274 -2.4650
 6735SOL     OW31666   1.470   4.129   9.348 -0.2276  0.0372 -0.3165
 6735SOL    HW131667   1.407   4.099   9.414  1.8407 -0.9542  1.2089
 6735SOL    HW231668   1.484   4.220   9.375 -1.8045  0.4605 -0.9414
 6736SOL     OW31669   1.322   2.964   4.696 -0.2710 -0.4433 -0.0039
 6736SOL    HW131670   1.312   3.001   4.783  1.1529  0.0301 -0.0452
 6736SOL    HW231671   1.238   2.918   4.689  0.9958 -2.8436  0.9526
 6737SOL     OW31672   2.484   2.208   7.066  0.0878 -0.6575  0.7471
 6737SOL    HW131673   2.438   2.181   6.987 -2.0152 -1.1857  2.1641
 6737SOL    HW231674   2.550   2.271   7.036 -0.2029 -1.4230 -1.5551
 6738SOL     OW31675   2.568   2.658   7.291  0.2390  0.1265 -0.0701
 6738SOL    HW131676   2.571   2.564   7.310 -1.6388 -0.0338 -0.5556
 6738SOL    HW231677   2.658   2.680   7.267  0.1001 -0.7622 -1.4185
 6739SOL     OW31678   2.782   0.316  16.669  0.0034 -0.1207  0.0763
 6739SOL    HW131679   2.834   0.336  16.747 -0.3585  0.9428  0.0429
 6739SOL    HW231680   2.851   0.304  16.603 -0.4200 -0.0677 -0.3717
 6740SOL     OW31681   3.600   3.224   1.249  0.1949 -0.4955  0.2970
 6740SOL    HW131682   3.592   3.274   1.330  0.3909  0.0489 -0.0218
 6740SOL    HW231683   3.663   3.277   1.201  0.0787 -0.5120  0.1253
 6741SOL     OW31684   1.028   1.707   8.503  0.0915  0.4740  0.2510
 6741SOL    HW131685   1.101   1.766   8.484 -1.6646  2.2830 -0.8221
 6741SOL    HW231686   1.072   1.634   8.547 -1.6286 -0.2208  0.8241
 6742SOL     OW31687   4.652   4.251   5.022 -0.0856 -1.1560  0.5852
 6742SOL    HW131688   4.668   4.172   4.971  2.0809 -0.3755  0.0385
 6742SOL    HW231689   0.004   4.253   5.084 -1.0008  1.4795  1.5878
 6743SOL     OW31690   1.087   0.418   2.180  0.6666 -0.3252  0.1412
 6743SOL    HW131691   1.106   0.386   2.092  0.8746 -1.4141  0.5832
 6743SOL    HW231692   0.993   0.433   2.174  0.7405 -0.4998 -1.3906
 6744SOL     OW31693   1.939   2.506   0.564 -0.3477 -0.2506  0.2536
 6744SOL    HW131694   2.034   2.517   0.563 -0.5639  1.6901  1.7407
 6744SOL    HW231695   1.913   2.589   0.525  1.0318 -0.6854 -1.5562
 6745SOL     OW31696   2.104   0.971   9.673 -0.2784 -0.1022 -0.7770
 6745SOL    HW131697   2.037   1.030   9.637 -2.2857 -2.1107 -0.3456
 6745SOL    HW231698   2.156   0.955   9.594  0.2893  1.5640 -0.7390
 6746SOL     OW31699   3.480   1.907   8.886  0.3782  0.4650  0.2088
 6746SOL    HW131700   3.437   1.894   8.801  1.3207  1.6137 -0.4492
 6746SOL    HW231701   3.453   1.820   8.916 -1.2629  0.9156  0.0574
 6747SOL     OW31702   2.310   2.355   0.772 -0.5385  0.1803  0.2756
 6747SOL    HW131703   2.342   2.440   0.805 -1.2074  1.5549 -2.6434
 6747SOL    HW231704   2.308   2.312   0.858  0.7938  0.2671  0.3591
 6748SOL     OW31705   3.118   4.501   2.202 -0.4292  0.0301 -0.3503
 6748SOL    HW131706   3.116   4.587   2.159  0.1011 -0.3778 -1.1854
 6748SOL    HW231707   3.047   4.456   2.157  0.4550 -1.5223 -0.2148
 6749SOL     OW31708   4.713   1.849   4.122 -0.3786 -0.3972 -0.0136
 6749SOL    HW131709   4.719   1.841   4.027 -3.7108 -3.3403  0.0261
 6749SOL    HW231710   4.666   1.770   4.148 -0.4883 -0.0277  0.9150
 6750SOL     OW31711   1.535   0.112  10.341  0.2034 -0.0760 -0.0446
 6750SOL    HW131712   1.453   0.150  10.310  2.0493  2.8773 -1.3270
 6750SOL    HW231713   1.552   0.160  10.422 -0.3695  0.0596 -0.0077
 6751SOL     OW31714   3.961   4.416   2.152 -0.6722  0.0185  0.2782
 6751SOL    HW131715   3.882   4.372   2.184 -1.6426  0.2072 -1.8481
 6751SOL    HW231716   3.990   4.461   2.231  0.9227 -0.1418 -0.2078
 6752SOL     OW31717   2.818   3.092   6.217  0.3934  0.2320  0.0408
 6752SOL    HW131718   2.875   3.168   6.223 -0.0286  0.4685  1.0687
 6752SOL    HW231719   2.741   3.122   6.267 -0.6989 -0.1778 -1.4005
 6753SOL     OW31720   1.497   3.937   8.922 -0.5030 -0.2136  0.0259
 6753SOL    HW131721   1.477   3.890   8.841 -1.5484  1.2331 -0.5444
 6753SOL    HW231722   1.450   3.896   8.994 -0.9329  1.6081  0.7610
 6754SOL     OW31723   0.347   0.858   4.745 -0.9055 -0.4221 -0.0264
 6754SOL    HW131724   0.344   0.922   4.674 -3.0889  1.3781  1.6717
 6754SOL    HW231725   0.309   0.906   4.819 -0.7409  0.2357 -0.3736
 6755SOL     OW31726   3.801   1.451  10.434 -0.0600 -0.1654  0.4169
 6755SOL    HW131727   3.875   1.440  10.375 -0.0462 -2.1840  0.8115
 6755SOL    HW231728   3.749   1.517  10.389 -2.1347 -1.1706  1.3548
 6756SOL     OW31729   4.392   3.004   0.836  0.4853 -1.2605  0.1693
 6756SOL    HW131730   4.399   3.094   0.867  0.4027 -1.6856  1.4391
 6756SOL    HW231731   4.346   2.954   0.903  2.9816 -1.6443  1.6141
 6757SOL     OW31732   2.681   4.507  11.976  0.4289  0.4545  0.5332
 6757SOL    HW131733   2.683   4.602  11.988 -2.3802  0.4934  0.5259
 6757SOL    HW231734   2.588   4.496  11.957  0.9233 -2.2406 -0.3293
 6758SOL     OW31735   1.237   2.985  17.421  0.3452 -0.0039  0.2511
 6758SOL    HW131736   1.218   3.076  17.441 -1.8346 -0.2250 -0.8415
 6758SOL    HW231737   1.172   2.956  17.357 -0.1789  1.9161 -0.0753
 6759SOL     OW31738   1.855   3.313   3.544 -0.5150 -0.4781  0.1865
 6759SOL    HW131739   1.792   3.350   3.482 -1.7438 -0.2632  1.5382
 6759SOL    HW231740   1.920   3.284   3.481  0.8577  1.0233  0.9225
 6760SOL     OW31741   3.204   1.779   2.430 -0.3562  0.0040 -0.3675
 6760SOL    HW131742   3.140   1.843   2.462 -0.0442  0.1125  0.0397
 6760SOL    HW231743   3.216   1.706   2.490  1.9970  1.2930  0.7099
 6761SOL     OW31744   3.124   1.743   0.000 -0.0238  0.2799  0.0691
 6761SOL    HW131745   3.069   1.682   0.050  0.1957 -1.2542 -1.5948
 6761SOL    HW231746   3.059   1.806  17.658 -1.5837 -1.3365  0.0567
 6762SOL     OW31747   2.908   0.483   1.888 -0.2328 -0.7016 -0.2349
 6762SOL    HW131748   2.973   0.441   1.831  0.8124  1.1690 -0.3973
 6762SOL    HW231749   2.912   0.423   1.963  0.7631  0.8578  0.9527
 6763SOL     OW31750   3.486   2.168   1.506 -0.0400  0.9060 -0.0304
 6763SOL    HW131751   3.474   2.193   1.415  0.6134 -1.8684 -0.8673
 6763SOL    HW231752   3.418   2.215   1.555  0.8024  1.4022  0.6714
 6764SOL     OW31753   3.436   3.293   3.721 -0.0863 -0.2799 -0.3379
 6764SOL    HW131754   3.388   3.230   3.667 -1.9387 -0.2649  1.3456
 6764SOL    HW231755   3.405   3.370   3.673 -0.7106 -0.2427  0.1299
 6765SOL     OW31756   1.591   0.209   5.653  0.7218  0.5635 -0.4310
 6765SOL    HW131757   1.526   0.240   5.591  0.0945 -1.4714 -0.8002
 6765SOL    HW231758   1.543   0.164   5.723  1.7265  2.7363  1.6520
 6766SOL     OW31759   3.665   3.958  12.368  0.4474  0.4595 -0.0269
 6766SOL    HW131760   3.658   3.977  12.274  1.0648  0.8675  0.0127
 6766SOL    HW231761   3.637   3.866  12.369  0.1719  0.5283 -1.1062
 6767SOL     OW31762   1.782   4.642   6.716  0.1974 -0.4847  0.0609
 6767SOL    HW131763   1.811   4.554   6.691  1.8334  0.0910 -0.0589
 6767SOL    HW231764   1.695   4.628   6.756 -0.2678 -1.2072 -1.2186
 6768SOL     OW31765   3.231   2.386   4.116  0.3323  0.0546 -0.4677
 6768SOL    HW131766   3.269   2.303   4.087  0.3005  0.3374 -1.3108
 6768SOL    HW231767   3.162   2.398   4.051 -0.8223 -0.0258  0.7119
 6769SOL     OW31768   3.697   3.276   4.686  0.4365 -0.0836 -0.0001
 6769SOL    HW131769   3.646   3.274   4.605  1.4747 -0.6677 -0.6415
 6769SOL    HW231770   3.763   3.339   4.656 -0.4606  0.5366 -0.7161
 6770SOL     OW31771   1.349   2.102   9.321  0.2306 -0.3746  0.3869
 6770SOL    HW131772   1.398   2.179   9.292  0.1322 -0.8410 -1.0283
 6770SOL    HW231773   1.412   2.059   9.378 -0.1901  0.2805  1.3324
 6771SOL     OW31774   1.895   2.455  14.345  0.4192 -0.3893 -0.0078
 6771SOL    HW131775   1.909   2.548  14.364 -1.2598 -0.6723  2.7099
 6771SOL    HW231776   1.949   2.418  14.415  1.2691 -0.1850 -0.5539
 6772SOL     OW31777   3.855   1.285   9.160 -0.3097 -0.1411 -0.2875
 6772SOL    HW131778   3.894   1.299   9.246 -0.7456  1.6956 -0.4052
 6772SOL    HW231779   3.836   1.374   9.132  1.5356  0.3065 -0.1081
 6773SOL     OW31780   0.381   4.415   7.449  0.1131  0.3138  0.3692
 6773SOL    HW131781   0.346   4.395   7.536 -3.0979  0.9739 -0.7998
 6773SOL    HW231782   0.357   4.504   7.425  0.6412  0.1833 -0.6305
 6774SOL     OW31783   0.109   4.539   7.515  0.0554  0.1793 -0.5489
 6774SOL    HW131784   0.170   4.596   7.469 -0.1751  1.0185  0.1847
 6774SOL    HW231785   0.066   4.596   7.579 -1.1891 -1.3250 -0.0568
 6775SOL     OW31786   1.901   0.807   2.672  0.4398 -0.0344 -1.2274
 6775SOL    HW131787   1.923   0.739   2.608 -0.0251 -0.8890 -0.4864
 6775SOL    HW231788   1.834   0.864   2.634  0.6777  1.5078  0.6444
 6776SOL     OW31789   0.644   2.796   3.680 -0.2597  0.2592 -1.0513
 6776SOL    HW131790   0.626   2.785   3.587 -0.3793 -0.9320 -0.8820
 6776SOL    HW231791   0.564   2.828   3.722 -0.3935  1.3219 -2.1228
 6777SOL     OW31792   4.440   4.307  15.668 -0.0757 -0.3503  0.5815
 6777SOL    HW131793   4.365   4.288  15.612  0.2360 -2.3297  0.8484
 6777SOL    HW231794   4.488   4.367  15.610 -0.9938 -0.9494 -0.7862
 6778SOL     OW31795   0.849   3.813   9.541 -0.2798 -0.3289  0.4791
 6778SOL    HW131796   0.758   3.798   9.516 -0.6604 -1.2704  2.4449
 6778SOL    HW231797   0.866   3.724   9.574 -0.8427 -1.1197 -1.3572
 6779SOL     OW31798   2.304   0.545   5.088 -0.6866  0.1001  0.2355
 6779SOL    HW131799   2.253   0.626   5.081 -0.6671  0.1601  0.7572
 6779SOL    HW231800   2.238   0.495   5.136 -0.3822 -2.6851 -2.2356
 6780SOL     OW31801   1.993   1.328   5.060 -0.4619 -0.7253  0.3236
 6780SOL    HW131802   1.917   1.290   5.015 -0.1071  0.4332 -1.2806
 6780SOL    HW231803   2.058   1.318   4.990  0.5001 -0.8847  1.2498
 6781SOL     OW31804   2.764   0.951   7.583 -0.0868  0.4969  0.0413
 6781SOL    HW131805   2.772   1.041   7.552  0.0908  0.4834  0.0466
 6781SOL    HW231806   2.832   0.963   7.650  1.0029 -2.7250 -0.4419
 6782SOL     OW31807   2.948   0.327   4.852  0.3601 -1.6106  0.3062
 6782SOL    HW131808   2.965   0.379   4.773  0.6572 -0.5063  1.0930
 6782SOL    HW231809   2.963   0.391   4.922 -1.9549  0.8513 -1.4477
 6783SOL     OW31810   4.062   1.847   2.851  0.0251 -0.1840 -0.1402
 6783SOL    HW131811   4.066   1.757   2.821  3.3555  0.4137 -1.5134
 6783SOL    HW231812   3.986   1.846   2.909 -0.5993  2.4331 -0.9190
 6784SOL     OW31813   1.467   0.901  17.485 -0.2467  0.0151  0.0243
 6784SOL    HW131814   1.537   0.941  17.433  0.5830 -0.3972  0.8182
 6784SOL    HW231815   1.412   0.870  17.413  0.4450  1.6661 -1.2360
 6785SOL     OW31816   0.904   0.708   7.752  0.1283 -0.0389 -0.1763
 6785SOL    HW131817   0.879   0.697   7.660 -1.6647 -2.7453  0.6486
 6785SOL    HW231818   0.862   0.633   7.792 -0.8902  1.0841  0.8397
 6786SOL     OW31819   1.502   0.487  17.534 -0.0739 -0.0167  0.0722
 6786SOL    HW131820   1.583   0.536  17.550  0.0220  0.3608 -1.5656
 6786SOL    HW231821   1.532   0.397  17.549  1.9996  0.5041 -0.8473
 6787SOL     OW31822   0.925   2.088   7.498  0.3200  0.2487 -0.1804
 6787SOL    HW131823   0.856   2.039   7.543  1.9679  0.4883  2.6005
 6787SOL    HW231824   0.869   2.164   7.483  1.1963  0.8985 -0.1694
 6788SOL     OW31825   3.001   2.840   0.597  0.1512  0.5127  0.8917
 6788SOL    HW131826   2.967   2.774   0.536 -1.7105  0.8239  1.5847
 6788SOL    HW231827   3.089   2.804   0.610  0.5161  0.8661 -0.6207
 6789SOL     OW31828   2.551   0.634   4.468 -0.4028 -0.1958 -0.3000
 6789SOL    HW131829   2.534   0.638   4.373 -0.2757  1.2701 -0.2676
 6789SOL    HW231830   2.637   0.674   4.455 -1.0026  1.4380  0.8026
 6790SOL     OW31831   0.723   3.318   2.258  0.1342  0.1488  0.1614
 6790SOL    HW131832   0.720   3.413   2.255 -1.9381  0.0934  0.1925
 6790SOL    HW231833   0.628   3.311   2.271  0.2342 -0.8775  0.4048
 6791SOL     OW31834   2.870   4.400  13.584 -0.0968 -0.1927 -0.1366
 6791SOL    HW131835   2.964   4.418  13.586  0.0224 -0.9630  0.8512
 6791SOL    HW231836   2.859   4.359  13.670 -1.3923  2.2922  0.8814
 6792SOL     OW31837   0.070   1.161   5.125  0.1790 -0.6117  0.2182
 6792SOL    HW131838   4.706   1.181   5.087  0.8973 -0.9879 -1.5599
 6792SOL    HW231839   0.041   1.151   5.216 -0.1954  0.3215  0.2004
 6793SOL     OW31840   0.370   1.190   7.434  0.3456  0.0701 -0.1416
 6793SOL    HW131841   0.399   1.240   7.357  0.5895 -1.5319 -1.0840
 6793SOL    HW231842   0.450   1.192   7.487  0.3498 -0.6167 -0.1194
 6794SOL     OW31843   1.477   0.108   9.252 -0.3946  0.1570  0.2730
 6794SOL    HW131844   1.508   0.035   9.306 -0.5358 -0.9903 -1.2097
 6794SOL    HW231845   1.400   0.132   9.304 -1.6508  0.3294 -1.6873
 6795SOL     OW31846   1.787   2.526  12.005  0.6389 -0.4056  0.7334
 6795SOL    HW131847   1.772   2.619  12.023  0.1234  0.3438 -3.5522
 6795SOL    HW231848   1.880   2.513  11.989  0.4123  1.7515 -2.5018
 6796SOL     OW31849   4.131   4.016   0.302  0.1396 -0.5459 -1.0033
 6796SOL    HW131850   4.159   4.107   0.312 -1.5820 -0.3076  1.7601
 6796SOL    HW231851   4.103   4.012   0.211 -0.6952 -0.2941 -0.7545
 6797SOL     OW31852   0.659   4.211   2.978  0.4323  0.0540  0.3288
 6797SOL    HW131853   0.643   4.244   2.890 -0.5543  1.4474  1.0309
 6797SOL    HW231854   0.744   4.245   3.004  0.0719  0.5745  0.8201
 6798SOL     OW31855   3.647   4.353   7.018  0.5476 -0.5988  0.2330
 6798SOL    HW131856   3.709   4.421   6.991 -0.2472 -0.4934 -1.3074
 6798SOL    HW231857   3.665   4.283   6.956 -0.3690 -1.8455  1.3771
 6799SOL     OW31858   1.730   1.928   2.370 -0.3952  0.1743 -0.7764
 6799SOL    HW131859   1.824   1.944   2.358 -0.2741 -0.9432 -1.3131
 6799SOL    HW231860   1.704   1.915   2.279 -1.1048 -0.2806 -0.5053
 6800SOL     OW31861   1.424   1.225   5.350  0.3292 -0.2387  0.1658
 6800SOL    HW131862   1.512   1.248   5.322 -0.5397  0.1251 -2.2671
 6800SOL    HW231863   1.392   1.305   5.393 -0.5921 -0.1958 -0.6127
 6801SOL     OW31864   3.879   2.058  12.632 -0.1887 -0.1058  0.0465
 6801SOL    HW131865   3.865   1.964  12.619 -1.1191  0.1686 -0.9794
 6801SOL    HW231866   3.806   2.093  12.581  0.8730  1.6511 -0.2643
 6802SOL     OW31867   0.428   4.302   4.842 -0.4343 -0.1915  0.2125
 6802SOL    HW131868   0.418   4.252   4.761 -0.4376 -0.6870  0.5193
 6802SOL    HW231869   0.376   4.236   4.887  0.5125  0.3535  2.0761
 6803SOL     OW31870   4.553   1.049  15.783 -0.2219 -0.0913  0.9423
 6803SOL    HW131871   4.503   1.085  15.709 -0.1307 -0.8761  0.4945
 6803SOL    HW231872   4.546   0.957  15.757 -1.4052  0.4148 -0.5475
 6804SOL     OW31873   0.629   2.153  10.476  0.1236  0.1121  0.1051
 6804SOL    HW131874   0.614   2.216  10.546 -2.2449 -2.2211  1.6902
 6804SOL    HW231875   0.605   2.076  10.527  1.4658  0.2106  0.8809
 6805SOL     OW31876   1.234   4.117   0.050  0.1285  0.0169 -0.2277
 6805SOL    HW131877   1.327   4.118   0.075  0.2304  2.0119 -0.6889
 6805SOL    HW231878   1.180   4.112   0.128  0.1750  1.0685 -0.1355
 6806SOL     OW31879   1.268   1.800   7.198  0.4029 -0.3512  0.2496
 6806SOL    HW131880   1.206   1.872   7.182  1.6275  0.6620  0.0666
 6806SOL    HW231881   1.334   1.864   7.223  0.4733  0.7674 -2.7956
 6807SOL     OW31882   3.823   4.006   7.965  0.0931  0.7102  0.7032
 6807SOL    HW131883   3.866   3.972   7.887  0.0048 -0.8419  1.3245
 6807SOL    HW231884   3.811   4.099   7.947 -1.5300  0.6757  1.5229
 6808SOL     OW31885   1.972   0.133   9.620  0.7849  0.2047 -0.2478
 6808SOL    HW131886   1.915   0.203   9.587  0.5543  0.0367 -0.2108
 6808SOL    HW231887   2.008   0.166   9.703 -0.5884 -0.0084  0.4406
 6809SOL     OW31888   2.689   3.200   5.950 -0.3566 -0.2973 -0.2620
 6809SOL    HW131889   2.680   3.105   5.944  2.4144 -0.5923  0.0632
 6809SOL    HW231890   2.606   3.213   5.994 -0.6100 -1.5773 -0.3680
 6810SOL     OW31891   1.604   0.783   6.319  0.5427  0.0151  0.0369
 6810SOL    HW131892   1.650   0.866   6.310  0.6614  0.1257  1.7497
 6810SOL    HW231893   1.537   0.798   6.386 -0.8867  1.3457 -1.6907
 6811SOL     OW31894   3.425   0.315   6.067 -0.3714 -0.6719 -0.0698
 6811SOL    HW131895   3.433   0.368   5.988 -0.9308  0.4526  0.6264
 6811SOL    HW231896   3.476   0.354   6.138  1.3719 -0.7924 -1.2390
 6812SOL     OW31897   3.849   1.538   9.016 -0.6366  0.1561 -0.8781
 6812SOL    HW131898   3.827   1.628   9.039 -1.8074 -0.4394  0.3176
 6812SOL    HW231899   3.939   1.548   8.986  0.0147  1.0905  1.3789
 6813SOL     OW31900   2.311   4.444  16.140  0.3523 -0.1013 -0.2930
 6813SOL    HW131901   2.335   4.415  16.052  0.4078 -0.7601 -0.0609
 6813SOL    HW231902   2.265   4.369  16.177  2.6021 -1.8991 -1.1324
 6814SOL     OW31903   2.526   0.029   3.523 -0.5508 -0.1086  0.3196
 6814SOL    HW131904   2.601   0.059   3.472  0.1730 -0.3387  1.2413
 6814SOL    HW231905   2.453   0.088   3.502  0.2596  0.2835 -1.3729
 6815SOL     OW31906   4.219   1.135  17.332  0.1778  0.7970  0.3335
 6815SOL    HW131907   4.299   1.133  17.384  0.4080 -1.8731 -0.1036
 6815SOL    HW231908   4.200   1.229  17.324  0.6997  0.7971 -0.8864
 6816SOL     OW31909   2.376   0.195   4.295 -0.0489 -0.0268 -0.1773
 6816SOL    HW131910   2.419   0.113   4.320 -1.8475 -1.1140 -0.5307
 6816SOL    HW231911   2.383   0.196   4.199 -1.9250 -0.8037 -0.3363
 6817SOL     OW31912   2.434   0.264  12.360  0.1795 -0.0596  0.0485
 6817SOL    HW131913   2.372   0.253  12.432 -0.5999 -2.0786 -0.9321
 6817SOL    HW231914   2.420   0.358  12.344 -0.1528 -0.2924 -0.9867
 6818SOL     OW31915   0.448   3.543   7.030 -0.0691 -0.6069  0.3284
 6818SOL    HW131916   0.451   3.482   6.956 -0.6134 -0.5023  0.2205
 6818SOL    HW231917   0.433   3.490   7.108  1.1997 -0.0475  0.9501
 6819SOL     OW31918   0.078   2.877   5.292  0.0588 -0.1025 -0.0944
 6819SOL    HW131919   0.133   2.934   5.238 -0.0542 -0.7527 -0.8980
 6819SOL    HW231920   0.106   2.789   5.266 -0.9959 -0.0204 -1.5029
 6820SOL     OW31921   2.977   3.477   4.860  0.2584  0.4188  0.0976
 6820SOL    HW131922   3.032   3.521   4.925  0.7493 -0.3650  0.2216
 6820SOL    HW231923   2.911   3.450   4.924  1.5811  0.9467  1.6932
 6821SOL     OW31924   3.727   4.040  15.471 -0.0021  0.3084  0.1905
 6821SOL    HW131925   3.671   4.117  15.467 -0.7039 -0.1854  0.5996
 6821SOL    HW231926   3.711   4.010  15.382  0.7414 -0.2660  0.2483
 6822SOL     OW31927   2.812   0.245  13.800 -0.0708  0.5372 -0.2398
 6822SOL    HW131928   2.786   0.156  13.827 -0.3009  0.1030 -1.9077
 6822SOL    HW231929   2.758   0.304  13.852  0.5911  2.0200 -1.2478
 6823SOL     OW31930   2.056   3.141   4.138 -0.3142  0.6217  0.0424
 6823SOL    HW131931   2.138   3.092   4.136  1.1537  3.0874  0.0722
 6823SOL    HW231932   2.076   3.235   4.145 -0.2103  0.4759  1.6812
 6824SOL     OW31933   1.500   0.093   5.880  0.0973 -0.1143 -0.4608
 6824SOL    HW131934   1.406   0.103   5.900  0.2854 -3.0186  1.7738
 6824SOL    HW231935   1.535   0.106   5.968 -0.4816  1.6069 -0.4670
 6825SOL     OW31936   3.892   0.100   9.289 -0.4020  0.4119 -0.0082
 6825SOL    HW131937   3.828   0.037   9.255 -0.9291 -0.3004  2.3223
 6825SOL    HW231938   3.851   0.183   9.267  1.7175  1.2798 -0.7265
 6826SOL     OW31939   2.938   1.741   6.220 -0.1541 -0.6033  0.2658
 6826SOL    HW131940   2.971   1.821   6.179 -0.8967 -1.3142 -1.7088
 6826SOL    HW231941   2.926   1.681   6.147  1.8275  2.4928 -2.6219
 6827SOL     OW31942   3.366   3.036   1.351  0.9047 -0.1509 -0.0708
 6827SOL    HW131943   3.432   2.968   1.344 -0.0624 -1.0690 -0.2214
 6827SOL    HW231944   3.409   3.114   1.315  1.4484 -1.1429 -1.5507
 6828SOL     OW31945   3.857   1.202   4.126  0.8057  0.1513  0.3546
 6828SOL    HW131946   3.851   1.109   4.108 -3.0854  0.2540  1.1402
 6828SOL    HW231947   3.952   1.211   4.136  0.8993 -0.0112 -0.4528
 6829SOL     OW31948   1.129   2.349   5.657 -0.2164  0.2911 -0.1115
 6829SOL    HW131949   1.036   2.371   5.665 -0.7636 -1.8653 -0.4921
 6829SOL    HW231950   1.131   2.270   5.710 -0.3656  1.2585  1.3302
 6830SOL     OW31951   2.649   1.370   8.567  0.1979  0.6784  0.0599
 6830SOL    HW131952   2.557   1.386   8.546 -0.2760 -0.3074  1.3893
 6830SOL    HW231953   2.664   1.440   8.631 -1.2302  0.5586  0.5297
 6831SOL     OW31954   4.344   0.082   3.142  0.0486 -0.1148  0.4592
 6831SOL    HW131955   4.382   0.166   3.168  0.6026  0.1542 -1.2138
 6831SOL    HW231956   4.422   0.033   3.118 -0.3228 -1.0680  1.1812
 6832SOL     OW31957   4.083   3.430   4.863 -0.2991  0.5825 -0.4007
 6832SOL    HW131958   4.145   3.356   4.865  0.6436  1.3928  0.3802
 6832SOL    HW231959   4.081   3.450   4.956  0.0986 -0.7220 -0.1076
 6833SOL     OW31960   3.459   2.612   2.097 -0.3652  0.2495  0.8306
 6833SOL    HW131961   3.508   2.570   2.027  0.7123 -1.3976  2.5502
 6833SOL    HW231962   3.524   2.654   2.153 -1.8191  2.8942  0.5461
 6834SOL     OW31963   4.368   1.822   3.589 -0.5242  0.2753 -0.6506
 6834SOL    HW131964   4.299   1.884   3.613 -1.6599 -0.0993 -2.9734
 6834SOL    HW231965   4.382   1.843   3.497 -1.4445 -0.1285 -0.8841
 6835SOL     OW31966   4.563   1.953   5.698 -0.3115 -0.6033 -0.1809
 6835SOL    HW131967   4.494   1.895   5.664 -0.5340 -2.0663  2.8415
 6835SOL    HW231968   4.582   2.007   5.622  1.0499  2.5123  2.4218
 6836SOL     OW31969   3.063   4.626   5.747 -0.0545 -0.1881  0.1842
 6836SOL    HW131970   3.028   4.701   5.698  2.4233 -0.3003 -1.7339
 6836SOL    HW231971   3.105   4.586   5.671  1.3330  0.9386  0.3518
 6837SOL     OW31972   1.302   1.036   1.633  0.0211  0.6221  0.1876
 6837SOL    HW131973   1.342   1.108   1.585 -0.5977  0.9605  0.1818
 6837SOL    HW231974   1.375   0.977   1.616 -1.7147 -1.9549  1.5854
 6838SOL     OW31975   4.418   0.695  15.759 -0.3067 -0.0729  0.8981
 6838SOL    HW131976   4.499   0.716  15.712 -2.2973  0.0488 -2.4446
 6838SOL    HW231977   4.462   0.674  15.841  1.1780 -2.1518 -0.4355
 6839SOL     OW31978   2.244   1.357   5.488  0.6713 -0.5387  0.0382
 6839SOL    HW131979   2.321   1.348   5.545 -0.9003 -2.7809  1.8306
 6839SOL    HW231980   2.281   1.412   5.420  0.8260  0.8153  1.2255
 6840SOL     OW31981   3.895   3.910   8.628 -0.3207 -0.0441  0.4729
 6840SOL    HW131982   3.841   3.862   8.690  2.2586  0.7561  3.3623
 6840SOL    HW231983   3.873   4.001   8.649  1.2861  0.3204  0.6185
 6841SOL     OW31984   4.164   1.562   1.871  0.0640  0.1971 -0.3577
 6841SOL    HW131985   4.156   1.642   1.922 -0.2120 -0.0675  0.0110
 6841SOL    HW231986   4.180   1.600   1.784 -0.8336 -2.1329 -1.5397
 6842SOL     OW31987   2.512   4.012  12.467 -0.0493  0.3314 -0.2371
 6842SOL    HW131988   2.445   4.066  12.509  0.3916 -0.0291  0.9177
 6842SOL    HW231989   2.570   4.080  12.434 -2.0986  2.7181  1.0396
 6843SOL     OW31990   1.557   1.067   6.482  0.2555 -0.5790  0.4830
 6843SOL    HW131991   1.635   1.023   6.448  0.8978  1.4901 -0.7193
 6843SOL    HW231992   1.514   0.991   6.522  1.7609 -2.5242 -1.5203
 6844SOL     OW31993   3.173   0.206   4.010 -0.9129 -0.3692 -0.1119
 6844SOL    HW131994   3.223   0.206   3.928 -1.2006 -0.0528 -0.2876
 6844SOL    HW231995   3.239   0.210   4.080 -0.3122 -1.3493 -0.6284
 6845SOL     OW31996   4.563   4.196  11.400  0.5501  0.2364 -0.8308
 6845SOL    HW131997   4.587   4.152  11.482 -1.5953  1.5411  0.4701
 6845SOL    HW231998   4.635   4.252  11.372  0.6567 -0.2133 -1.4661
 6846SOL     OW31999   0.461   0.377   6.712  0.3774  0.4361  0.3150
 6846SOL    HW132000   0.391   0.423   6.756  0.9822  0.2590  1.4579
 6846SOL    HW232001   0.523   0.446   6.689  0.4212  0.1891 -0.3217
 6847SOL     OW32002   0.927   4.297   6.505 -0.0333  0.0697 -0.0244
 6847SOL    HW132003   0.865   4.275   6.574 -1.3082  3.7136 -0.0152
 6847SOL    HW232004   0.932   4.392   6.510 -2.6440  0.1262  1.3026
 6848SOL     OW32005   0.921   3.310  15.685  0.0543 -0.2409  0.4794
 6848SOL    HW132006   0.862   3.383  15.666 -0.3064 -0.2410  1.5731
 6848SOL    HW232007   0.881   3.242  15.630  0.6422 -0.7740  0.7144
 6849SOL     OW32008   0.981   3.901  10.095  0.1193 -0.1233 -0.1945
 6849SOL    HW132009   1.065   3.854  10.090  0.1174 -0.3360  1.6047
 6849SOL    HW232010   0.919   3.846  10.048 -1.0945 -1.0742  2.5131
 6850SOL     OW32011   1.834   4.295  12.382 -0.0101 -0.7139  0.0045
 6850SOL    HW132012   1.801   4.384  12.396  3.7119  0.8066 -0.7870
 6850SOL    HW232013   1.911   4.288  12.438  0.1465 -0.8300 -0.2268
 6851SOL     OW32014   2.984   2.558  10.141 -0.4708  0.3519  0.8227
 6851SOL    HW132015   2.990   2.509  10.223  2.1066  0.4769  0.7089
 6851SOL    HW232016   2.910   2.611  10.171 -2.5872 -0.7581 -2.4195
 6852SOL     OW32017   4.007   0.925   2.682  0.0834  0.2737  0.6955
 6852SOL    HW132018   4.041   0.879   2.759  0.8555 -2.2195 -1.1542
 6852SOL    HW232019   4.037   0.869   2.611 -0.9971  0.4870  0.0694
 6853SOL     OW32020   2.797   1.802   2.193 -0.2499 -0.0451  0.4082
 6853SOL    HW132021   2.792   1.760   2.279 -2.7613  2.0920  1.3135
 6853SOL    HW232022   2.829   1.728   2.143 -0.2492  0.6275 -0.5825
 6854SOL     OW32023   3.021   4.240   3.356 -0.1464 -0.8714  0.2897
 6854SOL    HW132024   3.078   4.171   3.321 -0.8977 -0.4083 -1.8672
 6854SOL    HW232025   2.948   4.187   3.387 -0.4934 -0.7013 -0.2314
 6855SOL     OW32026   2.599   1.860   1.921  0.1795 -0.4089 -0.2319
 6855SOL    HW132027   2.623   1.777   1.963  1.1182 -0.3427 -0.6199
 6855SOL    HW232028   2.667   1.878   1.855  1.3958 -1.0866  0.8260
 6856SOL     OW32029   0.374   1.866  11.969  0.3026  0.0838 -0.0702
 6856SOL    HW132030   0.381   1.916  12.050 -3.1068  0.1708  0.1768
 6856SOL    HW232031   0.283   1.881  11.943 -0.3744 -1.5010  1.3548
 6857SOL     OW32032   0.904   1.011   3.581  0.0892 -0.1254 -0.0041
 6857SOL    HW132033   0.916   1.092   3.532  1.2395  0.1381  0.7009
 6857SOL    HW232034   0.868   0.953   3.514  0.1445 -1.7774  1.3827
 6858SOL     OW32035   0.932   3.661  11.966 -0.2489  0.4692  0.3799
 6858SOL    HW132036   0.946   3.641  12.058  0.6575  1.2398  0.4114
 6858SOL    HW232037   0.849   3.620  11.942 -0.3552 -0.7756  2.8821
 6859SOL     OW32038   3.429   4.477   7.079 -0.1903  0.1106 -0.1989
 6859SOL    HW132039   3.434   4.565   7.040  0.3249  0.8423  1.5229
 6859SOL    HW232040   3.518   4.443   7.071  0.0384  0.9100 -1.0448
 6860SOL     OW32041   4.325   3.775  11.316  0.4195  0.0409 -0.1842
 6860SOL    HW132042   4.369   3.856  11.289  0.6888  0.3416  1.1456
 6860SOL    HW232043   4.395   3.748  11.376 -0.0907 -1.2588 -0.1592
 6861SOL     OW32044   0.462   3.810   2.972 -0.7015  0.5875  0.1632
 6861SOL    HW132045   0.502   3.741   2.920  0.3674  0.2156  1.4741
 6861SOL    HW232046   0.427   3.763   3.048  0.4555 -1.3055 -0.4946
 6862SOL     OW32047   1.126   3.075   6.188 -0.8303 -0.2552 -0.1372
 6862SOL    HW132048   1.110   3.025   6.107 -0.1935 -0.3887 -0.1854
 6862SOL    HW232049   1.084   3.156   6.160 -1.7786 -0.1592  1.5958
 6863SOL     OW32050   2.974   0.072   9.256 -0.5906  0.4912  0.3126
 6863SOL    HW132051   2.947   4.703   9.268  0.4833 -0.2733 -2.8978
 6863SOL    HW232052   2.929   0.092   9.174  0.7259  0.5054 -0.4049
 6864SOL     OW32053   2.369   0.310   9.778 -0.2758  0.1909 -0.6148
 6864SOL    HW132054   2.290   0.302   9.833 -0.6008  2.1788 -0.8017
 6864SOL    HW232055   2.322   0.332   9.697  0.1236  1.3873 -0.5173
 6865SOL     OW32056   4.673   4.078   4.549  0.4740 -0.1797  0.3982
 6865SOL    HW132057   0.003   4.158   4.557 -0.5193  0.7590 -2.5411
 6865SOL    HW232058   0.022   4.017   4.570  1.1407  1.3514  2.6076
 6866SOL     OW32059   2.614   1.277   5.128  0.2041  0.6420 -0.0883
 6866SOL    HW132060   2.607   1.206   5.191 -1.1848  0.0173 -0.9455
 6866SOL    HW232061   2.698   1.257   5.085 -1.0040 -0.9236 -1.7201
 6867SOL     OW32062   4.330   2.359   1.917 -0.6452 -0.5334  0.4854
 6867SOL    HW132063   4.400   2.423   1.898 -0.5480 -1.6956 -3.0364
 6867SOL    HW232064   4.271   2.407   1.976  0.4385  0.5885  0.6663
 6868SOL     OW32065   0.984   3.554   7.223  0.3216  0.0910 -0.1182
 6868SOL    HW132066   0.937   3.602   7.292 -0.0586  0.3939 -0.5812
 6868SOL    HW232067   1.075   3.575   7.244  1.2113 -0.7666 -3.1401
 6869SOL     OW32068   0.141   1.269   5.585  0.1282  0.7130  0.2415
 6869SOL    HW132069   0.221   1.221   5.608 -1.8162 -0.8577  3.6539
 6869SOL    HW232070   0.146   1.350   5.637 -0.0309  0.6018  0.4287
 6870SOL     OW32071   3.065   1.531   6.521 -0.0605 -0.2351  0.3605
 6870SOL    HW132072   3.082   1.532   6.615  0.3950  1.8104  0.2710
 6870SOL    HW232073   2.970   1.521   6.510 -0.2062 -0.6602  1.9947
 6871SOL     OW32074   0.463   2.998   9.354 -0.7950  0.3070 -0.6641
 6871SOL    HW132075   0.422   2.950   9.282  0.9326 -0.7877 -0.9179
 6871SOL    HW232076   0.543   2.949   9.373 -0.4584  0.8021 -0.7898
 6872SOL     OW32077   3.537   4.292  12.228  0.3188  0.2233  0.1742
 6872SOL    HW132078   3.490   4.216  12.261 -3.0433  0.5699 -3.7739
 6872SOL    HW232079   3.626   4.257  12.226  0.8456  1.5978 -0.3887
 6873SOL     OW32080   0.662   2.439   3.194 -0.0939 -0.3512  0.7925
 6873SOL    HW132081   0.757   2.441   3.182 -0.3086 -0.7339 -0.9439
 6873SOL    HW232082   0.649   2.388   3.274 -1.9439 -0.4626  0.4175
 6874SOL     OW32083   3.437   0.339   1.333  0.3326 -0.1463  0.1145
 6874SOL    HW132084   3.467   0.370   1.248  0.8410 -0.1170  0.3080
 6874SOL    HW232085   3.471   0.250   1.340 -0.1820 -0.2706  0.9920
 6875SOL     OW32086   0.723   2.406   2.348 -0.0776  0.1116 -0.2728
 6875SOL    HW132087   0.632   2.388   2.325 -0.2322  0.5188  0.0161
 6875SOL    HW232088   0.733   2.477   2.284 -0.7242 -0.1231 -0.6343
 6876SOL     OW32089   3.124   3.850  15.234  0.0386 -0.4467  0.0112
 6876SOL    HW132090   3.191   3.806  15.183  1.8319  0.4318  1.6250
 6876SOL    HW232091   3.060   3.861  15.164 -2.2249  2.1591  2.4789
 6877SOL     OW32092   0.048   0.022  10.145 -0.4690 -0.0624 -0.2356
 6877SOL    HW132093   0.049   4.702  10.059 -0.2729  0.5258 -0.5221
 6877SOL    HW232094   0.015   0.110  10.127 -1.5089 -0.2027  0.9417
 6878SOL     OW32095   2.648   2.421   5.103 -0.0896  0.2386 -0.6611
 6878SOL    HW132096   2.683   2.455   5.021 -2.8692  0.5608 -1.7285
 6878SOL    HW232097   2.678   2.330   5.100 -0.6110 -0.0506  2.7497
 6879SOL     OW32098   0.356   2.255   6.238  0.3172  0.1707  0.0301
 6879SOL    HW132099   0.428   2.195   6.217 -0.7482 -1.4308  1.0027
 6879SOL    HW232100   0.347   2.304   6.156 -2.9907 -1.6127 -0.6671
 6880SOL     OW32101   3.067   1.709   1.289 -0.4016 -0.2661 -0.7413
 6880SOL    HW132102   3.012   1.770   1.339 -0.5467  0.9619 -2.4036
 6880SOL    HW232103   3.120   1.663   1.354 -3.1233  1.8639  3.0171
 6881SOL     OW32104   3.654   1.140   7.651  0.1910 -0.7685  0.1018
 6881SOL    HW132105   3.560   1.159   7.641  0.3245  0.1171  0.5669
 6881SOL    HW232106   3.654   1.101   7.738 -1.8675  2.3961  1.5434
 6882SOL     OW32107   1.257   4.175   4.492 -0.4904  0.3377  0.2480
 6882SOL    HW132108   1.195   4.121   4.443  0.5725 -1.6172  1.0431
 6882SOL    HW232109   1.266   4.113   4.564  0.1498  0.7397  0.5170
 6883SOL     OW32110   1.157   0.700   4.846 -0.5196 -0.3716 -0.6591
 6883SOL    HW132111   1.075   0.740   4.818 -0.9623 -0.6401  0.2792
 6883SOL    HW232112   1.130   0.647   4.921  1.4949  0.7843  0.8919
 6884SOL     OW32113   4.192   1.906   8.213 -0.1485  0.5707  0.1067
 6884SOL    HW132114   4.238   1.834   8.257  1.6078  1.3954 -0.3448
 6884SOL    HW232115   4.113   1.901   8.266  0.5815  1.5604  1.2851
 6885SOL     OW32116   3.564   3.586   0.899 -0.0888  0.0218  0.4101
 6885SOL    HW132117   3.522   3.578   0.984 -1.3947  3.9592  0.1571
 6885SOL    HW232118   3.583   3.680   0.895 -0.7581  0.1712  0.6863
 6886SOL     OW32119   0.165   4.577   8.322 -0.3539  0.3220 -0.0225
 6886SOL    HW132120   0.257   4.552   8.335 -0.4018 -0.0557 -0.3915
 6886SOL    HW232121   0.161   4.663   8.363  1.1197  0.3345  0.1129
 6887SOL     OW32122   4.200   4.301  16.747 -0.5108  0.2855  0.0303
 6887SOL    HW132123   4.289   4.295  16.713 -0.2786  3.6185  0.0264
 6887SOL    HW232124   4.211   4.349  16.829 -0.9134  0.2410  0.1090
 6888SOL     OW32125   2.326   3.031   6.814 -0.6621 -0.5695 -1.0740
 6888SOL    HW132126   2.324   3.037   6.719 -1.4261 -0.8869 -1.0817
 6888SOL    HW232127   2.396   3.089   6.844 -2.2538  1.2256 -0.8196
 6889SOL     OW32128   2.643   2.695   9.547 -0.1075  0.1455  0.5975
 6889SOL    HW132129   2.558   2.726   9.580 -0.7536  0.4885 -1.3865
 6889SOL    HW232130   2.673   2.660   9.631 -2.0795 -2.5059  0.2178
 6890SOL     OW32131   0.645   0.572  12.567 -0.2759 -0.2827  0.1272
 6890SOL    HW132132   0.568   0.630  12.566  0.6497  0.9632  0.3716
 6890SOL    HW232133   0.627   0.503  12.630 -0.9945 -1.1455 -1.0281
 6891SOL     OW32134   2.337   0.353   7.422  0.1592 -0.4313  0.4530
 6891SOL    HW132135   2.372   0.413   7.488  0.0083  0.4139 -0.2339
 6891SOL    HW232136   2.245   0.345   7.447 -0.2459  0.6770 -0.6388
 6892SOL     OW32137   0.298   3.978  17.355 -1.0673  0.0453 -0.3702
 6892SOL    HW132138   0.317   3.975  17.261  0.9561 -1.7767  0.1085
 6892SOL    HW232139   0.362   4.035  17.396 -1.8974  0.4947  0.3019
 6893SOL     OW32140   0.356   2.426  12.193  0.3211 -0.4306 -0.4464
 6893SOL    HW132141   0.343   2.350  12.135 -2.0029  1.5785 -2.5391
 6893SOL    HW232142   0.286   2.484  12.164 -0.0323 -0.1768  0.9407
 6894SOL     OW32143   3.657   4.563   4.754 -0.3659 -0.6698 -0.1533
 6894SOL    HW132144   3.574   4.573   4.707 -1.5039 -0.8275  1.7934
 6894SOL    HW232145   3.699   4.495   4.703 -1.7239 -0.1261 -1.9845
 6895SOL     OW32146   2.184   1.489  10.250 -0.1544  0.2394 -0.3610
 6895SOL    HW132147   2.243   1.561  10.228 -1.3473  1.1684 -0.5372
 6895SOL    HW232148   2.242   1.413  10.247 -1.0557 -0.4358 -0.8172
 6896SOL     OW32149   4.670   0.761  15.615 -0.0424  0.0512  0.3168
 6896SOL    HW132150   4.693   0.808  15.535 -2.3528  1.0400  0.2207
 6896SOL    HW232151   4.681   0.673  15.580 -0.6794  1.1486 -2.6945
 6897SOL     OW32152   3.757   0.036  13.921 -0.0691 -0.1617 -0.5584
 6897SOL    HW132153   3.742   0.033  14.015 -0.4123 -3.8407 -0.7483
 6897SOL    HW232154   3.850   0.058  13.920 -0.0911 -0.0730 -0.6538
 6898SOL     OW32155   4.649   0.584   6.293 -0.0225 -0.2946 -0.0823
 6898SOL    HW132156   4.642   0.677   6.316  0.1205  0.1040 -1.6537
 6898SOL    HW232157   4.691   0.552   6.373  0.7604  0.0978 -0.3283
 6899SOL     OW32158   2.615   3.492   7.083 -0.4513 -0.0168  0.3405
 6899SOL    HW132159   2.623   3.577   7.040 -0.3817  1.2767  2.8911
 6899SOL    HW232160   2.587   3.522   7.170  0.4801 -0.2830  0.7257
 6900SOL     OW32161   4.364   4.706   7.450  0.0518  0.1097  0.0332
 6900SOL    HW132162   4.295   4.710   7.516 -1.8026 -0.0417 -1.9041
 6900SOL    HW232163   4.309   4.709   7.372  1.0631  0.7009 -0.6540
 6901SOL     OW32164   2.383   0.815   7.045  0.0970 -0.3880 -0.5547
 6901SOL    HW132165   2.442   0.770   6.985  0.0766  0.5862 -1.3026
 6901SOL    HW232166   2.394   0.770   7.129  1.6549  1.3020  0.1634
 6902SOL     OW32167   4.317   4.286   8.945  0.1559 -0.3059  0.1140
 6902SOL    HW132168   4.259   4.361   8.956  0.6349  0.2917 -1.4499
 6902SOL    HW232169   4.386   4.313   9.005 -0.8150  0.0008  1.0903
 6903SOL     OW32170   1.927   3.122  13.244 -0.1071 -0.4793 -0.2151
 6903SOL    HW132171   1.930   3.033  13.208 -0.6248  0.2984 -2.1395
 6903SOL    HW232172   1.835   3.127  13.269  0.1843  2.2895  0.3010
 6904SOL     OW32173   3.009   1.955   5.214  0.4428 -0.5528 -0.2816
 6904SOL    HW132174   2.974   1.871   5.183 -0.1383 -0.4330  0.0530
 6904SOL    HW232175   2.999   1.944   5.308  1.2596 -2.1457 -0.3673
 6905SOL     OW32176   4.229   1.020   6.316  0.1184 -0.1791 -0.1892
 6905SOL    HW132177   4.212   0.926   6.321 -1.1753  0.1286  0.9536
 6905SOL    HW232178   4.251   1.042   6.406  2.4212  1.1499 -1.0659
 6906SOL     OW32179   2.691   1.496   8.260  0.7084  0.2375 -0.1856
 6906SOL    HW132180   2.628   1.425   8.258  2.4784 -1.4046  1.9195
 6906SOL    HW232181   2.658   1.560   8.324  1.6903 -1.8469  2.4387
 6907SOL     OW32182   2.788   0.075   3.095 -0.4437  0.2154 -0.2965
 6907SOL    HW132183   2.730   0.144   3.062 -1.3999 -0.5863 -0.2927
 6907SOL    HW232184   2.721   0.010   3.119  0.7694 -1.5118 -1.5930
 6908SOL     OW32185   4.057   4.390  12.228  0.1099 -0.3280 -0.4192
 6908SOL    HW132186   4.098   4.443  12.297 -0.5266  0.9192 -1.0126
 6908SOL    HW232187   4.026   4.463  12.176 -1.3864 -0.1089  0.7739
 6909SOL     OW32188   0.067   2.275   9.700  0.6938 -0.2224  0.2260
 6909SOL    HW132189   0.019   2.298   9.779  2.8586  1.6036  0.9946
 6909SOL    HW232190   0.109   2.191   9.721  1.8179 -0.1791 -1.8209
 6910SOL     OW32191   2.928   2.424   6.007 -1.2807  0.5820 -0.3866
 6910SOL    HW132192   2.865   2.353   5.995 -0.5837 -0.2535  0.8724
 6910SOL    HW232193   3.003   2.395   5.955 -0.9545  0.7451 -0.0087
 6911SOL     OW32194   3.812   2.825   5.205  0.0376  0.1396  0.5736
 6911SOL    HW132195   3.888   2.857   5.253 -0.4673  2.7038 -0.3426
 6911SOL    HW232196   3.816   2.730   5.214  0.7069  0.3486  2.4141
 6912SOL     OW32197   3.242   0.097   6.562 -0.3668  0.5507  0.1888
 6912SOL    HW132198   3.208   0.009   6.543  0.9371 -0.4469  2.4386
 6912SOL    HW232199   3.182   0.163   6.525  0.4043  1.0831 -0.1046
 6913SOL     OW32200   0.285   0.205   9.659 -0.2114 -0.4502  0.0688
 6913SOL    HW132201   0.198   0.203   9.700  0.1822  0.8396  0.9808
 6913SOL    HW232202   0.287   0.115   9.627  1.1782  0.4635 -2.4063
 6914SOL     OW32203   4.112   4.208   4.101  0.0755  0.6575  0.1853
 6914SOL    HW132204   4.139   4.139   4.161  2.1039  0.3872 -0.9986
 6914SOL    HW232205   4.087   4.271   4.168 -1.3801  0.0169  0.2434
 6915SOL     OW32206   2.150   0.513   9.694 -0.5451 -0.2970  0.3605
 6915SOL    HW132207   2.209   0.586   9.712  2.2375 -1.5203 -4.0298
 6915SOL    HW232208   2.125   0.481   9.781 -0.0773 -0.2932  0.4974
 6916SOL     OW32209   0.456   1.862   3.030 -0.4288 -0.2512 -0.5412
 6916SOL    HW132210   0.456   1.783   2.975  0.8337  0.1171 -1.0825
 6916SOL    HW232211   0.496   1.833   3.112  0.2862  0.4744 -0.6319
 6917SOL     OW32212   4.406   0.636   3.892  0.0104  0.7787  0.2677
 6917SOL    HW132213   4.386   0.660   3.983 -0.9540 -0.7838  0.4627
 6917SOL    HW232214   4.441   0.719   3.860 -0.1300 -0.0554 -2.0503
 6918SOL     OW32215   4.715   0.604   7.405  0.2064  0.5553 -0.8411
 6918SOL    HW132216   4.643   0.664   7.428 -0.0855  0.4514 -1.4736
 6918SOL    HW232217   4.683   0.536   7.465 -0.7829  0.4936 -1.4426
 6919SOL     OW32218   3.669   0.711   8.146  0.3950 -0.3915 -0.0853
 6919SOL    HW132219   3.661   0.793   8.194 -3.7874 -0.2181 -1.1233
 6919SOL    HW232220   3.699   0.647   8.211 -1.2437 -0.7889  0.2616
 6920SOL     OW32221   0.799   2.044  13.875 -0.3031 -0.4635 -0.4335
 6920SOL    HW132222   0.807   1.999  13.791 -0.8120  0.1417 -0.8148
 6920SOL    HW232223   0.770   1.973  13.932 -3.1600 -0.5389 -1.9531
 6921SOL     OW32224   1.992   0.777   9.791 -0.6610 -0.7001  0.1066
 6921SOL    HW132225   2.023   0.853   9.743 -0.5212  0.8959  2.7567
 6921SOL    HW232226   2.041   0.708   9.746  3.3233  0.4464  2.7670
 6922SOL     OW32227   1.477   0.402   3.539 -0.1101  0.2985  0.3448
 6922SOL    HW132228   1.503   0.313   3.513 -1.7942 -0.2283  0.4516
 6922SOL    HW232229   1.494   0.452   3.459 -1.2985 -0.4758 -0.3977
 6923SOL     OW32230   2.889   4.118   5.550 -0.6391  0.0364 -0.0301
 6923SOL    HW132231   2.886   4.060   5.626 -4.7916 -0.2444 -0.4037
 6923SOL    HW232232   2.866   4.199   5.596 -1.4781 -0.3964  0.3172
 6924SOL     OW32233   2.691   1.595  15.091 -0.1054  0.4301  0.2370
 6924SOL    HW132234   2.723   1.573  15.004 -1.0027 -1.8338  0.4765
 6924SOL    HW232235   2.641   1.515  15.106  0.7419  0.2262  1.9787
 6925SOL     OW32236   0.894   4.143   4.454 -0.3334  0.5198 -0.0880
 6925SOL    HW132237   0.815   4.189   4.484 -0.4118 -1.0235  2.0543
 6925SOL    HW232238   0.940   4.138   4.538 -1.9613 -2.2679  0.6190
 6926SOL     OW32239   3.879   1.975  15.626 -0.5183  0.4361  0.0063
 6926SOL    HW132240   3.939   1.986  15.553 -0.7993 -1.1570 -0.4778
 6926SOL    HW232241   3.830   2.057  15.625 -0.3690  0.5101 -0.9302
 6927SOL     OW32242   0.105   0.087  16.077  0.2387  0.3760 -0.3435
 6927SOL    HW132243   0.159   0.009  16.065 -0.5148 -0.3965  1.3767
 6927SOL    HW232244   0.170   0.152  16.051  1.3588 -0.5239  0.1923
 6928SOL     OW32245   4.470   1.233   8.996  0.2238  0.1539 -0.1953
 6928SOL    HW132246   4.439   1.230   8.906 -1.5342 -1.4580  0.4461
 6928SOL    HW232247   4.480   1.327   9.010 -1.4343  0.4009 -0.6809
 6929SOL     OW32248   3.251   0.159   9.071  0.2379  0.2357 -0.1024
 6929SOL    HW132249   3.251   0.082   9.014 -1.1326  0.4064 -0.3383
 6929SOL    HW232250   3.278   0.118   9.153  3.2346  0.8793 -0.7804
 6930SOL     OW32251   3.903   0.435   9.405  0.2326 -0.0496 -0.1850
 6930SOL    HW132252   3.992   0.427   9.369  0.3283 -0.4497  0.1414
 6930SOL    HW232253   3.854   0.449   9.324 -1.4368  2.8376  1.3222
 6931SOL     OW32254   3.921   2.682   5.549  0.6847  0.8464 -0.2243
 6931SOL    HW132255   3.904   2.655   5.640  3.6208 -1.9615 -0.5053
 6931SOL    HW232256   4.013   2.664   5.531  0.2240  0.1144 -1.7897
 6932SOL     OW32257   0.652   0.969   2.678  0.1567  0.1724  0.7091
 6932SOL    HW132258   0.598   1.021   2.619  1.9698  2.3021  0.8983
 6932SOL    HW232259   0.741   1.004   2.671  0.9438 -2.1921 -1.0363
 6933SOL     OW32260   3.897   0.031  17.612 -0.2152  0.3041 -0.1028
 6933SOL    HW132261   3.891   0.068   0.010 -0.6525 -0.7063  0.2913
 6933SOL    HW232262   3.961   0.085  17.564 -2.1153  0.9435 -1.9171
 6934SOL     OW32263   0.599   3.843   5.741  0.0096 -0.1593 -0.1995
 6934SOL    HW132264   0.615   3.808   5.653  2.7016  0.9739 -0.1466
 6934SOL    HW232265   0.507   3.871   5.741 -0.2223 -0.9524  1.1446
 6935SOL     OW32266   1.388   4.502   4.708  0.0561  0.1915  0.2423
 6935SOL    HW132267   1.321   4.440   4.681 -0.7463  0.5713  1.3612
 6935SOL    HW232268   1.384   4.565   4.636 -0.3559  0.8993  0.8775
 6936SOL     OW32269   3.590   2.123   9.671  0.1312  0.2198  0.4608
 6936SOL    HW132270   3.638   2.172   9.605  1.7573 -0.9860  0.7206
 6936SOL    HW232271   3.508   2.100   9.629  0.0167 -3.9005  2.8958
 6937SOL     OW32272   4.538   4.154   1.873  0.2588  0.5654 -0.5135
 6937SOL    HW132273   4.507   4.231   1.922  1.6412  0.0930  1.0757
 6937SOL    HW232274   4.628   4.138   1.899 -0.1203  1.8811  1.6193
 6938SOL     OW32275   3.570   2.174   8.087 -0.3366  0.6373 -0.5616
 6938SOL    HW132276   3.555   2.247   8.148  0.7087  0.5615 -0.2102
 6938SOL    HW232277   3.554   2.219   8.004  2.3803  0.3709 -1.2324
 6939SOL     OW32278   2.758   1.265   1.943  0.7062  0.1294 -0.4142
 6939SOL    HW132279   2.697   1.194   1.964 -0.3445  2.2033  3.5610
 6939SOL    HW232280   2.847   1.230   1.947  0.8281  0.5066  0.2242
 6940SOL     OW32281   0.389   3.088   5.297 -0.3795 -0.1432 -0.2069
 6940SOL    HW132282   0.306   3.085   5.250 -0.6651  0.2571  0.2688
 6940SOL    HW232283   0.440   3.011   5.273  0.3949 -0.8787  3.7544
 6941SOL     OW32284   1.823   2.841   5.904 -0.4433  0.7570 -0.2259
 6941SOL    HW132285   1.826   2.789   5.823 -1.0736 -1.3383  1.0901
 6941SOL    HW232286   1.842   2.773   5.969  2.4103 -0.2896 -2.1100
 6942SOL     OW32287   0.511   1.733  10.356 -0.2264 -0.2621 -0.0319
 6942SOL    HW132288   0.530   1.787  10.433  0.5132  0.1963 -0.5379
 6942SOL    HW232289   0.578   1.665  10.367  2.1293  2.2446  0.9863
 6943SOL     OW32290   3.682   4.157   3.386 -0.3120  0.6485 -0.5063
 6943SOL    HW132291   3.741   4.185   3.316  0.8772 -0.1396  0.1806
 6943SOL    HW232292   3.678   4.062   3.383  1.0659  0.4899  1.9458
 6944SOL     OW32293   2.588   3.505   3.753  0.1043  0.3933  0.3459
 6944SOL    HW132294   2.644   3.433   3.781  0.4937  1.2551  1.7898
 6944SOL    HW232295   2.524   3.452   3.706 -0.6660 -1.3400  3.3208
 6945SOL     OW32296   0.030   3.662   7.479  0.0041 -0.1676 -0.0135
 6945SOL    HW132297   4.721   3.680   7.568  0.7513  1.7697 -0.1470
 6945SOL    HW232298   4.676   3.694   7.429  0.0215 -1.3305 -0.7926
 6946SOL     OW32299   0.969   0.313  13.103  0.0408 -0.4609  0.3318
 6946SOL    HW132300   1.025   0.291  13.029  1.4413  1.5813  0.7750
 6946SOL    HW232301   0.881   0.308  13.065  0.5835 -0.3630 -0.9347
 6947SOL     OW32302   1.969   4.436  16.001  0.0333  0.0728  0.0154
 6947SOL    HW132303   2.048   4.393  15.968 -0.8875 -2.1728  0.6828
 6947SOL    HW232304   1.913   4.358  15.998  0.1720  0.0097 -1.0505
 6948SOL     OW32305   0.514   0.364   9.670 -0.5896 -0.0432 -0.6565
 6948SOL    HW132306   0.444   0.307   9.637  1.3714 -1.6588 -2.0449
 6948SOL    HW232307   0.480   0.407   9.748 -0.5123  0.3011 -0.8108
 6949SOL     OW32308   0.442   3.045  12.917 -0.0342  0.7148  0.0862
 6949SOL    HW132309   0.449   3.138  12.893 -2.7411  0.8188 -0.2892
 6949SOL    HW232310   0.392   3.040  12.998  0.5430  1.6930  0.5107
 6950SOL     OW32311   3.529   1.966   5.551 -0.7766 -0.2940  0.0739
 6950SOL    HW132312   3.527   2.028   5.478  0.6963 -0.4104 -0.0597
 6950SOL    HW232313   3.578   1.893   5.513 -1.1562 -1.2196  1.3614
 6951SOL     OW32314   3.627   2.420   4.046  0.2258  0.0346  0.2075
 6951SOL    HW132315   3.561   2.490   4.053  1.6901  1.5614 -1.1724
 6951SOL    HW232316   3.675   2.439   3.966  1.3605  2.4660  1.4576
 6952SOL     OW32317   3.918   2.574   5.808 -0.1882  0.5326  0.1823
 6952SOL    HW132318   3.949   2.484   5.804 -1.0009  0.2710 -0.3450
 6952SOL    HW232319   3.948   2.601   5.894 -2.9550  2.1333  0.6775
 6953SOL     OW32320   1.414   0.070   4.047  0.2789  0.1730 -0.7025
 6953SOL    HW132321   1.420   0.115   3.963 -0.2946 -0.1179 -0.9007
 6953SOL    HW232322   1.507   0.070   4.071 -0.1858 -0.1017  1.0944
 6954SOL     OW32323   2.327   1.424   6.127  0.2385  0.0820 -0.1829
 6954SOL    HW132324   2.254   1.363   6.140 -1.1871  1.1357 -3.3095
 6954SOL    HW232325   2.388   1.384   6.189 -0.1575  1.3348  1.0105
 6955SOL     OW32326   2.547   0.210   7.619 -0.3807 -0.2359 -0.1995
 6955SOL    HW132327   2.590   0.275   7.675 -1.8019  0.5874 -0.0811
 6955SOL    HW232328   2.459   0.247   7.619 -1.0411 -1.8234  4.2217
 6956SOL     OW32329   4.292   3.006   7.609 -0.0870 -0.0996  0.0872
 6956SOL    HW132330   4.367   2.981   7.664  2.5924  0.2919 -3.4045
 6956SOL    HW232331   4.216   2.983   7.663 -2.0720  3.1191 -1.3875
 6957SOL     OW32332   4.159   2.555   4.950 -0.1064 -0.0577  0.2679
 6957SOL    HW132333   4.136   2.550   4.857  1.9184  1.3424 -0.3202
 6957SOL    HW232334   4.227   2.623   4.945 -0.9896  0.7673 -0.3167
 6958SOL     OW32335   0.139   1.750   5.664 -0.0323  0.3058  0.3842
 6958SOL    HW132336   0.072   1.805   5.705  2.2967  1.6188  2.3726
 6958SOL    HW232337   0.116   1.760   5.572 -2.1702 -1.6336  0.7070
 6959SOL     OW32338   2.011   0.597   3.788 -0.2177 -0.2923  0.4006
 6959SOL    HW132339   1.958   0.634   3.859 -0.6412  0.7546 -0.4518
 6959SOL    HW232340   2.008   0.669   3.724  0.0729 -1.6511 -1.1440
 6960SOL     OW32341   1.480   2.645   2.986  0.4700  0.2652  0.5405
 6960SOL    HW132342   1.503   2.552   2.989 -2.4682 -0.4743 -0.2181
 6960SOL    HW232343   1.560   2.688   3.016 -0.2364  1.5070  0.6239
 6961SOL     OW32344   2.766   2.136  11.287 -0.1557 -0.0547  0.0394
 6961SOL    HW132345   2.826   2.108  11.217  0.2070  1.0057 -0.0722
 6961SOL    HW232346   2.691   2.178  11.244  0.0195 -1.2225 -1.4138
 6962SOL     OW32347   1.033   0.745  15.308 -0.1989  0.0378 -0.1194
 6962SOL    HW132348   1.052   0.726  15.216  2.2974  1.6438  0.0683
 6962SOL    HW232349   1.124   0.743  15.335 -1.1493  0.3668  3.1261
 6963SOL     OW32350   3.187   0.851   3.106 -0.0860  0.3047 -0.3072
 6963SOL    HW132351   3.134   0.927   3.129  0.1133  0.4644 -0.3739
 6963SOL    HW232352   3.136   0.819   3.031 -0.3338  0.4703 -0.2090
 6964SOL     OW32353   0.696   3.255   0.224 -0.0798 -0.0886  0.5672
 6964SOL    HW132354   0.732   3.342   0.240  1.2342 -0.8418  1.7109
 6964SOL    HW232355   0.777   3.213   0.196 -0.7275 -2.3813  2.1780
 6965SOL     OW32356   4.555   4.036   2.201 -0.3982  0.3995 -1.0573
 6965SOL    HW132357   4.519   4.118   2.167  0.8838  0.4816 -2.2213
 6965SOL    HW232358   4.484   3.976   2.182  1.3352 -2.2672  0.8303
 6966SOL     OW32359   2.124   4.058  13.244  0.1191 -0.1677 -0.1764
 6966SOL    HW132360   2.109   3.978  13.294 -1.0000 -0.0308 -0.2911
 6966SOL    HW232361   2.186   4.105  13.299  2.1980 -1.7375 -1.1656
 6967SOL     OW32362   4.351   1.920   1.711 -0.3288  0.2335  0.0342
 6967SOL    HW132363   4.303   1.920   1.629  0.7255 -2.0981 -0.5853
 6967SOL    HW232364   4.381   1.829   1.721 -0.6532  0.0219 -0.9257
 6968SOL     OW32365   1.684   4.649  10.010 -0.7677  0.2239  0.0940
 6968SOL    HW132366   1.710   4.623  10.099 -0.9403  1.0760  0.4004
 6968SOL    HW232367   1.638   4.575   9.971 -0.5212  0.5970 -0.8887
 6969SOL     OW32368   1.031   4.059   0.253 -0.5003 -0.3126 -0.1851
 6969SOL    HW132369   0.995   4.089   0.337  1.1743  1.5881 -0.1401
 6969SOL    HW232370   1.033   3.965   0.266  0.6878 -0.1972  0.5467
 6970SOL     OW32371   0.175   1.230   3.191 -0.0866  0.4645  0.2441
 6970SOL    HW132372   0.232   1.218   3.267 -2.3870 -2.7416  1.4583
 6970SOL    HW232373   0.107   1.294   3.212 -2.3343 -1.5320 -0.9460
 6971SOL     OW32374   3.700   0.892   8.377  0.0741  0.2458  0.0624
 6971SOL    HW132375   3.787   0.907   8.341 -0.4828  0.2905 -1.2749
 6971SOL    HW232376   3.668   0.982   8.368  1.1890  0.5911 -0.4769
 6972SOL     OW32377   0.950   3.093   7.679  0.0837  0.1588 -0.5560
 6972SOL    HW132378   1.045   3.097   7.678  0.1405 -1.4336 -0.1245
 6972SOL    HW232379   0.938   3.020   7.739  0.6325 -1.5059 -2.4688
 6973SOL     OW32380   0.859   4.313   8.369 -0.0034 -0.0841 -0.0382
 6973SOL    HW132381   0.922   4.244   8.351  1.1435  0.7578  0.7799
 6973SOL    HW232382   0.903   4.394   8.341 -1.2814  1.3033  1.9403
 6974SOL     OW32383   0.217   0.429   3.506  1.2399 -0.0071  0.3132
 6974SOL    HW132384   0.254   0.514   3.483  3.9080 -1.2470  0.0630
 6974SOL    HW232385   0.123   0.445   3.516  1.3376  1.5205 -1.1918
 6975SOL     OW32386   0.416   0.209  15.658 -0.9884  0.3005  0.9727
 6975SOL    HW132387   0.403   0.114  15.652 -0.4357  0.2911 -0.2169
 6975SOL    HW232388   0.464   0.221  15.576 -2.7051 -0.2273 -0.1143
 6976SOL     OW32389   1.963   2.594   8.525 -0.1215  0.5038  0.0408
 6976SOL    HW132390   1.932   2.588   8.615 -1.8594 -2.0775 -0.7338
 6976SOL    HW232391   2.020   2.517   8.521 -1.1617 -0.2224 -0.8073
 6977SOL     OW32392   4.465   4.345   2.444  0.5506 -0.0585 -0.0052
 6977SOL    HW132393   4.390   4.328   2.503  0.0471  1.6314 -0.1522
 6977SOL    HW232394   4.426   4.362   2.359 -0.5146 -1.0384  0.2757
 6978SOL     OW32395   0.029   0.104   6.997  0.4859  0.3406  0.1297
 6978SOL    HW132396   4.717   0.091   7.085  1.1074 -0.7352  0.2089
 6978SOL    HW232397   0.112   0.145   7.021 -0.4493  2.3297 -0.0373
 6979SOL     OW32398   1.418   1.813  11.252 -0.6942 -0.3735 -0.4527
 6979SOL    HW132399   1.505   1.785  11.224  0.0847  0.2295  1.3582
 6979SOL    HW232400   1.418   1.909  11.249  1.3478 -0.3575 -0.3257
 6980SOL     OW32401   4.126   1.769   9.187 -0.6934 -0.0654 -0.1326
 6980SOL    HW132402   4.115   1.855   9.229  1.0468  0.6462 -1.1807
 6980SOL    HW232403   4.178   1.729   9.257 -0.7677 -0.9581 -0.5926
 6981SOL     OW32404   1.017   1.464   0.648 -0.3863 -0.1877  0.0767
 6981SOL    HW132405   1.005   1.461   0.553 -2.1496 -0.5994  0.3179
 6981SOL    HW232406   0.937   1.498   0.688  1.0562  0.0083  2.7560
 6982SOL     OW32407   3.872   1.990   4.877 -0.2126  0.4209  0.3638
 6982SOL    HW132408   3.789   2.029   4.849 -0.5423  0.8491  1.9377
 6982SOL    HW232409   3.880   1.918   4.815 -0.1541 -0.4246  1.3538
 6983SOL     OW32410   1.545   0.423   6.702 -1.0381  0.6128  0.6752
 6983SOL    HW132411   1.594   0.435   6.620  1.0696 -2.6383  1.4404
 6983SOL    HW232412   1.615   0.429   6.767 -0.3966  2.7899 -0.1996
 6984SOL     OW32413   2.991   4.694   4.669 -0.0215 -0.2177 -0.5515
 6984SOL    HW132414   3.051   0.029   4.717  0.3198 -3.6258  3.0541
 6984SOL    HW232415   2.909   4.703   4.718 -0.1631  3.1047 -1.4509
 6985SOL     OW32416   1.286   3.239   2.096 -0.4334  0.3221  0.1974
 6985SOL    HW132417   1.297   3.239   2.191  0.7170 -0.4714  0.0696
 6985SOL    HW232418   1.263   3.147   2.091 -1.2344  0.5400 -0.0973
 6986SOL     OW32419   4.639   3.745   4.604 -0.2822  0.2442  0.3297
 6986SOL    HW132420   4.570   3.782   4.660 -0.6824  2.3062 -1.5028
 6986SOL    HW232421   4.596   3.727   4.520 -0.6986  1.6534  0.2403
 6987SOL     OW32422   1.078   0.344   4.754 -0.3359 -0.2072  0.0259
 6987SOL    HW132423   1.051   0.355   4.663 -1.6190 -0.2706  0.3923
 6987SOL    HW232424   1.172   0.328   4.749 -0.1858  1.2528 -1.6359
 6988SOL     OW32425   0.097   2.001  13.902 -0.3514  0.5312  0.4217
 6988SOL    HW132426   0.129   1.955  13.825 -1.2389 -0.5619  0.6994
 6988SOL    HW232427   0.163   2.070  13.898 -0.4024  0.5622  0.0607
 6989SOL     OW32428   0.851   2.795   5.977 -0.1993  0.1126 -0.0082
 6989SOL    HW132429   0.848   2.720   6.037  1.9533  0.4186  0.4815
 6989SOL    HW232430   0.930   2.841   6.004 -0.1737  0.4771 -0.7021
 6990SOL     OW32431   1.119   0.145   6.621 -0.3078  0.3895  0.3414
 6990SOL    HW132432   1.117   0.230   6.576  0.1368 -0.3168 -1.0075
 6990SOL    HW232433   1.028   0.125   6.643  1.0896 -4.0518  1.9954
 6991SOL     OW32434   1.071   3.700   4.532  0.3318  0.2004 -0.1463
 6991SOL    HW132435   1.065   3.671   4.440  0.5296 -1.6601  0.4153
 6991SOL    HW232436   1.167   3.695   4.532  0.3419  0.5069  0.4272
 6992SOL     OW32437   1.814   1.070   2.587 -0.8966  0.4120 -0.6433
 6992SOL    HW132438   1.877   1.081   2.515 -0.7712  1.6136 -0.3490
 6992SOL    HW232439   1.737   1.087   2.532 -1.8612 -0.3763  0.4770
 6993SOL     OW32440   0.106   3.810   9.716 -0.9270  0.0393 -0.4412
 6993SOL    HW132441   0.031   3.843   9.765 -1.2011 -0.6769 -0.3902
 6993SOL    HW232442   0.099   3.715   9.722  0.5525 -0.1485 -1.6877
 6994SOL     OW32443   3.860   1.619   6.520  0.1231  0.1131  0.4384
 6994SOL    HW132444   3.935   1.662   6.561  0.9814  1.7653 -2.8740
 6994SOL    HW232445   3.790   1.631   6.585  0.2122  0.7512  0.4158
 6995SOL     OW32446   1.940   0.435   8.291 -0.0284  0.0715 -0.0445
 6995SOL    HW132447   1.995   0.383   8.233 -0.7603 -0.6070 -0.1444
 6995SOL    HW232448   2.002   0.500   8.323  0.5941 -1.5798  2.1489
 6996SOL     OW32449   2.183   2.657  10.350  0.1085  0.1467  0.1022
 6996SOL    HW132450   2.217   2.744  10.369 -0.2321  0.3188 -0.0580
 6996SOL    HW232451   2.174   2.624  10.439 -0.4995  0.6698  0.2367
 6997SOL     OW32452   2.520   4.327   9.724 -0.4137 -0.0223  0.4264
 6997SOL    HW132453   2.509   4.240   9.686 -0.2698 -0.5920  1.7037
 6997SOL    HW232454   2.435   4.345   9.764 -1.3944  0.8420 -2.0310
 6998SOL     OW32455   4.089   1.435  10.611 -0.3371  0.0271  0.2162
 6998SOL    HW132456   4.085   1.430  10.516  4.1115  0.5760  0.0121
 6998SOL    HW232457   4.006   1.390  10.627  1.1145 -2.0109  1.9603
 6999SOL     OW32458   4.619   1.030   9.164  0.4260 -0.1383  0.3643
 6999SOL    HW132459   4.658   1.070   9.243  2.5616  0.1388 -0.8157
 6999SOL    HW232460   4.588   1.107   9.117 -0.5187  0.0512  1.3067
 7000SOL     OW32461   3.818   0.944  10.762  0.2699  0.3559 -0.4233
 7000SOL    HW132462   3.747   0.998  10.726  0.0528  0.4362  0.1286
 7000SOL    HW232463   3.892   0.964  10.704 -0.3109  0.4524 -1.1327
 7001SOL     OW32464   3.791   0.512   9.172  0.3702 -0.1665 -0.1370
 7001SOL    HW132465   3.723   0.578   9.184 -0.5358 -0.8466 -1.5263
 7001SOL    HW232466   3.849   0.561   9.114  1.8077 -2.1644 -0.3964
 7002SOL     OW32467   4.397   2.170  15.652 -0.2157 -0.1595 -0.9741
 7002SOL    HW132468   4.321   2.218  15.685 -0.4149 -0.5385 -0.8906
 7002SOL    HW232469   4.398   2.211  15.565  1.5964  0.7293 -0.5468
 7003SOL     OW32470   0.570   3.083   0.771 -0.4490  0.6591  0.2719
 7003SOL    HW132471   0.494   3.067   0.716 -0.3264  1.3483 -0.0960
 7003SOL    HW232472   0.633   3.022   0.732 -0.4426  1.0553 -0.3243
 7004SOL     OW32473   4.668   0.816   2.361  0.1392  0.1682 -0.0514
 7004SOL    HW132474   4.706   0.887   2.413 -0.4402  0.9672 -0.7075
 7004SOL    HW232475   0.005   0.754   2.404  1.0347 -0.3060 -1.9783
 7005SOL     OW32476   2.633   0.527   3.867 -0.0142  0.3126 -0.1924
 7005SOL    HW132477   2.553   0.475   3.860 -0.7832  1.0668  2.8173
 7005SOL    HW232478   2.600   0.608   3.906 -0.4953  0.3492 -0.6880
 7006SOL     OW32479   2.039   4.532   7.615 -0.0244  0.4189 -0.6438
 7006SOL    HW132480   2.107   4.596   7.592  1.1932 -0.9737 -0.9353
 7006SOL    HW232481   2.083   4.502   7.694  0.1818  1.3803 -0.3915
 7007SOL     OW32482   3.541   2.007   7.337 -0.1783  0.6232 -0.3933
 7007SOL    HW132483   3.562   1.920   7.303  0.6158  1.2998 -1.6565
 7007SOL    HW232484   3.562   2.057   7.258  1.6484 -1.4464 -1.2128
 7008SOL     OW32485   3.542   3.682   2.673 -0.1425  1.0027 -1.0600
 7008SOL    HW132486   3.603   3.714   2.607  1.0755  0.6113 -0.1480
 7008SOL    HW232487   3.489   3.760   2.688  0.1144  0.9638  0.1207
 7009SOL     OW32488   4.609   1.594   5.880  0.2794  0.4287 -0.1075
 7009SOL    HW132489   4.551   1.542   5.935  2.2266  0.0376  1.5690
 7009SOL    HW232490   4.642   1.537   5.810 -2.5344 -0.3195 -0.8382
 7010SOL     OW32491   0.113   2.308   7.552  0.0628  0.1923 -0.3564
 7010SOL    HW132492   0.206   2.323   7.535  0.8399 -1.9465  1.9853
 7010SOL    HW232493   0.116   2.226   7.601 -3.3344  1.2850  1.6926
 7011SOL     OW32494   2.388   4.664   8.215  0.4311 -0.5115  0.6449
 7011SOL    HW132495   2.474   4.668   8.172  0.4684  0.6223  0.8363
 7011SOL    HW232496   2.385   0.027   8.260 -0.3396 -0.8628  1.2614
 7012SOL     OW32497   1.659   3.154   5.091  0.4819  0.0551  0.1247
 7012SOL    HW132498   1.652   3.120   5.180  0.2888  1.3564  0.6094
 7012SOL    HW232499   1.655   3.069   5.047  0.3330  0.2057 -0.1474
 7013SOL     OW32500   0.300   3.641   6.074  0.9404 -0.3678 -0.0389
 7013SOL    HW132501   0.208   3.650   6.050  0.8377 -0.6394  0.2458
 7013SOL    HW232502   0.335   3.574   6.016  1.1341  1.3344 -1.8594
 7014SOL     OW32503   3.397   2.680   3.693  0.1286  0.9022 -0.1241
 7014SOL    HW132504   3.401   2.775   3.678  0.3533  0.6947 -1.3427
 7014SOL    HW232505   3.444   2.650   3.616  1.1695 -0.2468  0.9616
 7015SOL     OW32506   3.163   1.729   9.490  0.1580 -0.0112 -0.2893
 7015SOL    HW132507   3.081   1.772   9.515 -0.0754  0.6181 -2.1488
 7015SOL    HW232508   3.174   1.659   9.555 -0.4585  2.0953  2.1096
 7016SOL     OW32509   4.331   1.757   2.441  0.2004  0.0535 -0.3252
 7016SOL    HW132510   4.377   1.753   2.357 -0.2842 -0.8910 -0.5546
 7016SOL    HW232511   4.245   1.788   2.412 -0.3636 -1.4540 -0.2642
 7017SOL     OW32512   1.363   1.206   4.489  0.4157 -0.5777 -0.2866
 7017SOL    HW132513   1.324   1.120   4.472 -2.2478  0.8474 -1.4168
 7017SOL    HW232514   1.281   1.255   4.497  1.7897  1.4177  1.8197
 7018SOL     OW32515   3.856   3.332   2.998 -0.1151  0.1892  0.1019
 7018SOL    HW132516   3.892   3.375   2.920  2.8778  0.0442  1.4202
 7018SOL    HW232517   3.915   3.375   3.060 -0.5354  0.5979  0.2206
 7019SOL     OW32518   1.105   0.560   6.300  0.2607  0.5734 -0.3470
 7019SOL    HW132519   1.136   0.626   6.239  0.5686 -0.3947 -1.2317
 7019SOL    HW232520   1.079   0.489   6.242 -0.8282 -0.5059  1.4512
 7020SOL     OW32521   0.593   1.552   2.621 -0.2872 -0.9554 -0.3807
 7020SOL    HW132522   0.543   1.482   2.578  0.2084 -0.6386 -1.4827
 7020SOL    HW232523   0.602   1.618   2.552 -2.8221  0.1425  0.3235
 7021SOL     OW32524   0.449   1.667   6.154 -0.4439 -0.1960 -0.3736
 7021SOL    HW132525   0.441   1.677   6.249 -1.3044 -1.0764 -0.3482
 7021SOL    HW232526   0.476   1.756   6.131 -1.5219  0.0362 -0.7001
 7022SOL     OW32527   0.379   1.289  15.173  0.4151  0.7102  0.0317
 7022SOL    HW132528   0.368   1.370  15.123  0.2837 -0.2115 -1.4290
 7022SOL    HW232529   0.436   1.314  15.245  1.6036  0.1883 -0.7298
 7023SOL     OW32530   1.657   2.458   5.457 -0.4354  0.3428 -0.4054
 7023SOL    HW132531   1.733   2.481   5.511 -1.0286  0.8349  0.2080
 7023SOL    HW232532   1.621   2.546   5.456 -2.4006 -0.4212  2.4937
 7024SOL     OW32533   2.841   3.376   5.794  0.2679  0.5391  0.4800
 7024SOL    HW132534   2.780   3.322   5.845  0.7536  0.9328  1.4745
 7024SOL    HW232535   2.915   3.389   5.853  0.6578 -0.4186  0.1926
 7025SOL     OW32536   1.275   0.619   6.508  0.1188 -0.3214 -0.2000
 7025SOL    HW132537   1.309   0.531   6.527 -0.8017 -0.7275 -0.4043
 7025SOL    HW232538   1.212   0.601   6.438 -0.0849 -3.6844  0.8075
 7026SOL     OW32539   1.266   4.625   6.555 -0.0349  0.3270  0.2605
 7026SOL    HW132540   1.188   4.594   6.510 -0.4001 -0.2637  1.3061
 7026SOL    HW232541   1.234   4.707   6.593 -0.7701 -0.4497  1.3268
 7027SOL     OW32542   0.951   3.090   6.421  0.5459 -0.1655  0.6925
 7027SOL    HW132543   0.883   3.096   6.354  0.1383 -0.6794  1.0636
 7027SOL    HW232544   1.005   3.018   6.389  0.8765  1.0473 -1.4540
 7028SOL     OW32545   4.245   0.967   1.630 -0.1364 -0.0744  0.3053
 7028SOL    HW132546   4.303   0.906   1.676  1.2817 -0.1220 -1.5581
 7028SOL    HW232547   4.207   1.006   1.709 -1.7660 -0.6601 -0.2020
 7029SOL     OW32548   2.859   0.676   2.056  0.7230  0.1782  0.2285
 7029SOL    HW132549   2.866   0.601   1.998 -3.4976  0.2964 -0.4795
 7029SOL    HW232550   2.926   0.660   2.122  1.3213 -1.5103 -0.7974
 7030SOL     OW32551   4.178   2.691   6.342  0.8893  0.0871 -0.5311
 7030SOL    HW132552   4.179   2.686   6.437  0.7310  0.5757 -0.5070
 7030SOL    HW232553   4.129   2.612   6.318 -1.5795  1.5008 -0.1074
 7031SOL     OW32554   1.312   1.849   2.527 -0.2027 -0.6571 -0.0034
 7031SOL    HW132555   1.295   1.770   2.476  1.5632 -1.3727  0.5506
 7031SOL    HW232556   1.289   1.907   2.454  1.6806 -0.2200 -0.2538
 7032SOL     OW32557   0.320   4.458   5.574 -0.0122 -0.4246  0.4974
 7032SOL    HW132558   0.263   4.418   5.508  0.7137  2.4745 -1.9229
 7032SOL    HW232559   0.271   4.449   5.655  1.0127 -0.0268  1.1674
 7033SOL     OW32560   3.738   3.905   6.688 -0.2270  0.1485  0.1254
 7033SOL    HW132561   3.658   3.853   6.695 -0.4537  0.5975  0.8853
 7033SOL    HW232562   3.754   3.892   6.594 -0.5019 -0.7459  0.1967
 7034SOL     OW32563   4.626   0.840  11.308  0.5454 -0.1329 -0.4390
 7034SOL    HW132564   4.637   0.885  11.392 -0.7708 -0.8351  0.1225
 7034SOL    HW232565   4.696   0.887  11.262 -1.3329  2.3979 -0.6989
 7035SOL     OW32566   4.458   4.286  16.602 -0.1105  0.1656 -0.0646
 7035SOL    HW132567   4.534   4.306  16.657  0.1008  0.2760 -0.3968
 7035SOL    HW232568   4.501   4.243  16.528 -0.3145 -0.8720  0.4102
 7036SOL     OW32569   2.831   2.017   7.399 -0.1339 -0.0078  1.2788
 7036SOL    HW132570   2.809   1.932   7.438 -1.1160  0.0053  0.7630
 7036SOL    HW232571   2.904   1.978   7.352 -1.5683 -0.6893 -0.3802
 7037SOL     OW32572   4.131   1.660   4.495  0.1469  0.0497 -0.3499
 7037SOL    HW132573   4.046   1.671   4.537  1.3703  0.8494  1.9495
 7037SOL    HW232574   4.194   1.678   4.565 -0.6374 -0.0231  0.3716
 7038SOL     OW32575   0.977   3.915   7.168  0.1756  0.2971 -0.2610
 7038SOL    HW132576   0.972   3.905   7.263 -0.0315 -0.8764 -0.3932
 7038SOL    HW232577   0.894   3.959   7.147  1.1103  2.4530  0.6125
 7039SOL     OW32578   3.988   2.838   0.995 -0.0673  0.0427 -0.1517
 7039SOL    HW132579   3.995   2.747   0.967 -1.1617 -0.3514  0.8262
 7039SOL    HW232580   3.970   2.872   0.908  1.1697 -1.0087 -0.8065
 7040SOL     OW32581   4.521   3.597   9.745 -0.2918 -0.0381  0.9156
 7040SOL    HW132582   4.500   3.685   9.712  1.6213  0.4075  0.8457
 7040SOL    HW232583   4.450   3.551   9.702 -0.2440  0.5495  0.2057
 7041SOL     OW32584   2.943   3.777   3.721 -0.0885 -0.2276 -0.3544
 7041SOL    HW132585   2.859   3.819   3.704 -0.4530 -1.0058 -0.5136
 7041SOL    HW232586   3.004   3.847   3.700  0.0321 -0.1066  0.4014
 7042SOL     OW32587   1.847   4.716   5.178 -0.6410  0.4375 -0.4758
 7042SOL    HW132588   1.896   0.019   5.099 -0.0617 -0.6627 -0.4472
 7042SOL    HW232589   1.773   0.055   5.183 -1.5012 -0.7797  1.1662
 7043SOL     OW32590   4.152   3.751  12.218 -0.0180  0.4447 -0.0821
 7043SOL    HW132591   4.202   3.692  12.162 -0.5784 -0.1462  0.0379
 7043SOL    HW232592   4.119   3.818  12.158  1.3416  0.3410 -0.9389
 7044SOL     OW32593   3.471   0.622   3.280  0.6043 -0.0241 -0.1746
 7044SOL    HW132594   3.386   0.605   3.321  0.3711  1.2983 -0.0989
 7044SOL    HW232595   3.501   0.533   3.262 -0.7682 -0.2250 -1.4195
 7045SOL     OW32596   2.656   0.599   2.866 -0.4141 -0.1205  0.2734
 7045SOL    HW132597   2.659   0.688   2.831 -0.5341  0.2711  1.2501
 7045SOL    HW232598   2.612   0.548   2.799  1.4105 -0.2294 -0.8603
 7046SOL     OW32599   2.514   2.050  16.340 -0.4918  0.4658  0.2020
 7046SOL    HW132600   2.584   2.051  16.405 -0.6445  0.9842  0.3560
 7046SOL    HW232601   2.554   2.058  16.254  0.4787 -1.2965  0.4751
 7047SOL     OW32602   3.356   0.391   4.427  0.2015 -0.0723  0.3673
 7047SOL    HW132603   3.393   0.469   4.468 -1.3736  0.0206  1.6401
 7047SOL    HW232604   3.379   0.326   4.493  0.2998 -1.3995 -0.9870
 7048SOL     OW32605   0.749   0.077   2.784 -0.2036  0.1169  0.4133
 7048SOL    HW132606   0.787   0.116   2.705 -0.6068  3.3698  1.8660
 7048SOL    HW232607   0.752   0.144   2.851 -0.9959  0.7252 -0.1691
 7049SOL     OW32608   3.671   3.302   5.130 -0.0120  0.0084  0.3902
 7049SOL    HW132609   3.612   3.312   5.055  1.6718 -1.1202 -1.0634
 7049SOL    HW232610   3.705   3.218   5.101  1.8194  0.8700  0.0597
 7050SOL     OW32611   3.514   0.457  11.348  0.0551  0.3621 -0.0291
 7050SOL    HW132612   3.485   0.409  11.426  0.1324  0.2092 -0.0930
 7050SOL    HW232613   3.427   0.479  11.314  0.9632 -0.6051 -3.0209
 7051SOL     OW32614   3.458   2.947   3.615 -0.2397 -0.3528  0.4646
 7051SOL    HW132615   3.525   3.014   3.605 -1.1733  0.1848 -2.1831
 7051SOL    HW232616   3.381   2.989   3.653 -0.9525 -1.4442  0.2165
 7052SOL     OW32617   3.613   4.515  10.221 -0.0041 -0.4607 -0.1355
 7052SOL    HW132618   3.695   4.556  10.250 -1.1466  1.4862  0.3151
 7052SOL    HW232619   3.640   4.459  10.149  1.8120 -1.0884  1.0319
 7053SOL     OW32620   4.342   0.211   9.535 -0.0500 -0.0152  0.2105
 7053SOL    HW132621   4.328   0.255   9.451  0.8941 -1.9020 -0.9412
 7053SOL    HW232622   4.261   0.161   9.537  0.4181 -0.8347 -2.2364
 7054SOL     OW32623   2.622   1.041   5.570 -0.3496  0.0578  0.2897
 7054SOL    HW132624   2.586   0.953   5.584  1.7873 -0.8082  0.3582
 7054SOL    HW232625   2.639   1.072   5.659  0.5729  0.6892 -0.1030
 7055SOL     OW32626   2.352   1.773   3.252  0.4398 -0.1326 -0.1203
 7055SOL    HW132627   2.263   1.741   3.263  0.6226 -1.4763 -2.4110
 7055SOL    HW232628   2.335   1.842   3.188  1.9434  1.8845  1.6784
 7056SOL     OW32629   2.524   1.616  12.486  0.3411  0.1440 -0.0152
 7056SOL    HW132630   2.566   1.578  12.409  0.3939  0.6235 -0.2198
 7056SOL    HW232631   2.598   1.659  12.529  1.3605  0.0100 -1.6666
 7057SOL     OW32632   0.588   0.766   3.309 -0.2007  0.0816  0.3382
 7057SOL    HW132633   0.608   0.732   3.221  0.1386  0.9647  0.0739
 7057SOL    HW232634   0.497   0.791   3.292 -0.3911 -1.1221 -0.4541
 7058SOL     OW32635   1.959   1.766  11.988  0.3796 -0.1793  0.4713
 7058SOL    HW132636   1.912   1.840  12.026  2.1083  1.7840 -1.2301
 7058SOL    HW232637   1.970   1.794  11.897  1.1876 -0.9760  0.3175
 7059SOL     OW32638   1.310   1.077   8.255  0.5667 -0.4943  0.3648
 7059SOL    HW132639   1.228   1.066   8.303  1.4578 -0.7567  1.8232
 7059SOL    HW232640   1.297   1.158   8.206 -3.3686 -2.4392 -1.8298
 7060SOL     OW32641   0.902   3.869   4.179 -0.2322 -0.3159 -0.2888
 7060SOL    HW132642   0.868   3.939   4.124 -0.4778  0.0405  0.3115
 7060SOL    HW232643   0.985   3.839   4.143 -0.0340 -0.1169  0.0012
 7061SOL     OW32644   3.418   2.419   5.920 -0.3383 -0.6720  0.3439
 7061SOL    HW132645   3.432   2.355   5.850 -1.9458 -0.7894  0.1167
 7061SOL    HW232646   3.325   2.433   5.901 -0.4352  1.0779  2.1116
 7062SOL     OW32647   1.072   2.019   7.163 -0.0600  0.3009 -0.2665
 7062SOL    HW132648   1.079   2.110   7.192 -2.2617 -0.3301  2.2115
 7062SOL    HW232649   1.068   2.031   7.068 -2.4341 -0.6011 -0.2745
 7063SOL     OW32650   1.161   2.699   6.357  0.0282  0.3161 -0.0506
 7063SOL    HW132651   1.092   2.758   6.325  0.8057  1.4485  0.3301
 7063SOL    HW232652   1.217   2.777   6.361 -0.3380  0.6042 -0.4350
 7064SOL     OW32653   0.716   3.225   4.296 -0.2103  0.0320  0.0985
 7064SOL    HW132654   0.653   3.158   4.323  0.4067 -0.5004  0.1967
 7064SOL    HW232655   0.651   3.276   4.247 -0.6826 -1.1926 -0.5432
 7065SOL     OW32656   4.535   1.940  11.765 -0.2414 -0.4407 -0.0906
 7065SOL    HW132657   4.469   2.009  11.775  0.8663  0.2539  2.4932
 7065SOL    HW232658   4.567   1.935  11.855  0.4565  1.4707 -0.2395
 7066SOL     OW32659   1.807   1.870   2.934  0.2508 -0.3782  0.6166
 7066SOL    HW132660   1.781   1.947   2.985 -3.7091 -1.0707 -0.4461
 7066SOL    HW232661   1.898   1.893   2.912 -0.2533  0.2726 -0.7442
 7067SOL     OW32662   2.590   3.756   9.075  0.3795 -0.0090  0.0894
 7067SOL    HW132663   2.663   3.815   9.093  1.9025 -1.4751 -1.3000
 7067SOL    HW232664   2.554   3.790   8.993 -0.1200 -0.9179 -0.0679
 7068SOL     OW32665   2.992   1.347   5.468  0.3086 -0.2438  0.3144
 7068SOL    HW132666   3.012   1.426   5.519 -1.4207  0.6072 -0.3330
 7068SOL    HW232667   2.965   1.391   5.387  0.2677 -1.3810 -0.2866
 7069SOL     OW32668   3.612   4.341   8.886 -0.0107  0.4575  0.3666
 7069SOL    HW132669   3.598   4.303   8.973  0.3771 -0.1446  0.1641
 7069SOL    HW232670   3.556   4.286   8.831 -0.6145  4.0355 -2.6206
 7070SOL     OW32671   3.354   0.776   8.838 -0.2097  0.4552 -1.0285
 7070SOL    HW132672   3.449   0.771   8.823 -0.0933  0.6126 -0.3436
 7070SOL    HW232673   3.354   0.811   8.927 -0.5524 -0.2309 -0.7593
 7071SOL     OW32674   2.959   2.150  10.549  0.2701 -0.3607 -0.3616
 7071SOL    HW132675   2.894   2.191  10.493  0.5830 -1.6630 -1.6730
 7071SOL    HW232676   3.036   2.199  10.520  0.7317 -2.3149 -2.4139
 7072SOL     OW32677   0.174   0.147  11.974 -0.2537 -0.0873 -0.1210
 7072SOL    HW132678   0.242   0.175  12.035  1.2703  0.2574 -1.9635
 7072SOL    HW232679   0.182   0.053  11.989 -1.0024 -0.1797 -0.2991
 7073SOL     OW32680   4.270   2.985   0.584 -0.4941  0.2977  0.1340
 7073SOL    HW132681   4.322   2.978   0.664 -0.8358 -0.2611  0.3030
 7073SOL    HW232682   4.259   2.892   0.568  0.4879  0.3489 -0.8171
 7074SOL     OW32683   2.217   3.520   3.117 -0.0337  0.0813 -0.4399
 7074SOL    HW132684   2.124   3.542   3.111 -0.2005 -0.7780 -1.0129
 7074SOL    HW232685   2.220   3.431   3.153  0.1970  1.3742  2.7833
 7075SOL     OW32686   0.496   2.945   2.270 -0.3582  0.1837 -0.0789
 7075SOL    HW132687   0.489   2.853   2.245  1.5656  0.6306 -2.2678
 7075SOL    HW232688   0.535   2.986   2.193 -0.4908  0.8200  0.1924
 7076SOL     OW32689   2.769   3.600  10.377  0.3095 -0.6971 -0.7007
 7076SOL    HW132690   2.786   3.661  10.306  3.5256 -1.7480 -0.8823
 7076SOL    HW232691   2.824   3.628  10.450  0.3798  2.2760 -1.9098
 7077SOL     OW32692   1.488   2.048   4.219  0.5332 -0.7099  0.6524
 7077SOL    HW132693   1.501   2.143   4.213 -0.4580 -0.6035  0.1976
 7077SOL    HW232694   1.437   2.044   4.299  0.1716  0.2949  0.4756
 7078SOL     OW32695   4.377   1.186  13.889  0.1517 -0.2451  0.6395
 7078SOL    HW132696   4.311   1.169  13.957  0.2375  1.7655  1.2204
 7078SOL    HW232697   4.411   1.266  13.929  0.8316 -0.5944  0.7595
 7079SOL     OW32698   3.245   3.504  15.413  0.3079 -0.0908  0.1235
 7079SOL    HW132699   3.175   3.439  15.426  1.0476 -1.0006 -0.4801
 7079SOL    HW232700   3.192   3.579  15.386  0.8856  0.4816  0.5978
 7080SOL     OW32701   2.541   3.734   3.594  0.7417 -0.3302  0.0465
 7080SOL    HW132702   2.520   3.671   3.525 -1.9324 -0.2364  0.7818
 7080SOL    HW232703   2.549   3.675   3.668 -0.3887 -1.0888 -0.4412
 7081SOL     OW32704   1.939   3.290   6.624  0.4136 -0.6325 -0.0900
 7081SOL    HW132705   1.917   3.238   6.546  1.5619 -1.2871  0.0251
 7081SOL    HW232706   1.909   3.378   6.599 -0.2116 -0.9787 -0.5675
 7082SOL     OW32707   0.169   3.599   7.189 -0.0023 -0.1391 -0.7885
 7082SOL    HW132708   0.216   3.637   7.263  0.3306 -1.6036 -0.2420
 7082SOL    HW232709   0.080   3.594   7.225  0.1212  0.5737 -0.3875
 7083SOL     OW32710   3.562   2.440   6.542  0.0081  0.6413 -0.3680
 7083SOL    HW132711   3.481   2.490   6.556  0.0701  0.8585 -0.7653
 7083SOL    HW232712   3.594   2.425   6.631  1.1157 -0.0792 -0.8832
 7084SOL     OW32713   1.215   3.091  16.452 -0.0552 -0.7556  0.3606
 7084SOL    HW132714   1.231   3.091  16.358  1.1374 -0.5215  0.5643
 7084SOL    HW232715   1.196   3.182  16.472  1.9672 -0.0472 -1.0073
 7085SOL     OW32716   2.464   1.059   3.606  0.5253  0.1567  0.4098
 7085SOL    HW132717   2.387   1.043   3.552  1.0498  1.1817 -0.6318
 7085SOL    HW232718   2.434   1.141   3.644  0.7396 -0.1825  1.3109
 7086SOL     OW32719   3.362   3.360  10.201 -0.1006 -0.1744 -0.4950
 7086SOL    HW132720   3.355   3.385  10.294 -0.5050  0.8408 -0.8004
 7086SOL    HW232721   3.400   3.274  10.220 -1.9509 -0.5657  1.4515
 7087SOL     OW32722   3.599   2.708   8.709 -0.2324 -0.2910  0.0778
 7087SOL    HW132723   3.628   2.656   8.784 -0.0486  2.0779  1.6472
 7087SOL    HW232724   3.515   2.745   8.738  1.2284  1.8973  1.5381
 7088SOL     OW32725   1.282   2.031  13.911  0.1367 -0.1479 -0.0288
 7088SOL    HW132726   1.301   1.940  13.888  0.4145  0.3386 -1.7496
 7088SOL    HW232727   1.236   2.006  13.991 -0.2693  1.5325  0.2551
 7089SOL     OW32728   1.479   1.673   5.178  0.6216 -0.3293 -0.1577
 7089SOL    HW132729   1.556   1.632   5.137  0.6476 -0.9277  0.4943
 7089SOL    HW232730   1.407   1.630   5.134 -0.6869  0.8660  0.7985
 7090SOL     OW32731   0.020   0.921   7.421  0.0625 -0.4794 -0.2032
 7090SOL    HW132732   0.074   0.986   7.467  0.0604  0.8413 -2.0354
 7090SOL    HW232733   4.672   0.898   7.482  0.5385 -2.2002 -0.3108
 7091SOL     OW32734   0.070   0.771  15.142 -0.2646  0.5956 -0.3892
 7091SOL    HW132735   0.139   0.769  15.076 -1.3276 -1.5056 -1.4549
 7091SOL    HW232736   0.022   0.689  15.134  1.3575 -0.5034  1.4762
 7092SOL     OW32737   4.072   0.327  10.423 -0.8432 -0.1165  1.0867
 7092SOL    HW132738   4.008   0.394  10.447 -3.7806 -1.8753 -1.6696
 7092SOL    HW232739   4.053   0.263  10.492  0.2701 -0.5081  1.0249
 7093SOL     OW32740   0.735   0.317  15.482 -0.1608 -0.0653  0.2185
 7093SOL    HW132741   0.649   0.297  15.445 -1.4449  0.4859  2.9687
 7093SOL    HW232742   0.744   0.242  15.540  0.9272 -0.3562 -0.3219
 7094SOL     OW32743   4.249   0.750   6.411 -0.0160  0.2890  0.3956
 7094SOL    HW132744   4.215   0.670   6.453  0.4320 -0.3329 -0.4244
 7094SOL    HW232745   4.309   0.778   6.480 -0.7462  2.5246  0.0940
 7095SOL     OW32746   3.305   0.026   8.070  0.1402 -0.0772  0.0840
 7095SOL    HW132747   3.395   0.036   8.038  1.0946 -2.5910  1.9250
 7095SOL    HW232748   3.283   0.112   8.107 -0.5812 -0.4203  0.4612
 7096SOL     OW32749   2.013   0.995   7.880  0.3224 -0.2348 -0.3153
 7096SOL    HW132750   2.084   0.934   7.859  2.3380  1.5792  1.2948
 7096SOL    HW232751   2.074   1.068   7.893 -0.3216 -0.3448  3.1077
 7097SOL     OW32752   4.363   3.833   9.087 -0.4192  0.4161  0.2282
 7097SOL    HW132753   4.365   3.762   9.023 -0.2424  1.0848 -0.5186
 7097SOL    HW232754   4.366   3.791   9.172  0.9486 -1.9382 -1.0066
 7098SOL     OW32755   3.779   0.703  15.266 -0.1702  0.2886  0.1047
 7098SOL    HW132756   3.823   0.660  15.193  0.4697  0.3174  0.4817
 7098SOL    HW232757   3.687   0.680  15.249 -0.9798  2.5750  1.4462
 7099SOL     OW32758   2.258   0.508  10.807 -0.6796 -0.1091  0.2512
 7099SOL    HW132759   2.197   0.469  10.870  0.0927  1.1453  1.7593
 7099SOL    HW232760   2.303   0.566  10.868 -1.8273 -0.0949  1.0958
 7100SOL     OW32761   0.986   2.118   9.420 -0.3179 -0.4245 -0.3747
 7100SOL    HW132762   0.902   2.115   9.467  0.1098  2.3288  0.5695
 7100SOL    HW232763   1.027   2.188   9.471 -0.8224  0.7542 -1.5607
 7101SOL     OW32764   0.123   2.687  16.952 -0.2065  0.3103 -0.6600
 7101SOL    HW132765   0.033   2.718  16.958  0.0522  0.9755 -0.2839
 7101SOL    HW232766   0.156   2.704  17.040 -1.0473  1.7783 -0.6359
 7102SOL     OW32767   0.307   4.334   3.953  0.5576  0.5820 -0.4212
 7102SOL    HW132768   0.266   4.419   3.936  1.3041  0.9495 -0.3683
 7102SOL    HW232769   0.227   4.282   3.947  0.2069  1.1998 -1.0897
 7103SOL     OW32770   2.824   1.300  11.299 -0.2047 -0.5766 -0.4476
 7103SOL    HW132771   2.819   1.219  11.348  1.6067  0.9821  2.3031
 7103SOL    HW232772   2.821   1.370  11.364 -0.3737 -1.5929  0.6142
 7104SOL     OW32773   3.561   3.696   3.481 -0.3225 -0.1820 -0.1888
 7104SOL    HW132774   3.478   3.676   3.524  1.3449 -1.6624  2.2927
 7104SOL    HW232775   3.592   3.606   3.482 -0.8875 -0.3934 -1.0080
 7105SOL     OW32776   3.065   0.641   3.284 -0.2366  0.0351  0.0633
 7105SOL    HW132777   3.109   0.691   3.215  1.6449 -3.5475 -1.3475
 7105SOL    HW232778   2.992   0.700   3.304 -0.7608 -0.0167 -1.6740
 7106SOL     OW32779   1.799   0.122   6.502 -0.3881 -0.1573 -0.2893
 7106SOL    HW132780   1.768   0.056   6.564 -2.0424  1.4990  0.6558
 7106SOL    HW232781   1.756   0.202   6.531  0.6230  0.2409  0.1289
 7107SOL     OW32782   2.597   4.599   9.315  0.5021  0.1910  0.4211
 7107SOL    HW132783   2.561   4.662   9.378 -1.6431 -0.4435 -0.1771
 7107SOL    HW232784   2.542   4.521   9.320  0.3115  0.4609  2.4705
 7108SOL     OW32785   0.766   1.282   7.321 -0.2560  0.0388 -0.5585
 7108SOL    HW132786   0.742   1.325   7.403 -0.0907  0.1201 -0.5534
 7108SOL    HW232787   0.799   1.358   7.273  1.3927 -0.7851 -0.7349
 7109SOL     OW32788   2.175   3.500   6.466  0.5704  0.5747 -0.7863
 7109SOL    HW132789   2.165   3.546   6.383 -2.1118 -0.7130 -1.1987
 7109SOL    HW232790   2.235   3.425   6.456  2.9738  2.4511 -0.3556
 7110SOL     OW32791   3.235   1.327  13.400 -0.3479  0.2397 -0.3867
 7110SOL    HW132792   3.302   1.370  13.347 -1.3926 -0.8551 -2.5720
 7110SOL    HW232793   3.282   1.247  13.423  0.3276  0.9740  0.7585
 7111SOL     OW32794   4.270   1.203  12.199  1.0820 -0.0100  0.4053
 7111SOL    HW132795   4.282   1.254  12.119  0.1899  0.3550  0.5084
 7111SOL    HW232796   4.359   1.177  12.222  1.7012 -0.5755 -2.6046
 7112SOL     OW32797   1.396   0.280   5.473 -0.3863 -0.2127  0.1164
 7112SOL    HW132798   1.329   0.326   5.525  0.1668  1.7160 -0.9055
 7112SOL    HW232799   1.417   0.330   5.395  1.0545 -0.6317  0.2431
 7113SOL     OW32800   3.520   3.527   1.848 -0.4353  0.5071 -0.0613
 7113SOL    HW132801   3.533   3.528   1.753  1.0522  2.2718  0.1501
 7113SOL    HW232802   3.577   3.602   1.865  0.1581 -0.0109  0.2160
 7114SOL     OW32803   1.648   2.062   6.385  0.0787  0.4931  0.0722
 7114SOL    HW132804   1.710   2.135   6.387  1.4954 -0.6029 -3.4559
 7114SOL    HW232805   1.698   1.993   6.427  0.7999  0.9112 -0.0794
 7115SOL     OW32806   0.490   0.817   5.912 -0.3000  0.2349 -0.1374
 7115SOL    HW132807   0.553   0.874   5.957  0.0233 -0.3906  0.2017
 7115SOL    HW232808   0.418   0.838   5.972  0.9410  0.8245  1.1380
 7116SOL     OW32809   4.218   0.681   0.690  0.3590  0.5763 -0.4734
 7116SOL    HW132810   4.292   0.621   0.699 -2.4467 -2.8407 -0.0556
 7116SOL    HW232811   4.253   0.762   0.727  2.9480 -0.6653 -0.2532
 7117SOL     OW32812   3.875   3.377  14.091 -0.4130 -0.1706 -0.0518
 7117SOL    HW132813   3.936   3.352  14.161 -0.2230  1.0207  0.2050
 7117SOL    HW232814   3.875   3.297  14.038  0.5133 -0.2488  0.0602
 7118SOL     OW32815   0.423   4.485  13.973 -0.1089  0.4876  0.4033
 7118SOL    HW132816   0.418   4.462  14.065 -2.3555  0.6123  0.3087
 7118SOL    HW232817   0.335   4.519  13.957  0.5490  1.4838 -1.1118
 7119SOL     OW32818   0.901   3.931   3.661 -0.5033  0.4457 -0.2174
 7119SOL    HW132819   0.944   3.907   3.743  0.3296  1.3870 -0.3822
 7119SOL    HW232820   0.916   4.026   3.661 -0.7215  0.4746 -1.7045
 7120SOL     OW32821   0.492   0.250  13.162 -0.4749  0.0846  0.0755
 7120SOL    HW132822   0.409   0.204  13.175 -0.4576  0.6124  2.0244
 7120SOL    HW232823   0.476   0.343  13.177 -1.2640 -0.0180 -0.1325
 7121SOL     OW32824   2.932   3.075  10.648  0.6382 -0.5821  0.1687
 7121SOL    HW132825   2.943   3.076  10.553  0.9693 -0.4826  0.2083
 7121SOL    HW232826   2.970   3.157  10.680  0.4424 -0.9302  1.3036
 7122SOL     OW32827   2.209   3.507   2.634 -0.6261  0.2199  0.0914
 7122SOL    HW132828   2.186   3.573   2.568  0.6294  0.1297 -0.4331
 7122SOL    HW232829   2.301   3.497   2.611 -0.8225 -1.6099  0.1177
 7123SOL     OW32830   0.982   2.445   8.214  0.2191  0.0397 -0.3174
 7123SOL    HW132831   1.056   2.406   8.261  0.9034  0.7089 -0.8255
 7123SOL    HW232832   0.952   2.380   8.150  1.3383  0.4213 -1.2369
 7124SOL     OW32833   4.127   0.970   4.025  0.3668  0.3907  0.4160
 7124SOL    HW132834   4.132   0.909   4.099 -0.7972  0.0621  0.2353
 7124SOL    HW232835   4.123   1.055   4.067 -3.1898  0.2760  0.3360
 7125SOL     OW32836   2.015   4.134   8.381 -0.3682  0.1582  0.3491
 7125SOL    HW132837   1.994   4.162   8.470  1.5321 -0.4643  0.9920
 7125SOL    HW232838   2.040   4.218   8.343 -0.7316  0.2565  0.3246
 7126SOL     OW32839   2.914   4.628  16.606 -0.3974  0.1454  0.0754
 7126SOL    HW132840   2.987   4.567  16.620 -0.0440  0.6035  0.2049
 7126SOL    HW232841   2.861   4.578  16.544 -1.8326 -0.9029  2.1576
 7127SOL     OW32842   1.204   0.388   9.201  0.5211 -0.1752 -0.5178
 7127SOL    HW132843   1.190   0.393   9.296 -0.2166  1.5642 -0.7179
 7127SOL    HW232844   1.289   0.344   9.197  1.4939  1.4888  1.3705
 7128SOL     OW32845   0.644   0.962   0.825 -0.1996  0.5092  0.1833
 7128SOL    HW132846   0.643   0.905   0.749 -0.6230  0.4289  0.2494
 7128SOL    HW232847   0.560   0.939   0.863  0.3604  2.1322  2.4365
 7129SOL     OW32848   2.546   1.522   9.578 -0.7382 -0.5323 -0.7107
 7129SOL    HW132849   2.613   1.464   9.615 -0.8982  0.3299  0.9678
 7129SOL    HW232850   2.471   1.465   9.593 -0.1967 -1.3067 -0.9533
 7130SOL     OW32851   2.239   1.199   3.921  0.5618 -0.2128 -0.3426
 7130SOL    HW132852   2.321   1.243   3.943  0.4456  0.0866 -0.5035
 7130SOL    HW232853   2.212   1.174   4.010  3.2085 -0.9646  0.2220
 7131SOL     OW32854   1.926   3.143   2.695  0.1703 -0.3531 -0.3907
 7131SOL    HW132855   2.018   3.170   2.697 -0.0720  0.3700  1.0777
 7131SOL    HW232856   1.908   3.134   2.788  0.5856 -0.6075 -0.3327
 7132SOL     OW32857   4.182   0.748   0.099  0.4082 -0.3598 -0.5457
 7132SOL    HW132858   4.194   0.704   0.015 -1.1962 -1.0603 -0.4125
 7132SOL    HW232859   4.101   0.709   0.134 -0.4873  1.0737 -0.9967
 7133SOL     OW32860   3.281   3.009   3.861  0.6381 -0.0179  0.3781
 7133SOL    HW132861   3.234   3.092   3.857  1.8124  0.5879 -0.9912
 7133SOL    HW232862   3.212   2.946   3.883  0.3242 -0.0618 -0.7731
 7134SOL     OW32863   2.058   1.808   4.325 -0.1572  0.2615 -0.6971
 7134SOL    HW132864   2.154   1.809   4.328 -0.1699 -0.2673 -0.0355
 7134SOL    HW232865   2.039   1.795   4.418 -1.1931 -2.7460 -1.3432
 7135SOL     OW32866   2.253   4.583   6.960  0.2074 -0.6377  0.4216
 7135SOL    HW132867   2.282   4.612   7.046  0.9059 -0.3701  0.0961
 7135SOL    HW232868   2.189   4.651   6.938  1.2582 -0.6079 -2.5739
 7136SOL     OW32869   4.546   1.438  14.600  0.5704 -0.3069  0.3748
 7136SOL    HW132870   4.502   1.483  14.672 -1.3256 -0.4306 -0.7073
 7136SOL    HW232871   4.574   1.501  14.534 -1.2067  1.6639  1.5248
 7137SOL     OW32872   1.660   1.026   9.666 -0.6060 -0.4045  0.0782
 7137SOL    HW132873   1.601   1.101   9.668 -1.6294 -1.1582 -1.4671
 7137SOL    HW232874   1.630   0.981   9.586 -0.3472  1.1769 -0.9119
 7138SOL     OW32875   2.069   3.006  12.836 -0.4815  0.5464  0.0559
 7138SOL    HW132876   2.009   3.011  12.762 -1.3963 -1.3174  0.6588
 7138SOL    HW232877   2.062   2.912  12.855 -2.5491  0.5793 -0.5609
 7139SOL     OW32878   2.534   2.618   6.720  0.1136  0.3675  0.4646
 7139SOL    HW132879   2.509   2.527   6.737  1.7622 -0.6375 -2.5820
 7139SOL    HW232880   2.451   2.666   6.727 -0.7675 -0.7811 -2.0776
 7140SOL     OW32881   1.873   0.837  12.621 -0.0901 -0.4676 -0.1650
 7140SOL    HW132882   1.875   0.912  12.562 -0.6486 -1.1084 -0.9888
 7140SOL    HW232883   1.822   0.769  12.577 -1.9241  0.7029  0.1770
 7141SOL     OW32884   4.087   0.552   3.989  0.3263  0.0527  0.2775
 7141SOL    HW132885   4.165   0.496   3.989  1.1731  1.2149  3.9031
 7141SOL    HW232886   4.114   0.622   4.048  0.0002 -0.4207  0.9847
 7142SOL     OW32887   2.127   1.099   1.864  0.2856 -1.0759  0.4062
 7142SOL    HW132888   2.116   1.167   1.931 -1.2020  2.6109 -3.6035
 7142SOL    HW232889   2.214   1.119   1.831  1.0456 -0.1101  2.9615
 7143SOL     OW32890   4.427   1.190   2.133 -0.1349 -0.2793 -0.2967
 7143SOL    HW132891   4.443   1.132   2.059  0.5831 -2.4197  1.5350
 7143SOL    HW232892   4.331   1.194   2.141  0.2970  0.7164  4.4767
 7144SOL     OW32893   2.630   1.416   6.512 -0.3148 -0.0393 -0.1559
 7144SOL    HW132894   2.648   1.355   6.583 -0.2149 -1.6752 -1.5830
 7144SOL    HW232895   2.694   1.487   6.509 -0.1856 -0.1740 -0.6057
 7145SOL     OW32896   3.346   2.135   3.375 -0.1637 -0.3906  0.3163
 7145SOL    HW132897   3.290   2.107   3.303  0.5557 -0.4584 -0.2215
 7145SOL    HW232898   3.402   2.057   3.382 -1.4348 -1.4092 -0.8859
 7146SOL     OW32899   4.290   2.265   6.357  0.1241 -0.0142 -0.4815
 7146SOL    HW132900   4.373   2.220   6.374 -0.0117 -0.2353 -0.3976
 7146SOL    HW232901   4.230   2.219   6.416 -0.4629  0.4135 -0.7454
 7147SOL     OW32902   3.850   4.711   8.375 -0.1086 -0.4200 -0.4313
 7147SOL    HW132903   3.941   4.703   8.346 -0.2476  0.4099 -1.1009
 7147SOL    HW232904   3.849   0.077   8.411  0.2950 -0.2114 -0.9269
 7148SOL     OW32905   0.350   0.472   5.639 -0.1859 -0.2774  0.5515
 7148SOL    HW132906   0.330   0.523   5.718 -0.1373  1.0316 -0.2889
 7148SOL    HW232907   0.264   0.434   5.621  0.1102 -0.9588  0.5763
 7149SOL     OW32908   0.723   1.460   6.600 -0.4007  1.3917  0.6008
 7149SOL    HW132909   0.698   1.422   6.684 -1.5285  2.2128  0.6282
 7149SOL    HW232910   0.810   1.424   6.581  0.1833  3.3478 -0.3203
 7150SOL     OW32911   3.960   4.213  15.464  0.2402 -0.5876  0.2788
 7150SOL    HW132912   3.965   4.308  15.471 -0.5015 -0.4436 -1.2130
 7150SOL    HW232913   3.873   4.195  15.500  0.2641  0.2935  0.7696
 7151SOL     OW32914   4.035   3.193   7.603 -0.2824 -0.2659  0.5215
 7151SOL    HW132915   4.066   3.252   7.535 -0.3065 -1.3421 -0.4350
 7151SOL    HW232916   4.121   3.152   7.607  0.2521  0.9901  1.6360
 7152SOL     OW32917   0.426   2.018  12.176 -0.5810 -0.5394 -0.0835
 7152SOL    HW132918   0.476   2.079  12.231 -1.6647  1.7083 -1.5556
 7152SOL    HW232919   0.389   2.080  12.113  2.8749  1.1033 -0.5426
 7153SOL     OW32920   2.733   0.668   3.595 -0.6494 -0.5840 -0.0922
 7153SOL    HW132921   2.682   0.727   3.650  1.2348  2.7275 -1.8717
 7153SOL    HW232922   2.683   0.586   3.591  0.7124 -1.3563 -1.2317
 7154SOL     OW32923   3.421   1.115   3.706  0.1558  0.1106 -0.0738
 7154SOL    HW132924   3.478   1.100   3.631  0.9406  1.2274  0.2911
 7154SOL    HW232925   3.342   1.130   3.655  1.0798  0.0751 -1.5159
 7155SOL     OW32926   4.508   1.624  16.155  0.8353 -0.2168  0.1564
 7155SOL    HW132927   4.439   1.685  16.131  1.8379 -0.0087 -2.1262
 7155SOL    HW232928   4.494   1.550  16.096 -1.4661 -0.1220  0.5814
 7156SOL     OW32929   4.077   0.159   5.026 -0.2319 -0.0920 -0.3950
 7156SOL    HW132930   4.142   0.160   5.096  0.0984 -1.1407 -0.6728
 7156SOL    HW232931   4.100   0.071   4.995 -0.8385 -0.5283  0.4235
 7157SOL     OW32932   3.168   0.211  10.655 -0.8878  0.3510 -0.0644
 7157SOL    HW132933   3.252   0.165  10.653 -1.4344 -0.6548  0.0648
 7157SOL    HW232934   3.198   0.298  10.682  2.3804 -0.9863  0.5753
 7158SOL     OW32935   2.874   2.203   2.471 -0.3939 -0.2091  0.7192
 7158SOL    HW132936   2.883   2.117   2.431 -1.6937  0.3065 -0.6828
 7158SOL    HW232937   2.847   2.256   2.397  0.2890  1.0361  1.3598
 7159SOL     OW32938   3.967   4.256   3.539  0.5122  0.1314 -0.6320
 7159SOL    HW132939   4.031   4.216   3.598  0.9049 -0.5773 -1.5482
 7159SOL    HW232940   3.963   4.195   3.466 -1.5405 -0.8156  0.2600
 7160SOL     OW32941   4.281   2.077   7.274  0.0586  0.1124 -0.0858
 7160SOL    HW132942   4.288   2.009   7.207 -0.2090  1.4363 -1.4463
 7160SOL    HW232943   4.347   2.140   7.244 -0.1436  2.0029  3.3333
 7161SOL     OW32944   4.554   3.056   3.428 -0.9033  0.5487  0.0306
 7161SOL    HW132945   4.556   3.139   3.380 -0.3255  0.6554  0.2401
 7161SOL    HW232946   4.520   3.079   3.514  1.6686 -1.0146  1.4660
 7162SOL     OW32947   1.188   0.113  14.564 -0.3372 -0.1157 -0.0452
 7162SOL    HW132948   1.186   0.056  14.487 -1.9337  1.6983 -1.3246
 7162SOL    HW232949   1.122   0.180  14.550 -0.1639  0.2848  1.0158
 7163SOL     OW32950   0.939   2.475  14.070 -0.1882  0.4100  0.3257
 7163SOL    HW132951   0.970   2.390  14.041  2.2300  0.5232  2.6155
 7163SOL    HW232952   0.846   2.483  14.045 -0.4991 -0.3049  1.2509
 7164SOL     OW32953   0.351   3.630  12.892  0.1788 -0.0496 -0.2652
 7164SOL    HW132954   0.304   3.613  12.974  0.5246 -1.8874 -0.4502
 7164SOL    HW232955   0.444   3.633  12.913 -0.0429  0.6982  0.5927
 7165SOL     OW32956   0.104   0.804   5.063 -0.7231  0.3072  0.0869
 7165SOL    HW132957   0.009   0.795   5.067 -0.6056 -0.8703  0.3223
 7165SOL    HW232958   0.133   0.717   5.036  0.3350  0.8227 -0.4494
 7166SOL     OW32959   3.247   1.000   2.617 -0.2887  0.3080 -0.3590
 7166SOL    HW132960   3.269   1.014   2.709 -1.0267 -0.8530 -0.0022
 7166SOL    HW232961   3.265   1.088   2.582 -1.0841  0.4936 -0.2890
 7167SOL     OW32962   1.964   1.133   7.563 -0.1587  0.3837  0.1330
 7167SOL    HW132963   2.003   1.170   7.484 -2.0561  1.5565 -0.2631
 7167SOL    HW232964   2.036   1.083   7.602 -0.7071  2.0932  3.3389
 7168SOL     OW32965   3.316   4.146   3.539 -0.5318  0.1977  0.2031
 7168SOL    HW132966   3.332   4.070   3.483 -2.3597 -0.6908  0.9111
 7168SOL    HW232967   3.383   4.210   3.513  1.4203 -1.0968  2.0685
 7169SOL     OW32968   4.669   0.524   3.497 -0.1553 -0.1882  0.1121
 7169SOL    HW132969   4.612   0.513   3.573  2.3651 -2.6261  1.6636
 7169SOL    HW232970   4.645   0.611   3.467 -0.1544 -0.5157 -0.8315
 7170SOL     OW32971   2.764   2.333   8.404  0.3125  1.1372  0.1792
 7170SOL    HW132972   2.709   2.371   8.335 -0.1184 -0.3959 -0.3105
 7170SOL    HW232973   2.741   2.375   8.488 -0.6030 -0.8122  0.9022
 7171SOL     OW32974   1.263   2.113   4.068 -0.0313  1.3634 -0.5131
 7171SOL    HW132975   1.356   2.095   4.084 -0.2994 -0.6577 -1.2312
 7171SOL    HW232976   1.266   2.209   4.062  1.3207  1.4316  1.0671
 7172SOL     OW32977   0.192   2.146  10.856 -0.0856  0.3309 -0.2150
 7172SOL    HW132978   0.179   2.165  10.949 -0.2109 -0.6507 -0.0311
 7172SOL    HW232979   0.273   2.094  10.860 -0.3381  0.2500  3.8733
 7173SOL     OW32980   3.485   3.464   5.518  0.5263 -0.4878 -0.1882
 7173SOL    HW132981   3.509   3.503   5.434  0.7838  0.4849  0.3416
 7173SOL    HW232982   3.439   3.385   5.489  1.4058 -0.8267 -0.6669
 7174SOL     OW32983   1.773   1.438   3.557 -0.0751  0.3751 -0.5545
 7174SOL    HW132984   1.682   1.463   3.537 -0.8774 -2.0053  0.1651
 7174SOL    HW232985   1.797   1.501   3.625 -0.7186 -1.5962  1.5126
 7175SOL     OW32986   2.251   0.856   3.697 -0.3744 -0.6647  0.2682
 7175SOL    HW132987   2.271   0.824   3.785  0.9608 -0.9496 -0.1425
 7175SOL    HW232988   2.329   0.825   3.650 -0.8745 -0.9222 -0.3981
 7176SOL     OW32989   1.610   1.323   2.259 -0.1681  0.1171 -0.0037
 7176SOL    HW132990   1.655   1.243   2.232 -1.9499 -0.6278 -0.7549
 7176SOL    HW232991   1.613   1.363   2.172 -1.6466  0.2741  0.0168
 7177SOL     OW32992   4.258   4.423  10.998 -0.5673  0.3373 -0.1204
 7177SOL    HW132993   4.202   4.497  11.021 -0.4361  0.7262 -1.0535
 7177SOL    HW232994   4.310   4.475  10.936 -1.3341  1.2148 -0.0166
 7178SOL     OW32995   1.654   2.410   6.946  0.3769  0.4700 -0.3986
 7178SOL    HW132996   1.676   2.318   6.956 -1.8195  0.1028  1.1782
 7178SOL    HW232997   1.663   2.425   6.852  1.0925  0.7951 -0.2819
 7179SOL     OW32998   0.991   0.294   3.927 -0.7262 -0.0804  0.2441
 7179SOL    HW132999   0.940   0.372   3.949 -2.3632 -0.4420 -2.1616
 7179SOL    HW233000   1.068   0.313   3.979 -0.2978  0.2861 -0.5154
 7180SOL     OW33001   3.751   0.756   2.120  0.4948  0.3161 -0.1934
 7180SOL    HW133002   3.777   0.669   2.089 -0.1427 -0.0388  0.2699
 7180SOL    HW233003   3.658   0.769   2.098 -0.3477 -2.3041  1.8175
 7181SOL     OW33004   2.077   1.347   6.635  0.6908  0.4730 -0.6480
 7181SOL    HW133005   2.041   1.259   6.620 -1.2395  0.8839  1.5307
 7181SOL    HW233006   2.092   1.385   6.548 -0.7174 -1.0224 -1.5531
 7182SOL     OW33007   1.635   4.414  11.501  0.4325  0.0046 -0.0107
 7182SOL    HW133008   1.578   4.450  11.433  0.4090 -1.2044 -0.6284
 7182SOL    HW233009   1.650   4.322  11.480 -2.1761 -0.0033 -1.9008
 7183SOL     OW33010   3.732   0.526   3.670  0.2308 -0.4271 -0.8798
 7183SOL    HW133011   3.764   0.436   3.667 -0.9365 -0.9035  0.6183
 7183SOL    HW233012   3.792   0.574   3.613  1.1460 -1.1403 -0.5278
 7184SOL     OW33013   2.755   0.800   6.456 -0.8355  0.1366  0.6170
 7184SOL    HW133014   2.814   0.869   6.425 -0.0835 -0.9928 -0.4939
 7184SOL    HW233015   2.716   0.767   6.375  1.2500 -0.9142  0.0322
 7185SOL     OW33016   2.447   0.189  16.981  0.4591  0.4566 -0.7997
 7185SOL    HW133017   2.418   0.114  16.931 -0.3841  0.4850 -0.3407
 7185SOL    HW233018   2.373   0.249  16.984 -0.0963 -0.2939  0.2897
 7186SOL     OW33019   0.227   4.548  16.804 -0.1778  0.4175  0.6912
 7186SOL    HW133020   0.154   4.600  16.836  0.9071  1.9060  0.7262
 7186SOL    HW233021   0.183   4.473  16.763  1.5879 -0.8590  1.0989
 7187SOL     OW33022   0.623   2.536   1.847  0.1277  0.1709 -0.5914
 7187SOL    HW133023   0.615   2.442   1.829  0.3933 -0.0866  0.6698
 7187SOL    HW233024   0.532   2.566   1.850  0.2187  0.3635  0.0677
 7188SOL     OW33025   3.025   0.792   5.034 -0.8743  0.3055 -0.6198
 7188SOL    HW133026   3.110   0.827   5.059  0.0744 -2.7830  0.3915
 7188SOL    HW233027   2.965   0.837   5.094  0.2198 -1.0564  1.4759
 7189SOL     OW33028   1.536   1.541   3.427  0.1471 -0.5923 -0.2208
 7189SOL    HW133029   1.544   1.499   3.341  1.9353 -0.1203 -0.2759
 7189SOL    HW233030   1.494   1.624   3.403  1.3717 -0.7390 -2.8879
 7190SOL     OW33031   4.166   2.031   8.969 -0.4693 -0.1190 -0.4963
 7190SOL    HW133032   4.167   2.122   8.939  1.5479 -0.3120 -1.0501
 7190SOL    HW233033   4.139   2.034   9.060  2.6280 -0.9468  0.4404
 7191SOL     OW33034   3.945   3.418  14.376  0.1825  0.1119  0.3141
 7191SOL    HW133035   3.897   3.479  14.432 -0.6925 -0.7034  0.4626
 7191SOL    HW233036   3.877   3.351  14.368  2.3315 -1.8720 -1.3302
 7192SOL     OW33037   1.545   3.723   5.540  0.1625 -0.1758  0.2060
 7192SOL    HW133038   1.544   3.637   5.498 -0.6122 -0.2703  0.4241
 7192SOL    HW233039   1.512   3.775   5.466 -2.3855 -0.0338  1.4599
 7193SOL     OW33040   2.056   2.174   8.990  0.5836  0.3379 -0.3329
 7193SOL    HW133041   2.007   2.095   9.015 -0.1149  1.5822  2.2238
 7193SOL    HW233042   2.065   2.221   9.073  1.7706 -0.8144  0.1829
 7194SOL     OW33043   4.440   3.059   8.177 -0.7541 -0.4083  0.0571
 7194SOL    HW133044   4.372   3.001   8.142 -0.4827 -1.7622  1.7525
 7194SOL    HW233045   4.499   3.058   8.101 -1.9688 -1.5440 -0.8824
 7195SOL     OW33046   0.252   2.452   7.314 -0.3648  0.0989  0.4327
 7195SOL    HW133047   0.301   2.389   7.367 -0.9625 -0.4644  0.3080
 7195SOL    HW233048   0.301   2.453   7.232 -1.2634  1.7861 -0.0817
 7196SOL     OW33049   3.991   1.682   3.997  0.1442  0.5473 -0.2372
 7196SOL    HW133050   3.966   1.608   3.942  2.4948  0.7565 -1.6293
 7196SOL    HW233051   4.086   1.680   3.981  0.2283 -1.6381  0.6429
 7197SOL     OW33052   2.673   4.366   5.360  0.1750  0.2577  0.3593
 7197SOL    HW133053   2.655   4.288   5.413  2.2638 -0.3545  0.1593
 7197SOL    HW233054   2.587   4.391   5.326  1.0046  1.3463 -0.9494
 7198SOL     OW33055   2.699   1.334   7.836  0.5057 -0.0386 -0.0040
 7198SOL    HW133056   2.701   1.247   7.878 -0.1769 -0.1132 -0.1179
 7198SOL    HW233057   2.727   1.390   7.909  2.0115 -1.8597  0.8151
 7199SOL     OW33058   1.893   2.789  14.031  0.2878 -0.0049 -0.1566
 7199SOL    HW133059   1.878   2.695  14.041  1.4388 -0.1651  0.0663
 7199SOL    HW233060   1.956   2.783  13.960 -0.4641  1.5151 -0.9559
 7200SOL     OW33061   1.575   1.855   4.600 -0.3152 -0.1993 -0.3673
 7200SOL    HW133062   1.505   1.822   4.543 -1.0059  0.0581  0.3254
 7200SOL    HW233063   1.539   1.842   4.688  0.3179 -0.3073 -0.1291
 7201SOL     OW33064   4.068   1.941   9.662 -0.2371 -0.7799  0.2042
 7201SOL    HW133065   4.002   1.958   9.729 -2.3721  0.8178 -2.2762
 7201SOL    HW233066   4.041   1.990   9.584  0.6207  2.1323  1.7406
 7202SOL     OW33067   1.096   2.428   7.494 -0.1610 -0.0482 -0.0959
 7202SOL    HW133068   1.060   2.370   7.562  0.2450 -0.5995 -0.3488
 7202SOL    HW233069   1.015   2.472   7.465 -1.8311 -3.6813 -0.9610
 7203SOL     OW33070   2.888   4.207  16.745  0.0172 -0.0986  0.1110
 7203SOL    HW133071   2.842   4.188  16.663 -1.0480  1.1317  0.4089
 7203SOL    HW233072   2.812   4.223  16.801 -1.0082 -1.0093 -1.0443
 7204SOL     OW33073   0.383   2.551   7.782  0.5493 -0.3359  0.0051
 7204SOL    HW133074   0.434   2.516   7.855 -0.0202 -0.9221  0.1284
 7204SOL    HW233075   0.433   2.521   7.707  0.2922  1.3289 -0.8272
 7205SOL     OW33076   0.620   0.720   5.293 -0.0271  0.0484 -0.7476
 7205SOL    HW133077   0.577   0.646   5.337  0.5024  1.3850  2.0036
 7205SOL    HW233078   0.547   0.781   5.293  1.1847  1.4907  2.5452
 7206SOL     OW33079   0.518   3.526  12.417 -0.1102  0.0566 -0.0471
 7206SOL    HW133080   0.605   3.492  12.439 -0.5289 -1.4179 -0.6749
 7206SOL    HW233081   0.512   3.504  12.323 -1.3616  2.5830 -0.5511
 7207SOL     OW33082   4.204   3.404   3.469 -0.2525 -0.4726 -0.0130
 7207SOL    HW133083   4.230   3.406   3.561  1.4946  3.5239 -0.5734
 7207SOL    HW233084   4.113   3.431   3.474 -0.3273 -0.4555 -1.4482
 7208SOL     OW33085   3.953   0.926   8.268  0.0068  0.1328  0.4026
 7208SOL    HW133086   3.983   1.014   8.292  1.1889 -0.3171  0.5948
 7208SOL    HW233087   4.037   0.879   8.266  0.4422  0.9335 -0.2301
 7209SOL     OW33088   0.206   2.235  11.129 -0.2251  1.0724  0.4472
 7209SOL    HW133089   0.175   2.192  11.209 -1.3276  0.7271 -0.1616
 7209SOL    HW233090   0.295   2.262  11.151  0.6933 -2.1243  0.6155
 7210SOL     OW33091   2.747   0.725   8.745  0.4906  0.1165 -0.2065
 7210SOL    HW133092   2.793   0.759   8.822  0.9346 -3.8283  1.2609
 7210SOL    HW233093   2.791   0.642   8.728  0.7111  0.6124 -2.0255
 7211SOL     OW33094   3.580   0.693  13.514 -0.4602 -0.5047  0.1341
 7211SOL    HW133095   3.660   0.745  13.502 -0.5008 -0.8010 -1.3555
 7211SOL    HW233096   3.610   0.603  13.499 -0.5234 -1.0895  3.3097
 7212SOL     OW33097   3.494   0.747  15.261 -0.2057  0.7850  0.5025
 7212SOL    HW133098   3.511   0.839  15.245  0.3761  0.4079 -1.0533
 7212SOL    HW233099   3.460   0.723  15.174 -0.3423 -0.8582  1.0108
 7213SOL     OW33100   4.636   3.993  10.312 -0.3991 -0.3436 -0.9599
 7213SOL    HW133101   0.006   3.975  10.293  0.0315  0.9600 -0.1564
 7213SOL    HW233102   4.628   4.076  10.265  0.9069 -0.0977 -0.7429
 7214SOL     OW33103   4.528   0.119  17.587 -0.3160  0.8753  0.2856
 7214SOL    HW133104   4.540   0.129  17.492  0.5102 -0.6428  0.2231
 7214SOL    HW233105   4.541   0.024  17.590 -0.1286  0.9329  1.2673
 7215SOL     OW33106   0.679   0.855   7.695  0.5464  0.3230 -0.3343
 7215SOL    HW133107   0.645   0.883   7.779 -1.2021  0.0205 -0.9392
 7215SOL    HW233108   0.770   0.847   7.724  0.5245 -0.9655 -0.6274
 7216SOL     OW33109   3.345   2.112   2.508  0.1559 -0.1227  0.2838
 7216SOL    HW133110   3.265   2.072   2.540 -0.5468  1.7767  0.8761
 7216SOL    HW233111   3.409   2.055   2.550 -0.0589 -1.8009 -1.6883
 7217SOL     OW33112   2.648   4.607   7.784  0.3787 -0.3535 -0.4593
 7217SOL    HW133113   2.640   4.564   7.699 -0.5980  0.4812 -0.7875
 7217SOL    HW233114   2.621   4.696   7.760  0.9386 -0.3747 -1.1707
 7218SOL     OW33115   0.993   2.860   1.264 -0.6805  0.3145 -0.5292
 7218SOL    HW133116   1.078   2.841   1.304 -0.4469  1.7588 -0.3531
 7218SOL    HW233117   0.989   2.955   1.262 -1.7884  0.2244 -2.6459
 7219SOL     OW33118   3.005   3.596   2.669  0.7465 -0.1418  0.2224
 7219SOL    HW133119   3.054   3.677   2.655 -1.5606  1.2202 -0.0464
 7219SOL    HW233120   3.080   3.538   2.653  1.0252  0.6841 -1.4106
 7220SOL     OW33121   0.263   3.912   6.305 -0.3182  0.5016  0.2555
 7220SOL    HW133122   0.253   3.833   6.358 -0.2275 -0.5329 -1.2727
 7220SOL    HW233123   0.344   3.948   6.341  0.9214 -2.2924  0.1702
 7221SOL     OW33124   3.122   0.423   5.570  0.0339 -0.4934 -0.3650
 7221SOL    HW133125   3.178   0.363   5.619  2.4300  2.1447  0.0902
 7221SOL    HW233126   3.032   0.391   5.583 -0.8740  2.5262  0.6664
 7222SOL     OW33127   3.024   1.266   4.399 -0.2288  0.5651  0.0100
 7222SOL    HW133128   2.989   1.193   4.449 -0.6281 -0.9037 -2.3899
 7222SOL    HW233129   2.985   1.244   4.314  1.4160  0.6242 -0.7631
 7223SOL     OW33130   2.692   3.825  10.594  0.0760 -0.4080  0.4088
 7223SOL    HW133131   2.668   3.735  10.616  1.3762 -1.1518 -1.2153
 7223SOL    HW233132   2.784   3.804  10.576 -0.3379 -2.6332  0.9134
 7224SOL     OW33133   2.726   3.041  11.113 -0.2413  0.1733 -0.0472
 7224SOL    HW133134   2.729   3.061  11.020 -2.3141  0.1804 -0.1007
 7224SOL    HW233135   2.751   2.949  11.114 -0.0818  0.2160 -0.0762
 7225SOL     OW33136   0.315   3.975   5.986  0.2970  0.2328  0.6528
 7225SOL    HW133137   0.257   4.016   5.921 -1.0404  2.8371  3.4835
 7225SOL    HW233138   0.252   3.923   6.036 -1.4596 -0.0835 -1.9096
 7226SOL     OW33139   0.466   1.112   8.222 -0.0405  0.2779  0.2937
 7226SOL    HW133140   0.554   1.143   8.241  0.0069  1.0578 -1.1623
 7226SOL    HW233141   0.416   1.165   8.284  1.2194 -0.1310  1.6596
 7227SOL     OW33142   4.117   0.669   6.786 -0.3303  0.2363 -0.5219
 7227SOL    HW133143   4.108   0.740   6.850  2.2391  0.9588 -0.9497
 7227SOL    HW233144   4.027   0.638   6.796  0.3466 -1.0230  1.6703
 7228SOL     OW33145   3.475   4.022  10.802  0.1507 -0.1889  0.3733
 7228SOL    HW133146   3.563   3.998  10.830  0.7292  0.7843 -0.6304
 7228SOL    HW233147   3.456   4.073  10.881  0.9387 -1.3087  1.2826
 7229SOL     OW33148   0.895   4.225   7.381 -0.0561  0.0402  0.2387
 7229SOL    HW133149   0.951   4.293   7.344  0.9379 -0.5169  0.7266
 7229SOL    HW233150   0.812   4.273   7.381 -0.1852 -0.1809  0.0281
 7230SOL     OW33151   0.749   4.577   6.367  0.5874 -0.4217 -0.2467
 7230SOL    HW133152   0.716   4.642   6.305  1.4123  0.9003  0.7203
 7230SOL    HW233153   0.667   4.527   6.376  0.6083 -0.5125 -0.5648
 7231SOL     OW33154   4.202   1.935   1.480 -0.3653  0.4374  0.0619
 7231SOL    HW133155   4.149   2.014   1.475  0.5693  0.9671 -1.5747
 7231SOL    HW233156   4.240   1.943   1.392 -0.3138 -1.6633 -0.1165
 7232SOL     OW33157   1.209   1.440   9.069 -0.7841  0.0983  0.3894
 7232SOL    HW133158   1.127   1.483   9.044 -2.1927 -3.5642 -1.1212
 7232SOL    HW233159   1.218   1.479   9.157  2.3097  0.1399  0.0649
 7233SOL     OW33160   1.488   2.181  10.943  0.2702  0.6048  0.1906
 7233SOL    HW133161   1.513   2.223  10.861  1.0337 -0.1741  0.0138
 7233SOL    HW233162   1.576   2.193  10.979  0.6017  2.9783 -1.4537
 7234SOL     OW33163   0.978   1.382   6.515 -0.5140 -0.4888 -0.0259
 7234SOL    HW133164   1.027   1.443   6.461 -0.7947  1.1211  1.5523
 7234SOL    HW233165   0.988   1.411   6.606  0.4244  0.0055 -0.2973
 7235SOL     OW33166   3.796   0.521   8.343 -0.4379 -0.2259 -0.2174
 7235SOL    HW133167   3.823   0.571   8.420  2.0940 -1.7776 -0.0948
 7235SOL    HW233168   3.881   0.487   8.312 -0.9242 -2.2499  0.6504
 7236SOL     OW33169   0.661   2.803  14.939 -0.3996 -0.4405 -0.2182
 7236SOL    HW133170   0.580   2.822  14.987  0.1666  0.4837  0.3621
 7236SOL    HW233171   0.721   2.809  15.013 -1.2669  1.3925  0.3364
 7237SOL     OW33172   1.640   3.636   8.904  0.1592  0.1314  0.5725
 7237SOL    HW133173   1.560   3.607   8.948 -1.6815  2.2948 -1.3934
 7237SOL    HW233174   1.604   3.671   8.823 -0.2328 -0.1422  0.6264
 7238SOL     OW33175   2.978   2.184   6.658 -0.2625 -0.1968 -0.1628
 7238SOL    HW133176   3.000   2.109   6.604 -0.7548  0.5468 -1.3893
 7238SOL    HW233177   3.028   2.156   6.735 -0.9076 -2.7455 -0.6602
 7239SOL     OW33178   1.765   3.706   5.808 -0.4890 -0.3369  0.4064
 7239SOL    HW133179   1.833   3.688   5.744 -0.3164 -1.8216  1.0080
 7239SOL    HW233180   1.814   3.692   5.889  0.5283  0.3831 -0.0860
 7240SOL     OW33181   4.339   4.146   7.941  0.1040  0.2960  0.1566
 7240SOL    HW133182   4.425   4.156   7.900 -1.0887  0.9856 -2.1365
 7240SOL    HW233183   4.358   4.180   8.028  2.5825  0.6104 -0.5070
 7241SOL     OW33184   3.602   1.756   2.141  0.4077  0.4547  0.2314
 7241SOL    HW133185   3.582   1.833   2.194  1.2966 -0.6050  2.1304
 7241SOL    HW233186   3.698   1.751   2.147  0.3962 -0.7331 -0.6769
 7242SOL     OW33187   1.994   2.993  14.395  0.0079 -0.4399 -0.1474
 7242SOL    HW133188   2.008   3.083  14.425  2.4917 -0.6518 -0.6704
 7242SOL    HW233189   1.950   3.013  14.313 -0.8342 -0.3491  0.3231
 7243SOL     OW33190   2.446   0.917   7.831 -0.5613 -0.0355 -0.2232
 7243SOL    HW133191   2.362   0.883   7.863  0.5353 -1.8983  0.6400
 7243SOL    HW233192   2.474   0.848   7.769 -0.6575 -1.3901  1.2443
 7244SOL     OW33193   0.089   3.245  11.196 -0.0803 -0.1945 -0.4167
 7244SOL    HW133194   0.018   3.182  11.183  0.5736 -1.1034  0.4369
 7244SOL    HW233195   0.146   3.217  11.125 -0.2311 -0.5355 -0.4027
 7245SOL     OW33196   4.073   0.055  11.243 -0.0022  0.0019 -0.0578
 7245SOL    HW133197   4.119   0.019  11.167  2.2285  1.3290  0.6651
 7245SOL    HW233198   4.004   4.713  11.257  1.2889 -0.5922  3.5981
 7246SOL     OW33199   4.422   2.486  17.403 -0.5623  0.4657 -0.5050
 7246SOL    HW133200   4.328   2.473  17.388 -0.5350  0.5014 -0.7141
 7246SOL    HW233201   4.457   2.528  17.325  0.0055 -0.7499 -0.8977
 7247SOL     OW33202   3.133   0.646   8.213  0.2222 -0.3096 -0.3060
 7247SOL    HW133203   3.131   0.679   8.303  1.0945 -1.9576  0.3128
 7247SOL    HW233204   3.056   0.591   8.218  0.5246 -0.6544  0.4880
 7248SOL     OW33205   3.524   0.868   4.034 -0.5132  0.6930 -0.1605
 7248SOL    HW133206   3.507   0.895   4.124  1.0641  2.8898 -0.5243
 7248SOL    HW233207   3.484   0.781   4.038  1.5573 -0.2662 -0.5066
 7249SOL     OW33208   0.401   2.334   9.780 -0.3461  0.8451 -0.3187
 7249SOL    HW133209   0.333   2.380   9.829 -0.9669 -2.2691  1.6942
 7249SOL    HW233210   0.434   2.281   9.852  0.5375 -0.5141 -1.7156
 7250SOL     OW33211   2.321   0.767  11.808  0.0345  0.0208  0.1394
 7250SOL    HW133212   2.386   0.737  11.745 -1.2243 -0.4493 -0.9438
 7250SOL    HW233213   2.347   0.859  11.816 -3.1641  0.9514 -0.1574
 7251SOL     OW33214   0.756   3.905   4.430 -0.0236 -0.2343 -0.3150
 7251SOL    HW133215   0.771   3.877   4.340 -1.0376 -1.5475 -0.0742
 7251SOL    HW233216   0.821   3.972   4.450 -1.5466  1.0664  0.2466
 7252SOL     OW33217   4.429   1.371   7.915 -0.0195  0.0267 -0.4210
 7252SOL    HW133218   4.438   1.398   7.824 -0.0352  0.0257 -0.4229
 7252SOL    HW233219   4.337   1.351   7.932 -0.1404  0.6067 -0.3911
 7253SOL     OW33220   2.316   2.342  12.149 -0.6257  0.0236  0.0521
 7253SOL    HW133221   2.372   2.298  12.085  1.4900  0.7786  1.4122
 7253SOL    HW233222   2.331   2.280  12.220 -1.9687  2.0451  2.0700
 7254SOL     OW33223   3.227   1.854   8.059  0.4474 -0.1936  0.0137
 7254SOL    HW133224   3.183   1.923   8.010  0.0896 -0.5240 -0.1246
 7254SOL    HW233225   3.279   1.901   8.124 -2.4632  1.6216  1.0183
 7255SOL     OW33226   3.645   2.847   7.427  0.1940 -0.4233 -0.2727
 7255SOL    HW133227   3.569   2.905   7.417  0.8123  0.4741  0.1947
 7255SOL    HW233228   3.698   2.909   7.477 -0.5724 -0.2361  0.3264
 7256SOL     OW33229   3.682   2.510   3.762  0.1209  0.2577 -0.8799
 7256SOL    HW133230   3.743   2.583   3.774  0.2815 -0.1065  0.5651
 7256SOL    HW233231   3.616   2.563   3.717 -1.5538 -1.2418 -0.2190
 7257SOL     OW33232   2.206   3.945  15.768  0.5703  0.7444 -0.3279
 7257SOL    HW133233   2.111   3.947  15.785  0.4672  0.5185 -0.8786
 7257SOL    HW233234   2.208   3.858  15.730 -0.9347  0.1064  1.0270
 7258SOL     OW33235   3.777   2.175   3.259  0.4352 -0.2586 -0.6094
 7258SOL    HW133236   3.770   2.224   3.341  0.8902  0.1055 -0.7868
 7258SOL    HW233237   3.814   2.104   3.312 -1.5113  0.0832  1.2026
 7259SOL     OW33238   4.064   1.836  15.787 -0.5191 -0.2733 -0.3899
 7259SOL    HW133239   3.998   1.871  15.728  0.1826 -0.0284 -1.0289
 7259SOL    HW233240   4.143   1.881  15.759  0.4056 -3.0393 -2.2643
 7260SOL     OW33241   4.691   3.784   6.397  0.0191 -0.0984  0.4893
 7260SOL    HW133242   0.006   3.840   6.464 -0.1042 -0.6953  1.0517
 7260SOL    HW233243   4.698   3.696   6.435 -3.0589 -0.7525 -0.4419
 7261SOL     OW33244   3.478   4.014   6.829 -0.3713  0.3914  0.1277
 7261SOL    HW133245   3.406   3.972   6.783 -1.7667  0.3300  2.3538
 7261SOL    HW233246   3.432   4.018   6.913 -1.3559  0.9892 -0.4433
 7262SOL     OW33247   1.228   4.710   8.232 -0.6321  0.1196 -0.0538
 7262SOL    HW133248   1.247   4.618   8.254  1.9520  0.9308  1.0458
 7262SOL    HW233249   1.135   0.005   8.245 -0.4034 -1.0596  3.1486
 7263SOL     OW33250   1.257   3.433  17.659 -0.3850  0.0689 -0.0579
 7263SOL    HW133251   1.302   3.491  17.597  0.1898  0.1203  0.4101
 7263SOL    HW233252   1.261   3.478   0.053  0.2641 -1.3939  0.6924
 7264SOL     OW33253   0.358   1.155   5.958  0.1210  0.1373 -0.0227
 7264SOL    HW133254   0.407   1.115   5.886  1.2735  1.7875 -0.1601
 7264SOL    HW233255   0.323   1.086   6.015 -0.5281 -0.5272 -1.2307
 7265SOL     OW33256   3.670   2.850   9.923  0.6181 -0.5646 -0.3091
 7265SOL    HW133257   3.608   2.822   9.991  0.6122 -0.1981 -0.1615
 7265SOL    HW233258   3.631   2.933   9.898  1.1993 -0.6057 -1.3284
 7266SOL     OW33259   2.689   2.164  12.166  0.4275 -0.2685  0.1963
 7266SOL    HW133260   2.625   2.145  12.234  0.1637  0.4669  0.1565
 7266SOL    HW233261   2.631   2.193  12.096 -0.5055 -0.1149  1.0382
 7267SOL     OW33262   0.953   1.024   4.466  0.0082 -0.1253  0.0212
 7267SOL    HW133263   1.034   1.047   4.420  0.1841 -1.6840 -0.4529
 7267SOL    HW233264   0.963   0.932   4.492 -1.4747  0.0727  1.2754
 7268SOL     OW33265   2.389   1.719   5.812  0.4895 -0.2134 -0.1351
 7268SOL    HW133266   2.365   1.630   5.837 -1.8349  0.2033 -0.8915
 7268SOL    HW233267   2.393   1.728   5.717  0.8498  0.0243 -0.0968
 7269SOL     OW33268   4.046   4.586  14.739 -0.4236  0.1015 -0.2729
 7269SOL    HW133269   3.961   4.620  14.765 -0.3007 -0.0029  0.2735
 7269SOL    HW233270   4.087   4.566  14.823  3.6587 -0.0976 -2.3178
 7270SOL     OW33271   2.773   1.477  14.256  0.0359  0.3636  0.5479
 7270SOL    HW133272   2.801   1.562  14.291  0.7842 -0.0365  0.9054
 7270SOL    HW233273   2.792   1.429  14.336 -1.6336 -0.6822  0.3215
 7271SOL     OW33274   4.311   3.343  13.677  0.3872 -0.1279 -0.1769
 7271SOL    HW133275   4.328   3.363  13.585  0.4476 -2.0397 -0.5747
 7271SOL    HW233276   4.249   3.411  13.702 -1.0726 -1.5996  0.2362
 7272SOL     OW33277   1.436   1.915   8.917  0.3548 -0.1218 -0.0863
 7272SOL    HW133278   1.522   1.955   8.927  0.3721  0.0146 -0.8362
 7272SOL    HW233279   1.430   1.852   8.990  1.8193 -0.9461 -0.6846
 7273SOL     OW33280   2.191   4.268   8.800 -0.2705  0.2570  0.4922
 7273SOL    HW133281   2.248   4.314   8.862  1.4471 -1.6249  0.3226
 7273SOL    HW233282   2.174   4.188   8.850  0.8152  0.4014  1.0987
 7274SOL     OW33283   0.140   2.950  16.539 -0.0970  0.4289  0.5535
 7274SOL    HW133284   0.090   2.953  16.621 -4.0074  0.5667 -1.8362
 7274SOL    HW233285   0.123   2.862  16.505  1.8757 -0.0340  0.7494
 7275SOL     OW33286   4.116   1.217   4.121  0.7534 -0.3422  0.2424
 7275SOL    HW133287   4.176   1.259   4.059  0.8071  0.8006  1.0732
 7275SOL    HW233288   4.139   1.262   4.202  1.8339 -1.2527  0.4479
 7276SOL     OW33289   2.109   1.294   2.095 -0.3992 -0.1413 -0.1555
 7276SOL    HW133290   2.046   1.364   2.079  1.5036  1.9081  1.5334
 7276SOL    HW233291   2.081   1.249   2.176 -0.3050  1.6475  0.8553
 7277SOL     OW33292   4.439   1.112  15.279  0.0011  0.3572  0.2086
 7277SOL    HW133293   4.349   1.087  15.261  0.2870 -0.2497 -0.3988
 7277SOL    HW233294   4.474   1.079  15.196  0.2715  0.7669  0.1595
 7278SOL     OW33295   2.931   3.977   1.226  0.0549  0.3855  0.3954
 7278SOL    HW133296   2.941   4.071   1.234  1.9457  0.1183  1.2423
 7278SOL    HW233297   2.858   3.957   1.285 -0.6690 -1.2949 -1.0525
 7279SOL     OW33298   4.220   4.186   1.073  0.1485  0.3011  0.1359
 7279SOL    HW133299   4.170   4.245   1.131 -1.3073 -1.4854  0.7178
 7279SOL    HW233300   4.306   4.227   1.076  2.0950 -3.7948 -1.2636
 7280SOL     OW33301   2.165   1.973   5.579  0.2766  0.3782 -0.5962
 7280SOL    HW133302   2.245   1.921   5.581  0.0880  0.0128 -2.5508
 7280SOL    HW233303   2.110   1.921   5.521 -0.4995  2.0563 -1.3972
 7281SOL     OW33304   1.509   0.755   4.019  0.6716  0.2259 -0.6492
 7281SOL    HW133305   1.569   0.686   4.045 -0.3564  0.3956  2.1558
 7281SOL    HW233306   1.499   0.724   3.928  1.5227 -0.6275 -0.4514
 7282SOL     OW33307   2.294   0.873   9.012 -0.4775 -0.3823 -0.2503
 7282SOL    HW133308   2.304   0.961   8.976  1.6894 -0.9338 -1.0449
 7282SOL    HW233309   2.354   0.895   9.082  2.1359  1.2679 -2.9926
 7283SOL     OW33310   1.748   4.486   8.586 -0.4726 -0.3354 -0.4878
 7283SOL    HW133311   1.715   4.576   8.591 -0.6150 -0.5276  2.0188
 7283SOL    HW233312   1.671   4.438   8.614 -0.2703 -0.4469 -0.1235
 7284SOL     OW33313   3.790   2.604   2.551 -0.5300  0.2103  0.2067
 7284SOL    HW133314   3.880   2.570   2.551 -0.8124 -0.5662  2.2970
 7284SOL    HW233315   3.801   2.650   2.634  0.9681 -2.7289  1.6622
 7285SOL     OW33316   4.309   4.541   6.073 -0.1174  0.3425 -0.5290
 7285SOL    HW133317   4.290   4.448   6.060 -0.6449  0.2355  1.0142
 7285SOL    HW233318   4.299   4.575   5.984 -1.3439 -3.0696 -1.6840
 7286SOL     OW33319   3.080   2.968  13.273 -0.7904  0.8102 -0.4085
 7286SOL    HW133320   3.047   3.035  13.213  1.0119  2.1185  0.0725
 7286SOL    HW233321   3.087   3.009  13.359  0.0810  0.9288 -0.5402
 7287SOL     OW33322   0.464   1.957   2.479  0.4691  0.4228 -0.0264
 7287SOL    HW133323   0.527   1.913   2.537 -1.6279 -3.0979 -0.4335
 7287SOL    HW233324   0.384   1.935   2.528  0.3939 -0.3863 -0.5187
 7288SOL     OW33325   3.325   0.408   0.647  0.1578 -0.5297 -0.3729
 7288SOL    HW133326   3.372   0.488   0.669  1.6487 -1.0538 -1.6599
 7288SOL    HW233327   3.393   0.371   0.591  1.1263 -0.1010  0.5187
 7289SOL     OW33328   4.709   0.160   4.310  0.1882 -0.1482 -0.0820
 7289SOL    HW133329   0.041   0.239   4.314  0.3056 -0.1313 -1.7403
 7289SOL    HW233330   4.655   0.166   4.389  1.3562  0.6646  0.6600
 7290SOL     OW33331   1.541   0.720   0.084  0.1035 -0.2597  0.3032
 7290SOL    HW133332   1.510   0.796   0.034 -2.5702 -1.5201  0.0862
 7290SOL    HW233333   1.626   0.705   0.043 -1.2129  1.2001 -2.9684
 7291SOL     OW33334   3.948   0.162   0.148  0.4020  0.3817  0.4377
 7291SOL    HW133335   3.882   0.221   0.183 -0.9031 -0.6761 -0.2674
 7291SOL    HW233336   4.028   0.171   0.201 -0.5541 -1.0864  2.0896
 7292SOL     OW33337   1.447   3.746   2.003  0.4587  0.8944  0.3746
 7292SOL    HW133338   1.379   3.764   1.938 -0.1367 -3.2456 -0.1922
 7292SOL    HW233339   1.471   3.655   1.983 -0.1854  0.9616 -0.7638
 7293SOL     OW33340   2.319   0.275  16.626  0.4083 -0.3879  0.4041
 7293SOL    HW133341   2.345   0.186  16.604  2.0356  0.1545  0.1405
 7293SOL    HW233342   2.317   0.320  16.542  1.5418  0.5874  0.9001
 7294SOL     OW33343   3.529   4.043   7.672 -0.0533 -0.1456  0.4154
 7294SOL    HW133344   3.475   4.086   7.739  0.0507  1.9302 -0.8457
 7294SOL    HW233345   3.614   4.086   7.672  0.2619 -0.7709  1.4564
 7295SOL     OW33346   1.598   3.068   2.842  0.4435 -0.6502 -0.1622
 7295SOL    HW133347   1.684   3.085   2.882  0.7627 -1.2293 -0.6012
 7295SOL    HW233348   1.599   2.977   2.812  0.9252 -0.7514  0.1479
 7296SOL     OW33349   3.180   3.541  17.666  0.0606  0.5206 -0.1954
 7296SOL    HW133350   3.181   3.463   0.031 -0.7405  1.3235  0.9874
 7296SOL    HW233351   3.128   3.506  17.593  0.6133 -2.4462  0.8337
 7297SOL     OW33352   0.385   1.923   9.561  0.2946 -0.2135 -0.8648
 7297SOL    HW133353   0.428   1.838   9.560  1.0981  0.2096 -2.3841
 7297SOL    HW233354   0.399   1.958   9.473 -0.7239  1.4429 -0.3720
 7298SOL     OW33355   2.510   4.166   8.362 -0.2033 -0.8770  0.2299
 7298SOL    HW133356   2.524   4.255   8.394 -4.4656  1.8494 -5.4392
 7298SOL    HW233357   2.475   4.118   8.437 -0.0481  0.3184  1.0566
 7299SOL     OW33358   2.909   1.192   8.011  0.7504  0.1157 -0.0055
 7299SOL    HW133359   2.936   1.104   8.039 -0.5044 -0.2438  0.0872
 7299SOL    HW233360   2.823   1.170   7.975 -0.7951 -0.3411  3.9450
 7300SOL     OW33361   2.761   2.986   3.178  0.3499  0.1129  0.4823
 7300SOL    HW133362   2.750   3.076   3.207  0.2234  0.4449 -0.5906
 7300SOL    HW233363   2.680   2.948   3.211  0.4590 -0.2857  0.2914
 7301SOL     OW33364   4.245   3.818   7.226 -0.1989 -0.0281  0.0926
 7301SOL    HW133365   4.261   3.732   7.188 -0.9715 -0.0690 -0.1466
 7301SOL    HW233366   4.169   3.787   7.276 -1.1403  0.3900 -1.0805
 7302SOL     OW33367   2.233   3.511   8.314  0.0638 -0.4663  0.0287
 7302SOL    HW133368   2.284   3.438   8.350 -0.7652 -0.7369  0.6398
 7302SOL    HW233369   2.172   3.476   8.248 -0.2511  0.3771 -0.1258
 7303SOL     OW33370   3.846   0.475   4.236  0.8308  0.0774  0.0363
 7303SOL    HW133371   3.932   0.516   4.224  0.5592  0.5765 -0.2476
 7303SOL    HW233372   3.849   0.492   4.330  0.8287 -1.7477  0.3581
 7304SOL     OW33373   1.370   0.498   7.745  0.1901  0.1677 -0.5900
 7304SOL    HW133374   1.380   0.403   7.755  1.2149  0.2405 -0.9299
 7304SOL    HW233375   1.283   0.522   7.777 -0.4547 -0.1138 -2.0959
 7305SOL     OW33376   4.228   0.686  13.754 -0.7713 -0.1091  0.0622
 7305SOL    HW133377   4.208   0.672  13.847 -2.1112 -2.6936 -0.6358
 7305SOL    HW233378   4.288   0.761  13.755 -2.4515  1.2313  0.1414
 7306SOL     OW33379   3.437   4.679   0.533 -0.5899  0.4434 -0.0141
 7306SOL    HW133380   3.362   0.015   0.544  0.0522  1.6534 -1.9214
 7306SOL    HW233381   3.400   4.594   0.556  0.1797  0.0850 -0.0761
 7307SOL     OW33382   3.402   0.400   6.474 -0.0510  0.0578  0.1987
 7307SOL    HW133383   3.446   0.316   6.457 -0.5883 -0.2314  0.2571
 7307SOL    HW233384   3.341   0.400   6.400  0.2905  0.3759 -0.0863
 7308SOL     OW33385   0.073   2.792   4.907  0.0859  0.3040 -0.3961
 7308SOL    HW133386   0.140   2.842   4.859  0.4963  1.3276  1.2550
 7308SOL    HW233387   0.109   2.704   4.900 -1.3828 -0.3316  0.1030
 7309SOL     OW33388   3.485   0.988   5.845  0.2210  0.0838 -0.2683
 7309SOL    HW133389   3.485   1.058   5.779 -0.6166  0.9135  0.6023
 7309SOL    HW233390   3.496   1.045   5.921  0.8404 -1.3270  0.6931
 7310SOL     OW33391   1.968   0.394   8.814  0.3158 -1.0283  0.1168
 7310SOL    HW133392   1.887   0.346   8.831 -1.3813  1.1777 -1.7156
 7310SOL    HW233393   1.929   0.482   8.812 -0.2885 -1.3256 -2.0133
 7311SOL     OW33394   3.435   1.198  10.435  0.0096 -0.4810  0.3183
 7311SOL    HW133395   3.448   1.119  10.487  1.5653 -0.6036 -0.2496
 7311SOL    HW233396   3.450   1.262  10.505  0.0664 -0.4526  0.2796
 7312SOL     OW33397   3.582   0.300  14.460 -0.5958 -0.0703  0.3094
 7312SOL    HW133398   3.611   0.213  14.488 -1.5109 -0.5475 -0.2057
 7312SOL    HW233399   3.553   0.331  14.545  1.6725  1.5940  0.4731
 7313SOL     OW33400   3.837   4.346   4.627 -0.0892  0.0606  0.0358
 7313SOL    HW133401   3.827   4.263   4.580  0.0870 -0.7148  1.3842
 7313SOL    HW233402   3.857   4.412   4.561  0.7794  0.2983  0.5364
 7314SOL     OW33403   0.627   2.284   8.723  0.4184 -0.1954 -0.0545
 7314SOL    HW133404   0.712   2.241   8.714  0.6017 -0.4345  2.7092
 7314SOL    HW233405   0.624   2.336   8.803 -0.2458  0.7731 -0.7074
 7315SOL     OW33406   4.712   3.295   6.887 -0.3902 -0.1975 -0.1731
 7315SOL    HW133407   4.685   3.220   6.834  0.6586 -1.4696  1.0615
 7315SOL    HW233408   0.040   3.238   6.946 -0.6120  2.3684  2.5133
 7316SOL     OW33409   3.912   0.732   4.722 -0.1441  0.2997  0.0071
 7316SOL    HW133410   3.974   0.794   4.684 -0.4223 -0.8491 -2.3912
 7316SOL    HW233411   3.950   0.726   4.809  1.7840  0.2878 -0.8477
 7317SOL     OW33412   3.410   3.293   7.931  0.3514 -0.4258  0.0401
 7317SOL    HW133413   3.354   3.363   7.897 -0.5835 -1.6485 -0.9105
 7317SOL    HW233414   3.357   3.213   7.926  0.8180 -0.5548 -2.5116
 7318SOL     OW33415   4.517   2.934   1.622 -0.0145  0.5117  0.2944
 7318SOL    HW133416   4.476   2.921   1.707  0.8606  0.2767  0.6866
 7318SOL    HW233417   4.443   2.957   1.566 -1.3101 -1.4421  1.1955
 7319SOL     OW33418   3.433   2.755   0.683 -0.5660 -0.2525  0.2568
 7319SOL    HW133419   3.489   2.690   0.726  0.3823 -0.1345 -0.8003
 7319SOL    HW233420   3.492   2.831   0.695 -0.9840  0.0077  0.6507
 7320SOL     OW33421   3.887   3.498   5.115 -0.0371 -0.1403  0.8788
 7320SOL    HW133422   3.871   3.528   5.205  2.8499  0.1261  1.3046
 7320SOL    HW233423   3.819   3.432   5.100 -1.6371  1.6695  0.1392
 7321SOL     OW33424   2.646   1.874  15.649 -0.0437 -0.0858  0.0641
 7321SOL    HW133425   2.595   1.879  15.730 -1.2361 -2.0933 -0.5554
 7321SOL    HW233426   2.615   1.955  15.607 -2.0484 -1.4577 -1.1171
 7322SOL     OW33427   1.442   0.495   2.971  0.5115 -0.1280  0.2877
 7322SOL    HW133428   1.351   0.469   2.984  1.6703 -3.6883  1.3223
 7322SOL    HW233429   1.465   0.427   2.908 -2.0341  1.0137 -1.8671
 7323SOL     OW33430   1.919   4.353   4.699 -0.4201 -0.3963  0.4072
 7323SOL    HW133431   1.942   4.442   4.727  2.7019 -0.5004 -1.8014
 7323SOL    HW233432   1.943   4.344   4.607 -0.6143  2.6519  0.0654
 7324SOL     OW33433   4.046   1.362  10.309 -0.0664  0.3329 -0.7500
 7324SOL    HW133434   4.117   1.362  10.244  0.7042  1.7046  0.0853
 7324SOL    HW233435   4.005   1.277  10.293 -0.1062  0.1623  0.2854
 7325SOL     OW33436   0.623   3.805   6.854  0.0042  0.3357  0.2795
 7325SOL    HW133437   0.717   3.809   6.839 -0.1367 -1.0528 -0.9608
 7325SOL    HW233438   0.585   3.754   6.783  0.1280 -1.8954  1.8347
 7326SOL     OW33439   4.492   0.093  13.095  0.4488  0.1399  0.4742
 7326SOL    HW133440   4.506   0.006  13.057  0.2713  0.2615  0.1314
 7326SOL    HW233441   4.487   0.079  13.190 -1.5792  2.4292  0.7109
 7327SOL     OW33442   4.598   0.960  17.451 -0.5018  0.1391 -0.2998
 7327SOL    HW133443   4.648   0.915  17.519 -1.6189 -0.2407  0.2743
 7327SOL    HW233444   4.659   1.024  17.413  0.5877 -1.1122 -0.6710
 7328SOL     OW33445   0.914   1.097   7.802 -0.0413 -0.0567  0.2443
 7328SOL    HW133446   0.955   1.011   7.810  1.6429  0.8276  0.9455
 7328SOL    HW233447   0.975   1.139   7.742 -1.5982  2.6734  0.5953
 7329SOL     OW33448   4.710   1.009   4.831 -0.0687  0.2129  0.2681
 7329SOL    HW133449   4.652   1.049   4.897 -2.1772 -0.9950 -0.8431
 7329SOL    HW233450   0.062   1.067   4.813  1.4212 -1.0317  2.5929
 7330SOL     OW33451   0.256   1.170   2.013  0.1636 -0.0579  0.4334
 7330SOL    HW133452   0.227   1.111   2.082 -0.0607 -1.7940 -1.1565
 7330SOL    HW233453   0.201   1.134   1.944 -1.6869  2.0306  0.8044
 7331SOL     OW33454   3.950   1.946  15.352  0.3557  0.0989 -0.3189
 7331SOL    HW133455   3.980   1.975  15.266  0.5289 -0.5865 -0.4895
 7331SOL    HW233456   3.860   1.918  15.333  0.1761 -1.2453  2.4486
 7332SOL     OW33457   0.635   0.958   6.128  0.1100 -0.3579  0.2221
 7332SOL    HW133458   0.572   0.991   6.192 -1.3172  0.2927 -1.5186
 7332SOL    HW233459   0.719   0.962   6.174  1.1472  2.7328 -1.9313
 7333SOL     OW33460   1.772   4.279   8.012 -0.0442 -0.0566  0.4347
 7333SOL    HW133461   1.754   4.243   8.099 -1.8297  0.5595  0.3238
 7333SOL    HW233462   1.847   4.224   7.991 -1.3920 -1.4000 -0.9016
 7334SOL     OW33463   3.811   0.577   5.375 -0.4544  0.0526 -0.2071
 7334SOL    HW133464   3.816   0.638   5.449  0.8823 -0.7081  0.3439
 7334SOL    HW233465   3.760   0.624   5.309 -0.6927  0.1447  0.0429
 7335SOL     OW33466   2.358   2.269   3.823  0.1153  0.1515  0.4354
 7335SOL    HW133467   2.344   2.328   3.748  1.1671 -0.7650 -0.4668
 7335SOL    HW233468   2.267   2.243   3.837  0.3980 -0.6201  0.7959
 7336SOL     OW33469   3.753   3.926   9.109 -0.2906 -0.1787 -0.0340
 7336SOL    HW133470   3.821   3.956   9.049  1.5755 -2.7444  0.8154
 7336SOL    HW233471   3.799   3.920   9.193  1.0139  1.0875 -0.6553
 7337SOL     OW33472   0.275   3.288   3.575 -0.0314  0.2532  0.1205
 7337SOL    HW133473   0.341   3.222   3.551 -0.1581  1.0603 -2.4415
 7337SOL    HW233474   0.189   3.247   3.572 -0.9337  2.1276  0.4641
 7338SOL     OW33475   2.944   0.059   8.820  0.0803  0.3748 -0.3774
 7338SOL    HW133476   2.951   0.064   8.725  1.6937 -0.8163 -0.3161
 7338SOL    HW233477   3.024   0.108   8.839  0.0605  0.0247  0.5916
 7339SOL     OW33478   1.884   3.587   4.063 -0.1066 -0.6024  0.6141
 7339SOL    HW133479   1.937   3.560   4.138  1.0202  0.3762  0.1610
 7339SOL    HW233480   1.917   3.674   4.043 -0.4592 -0.7683 -0.7033
 7340SOL     OW33481   1.634   0.247  17.492  0.2672 -0.1047 -0.6664
 7340SOL    HW133482   1.686   0.233  17.413  0.5904  3.2448 -1.0524
 7340SOL    HW233483   1.677   0.201  17.564 -1.8411  1.1067  1.3616
 7341SOL     OW33484   1.166   1.713   6.185  0.4322 -0.2560 -0.0644
 7341SOL    HW133485   1.122   1.797   6.170 -1.7571 -1.6005 -1.2873
 7341SOL    HW233486   1.254   1.732   6.154  0.6588  1.5707  1.6554
 7342SOL     OW33487   0.049   1.910  14.159 -0.0429  0.4580  0.2934
 7342SOL    HW133488   0.082   1.941  14.074 -0.1876  0.0441  0.0851
 7342SOL    HW233489   0.027   1.985  14.214  2.2783  0.6643  0.8993
 7343SOL     OW33490   1.940   4.289  16.503  0.0382  0.2155 -0.3048
 7343SOL    HW133491   1.893   4.326  16.577 -0.5152  1.7053 -1.3919
 7343SOL    HW233492   1.943   4.367  16.447 -1.2518 -0.3885 -1.2239
 7344SOL     OW33493   4.246   4.391   4.522  0.3945 -0.3483 -0.4797
 7344SOL    HW133494   4.276   4.353   4.604 -0.4922  0.5849  0.2797
 7344SOL    HW233495   4.309   4.462   4.511  1.6085 -1.0169  2.2321
 7345SOL     OW33496   2.456   3.494   7.332  0.5025  0.0337  0.4876
 7345SOL    HW133497   2.382   3.525   7.386 -1.3616 -1.2456 -1.3341
 7345SOL    HW233498   2.510   3.456   7.402 -1.2883  0.2016  1.9673
 7346SOL     OW33499   0.943   4.684   8.639 -0.0088  0.0952 -0.1557
 7346SOL    HW133500   0.987   0.046   8.629  2.6963 -1.2808  0.2874
 7346SOL    HW233501   1.017   4.624   8.632  0.4289  0.8527 -2.0390
 7347SOL     OW33502   0.196   3.965   2.852 -0.1783  0.0226  0.1795
 7347SOL    HW133503   0.103   3.991   2.856 -0.0815  0.0640  2.2299
 7347SOL    HW233504   0.244   4.039   2.889  1.4384 -0.5209 -0.8682
 7348SOL     OW33505   1.444   4.350  15.745 -0.2104  0.4053 -0.8454
 7348SOL    HW133506   1.449   4.275  15.805  0.2766 -1.8682 -3.7322
 7348SOL    HW233507   1.529   4.344  15.702  0.4354  0.2654  0.4600
 7349SOL     OW33508   3.406   0.097   5.283 -0.0170  0.0888  0.0374
 7349SOL    HW133509   3.317   0.079   5.252 -0.4183  1.8443  0.1387
 7349SOL    HW233510   3.438   0.154   5.213  0.0782 -0.5063 -0.4058
 7350SOL     OW33511   0.844   3.470   9.388  0.3077  0.2891  0.1392
 7350SOL    HW133512   0.788   3.538   9.351 -0.4567  0.2707  1.2496
 7350SOL    HW233513   0.922   3.522   9.369  0.7590 -0.7618 -0.9000
 7351SOL     OW33514   1.894   0.505  13.311  0.7338 -0.0628 -0.1021
 7351SOL    HW133515   1.913   0.506  13.217  4.2039 -2.7394  0.5625
 7351SOL    HW233516   1.947   0.434  13.347 -1.4964 -1.1952  0.9453
 7352SOL     OW33517   0.166   1.715  14.357  0.0520  0.1420 -0.4596
 7352SOL    HW133518   0.134   1.761  14.435  1.5445 -1.1380  0.9031
 7352SOL    HW233519   0.161   1.788  14.295  0.4966 -1.3658 -2.2698
 7353SOL     OW33520   3.814   2.607   4.851 -0.6831 -0.1663 -0.2617
 7353SOL    HW133521   3.850   2.575   4.934  0.6507  2.5643  0.2241
 7353SOL    HW233522   3.892   2.588   4.799  0.9197 -0.1167  2.1114
 7354SOL     OW33523   4.616   1.369   4.819 -0.6475 -0.1874 -0.4695
 7354SOL    HW133524   4.586   1.296   4.874  0.1126 -1.2807 -1.4904
 7354SOL    HW233525   4.652   1.326   4.741 -0.3788  0.9573 -0.9754
 7355SOL     OW33526   0.031   0.109   0.386 -0.0925 -0.3880 -0.4744
 7355SOL    HW133527   4.708   0.039   0.339  0.4050  0.7979 -2.6902
 7355SOL    HW233528   4.691   0.116   0.459  0.1968  0.3143 -0.2919
 7356SOL     OW33529   2.992   1.447   9.895  0.4349  0.0231 -0.3735
 7356SOL    HW133530   2.959   1.359   9.877 -1.6924  0.0128  3.4501
 7356SOL    HW233531   3.059   1.440   9.963 -0.0921  0.5366  0.1951
 7357SOL     OW33532   4.713   4.446   2.479 -0.0706  0.2711  0.3394
 7357SOL    HW133533   0.034   4.477   2.400 -1.7604 -0.3662 -0.8207
 7357SOL    HW233534   4.630   4.404   2.456 -0.7575  0.3267  2.6933
 7358SOL     OW33535   0.806   0.665   7.483  0.2979 -0.0125 -0.3275
 7358SOL    HW133536   0.816   0.607   7.408  1.2655 -0.6381  0.2850
 7358SOL    HW233537   0.715   0.644   7.502  0.5912 -1.8601 -1.0171
 7359SOL     OW33538   4.262   4.062  17.149  0.3936  0.4314 -0.0113
 7359SOL    HW133539   4.252   4.056  17.054 -1.3830  1.9099  0.0897
 7359SOL    HW233540   4.331   4.127  17.155  2.6885 -2.0889  1.2379
 7360SOL     OW33541   0.443   0.794   8.437 -0.4729 -0.0733 -0.3562
 7360SOL    HW133542   0.362   0.745   8.424  0.4442 -1.9254  1.0079
 7360SOL    HW233543   0.417   0.834   8.520 -0.7927 -0.7412 -0.1380
 7361SOL     OW33544   3.533   0.101   5.536  0.3591 -0.4092  0.0326
 7361SOL    HW133545   3.476   0.099   5.459  0.5137  0.6836 -0.1087
 7361SOL    HW233546   3.621   0.082   5.505  0.7189 -1.5459  1.7329
 7362SOL     OW33547   0.979   4.193   2.802 -0.1084  0.5682  0.5958
 7362SOL    HW133548   0.906   4.157   2.752 -1.8426  1.3291  2.5752
 7362SOL    HW233549   1.037   4.118   2.817 -0.2945  0.4913  0.9360
 7363SOL     OW33550   1.042   0.332  13.644 -0.0096 -0.8456 -0.3412
 7363SOL    HW133551   1.081   0.416  13.619  0.7389 -1.6550 -1.8816
 7363SOL    HW233552   0.971   0.321  13.582  0.6555  0.8294 -1.4081
 7364SOL     OW33553   2.186   3.044  11.050 -0.0369  0.1716 -0.0522
 7364SOL    HW133554   2.190   3.046  11.145  1.2346  2.8887 -0.1422
 7364SOL    HW233555   2.137   3.123  11.028  1.7564  1.1899 -0.4057
 7365SOL     OW33556   2.405   1.857  16.156 -0.4565 -0.2203  0.0517
 7365SOL    HW133557   2.312   1.847  16.176 -1.1628  0.5708 -2.8473
 7365SOL    HW233558   2.436   1.921  16.221  1.3117 -1.3301  0.2968
 7366SOL     OW33559   1.843   1.367   6.409 -0.5657  0.2862  0.4999
 7366SOL    HW133560   1.753   1.374   6.377 -0.6820 -1.5030  0.4500
 7366SOL    HW233561   1.840   1.292   6.469  0.1090 -0.9304 -0.9903
 7367SOL     OW33562   4.380   3.174   8.394 -0.1641  0.3632  0.7974
 7367SOL    HW133563   4.298   3.191   8.348  1.0251  1.2002 -0.9743
 7367SOL    HW233564   4.414   3.108   8.334 -1.7123  0.2611  0.0452
 7368SOL     OW33565   1.735   2.496  16.800 -0.6894  0.3973 -0.1745
 7368SOL    HW133566   1.744   2.570  16.740 -0.8995  1.4408  1.0753
 7368SOL    HW233567   1.652   2.455  16.775 -0.1527 -0.1970 -0.9975
 7369SOL     OW33568   1.946   1.752   5.486  0.3233 -0.0512  0.0694
 7369SOL    HW133569   1.868   1.787   5.441 -0.1826  2.3690  2.8519
 7369SOL    HW233570   1.904   1.747   5.571 -1.0382 -1.1835 -0.6744
 7370SOL     OW33571   2.472   3.453  12.304  0.3619  0.0625  0.0207
 7370SOL    HW133572   2.543   3.483  12.361 -0.9091  1.8281  0.6517
 7370SOL    HW233573   2.415   3.418  12.372  1.0757  2.1792  1.7143
 7371SOL     OW33574   2.874   1.201   5.114 -0.0117 -0.0583 -0.4515
 7371SOL    HW133575   2.948   1.199   5.054 -0.5709  0.2136 -1.1533
 7371SOL    HW233576   2.902   1.153   5.192 -1.8177  0.9184  0.8064
 7372SOL     OW33577   3.658   3.075   8.756  0.0434 -0.6782  0.7293
 7372SOL    HW133578   3.636   3.068   8.663  0.4916 -0.7460  0.6310
 7372SOL    HW233579   3.569   3.089   8.788  0.0529 -0.4121  0.6408
 7373SOL     OW33580   0.859   1.399   4.375 -0.2273  0.2128 -0.5361
 7373SOL    HW133581   0.788   1.455   4.345  0.4178  1.5892  0.5341
 7373SOL    HW233582   0.807   1.345   4.435 -0.4611 -0.5420 -1.4173
 7374SOL     OW33583   3.220   1.646   1.485 -0.1901 -0.2763  0.3999
 7374SOL    HW133584   3.279   1.721   1.473 -0.3533 -0.6819 -2.7917
 7374SOL    HW233585   3.178   1.669   1.568  0.1167 -3.6870  1.5026
 7375SOL     OW33586   1.964   2.200   2.368 -0.4074 -0.4173 -0.5415
 7375SOL    HW133587   1.943   2.212   2.276  1.8782  0.7013 -0.9182
 7375SOL    HW233588   2.054   2.233   2.369 -0.6654  0.3046 -0.9997
 7376SOL     OW33589   0.371   0.797   3.910  0.2186 -0.2303  0.1457
 7376SOL    HW133590   0.361   0.708   3.942 -0.3282 -0.1244  0.2696
 7376SOL    HW233591   0.457   0.819   3.945  0.4350 -0.4905 -0.2330
 7377SOL     OW33592   0.321   3.893   6.718  0.2868  0.5618  0.0952
 7377SOL    HW133593   0.361   3.806   6.721 -2.6100 -0.7419  1.1552
 7377SOL    HW233594   0.389   3.959   6.709  0.2560  0.6410  0.4182
 7378SOL     OW33595   1.933   4.659   4.776  0.0179  0.2044  0.0806
 7378SOL    HW133596   1.948   4.689   4.866 -1.3494 -2.4295  1.1918
 7378SOL    HW233597   1.971   0.011   4.730 -1.9457  1.0325 -0.2010
 7379SOL     OW33598   3.933   1.124   5.351  0.4783 -0.6093 -0.0933
 7379SOL    HW133599   3.976   1.112   5.436 -0.7330 -2.3800  0.2582
 7379SOL    HW233600   4.013   1.130   5.299 -0.9628  0.5815 -2.1910
 7380SOL     OW33601   3.341   2.585   6.601 -0.0169 -0.3738  0.5993
 7380SOL    HW133602   3.308   2.495   6.607  0.4120 -0.5919 -0.3818
 7380SOL    HW233603   3.269   2.620   6.549  0.1337 -0.2028  0.5057
 7381SOL     OW33604   3.229   3.218  14.318 -1.3244 -0.3733  0.1093
 7381SOL    HW133605   3.150   3.204  14.267 -0.4755  0.6438 -1.4801
 7381SOL    HW233606   3.298   3.194  14.256 -0.8184 -2.8622  1.6381
 7382SOL     OW33607   0.294   1.833   4.771  0.6546 -0.1802 -0.0781
 7382SOL    HW133608   0.241   1.811   4.694  1.0248 -1.3468  0.0039
 7382SOL    HW233609   0.249   1.783   4.839  2.4443  0.4243  1.5720
 7383SOL     OW33610   1.251   3.108  11.631 -0.5401  0.5182 -0.3813
 7383SOL    HW133611   1.224   3.163  11.705  0.6322  1.2146 -0.4552
 7383SOL    HW233612   1.187   3.039  11.645 -1.3118  1.0571 -1.3233
 7384SOL     OW33613   3.378   2.805   4.804 -0.1550  0.0285 -0.1526
 7384SOL    HW133614   3.461   2.782   4.763 -0.0960  1.1835 -0.6719
 7384SOL    HW233615   3.384   2.760   4.889 -0.9400 -2.5959 -1.4928
 7385SOL     OW33616   1.407   1.307   6.385  0.3512 -0.1803  0.1617
 7385SOL    HW133617   1.358   1.346   6.457 -2.9876 -0.2903 -2.0604
 7385SOL    HW233618   1.429   1.224   6.428  0.4923 -0.1051  0.2344
 7386SOL     OW33619   3.608   0.475  17.100  0.4202  0.4710 -0.1244
 7386SOL    HW133620   3.519   0.491  17.132  0.3206 -1.3360  0.4741
 7386SOL    HW233621   3.635   0.565  17.079 -0.0067  0.0634 -2.4185
 7387SOL     OW33622   2.210   4.417   4.523  0.3485 -0.5528  0.1478
 7387SOL    HW133623   2.241   4.433   4.612  0.5005  0.9902 -0.1866
 7387SOL    HW233624   2.241   4.326   4.520 -0.5256 -0.8709  0.6257
 7388SOL     OW33625   2.060   2.907   5.370  0.4579 -0.6929  0.9522
 7388SOL    HW133626   2.110   2.895   5.289 -1.4554  0.6179 -0.4482
 7388SOL    HW233627   2.098   2.982   5.414  2.9513 -0.9755 -0.7301
 7389SOL     OW33628   3.066   3.502   8.103 -0.0281 -0.0480 -0.2964
 7389SOL    HW133629   3.068   3.425   8.161 -1.3695  0.4238  0.3806
 7389SOL    HW233630   3.074   3.574   8.165  0.5986  1.0746 -1.6869
 7390SOL     OW33631   0.869   2.894   5.730 -0.0045  0.1745  0.0356
 7390SOL    HW133632   0.863   2.851   5.815  2.3222 -1.7950 -0.8207
 7390SOL    HW233633   0.911   2.977   5.750  1.2730  0.0307 -2.0356
 7391SOL     OW33634   2.950   3.954  15.045  0.0187  0.5529  0.1365
 7391SOL    HW133635   2.857   3.956  15.020  0.3994  2.6725 -1.1040
 7391SOL    HW233636   2.980   4.033  15.001  0.8623 -0.1550 -0.5812
 7392SOL     OW33637   3.532   2.868   3.924 -0.6388 -0.1658 -0.0264
 7392SOL    HW133638   3.591   2.857   3.849 -2.0902 -1.0774 -1.0200
 7392SOL    HW233639   3.456   2.917   3.894 -0.9131 -0.3673  0.3465
 7393SOL     OW33640   2.096   2.312   9.218 -0.1299 -0.3912 -0.2047
 7393SOL    HW133641   2.081   2.219   9.235 -0.1074 -0.8955 -2.9212
 7393SOL    HW233642   2.051   2.354   9.291  1.7675 -0.2781  0.9238
 7394SOL     OW33643   0.893   3.471   6.696  0.3698  0.2110 -0.0029
 7394SOL    HW133644   0.967   3.530   6.687  0.7490 -0.2588  0.0351
 7394SOL    HW233645   0.924   3.398   6.749 -0.8742 -0.3497 -0.0574
 7395SOL     OW33646   1.200   3.974   8.174 -0.0801 -0.0145  0.4572
 7395SOL    HW133647   1.249   3.918   8.234  2.5823 -1.0170 -2.6035
 7395SOL    HW233648   1.269   3.991   8.109 -0.9761  1.1271 -0.1884
 7396SOL     OW33649   2.868   3.463  17.271 -0.2970  0.2857 -0.0402
 7396SOL    HW133650   2.936   3.526  17.247 -0.9414  1.6833  1.8516
 7396SOL    HW233651   2.793   3.518  17.249 -0.2717  0.0339 -0.7632
 7397SOL     OW33652   2.007   1.156   5.288 -0.3428 -0.5426 -0.5743
 7397SOL    HW133653   2.078   1.092   5.294 -1.8648 -2.1208  0.7022
 7397SOL    HW233654   2.046   1.213   5.222  0.5595  1.4176  1.6715
 7398SOL     OW33655   0.788   2.936   4.670  0.0099  0.2582 -0.1274
 7398SOL    HW133656   0.875   2.905   4.696  0.3245  1.7861  0.5818
 7398SOL    HW233657   0.789   3.015   4.722 -0.0825 -0.1436  0.4815
 7399SOL     OW33658   2.359   1.778   4.318  0.2760 -0.0588 -0.2433
 7399SOL    HW133659   2.383   1.803   4.229 -0.5926  1.3394 -0.0855
 7399SOL    HW233660   2.375   1.862   4.361 -0.6470 -0.3444  0.6666
 7400SOL     OW33661   2.741   4.122   8.681 -0.0468  0.4128 -0.1921
 7400SOL    HW133662   2.673   4.122   8.747 -0.0245 -0.2105 -0.1722
 7400SOL    HW233663   2.692   4.123   8.598  0.6655 -1.9350 -0.6381
 7401SOL     OW33664   0.569   3.598  13.052 -0.5081  0.0186  0.4554
 7401SOL    HW133665   0.573   3.534  13.123 -1.5498  3.2159  3.3716
 7401SOL    HW233666   0.656   3.593  13.012 -0.0010  1.1655  1.4362
 7402SOL     OW33667   0.577   3.282   9.315  0.4372  0.5819  0.2837
 7402SOL    HW133668   0.537   3.201   9.346  2.1455 -0.0511  0.7951
 7402SOL    HW233669   0.671   3.268   9.303  0.5418  1.3242  0.2518
 7403SOL     OW33670   0.479   3.030   4.132 -0.8513  0.1624  0.3940
 7403SOL    HW133671   0.396   3.008   4.090  0.4216  2.1454 -3.0931
 7403SOL    HW233672   0.482   3.125   4.120  0.9669  0.2308  1.3387
 7404SOL     OW33673   1.115   1.017   5.995 -0.1930 -0.3469  0.0013
 7404SOL    HW133674   1.118   1.094   6.052 -0.3347 -0.3785  0.0490
 7404SOL    HW233675   1.094   1.055   5.910 -0.9175 -2.7975 -0.9216
 7405SOL     OW33676   2.195   3.294   6.718  0.3037  0.5562  0.2603
 7405SOL    HW133677   2.182   3.247   6.800  1.4001  0.5008  0.3956
 7405SOL    HW233678   2.108   3.284   6.678 -0.3170 -1.1159  2.0220
 7406SOL     OW33679   2.850   0.608   2.489  0.4411  0.3755  0.1012
 7406SOL    HW133680   2.853   0.583   2.581 -1.5700  1.9333  0.6072
 7406SOL    HW233681   2.918   0.550   2.456 -0.4375 -1.1259  0.9281
 7407SOL     OW33682   4.484   2.458  13.967 -0.2706 -0.2826  0.1098
 7407SOL    HW133683   4.430   2.457  14.045 -1.1317  0.4451 -0.4791
 7407SOL    HW233684   4.503   2.549  13.945 -1.2905  0.6123  2.9604
 7408SOL     OW33685   0.124   2.429  15.391  0.1294  0.3164 -0.1172
 7408SOL    HW133686   0.174   2.505  15.420  0.1815 -0.0515  0.7811
 7408SOL    HW233687   0.078   2.468  15.317  0.2777  0.5855 -0.0671
 7409SOL     OW33688   0.360   2.472   4.702 -0.1904  0.0259 -0.0108
 7409SOL    HW133689   0.452   2.481   4.676 -0.1285 -2.8618 -0.7840
 7409SOL    HW233690   0.327   2.406   4.641  0.5254 -0.2849 -0.0612
 7410SOL     OW33691   2.151   0.890   6.103  0.1722 -0.0177  0.3195
 7410SOL    HW133692   2.065   0.926   6.081 -0.0002 -0.8535 -0.3939
 7410SOL    HW233693   2.197   0.965   6.067  2.1487 -1.2407  0.3267
 7411SOL     OW33694   3.345   0.643   0.301  0.0772  0.1774  0.4016
 7411SOL    HW133695   3.405   0.580   0.261  0.6791  1.6664 -1.0100
 7411SOL    HW233696   3.401   0.706   0.346 -0.2504  2.0660 -1.8278
 7412SOL     OW33697   3.303   0.149   7.303 -0.4217 -0.2875  0.2083
 7412SOL    HW133698   3.302   0.155   7.398  1.5346  2.5651  0.0754
 7412SOL    HW233699   3.332   0.239   7.283  1.1854 -1.5112 -2.9606
 7413SOL     OW33700   1.452   2.494   2.586 -0.6080  0.1085  0.3974
 7413SOL    HW133701   1.453   2.528   2.676  0.6830 -0.1189  0.4727
 7413SOL    HW233702   1.539   2.523   2.559  0.8811 -3.1206  1.6766
 7414SOL     OW33703   1.613   2.999   6.067  0.8883 -0.0933  0.2043
 7414SOL    HW133704   1.639   2.959   5.984  1.0156  1.4698 -0.5111
 7414SOL    HW233705   1.694   3.045   6.091  0.0865  0.3066  2.1577
 7415SOL     OW33706   1.984   3.964   4.275  0.1934 -0.5221 -0.1824
 7415SOL    HW133707   2.072   3.926   4.273 -0.0070 -0.9395 -0.9493
 7415SOL    HW233708   2.006   4.047   4.234  1.5076  0.2299  2.0431
 7416SOL     OW33709   2.672   2.172  10.598 -0.2569 -0.4853 -0.1148
 7416SOL    HW133710   2.682   2.086  10.558 -1.4735 -0.1087 -1.2191
 7416SOL    HW233711   2.735   2.171  10.670 -2.0412 -0.5046  1.4650
 7417SOL     OW33712   2.299   4.143   4.588  0.2308 -0.6466 -0.4520
 7417SOL    HW133713   2.233   4.125   4.656  1.1412  1.3926  0.9623
 7417SOL    HW233714   2.363   4.077   4.616  1.8831  1.5418  0.9230
 7418SOL     OW33715   3.512   1.461   6.804 -0.5978 -0.3041  0.0487
 7418SOL    HW133716   3.449   1.430   6.739 -1.2461  1.1171  0.0076
 7418SOL    HW233717   3.592   1.451   6.753  0.7106  0.3088  1.9727
 7419SOL     OW33718   0.528   2.883   9.833 -0.1230 -0.1879  0.6810
 7419SOL    HW133719   0.503   2.921   9.917 -0.0332 -1.9452  1.4958
 7419SOL    HW233720   0.595   2.945   9.803 -2.8421  1.6856 -1.5745
 7420SOL     OW33721   0.705   3.698   4.097 -0.7968 -0.0006  0.5684
 7420SOL    HW133722   0.629   3.666   4.145 -0.2595  2.9975  3.3977
 7420SOL    HW233723   0.760   3.729   4.169  0.3272 -1.9483  0.5733
 7421SOL     OW33724   1.124   2.522   7.085  0.5415  0.4351 -0.6646
 7421SOL    HW133725   1.076   2.591   7.130 -4.2945 -2.6508 -1.0131
 7421SOL    HW233726   1.062   2.481   7.025  0.8458  0.9467 -1.3199
 7422SOL     OW33727   2.672   2.418   6.990 -0.3518 -0.0127  0.7884
 7422SOL    HW133728   2.689   2.512   6.989 -0.4239  0.0105  2.0486
 7422SOL    HW233729   2.707   2.383   6.908 -0.7702 -0.7917  0.9467
 7423SOL     OW33730   4.484   4.392   2.834  0.6409 -0.3598  0.3391
 7423SOL    HW133731   4.493   4.311   2.884  0.1686 -1.6593 -1.6669
 7423SOL    HW233732   4.567   4.399   2.787  0.7399  0.3042  0.6184
 7424SOL     OW33733   4.324   3.022   3.867  0.0688 -0.0490  0.0724
 7424SOL    HW133734   4.413   2.997   3.892 -0.7473 -0.9239  2.1220
 7424SOL    HW233735   4.290   2.939   3.832  1.1250 -0.0138 -1.0493
 7425SOL     OW33736   4.367   0.840  12.779  0.0313 -0.1220  0.0496
 7425SOL    HW133737   4.441   0.891  12.744  0.4780 -0.0321  1.1313
 7425SOL    HW233738   4.406   0.830  12.866 -1.4631  0.4532  0.7878
 7426SOL     OW33739   2.141   0.968   4.876  0.1525  0.3622 -0.3940
 7426SOL    HW133740   2.142   0.927   4.789  0.4567  0.6750 -0.5395
 7426SOL    HW233741   2.048   0.986   4.894  0.6739 -1.0379  3.7277
 7427SOL     OW33742   1.748   2.529   4.697 -0.2871  0.3506 -0.1554
 7427SOL    HW133743   1.738   2.577   4.614  4.2601 -1.4973 -1.8006
 7427SOL    HW233744   1.825   2.474   4.684  0.4372  1.0918  0.9493
 7428SOL     OW33745   3.938   0.374   5.260  0.3919 -0.0944  0.1668
 7428SOL    HW133746   3.901   0.453   5.299 -1.1186 -0.7103 -0.0354
 7428SOL    HW233747   3.866   0.328   5.218  0.4752 -0.7194  0.7053
 7429SOL     OW33748   0.559   2.534  16.330 -0.5190  0.4771  0.3018
 7429SOL    HW133749   0.540   2.534  16.236  3.5998  1.5087 -0.5201
 7429SOL    HW233750   0.628   2.601  16.330  0.2216 -0.2756 -1.5297
 7430SOL     OW33751   2.573   1.064   5.290  0.4475 -0.1548  0.0117
 7430SOL    HW133752   2.538   0.977   5.269 -1.3911  0.8702 -1.2237
 7430SOL    HW233753   2.592   1.065   5.384 -1.1979  0.7670  0.3435
 7431SOL     OW33754   0.641   4.002  11.052 -0.1289  0.1449 -0.3862
 7431SOL    HW133755   0.634   3.954  11.134 -1.3194  0.4911 -0.2863
 7431SOL    HW233756   0.736   3.999  11.043 -0.3586 -1.3616 -2.3856
 7432SOL     OW33757   0.455   1.664  17.670 -0.4718  0.6037  0.3691
 7432SOL    HW133758   0.537   1.645  17.624 -1.2357 -0.5709 -0.5350
 7432SOL    HW233759   0.401   1.671  17.591 -1.3116  1.0288  0.9820
 7433SOL     OW33760   0.940   0.271   8.936 -0.0013  0.6563  0.0163
 7433SOL    HW133761   0.926   0.361   8.964  1.7259  1.0169 -0.2876
 7433SOL    HW233762   1.035   0.276   8.922  0.3019 -3.0604  0.7252
 7434SOL     OW33763   0.533   0.859   9.114  0.6969 -0.1428  0.0376
 7434SOL    HW133764   0.553   0.783   9.168 -0.0843  0.7076  1.5525
 7434SOL    HW233765   0.572   0.829   9.032 -1.5700 -1.7490 -0.4336
 7435SOL     OW33766   0.886   2.197   6.293  0.0148  0.2250  0.2327
 7435SOL    HW133767   0.953   2.217   6.359 -0.2432 -1.2486  0.9537
 7435SOL    HW233768   0.943   2.181   6.218  2.2374  0.1796  1.9035
 7436SOL     OW33769   2.202   3.343   5.343  0.7225 -0.1765  0.1463
 7436SOL    HW133770   2.213   3.276   5.275  0.1930 -0.5002  0.3740
 7436SOL    HW233771   2.244   3.302   5.419 -1.3537 -1.8979  0.3708
 7437SOL     OW33772   2.684   0.370   5.013  0.1404 -0.0359 -0.4831
 7437SOL    HW133773   2.771   0.333   5.002 -0.5216 -1.7413  0.0067
 7437SOL    HW233774   2.677   0.374   5.109 -0.0602 -3.0693 -0.3980
 7438SOL     OW33775   2.312   3.025   1.149 -0.1491  0.0426  0.1234
 7438SOL    HW133776   2.244   3.078   1.191  1.3495 -0.5069  3.2614
 7438SOL    HW233777   2.390   3.080   1.160  0.4658 -1.0228  1.0483
 7439SOL     OW33778   1.776   1.866  12.887 -0.2822  0.4360 -0.1091
 7439SOL    HW133779   1.848   1.830  12.835  0.6900  3.4711 -0.8729
 7439SOL    HW233780   1.727   1.917  12.822 -3.3991  0.0036  1.9001
 7440SOL     OW33781   1.863   2.349   2.993 -0.2386 -0.2408  0.3092
 7440SOL    HW133782   1.867   2.258   3.022 -1.4080  0.5286  2.8912
 7440SOL    HW233783   1.883   2.341   2.900 -5.1966 -0.7689 -0.7076
 7441SOL     OW33784   3.131   2.578   3.512  0.3803  0.0192  0.0418
 7441SOL    HW133785   3.055   2.561   3.457  1.4639 -1.4440 -0.9877
 7441SOL    HW233786   3.116   2.668   3.541  0.6943  0.6297 -1.6493
 7442SOL     OW33787   2.529   3.219   1.221 -0.2334  0.4376 -0.2291
 7442SOL    HW133788   2.480   3.284   1.272  1.9373 -0.3433  2.8550
 7442SOL    HW233789   2.580   3.274   1.162 -2.5324 -1.6334 -4.1634
 7443SOL     OW33790   0.257   3.036   5.557 -0.3709  0.4581 -0.3156
 7443SOL    HW133791   0.285   3.040   5.466 -0.3522 -0.2714 -0.3364
 7443SOL    HW233792   0.164   3.024   5.540 -0.0604 -2.0061 -0.1590
 7444SOL     OW33793   3.922   0.623   3.522 -0.7183  0.6387 -0.7137
 7444SOL    HW133794   3.951   0.553   3.464 -0.5625  0.5002 -0.4687
 7444SOL    HW233795   3.999   0.681   3.527  0.9284 -1.5595 -0.7760
 7445SOL     OW33796   1.656   2.949   5.303 -0.5904 -0.3248 -0.5529
 7445SOL    HW133797   1.702   2.935   5.386 -1.5738  0.7626  0.1796
 7445SOL    HW233798   1.674   2.862   5.267 -2.3903 -0.7423 -0.4494
 7446SOL     OW33799   4.665   0.199   5.943  0.2689 -0.6525  0.4371
 7446SOL    HW133800   0.039   0.195   5.939  0.2034 -1.3498 -0.2586
 7446SOL    HW233801   4.648   0.272   6.003  1.9519  0.1672 -0.0817
 7447SOL     OW33802   2.275   3.907   3.069  0.0240  0.1514  0.2703
 7447SOL    HW133803   2.315   3.836   3.018 -0.0736  1.1546 -1.2034
 7447SOL    HW233804   2.199   3.930   3.017 -0.3975 -2.8307 -0.4339
 7448SOL     OW33805   4.167   3.030  17.353  0.1617 -0.1898  0.0639
 7448SOL    HW133806   4.196   3.114  17.389  2.4243 -0.1171 -1.8793
 7448SOL    HW233807   4.249   2.982  17.358 -0.0662 -0.7566 -1.5501
 7449SOL     OW33808   3.472   0.515   7.989 -0.0608 -0.5997  0.4167
 7449SOL    HW133809   3.514   0.600   8.004  0.6207 -0.4740 -2.1475
 7449SOL    HW233810   3.537   0.456   8.027  1.5595 -0.1300 -1.5839
 7450SOL     OW33811   3.344   3.294   8.295  0.0801  0.2539  0.4676
 7450SOL    HW133812   3.375   3.205   8.281  0.6714  0.6422 -0.6373
 7450SOL    HW233813   3.250   3.283   8.282 -0.1834  1.5586  1.2567
 7451SOL     OW33814   1.081   0.275   7.684 -0.1952 -0.0006 -0.3843
 7451SOL    HW133815   1.070   0.227   7.766  4.9872 -0.1772  0.2060
 7451SOL    HW233816   1.065   0.366   7.708 -2.4998 -0.3625 -0.5068
 7452SOL     OW33817   0.074   0.713   6.742 -0.2930 -0.3714  0.4276
 7452SOL    HW133818   4.713   0.674   6.769 -0.4823 -0.5772 -0.4463
 7452SOL    HW233819   0.053   0.799   6.706  0.6205  0.2474  1.3607
 7453SOL     OW33820   4.318   1.132   2.562  0.4630 -0.4138  0.3659
 7453SOL    HW133821   4.231   1.156   2.594  0.4114 -3.7864  2.7245
 7453SOL    HW233822   4.342   1.225   2.560 -1.1391  0.0050  0.7179
 7454SOL     OW33823   3.651   1.071   6.660  0.6552  0.4702  0.2171
 7454SOL    HW133824   3.740   1.045   6.635  1.3055  2.1446  0.7954
 7454SOL    HW233825   3.658   1.055   6.754  1.3593 -2.4033 -0.3075
 7455SOL     OW33826   0.411   1.665   4.307  0.1575  0.0489 -0.2525
 7455SOL    HW133827   0.435   1.757   4.311  0.1314  0.0301  0.3850
 7455SOL    HW233828   0.379   1.649   4.218  0.3873  1.3041 -0.5578
 7456SOL     OW33829   0.126   2.556  15.757  0.2655  0.1876  0.4260
 7456SOL    HW133830   0.135   2.633  15.700 -1.2288 -1.4351 -2.0129
 7456SOL    HW233831   0.192   2.501  15.716 -1.2916 -0.5747 -1.0604
 7457SOL     OW33832   3.707   0.724   6.433 -0.0382  0.5290  0.0897
 7457SOL    HW133833   3.742   0.638   6.457 -1.2608  0.4282  1.5306
 7457SOL    HW233834   3.742   0.740   6.346 -0.4307  0.2279 -0.1226
 7458SOL     OW33835   0.934   1.922  11.545  0.7898 -0.0691  0.5984
 7458SOL    HW133836   1.026   1.942  11.565  1.1829 -0.4507 -0.7758
 7458SOL    HW233837   0.884   2.002  11.557  0.1486 -0.4563  0.4952
 7459SOL     OW33838   2.012   0.695  16.064  0.1649 -0.4357  0.3078
 7459SOL    HW133839   2.068   0.745  16.005  0.4530 -0.0737  0.8919
 7459SOL    HW233840   1.929   0.692  16.015  0.4724 -0.0458 -0.2255
 7460SOL     OW33841   3.800   0.810   5.093  0.2442 -0.3827 -0.3622
 7460SOL    HW133842   3.780   0.859   5.013 -0.1780  0.2620  0.1266
 7460SOL    HW233843   3.756   0.727   5.077  1.6782 -1.4422  1.2391
 7461SOL     OW33844   1.867   4.416   7.422  0.2608 -0.3151 -0.3364
 7461SOL    HW133845   1.918   4.456   7.492 -3.0663  0.8299  1.4504
 7461SOL    HW233846   1.892   4.326   7.444 -1.5081 -0.9758 -1.0615
 7462SOL     OW33847   2.111   3.568   9.493 -0.2710 -0.0696  0.0967
 7462SOL    HW133848   2.190   3.514   9.498 -0.7751 -0.8887 -0.7159
 7462SOL    HW233849   2.106   3.594   9.401  1.1074  1.1115  0.3610
 7463SOL     OW33850   3.606   0.370   3.220 -0.2902 -0.2806  0.0492
 7463SOL    HW133851   3.585   0.332   3.134 -2.5809  3.9218 -1.2548
 7463SOL    HW233852   3.666   0.304   3.254  1.3362  0.6655 -0.9915
 7464SOL     OW33853   0.207   3.037  16.280 -0.1358  0.5616  0.5932
 7464SOL    HW133854   0.255   3.119  16.289  1.7493 -0.4820 -0.0857
 7464SOL    HW233855   0.187   3.012  16.370 -2.4846 -2.5162 -0.7453
 7465SOL     OW33856   2.579   3.929   6.021 -0.3852  0.3255 -0.0704
 7465SOL    HW133857   2.670   3.947   6.046 -0.0594  0.4168 -1.3199
 7465SOL    HW233858   2.570   3.963   5.933 -0.7042  2.3661  0.7657
 7466SOL     OW33859   1.715   4.032   8.796 -0.4963 -0.3863 -0.3535
 7466SOL    HW133860   1.637   4.017   8.850 -1.0352  0.0304 -1.0127
 7466SOL    HW233861   1.775   4.084   8.848 -1.6760 -0.0694  0.6941
 7467SOL     OW33862   3.505   3.735   7.231  0.3368 -0.0591 -0.1087
 7467SOL    HW133863   3.570   3.667   7.214 -0.2269 -1.2662  2.6723
 7467SOL    HW233864   3.436   3.698   7.175  0.2658  1.3312 -0.9688
 7468SOL     OW33865   4.423   3.931   5.881  0.2330 -0.2679  0.9119
 7468SOL    HW133866   4.333   3.924   5.912 -1.2498 -0.4060 -3.4391
 7468SOL    HW233867   4.446   3.838   5.877  0.4954 -0.2984  3.1503
 7469SOL     OW33868   1.506   0.145   6.631 -0.0962 -0.0723 -0.1090
 7469SOL    HW133869   1.457   0.221   6.599 -0.3469  0.7273  2.1778
 7469SOL    HW233870   1.536   0.177   6.716 -1.4056 -3.3901  1.5744
 7470SOL     OW33871   2.840   2.362   6.770 -0.2065 -0.1225 -0.6028
 7470SOL    HW133872   2.833   2.437   6.710  0.4527  1.3555  1.1711
 7470SOL    HW233873   2.904   2.307   6.726  0.0236  1.8357 -2.7299
 7471SOL     OW33874   0.932   4.569   5.547  0.3213  0.1292  0.0604
 7471SOL    HW133875   1.003   4.561   5.484 -0.0138  0.0874 -0.3070
 7471SOL    HW233876   0.858   4.570   5.486  1.1531  2.3651 -0.8950
 7472SOL     OW33877   1.738   3.806   8.238 -0.3944  0.0636  0.5930
 7472SOL    HW133878   1.693   3.725   8.211  2.4443 -1.1872 -0.3508
 7472SOL    HW233879   1.681   3.869   8.193 -3.4327 -1.8079  1.8016
 7473SOL     OW33880   0.231   0.626   8.348 -0.3541  0.0395 -0.2964
 7473SOL    HW133881   0.281   0.566   8.403  1.5604  0.1442 -1.9023
 7473SOL    HW233882   0.147   0.604   8.388 -0.1806 -1.0983 -0.5323
 7474SOL     OW33883   2.062   0.839   9.146 -0.0358  0.2726  0.0455
 7474SOL    HW133884   2.035   0.755   9.111 -0.0868  1.5481 -2.9675
 7474SOL    HW233885   2.147   0.849   9.103  0.5373  1.7573  1.5004
 7475SOL     OW33886   2.312   2.749   6.853 -0.3587  0.8734 -0.7875
 7475SOL    HW133887   2.286   2.753   6.945  0.7343  2.2805 -0.5286
 7475SOL    HW233888   2.292   2.835   6.816 -2.4440  1.7858  2.4872
 7476SOL     OW33889   3.683   4.167   6.800  0.0104  0.1525 -0.3934
 7476SOL    HW133890   3.609   4.112   6.827  0.1848  0.1014 -0.0310
 7476SOL    HW233891   3.748   4.101   6.778 -0.2359  0.0758 -0.8935
 7477SOL     OW33892   1.801   0.503   5.687 -0.1306  0.3765  0.0974
 7477SOL    HW133893   1.767   0.420   5.720  0.5123  1.2457  2.9432
 7477SOL    HW233894   1.894   0.487   5.704 -0.0399  1.3905  0.5277
 7478SOL     OW33895   0.956   1.430   2.511 -0.2051 -0.1311 -0.2844
 7478SOL    HW133896   0.935   1.511   2.465  0.5485 -1.1081 -2.3542
 7478SOL    HW233897   1.051   1.427   2.500 -0.2407  0.4071 -0.7297
 7479SOL     OW33898   3.357   3.015   5.650  0.6517  0.1144  0.3378
 7479SOL    HW133899   3.330   3.032   5.740  0.9843  1.5887  0.1485
 7479SOL    HW233900   3.418   2.941   5.657  0.9070  0.2715 -0.2012
 7480SOL     OW33901   3.558   2.828   5.638 -0.1439 -0.1749 -0.1452
 7480SOL    HW133902   3.582   2.828   5.545 -0.5372  0.2027 -0.2441
 7480SOL    HW233903   3.589   2.741   5.663  1.3136  0.8545  1.6273
 7481SOL     OW33904   0.556   4.343   8.714  0.4092  0.3368  0.5588
 7481SOL    HW133905   0.583   4.252   8.713 -0.4190  0.0867  1.5449
 7481SOL    HW233906   0.470   4.334   8.675  0.8512 -0.5574 -0.1987
 7482SOL     OW33907   3.895   0.412   5.592 -0.2352 -0.5811 -0.5353
 7482SOL    HW133908   3.867   0.452   5.675  1.6094  0.4131 -0.3972
 7482SOL    HW233909   3.875   0.475   5.524  3.5999  1.0095 -0.1759
 7483SOL     OW33910   2.311   4.501   3.802  0.2649 -0.1907  0.4607
 7483SOL    HW133911   2.264   4.525   3.722  1.9858 -1.7076 -1.0083
 7483SOL    HW233912   2.281   4.563   3.869 -0.5188 -0.2519  0.1707
 7484SOL     OW33913   3.610   0.669  10.595  0.4525  0.1369  0.1305
 7484SOL    HW133914   3.554   0.724  10.649 -0.1133  2.0942 -2.4359
 7484SOL    HW233915   3.540   0.632  10.541 -0.0123 -0.1251  0.9100
 7485SOL     OW33916   1.654   2.812   7.505 -0.0302 -0.2158 -0.0971
 7485SOL    HW133917   1.635   2.731   7.553 -2.5329  1.2135  1.3512
 7485SOL    HW233918   1.704   2.850   7.578 -0.1487  0.4680 -0.3724
 7486SOL     OW33919   4.209   3.001   1.697  0.1089 -0.0101  0.2217
 7486SOL    HW133920   4.170   2.999   1.784  2.7383  0.2525  1.4030
 7486SOL    HW233921   4.215   3.095   1.680 -1.9932  0.0461 -0.1546
 7487SOL     OW33922   2.442   0.109   4.032 -0.1604 -0.2371 -0.0562
 7487SOL    HW133923   2.537   0.113   4.023  0.2733 -1.5492  3.8903
 7487SOL    HW233924   2.408   0.164   3.961  1.3990  2.0342  0.9428
 7488SOL     OW33925   1.510   1.826   5.397  0.3474  0.1364  0.3844
 7488SOL    HW133926   1.599   1.858   5.386  0.7905 -0.9884  0.6551
 7488SOL    HW233927   1.498   1.758   5.331  0.2088  1.2258 -0.7089
 7489SOL     OW33928   4.454   0.956   6.140 -0.4782  0.5199 -0.5155
 7489SOL    HW133929   4.386   1.002   6.188 -0.0188 -2.0321  2.6332
 7489SOL    HW233930   4.504   0.914   6.211  0.2118  1.2466 -0.5685
 7490SOL     OW33931   4.229   2.854   6.143 -0.4923 -0.2937  0.2370
 7490SOL    HW133932   4.214   2.937   6.188  1.0546 -0.3157  0.7970
 7490SOL    HW233933   4.225   2.786   6.210  1.8586 -0.5650  0.0815
 7491SOL     OW33934   1.364   1.868  13.468 -0.1434 -0.1688 -0.6668
 7491SOL    HW133935   1.406   1.788  13.499 -1.5522 -0.1502  1.2548
 7491SOL    HW233936   1.297   1.884  13.535  0.1925  0.4829 -0.4826
 7492SOL     OW33937   1.498   3.990   6.559 -0.1536  0.0375 -1.0125
 7492SOL    HW133938   1.546   4.052   6.503  1.3038 -0.5712 -0.4156
 7492SOL    HW233939   1.461   3.934   6.491 -0.1096 -1.9569  0.6271
 7493SOL     OW33940   2.422   0.795  12.936 -0.1960  0.1334 -0.1409
 7493SOL    HW133941   2.415   0.834  12.849 -1.0001 -1.5933 -0.8469
 7493SOL    HW233942   2.363   0.720  12.927  0.3008 -0.5586  2.3172
 7494SOL     OW33943   3.844   4.113   6.378  0.1792  0.2585  0.1681
 7494SOL    HW133944   3.787   4.111   6.301 -0.2855 -0.5869  0.5390
 7494SOL    HW233945   3.844   4.022   6.407 -0.3956  1.0055  2.4568
 7495SOL     OW33946   0.348   0.554  11.654  0.3491  0.5892  0.0485
 7495SOL    HW133947   0.336   0.541  11.748  0.0411 -1.9840 -0.3592
 7495SOL    HW233948   0.284   0.624  11.636 -0.8296 -0.4666  0.1191
 7496SOL     OW33949   2.022   0.363   3.992 -0.0605  0.2503 -0.4604
 7496SOL    HW133950   2.101   0.390   3.945 -1.1100  1.0689 -1.7555
 7496SOL    HW233951   1.965   0.372   3.916 -1.6361  0.8407  0.8123
 7497SOL     OW33952   3.714   1.261   3.161  0.0501 -0.4386 -0.1356
 7497SOL    HW133953   3.745   1.348   3.134  2.3799 -0.7987  1.3248
 7497SOL    HW233954   3.790   1.227   3.209  0.8632  0.5413 -0.7175
 7498SOL     OW33955   2.684   4.647   8.711  0.3252  0.0242  0.2920
 7498SOL    HW133956   2.646   4.646   8.623  3.1574 -1.2855 -0.9270
 7498SOL    HW233957   2.704   4.554   8.720  0.0955  0.0794  1.3232
 7499SOL     OW33958   4.551   0.986   6.818  0.1155 -0.6784  0.0797
 7499SOL    HW133959   4.622   1.050   6.824  0.3590 -0.8315 -1.2481
 7499SOL    HW233960   4.502   1.005   6.898  0.9390 -0.0706  0.4452
 7500SOL     OW33961   2.102   0.553   6.606 -0.2865 -0.7220 -0.4460
 7500SOL    HW133962   2.194   0.529   6.595 -0.6965 -2.4076 -0.2794
 7500SOL    HW233963   2.070   0.464   6.622  2.3561 -1.5038  0.5045
 7501SOL     OW33964   1.255   3.983   0.460  0.1766  0.1657 -0.2695
 7501SOL    HW133965   1.205   3.950   0.385 -1.9670  3.7219 -0.4314
 7501SOL    HW233966   1.267   4.076   0.444 -1.1506  0.7540  2.0344
 7502SOL     OW33967   1.288   4.512   4.263 -0.0018  0.6948  0.8031
 7502SOL    HW133968   1.353   4.531   4.331 -1.5893  0.1705  2.4726
 7502SOL    HW233969   1.249   4.595   4.238 -1.0675 -0.3568 -1.0457
 7503SOL     OW33970   0.019   1.152  11.990  0.1162 -0.3274 -0.3509
 7503SOL    HW133971   0.105   1.112  12.002 -0.3441 -1.2056  0.0434
 7503SOL    HW233972   0.034   1.234  12.036  0.3946 -1.2331  1.1738
 7504SOL     OW33973   4.333   3.280   7.472 -0.3485 -0.0223 -0.2910
 7504SOL    HW133974   4.347   3.205   7.530  1.3518 -0.3893 -1.1759
 7504SOL    HW233975   4.423   3.299   7.447 -0.2874  0.9587  0.6878
 7505SOL     OW33976   1.788   4.240   5.100 -0.3449  0.1703  0.1746
 7505SOL    HW133977   1.736   4.249   5.180 -1.4357 -0.2268 -0.4958
 7505SOL    HW233978   1.742   4.172   5.051  0.2137  0.7376 -1.1227
 7506SOL     OW33979   1.646   1.092  11.262 -0.0251 -0.0570  1.0506
 7506SOL    HW133980   1.640   1.149  11.338  0.0698 -0.0791  1.0748
 7506SOL    HW233981   1.601   1.014  11.296 -1.4693  0.0204 -0.6702
 7507SOL     OW33982   3.423   1.393   4.515 -0.4233 -0.0700  0.2970
 7507SOL    HW133983   3.489   1.400   4.446 -1.1350 -0.8667 -0.4701
 7507SOL    HW233984   3.419   1.480   4.553  0.3960  0.0719  0.0610
 7508SOL     OW33985   4.524   2.840   6.157 -0.1931  0.2658 -0.2437
 7508SOL    HW133986   4.516   2.842   6.253  0.6123  0.7051 -0.1794
 7508SOL    HW233987   4.460   2.781   6.118  2.0327 -2.5859  0.4086
 7509SOL     OW33988   0.702   0.452   7.013 -0.2201  0.4011 -0.7402
 7509SOL    HW133989   0.785   0.493   6.992  0.7818 -0.5034  1.5136
 7509SOL    HW233990   0.642   0.521   6.986 -1.7017 -1.4438 -2.2191
 7510SOL     OW33991   1.791   1.398   8.046 -0.0027  0.0988 -0.0872
 7510SOL    HW133992   1.885   1.391   8.028 -0.0860 -0.0979 -0.4600
 7510SOL    HW233993   1.782   1.491   8.066  0.1872 -0.1504  1.1234
 7511SOL     OW33994   1.364   2.724   5.012 -0.0846  0.3398 -0.3411
 7511SOL    HW133995   1.375   2.683   5.098  2.3489  1.7604  0.0229
 7511SOL    HW233996   1.281   2.769   5.030 -0.4551 -0.9184  1.1359
 7512SOL     OW33997   2.866   0.482   4.434 -0.3235  0.0184 -0.6756
 7512SOL    HW133998   2.866   0.576   4.450  3.3167 -0.7454  3.6905
 7512SOL    HW233999   2.837   0.476   4.343  0.9781  0.0507 -1.0866
 7513SOL     OW34000   3.661   1.996   3.813 -0.2682  0.1912  0.2068
 7513SOL    HW134001   3.640   2.067   3.873 -0.9797  0.0847  0.0864
 7513SOL    HW234002   3.753   1.981   3.834  0.5712  2.2107 -2.0573
 7514SOL     OW34003   2.726   2.822  10.671 -0.3253 -0.0714  0.3376
 7514SOL    HW134004   2.717   2.803  10.577  2.2021 -0.3263  0.1388
 7514SOL    HW234005   2.804   2.878  10.669 -2.4263  2.8509 -0.2854
 7515SOL     OW34006   3.684   2.004  14.208 -0.5730 -0.2738 -0.5817
 7515SOL    HW134007   3.748   1.949  14.163  2.5837  2.3839  0.6843
 7515SOL    HW234008   3.620   1.986  14.139  1.9648  0.4287 -3.1249
 7516SOL     OW34009   3.107   4.167   7.987 -0.1964 -0.5790 -0.4198
 7516SOL    HW134010   3.060   4.085   7.972  0.9501 -1.1926 -0.6543
 7516SOL    HW234011   3.047   4.225   8.035 -1.1739  0.3005 -2.7240
 7517SOL     OW34012   1.777   1.137   2.170 -0.6774  0.4320 -0.0803
 7517SOL    HW134013   1.861   1.145   2.214  0.4342  0.3709 -2.1786
 7517SOL    HW234014   1.771   1.045   2.143  4.3661  0.3572 -0.8788
 7518SOL     OW34015   1.315   0.192   9.475  0.3077  0.0377  0.6482
 7518SOL    HW134016   1.276   0.277   9.455 -0.3678 -0.6478 -0.9136
 7518SOL    HW234017   1.234   0.144   9.494  0.9478 -1.2631  0.0397
 7519SOL     OW34018   4.499   0.480   9.599  0.3200  0.8700 -0.3700
 7519SOL    HW134019   4.486   0.404   9.656  0.1679  0.6895 -0.6451
 7519SOL    HW234020   4.469   0.555   9.650 -2.7707 -0.4679 -0.2071
 7520SOL     OW34021   0.814   3.831   0.704  0.0435  0.2276  0.0678
 7520SOL    HW134022   0.848   3.900   0.760 -0.2630  2.2105 -2.2101
 7520SOL    HW234023   0.738   3.803   0.756 -1.3552  0.7560 -1.6997
 7521SOL     OW34024   3.231   0.007   3.254 -0.0258 -0.3388  0.2573
 7521SOL    HW134025   3.326   4.717   3.253 -0.0582 -0.3848 -2.1837
 7521SOL    HW234026   3.204   4.645   3.291  1.0228 -1.0883 -0.6822
 7522SOL     OW34027   0.124   2.259   8.298  0.3517  0.7037 -0.4429
 7522SOL    HW134028   0.094   2.234   8.210  3.4614 -1.8062 -0.8034
 7522SOL    HW234029   0.217   2.277   8.285  0.2063  3.6683  2.7314
 7523SOL     OW34030   1.154   0.892  17.628  0.3361 -0.1279 -0.1475
 7523SOL    HW134031   1.167   0.857   0.027 -2.7944 -0.3123  0.2591
 7523SOL    HW234032   1.220   0.961  17.631 -0.8934  1.0422 -0.2423
 7524SOL     OW34033   1.395   3.135   4.489  0.1244  0.1931  0.0079
 7524SOL    HW134034   1.361   3.073   4.425 -1.4619  1.1755 -0.1038
 7524SOL    HW234035   1.372   3.087   4.568  2.5394 -3.2032 -1.3624
 7525SOL     OW34036   0.678   0.031   8.350 -0.2017  0.1137  0.2348
 7525SOL    HW134037   0.609   4.688   8.335 -0.1740  0.6286 -2.0658
 7525SOL    HW234038   0.687   0.029   8.445  0.7964  3.3921  0.1896
 7526SOL     OW34039   2.345   2.722   3.734 -0.0877 -0.4012  0.3177
 7526SOL    HW134040   2.319   2.760   3.818 -0.4151  1.7075 -0.7199
 7526SOL    HW234041   2.345   2.628   3.749  1.4724 -0.0704  2.3179
 7527SOL     OW34042   3.227   3.091  12.930  0.0508  0.1867  0.3047
 7527SOL    HW134043   3.146   3.058  12.892  0.9336 -1.6234  0.0096
 7527SOL    HW234044   3.281   3.017  12.903  1.8267  1.0076  1.5544
 7528SOL     OW34045   2.095   1.527   8.361  0.0192  0.5396  0.1835
 7528SOL    HW134046   2.092   1.442   8.405 -1.3054  0.1646 -0.6360
 7528SOL    HW234047   2.178   1.564   8.390  0.7970 -0.3083 -0.9900
 7529SOL     OW34048   1.798   0.927   4.519  0.3901 -0.3123  0.0300
 7529SOL    HW134049   1.728   0.977   4.561 -0.2841 -0.3529 -1.0530
 7529SOL    HW234050   1.756   0.904   4.436 -0.7912  0.6429  0.3608
 7530SOL     OW34051   2.635   1.554   2.354 -0.2228 -0.0243  0.5507
 7530SOL    HW134052   2.695   1.536   2.281  1.1841  0.4646  1.6110
 7530SOL    HW234053   2.583   1.473   2.352  0.2583 -0.3290 -0.0487
 7531SOL     OW34054   2.354   1.834   8.085  0.8336 -0.3162 -0.4048
 7531SOL    HW134055   2.423   1.769   8.073  0.9669 -0.7104  2.4432
 7531SOL    HW234056   2.287   1.771   8.060 -0.7667  1.0108  0.5270
 7532SOL     OW34057   4.608   1.872   5.955 -0.0302 -0.1267 -0.7239
 7532SOL    HW134058   4.623   1.779   5.934  1.5381 -0.4072  1.5165
 7532SOL    HW234059   4.603   1.912   5.869 -0.5499  1.7521  0.1875
 7533SOL     OW34060   0.214   4.249  17.314  0.0186  0.0247 -0.1420
 7533SOL    HW134061   0.157   4.176  17.338  0.9265  0.1365  2.2650
 7533SOL    HW234062   0.289   4.208  17.270 -0.2930 -1.0675  0.3558
 7534SOL     OW34063   0.111   0.017   8.805  0.9177 -0.8348  0.2497
 7534SOL    HW134064   0.080   4.652   8.781 -0.7156 -0.1024 -0.3255
 7534SOL    HW234065   0.164   0.001   8.883 -0.4497  0.6184  1.4920
 7535SOL     OW34066   3.422   0.929   6.685 -0.4542 -0.0648 -0.0518
 7535SOL    HW134067   3.500   0.982   6.669 -2.2534  2.5781 -0.1499
 7535SOL    HW234068   3.433   0.862   6.618  0.5018 -1.8222  1.8492
 7536SOL     OW34069   0.497   2.106   4.563  0.3704  0.1295  0.1809
 7536SOL    HW134070   0.432   2.107   4.634 -0.4699 -1.1302 -0.5634
 7536SOL    HW234071   0.453   2.059   4.492 -0.0317  0.8637 -0.0606
 7537SOL     OW34072   4.073   2.538   2.587  0.5244  0.2774 -0.2425
 7537SOL    HW134073   4.132   2.609   2.564 -0.4264  1.5278  1.2206
 7537SOL    HW234074   4.134   2.467   2.568  1.2912  0.7274  0.5811
 7538SOL     OW34075   0.255   0.871   6.032  0.3893 -0.1383  0.0481
 7538SOL    HW134076   0.195   0.935   6.070 -0.3568 -0.6640 -0.2434
 7538SOL    HW234077   0.199   0.793   6.031 -0.8656  0.7652 -1.5403
 7539SOL     OW34078   0.895   2.202   8.036 -0.1810  0.0815 -0.1992
 7539SOL    HW134079   0.956   2.156   7.978  1.0532  0.9180  0.4200
 7539SOL    HW234080   0.877   2.144   8.110 -2.5136 -0.0909 -0.9116
 7540SOL     OW34081   3.361   1.328  15.828  1.1320 -0.3912  0.5422
 7540SOL    HW134082   3.392   1.357  15.914 -1.5759 -2.2974  2.1385
 7540SOL    HW234083   3.267   1.320  15.843  0.9171  0.5985 -0.2671
 7541SOL     OW34084   0.804   0.564   3.521  0.2123 -0.0773  0.4109
 7541SOL    HW134085   0.829   0.649   3.484  0.2013  0.1960  1.0321
 7541SOL    HW234086   0.790   0.518   3.438 -1.8611  1.0387  0.1508
 7542SOL     OW34087   4.336   0.579   5.980  0.0059 -0.0228 -0.6265
 7542SOL    HW134088   4.271   0.509   5.968  0.9780 -1.0106 -0.0923
 7542SOL    HW234089   4.383   0.539   6.053 -2.3055 -2.1340 -0.3056
 7543SOL     OW34090   3.374   2.616   7.213  0.4816  0.1231 -0.3044
 7543SOL    HW134091   3.363   2.691   7.155 -1.5368  0.1671  0.1418
 7543SOL    HW234092   3.321   2.641   7.288  1.0997  3.2811 -0.9231
 7544SOL     OW34093   1.966   3.384  14.167 -0.4024 -0.5513  0.3122
 7544SOL    HW134094   1.913   3.387  14.087  0.6146  0.5393 -0.3314
 7544SOL    HW234095   2.024   3.461  14.163 -0.3008 -0.5684  1.5399
 7545SOL     OW34096   0.514   1.928   6.064  0.0921 -0.4515 -0.6484
 7545SOL    HW134097   0.443   1.970   6.014  0.1806  1.1115  0.5618
 7545SOL    HW234098   0.556   2.008   6.095 -1.3453 -0.4963  1.4280
 7546SOL     OW34099   2.295   1.867   6.741  0.0525  0.6604  0.0684
 7546SOL    HW134100   2.255   1.824   6.816 -1.2517  0.2129 -0.8987
 7546SOL    HW234101   2.247   1.828   6.668 -0.4606 -0.1228  0.8215
 7547SOL     OW34102   1.775   0.607   2.142 -0.4972  0.0483 -0.6035
 7547SOL    HW134103   1.860   0.597   2.186  0.7408 -0.0018 -3.0128
 7547SOL    HW234104   1.786   0.550   2.066 -0.4594  0.2215 -0.7283
 7548SOL     OW34105   0.487   3.345   4.146  0.6909 -0.3392 -0.1694
 7548SOL    HW134106   0.399   3.325   4.115  0.7823 -1.0364  0.0135
 7548SOL    HW234107   0.521   3.394   4.071 -0.0403  0.1228 -0.2000
 7549SOL     OW34108   1.379   0.244  12.691 -0.9302 -0.2113 -0.1677
 7549SOL    HW134109   1.299   0.191  12.692 -0.5516 -0.7596  1.1319
 7549SOL    HW234110   1.396   0.251  12.785 -2.0387 -1.8603  0.1681
 7550SOL     OW34111   4.346   1.508   2.765  0.0776  0.1581  0.2414
 7550SOL    HW134112   4.286   1.477   2.832  2.5593 -2.1445  1.4331
 7550SOL    HW234113   4.333   1.602   2.769  1.5566  0.4941 -2.6461
 7551SOL     OW34114   3.367   1.719  11.600 -0.0551 -0.0517  0.1927
 7551SOL    HW134115   3.367   1.748  11.509  0.8627  2.0712  0.8784
 7551SOL    HW234116   3.308   1.782  11.641 -0.7840 -0.4250 -0.2770
 7552SOL     OW34117   0.198   1.077   4.136  0.3208 -0.0867 -0.2769
 7552SOL    HW134118   0.183   0.997   4.187  1.1715 -1.2014 -1.7826
 7552SOL    HW234119   0.251   1.052   4.061  0.0985 -2.7759  0.4741
 7553SOL     OW34120   1.516   4.269   4.547  0.4494  0.1468 -0.0681
 7553SOL    HW134121   1.558   4.312   4.473  2.5033 -1.6126  0.0599
 7553SOL    HW234122   1.429   4.250   4.512  0.2526  0.4563  0.2557
 7554SOL     OW34123   3.946   2.939   4.080  0.5797 -0.1071  0.0864
 7554SOL    HW134124   3.999   2.862   4.102  1.4225  0.2213 -0.7884
 7554SOL    HW234125   4.017   3.002   4.086  0.3918  0.1384 -0.2357
 7555SOL     OW34126   3.839   1.138  10.466  0.6024 -0.4802  0.7154
 7555SOL    HW134127   3.784   1.135  10.388 -1.1713 -2.4659  2.0451
 7555SOL    HW234128   3.870   1.048  10.457 -0.0390 -0.5352 -1.0280
 7556SOL     OW34129   3.769   1.541   4.894 -1.2876  0.1356  0.7495
 7556SOL    HW134130   3.832   1.560   4.963  1.9433  1.2653 -2.5302
 7556SOL    HW234131   3.729   1.626   4.878  1.4114  1.2749  0.0082
 7557SOL     OW34132   2.508   4.692  13.452 -0.0167  0.4298  0.0762
 7557SOL    HW134133   2.497   4.715  13.359  0.7496  0.4424 -0.0112
 7557SOL    HW234134   2.569   0.028  13.497 -0.5810  0.1105  1.2732
 7558SOL     OW34135   4.152   1.660  16.320 -0.0378 -0.2657 -0.0721
 7558SOL    HW134136   4.241   1.626  16.329 -0.4911 -1.4273 -0.0407
 7558SOL    HW234137   4.133   1.615  16.238  0.3712 -2.4886  1.0597
 7559SOL     OW34138   4.265   0.102   4.684  0.1904  0.7594 -0.0130
 7559SOL    HW134139   4.325   0.043   4.730  1.2194  1.5431 -0.3256
 7559SOL    HW234140   4.324   0.174   4.659  0.8618  0.3561  0.3965
 7560SOL     OW34141   1.332   0.906   7.950  0.2219  0.5253 -0.1995
 7560SOL    HW134142   1.256   0.907   7.892 -0.1400 -0.6543  0.2593
 7560SOL    HW234143   1.286   0.929   8.031  2.9879 -1.4946  1.9350
 7561SOL     OW34144   4.623   2.243   3.039  0.2239  0.2573 -0.4016
 7561SOL    HW134145   4.657   2.288   3.116 -0.1531  0.1153 -0.1518
 7561SOL    HW234146   4.591   2.319   2.992  0.2063  1.4531  1.5334
 7562SOL     OW34147   2.322   2.940  14.212 -0.2987  0.0849 -0.4704
 7562SOL    HW134148   2.353   3.020  14.170  2.8381 -0.0389  1.6017
 7562SOL    HW234149   2.229   2.961  14.208  0.1601  2.0707 -0.6287
 7563SOL     OW34150   1.353   0.060   3.236  0.1802 -0.2685  0.2841
 7563SOL    HW134151   1.365   0.115   3.158  1.2391  1.3578  1.5872
 7563SOL    HW234152   1.432   0.006   3.228 -1.0545 -2.1480  0.9896
 7564SOL     OW34153   3.773   0.425   4.865 -0.0551 -0.5416 -0.2241
 7564SOL    HW134154   3.687   0.428   4.822  1.1340  0.3791 -2.4842
 7564SOL    HW234155   3.807   0.337   4.850 -1.0960 -1.2656  1.5767
 7565SOL     OW34156   1.645   2.729   6.915 -0.0338 -0.6553 -0.1995
 7565SOL    HW134157   1.555   2.726   6.882  0.4119  2.6311 -1.7691
 7565SOL    HW234158   1.636   2.689   7.001 -0.6365 -3.3441 -1.5368
 7566SOL     OW34159   4.214   2.033  16.205 -0.4862  0.0559  0.1669
 7566SOL    HW134160   4.239   1.950  16.165 -1.8760  1.8653 -4.4082
 7566SOL    HW234161   4.277   2.038  16.277 -1.4232 -2.1114  1.1357
 7567SOL     OW34162   4.692   1.934   3.580  0.5463 -0.5537 -0.9701
 7567SOL    HW134163   4.683   2.024   3.612  2.3025 -0.6358 -0.2231
 7567SOL    HW234164   0.063   1.943   3.559  0.8562  0.6862  0.9550
 7568SOL     OW34165   2.904   2.255  10.112 -0.2277 -0.1087 -0.4339
 7568SOL    HW134166   2.991   2.234  10.144  0.8846  1.8504 -2.1182
 7568SOL    HW234167   2.919   2.344  10.078  0.6441 -0.1866 -0.2336
 7569SOL     OW34168   3.115   2.631   5.308 -0.1610 -0.3822  1.0549
 7569SOL    HW134169   3.102   2.709   5.362 -3.7104 -1.8849  2.3402
 7569SOL    HW234170   3.027   2.595   5.300 -0.4430  0.7151 -0.7410
 7570SOL     OW34171   3.765   3.394   1.015 -0.2473  0.5637  0.7918
 7570SOL    HW134172   3.826   3.342   0.963  0.8913  1.6497  1.0293
 7570SOL    HW234173   3.699   3.419   0.950  0.1149 -2.6238 -0.8142
 7571SOL     OW34174   2.418   0.125  14.070  0.1301  0.0800 -0.0536
 7571SOL    HW134175   2.348   0.086  14.123 -0.3105  0.6562 -0.2021
 7571SOL    HW234176   2.361   0.146  13.996 -3.5539 -0.5751  2.5872
 7572SOL     OW34177   3.301   0.256   0.289 -0.3119  0.4273 -0.4125
 7572SOL    HW134178   3.338   0.256   0.377 -0.5832 -0.3720 -0.3005
 7572SOL    HW234179   3.376   0.215   0.246 -1.9178 -2.9485  0.0049
 7573SOL     OW34180   3.539   1.291  12.492  0.1484  0.4592 -0.2983
 7573SOL    HW134181   3.588   1.312  12.572 -0.9351  0.2493  0.4298
 7573SOL    HW234182   3.485   1.215  12.514  0.9964 -0.0710 -0.0484
 7574SOL     OW34183   3.963   4.515  10.633  0.5745 -0.0407  0.5285
 7574SOL    HW134184   3.888   4.473  10.590 -0.1568 -0.4639  2.2063
 7574SOL    HW234185   3.948   4.608  10.613 -2.6093  0.0946  3.4301
 7575SOL     OW34186   4.310   0.692   4.416 -0.1073 -0.3851 -0.5217
 7575SOL    HW134187   4.402   0.718   4.416 -0.4098  0.6704  0.1093
 7575SOL    HW234188   4.276   0.781   4.413  1.5335  0.2869  1.2745
 7576SOL     OW34189   1.030   0.589   0.331  0.2926 -0.0167 -0.4321
 7576SOL    HW134190   0.936   0.583   0.346  0.3141 -3.0398 -1.3858
 7576SOL    HW234191   1.068   0.572   0.417 -0.5451  0.6875  0.0734
 7577SOL     OW34192   4.336   1.830   0.638  0.6782 -0.0312  0.4654
 7577SOL    HW134193   4.293   1.760   0.687  1.8311  0.1883  1.7795
 7577SOL    HW234194   4.369   1.783   0.561 -1.5158  0.4756 -0.8046
 7578SOL     OW34195   4.665   1.208  14.573  0.2208 -0.2000  0.3490
 7578SOL    HW134196   4.623   1.293  14.561 -0.6118 -0.1764  3.5761
 7578SOL    HW234197   4.645   1.184  14.663 -0.7962 -2.5832 -0.5012
 7579SOL     OW34198   3.796   3.576   7.031 -0.2902  0.3371  0.0998
 7579SOL    HW134199   3.716   3.606   6.989 -0.1355  1.2566  0.4735
 7579SOL    HW234200   3.799   3.637   7.104 -0.4683 -0.2798  0.6184
 7580SOL     OW34201   2.064   1.338   6.254 -0.2930  0.6875 -0.0807
 7580SOL    HW134202   1.982   1.366   6.296 -1.4966 -2.3807 -0.4077
 7580SOL    HW234203   2.040   1.327   6.162 -1.5915  2.1750  0.0776
 7581SOL     OW34204   2.076   2.746   9.845 -0.2734  0.0289  0.3647
 7581SOL    HW134205   2.049   2.671   9.792 -1.0627  1.1596 -0.8286
 7581SOL    HW234206   2.072   2.712   9.935 -2.4452 -0.8966 -0.0661
 7582SOL     OW34207   1.099   0.868   7.509  0.5612  0.0646  0.2774
 7582SOL    HW134208   1.005   0.885   7.520  0.0563 -1.8331 -1.2284
 7582SOL    HW234209   1.114   0.914   7.426  0.1009  0.4889  0.4242
 7583SOL     OW34210   0.715   0.966   3.791 -0.1380  0.2051  0.5693
 7583SOL    HW134211   0.787   0.994   3.734  1.4939 -2.1397  1.4786
 7583SOL    HW234212   0.676   0.902   3.730 -0.0490 -2.4590  3.3082
 7584SOL     OW34213   3.565   4.114   9.074  0.2013 -0.7466 -0.5163
 7584SOL    HW134214   3.648   4.067   9.090 -1.1475 -3.0746 -0.3113
 7584SOL    HW234215   3.499   4.047   9.057  0.9231 -1.6292  0.1008
 7585SOL     OW34216   3.602   2.349   8.306 -0.3601  0.3445 -0.3016
 7585SOL    HW134217   3.556   2.286   8.360 -2.3264  1.6266 -0.4688
 7585SOL    HW234218   3.692   2.319   8.316 -0.6076 -0.0105  0.8400
 7586SOL     OW34219   0.725   4.113   9.828 -0.3379  0.6203 -0.3412
 7586SOL    HW134220   0.757   4.098   9.917  0.9770 -0.8305 -1.0752
 7586SOL    HW234221   0.763   4.200   9.812 -0.2975  0.4587 -1.1163
 7587SOL     OW34222   1.583   3.129   6.567  0.0740  0.9298 -0.5074
 7587SOL    HW134223   1.515   3.119   6.633 -1.0460  0.3697 -1.7277
 7587SOL    HW234224   1.643   3.056   6.586 -1.9832 -0.2368  1.3829
 7588SOL     OW34225   1.990   0.552   7.204  0.0161 -0.2059 -0.3529
 7588SOL    HW134226   2.065   0.527   7.149  0.9537 -1.1649  1.3412
 7588SOL    HW234227   1.934   0.476   7.189  0.6768 -1.2678  2.5917
 7589SOL     OW34228   4.044   3.094   4.833 -0.6286  0.3352 -0.6469
 7589SOL    HW134229   4.100   3.018   4.815 -0.7305 -0.5146  2.6859
 7589SOL    HW234230   4.087   3.159   4.778 -0.3542  0.1437 -0.6586
 7590SOL     OW34231   2.435   2.727   0.173 -0.0746 -0.2176 -0.2974
 7590SOL    HW134232   2.463   2.662   0.109 -2.4546 -2.5496  1.0272
 7590SOL    HW234233   2.483   2.806   0.147 -0.9298  0.1642 -0.7272
 7591SOL     OW34234   0.711   2.900   0.638  0.2595  0.1203 -0.2407
 7591SOL    HW134235   0.732   2.896   0.544 -1.4282  1.9548 -0.6959
 7591SOL    HW234236   0.730   2.810   0.664  1.9158  0.2324 -1.0384
 7592SOL     OW34237   4.468   1.582  16.427 -0.1418  0.1566  0.4911
 7592SOL    HW134238   4.485   1.587  16.333  1.3570 -1.2506  0.6947
 7592SOL    HW234239   4.554   1.545  16.445 -0.4372 -0.9541 -0.3628
 7593SOL     OW34240   1.193   2.046  11.055 -0.5501 -0.6115 -0.3744
 7593SOL    HW134241   1.144   1.995  10.990 -0.8575 -2.2482  1.1144
 7593SOL    HW234242   1.142   2.029  11.134 -1.4026  2.0305 -0.3582
 7594SOL     OW34243   4.244   1.523   5.060 -0.0899 -0.2954 -0.4275
 7594SOL    HW134244   4.300   1.575   5.002 -0.9724  1.9370  0.7260
 7594SOL    HW234245   4.312   1.501   5.123  0.2298  1.3972 -0.1744
 7595SOL     OW34246   4.513   1.071   5.666  0.1971  0.0856 -0.0861
 7595SOL    HW134247   4.478   0.982   5.668 -0.9615  0.5589  0.8064
 7595SOL    HW234248   4.590   1.066   5.723  0.7300  2.8755 -0.5382
 7596SOL     OW34249   2.567   0.837   9.463 -0.0141  0.3503 -0.0146
 7596SOL    HW134250   2.609   0.809   9.545  1.0824 -1.6717 -1.2628
 7596SOL    HW234251   2.608   0.920   9.441  1.9680 -0.7056 -0.3720
 7597SOL     OW34252   1.228   3.465   7.432 -0.1659 -0.9657  0.1848
 7597SOL    HW134253   1.153   3.470   7.492  0.8183  1.7000  1.2066
 7597SOL    HW234254   1.223   3.371   7.414 -0.1621 -0.6492 -1.3922
 7598SOL     OW34255   2.664   4.200   7.037  0.0904 -0.2630  0.3916
 7598SOL    HW134256   2.642   4.294   7.037 -0.4792 -0.3986  0.8266
 7598SOL    HW234257   2.612   4.167   6.964  0.7343  0.9703 -0.6493
 7599SOL     OW34258   0.193   0.601   4.197  0.2547  0.3472  0.3661
 7599SOL    HW134259   0.218   0.588   4.106  4.6722  2.4240  1.2844
 7599SOL    HW234260   0.251   0.673   4.222 -0.7419 -0.1227  3.9480
 7600SOL     OW34261   4.720   2.243   7.994  0.0634  0.3582  0.5649
 7600SOL    HW134262   4.653   2.300   8.032 -1.4994  0.0711 -1.8117
 7600SOL    HW234263   4.666   2.164   7.996  1.9518 -0.9575 -0.0291
 7601SOL     OW34264   3.249   1.887   4.099  0.3914  0.1956  0.3460
 7601SOL    HW134265   3.333   1.902   4.054  2.6169 -1.6459  3.8643
 7601SOL    HW234266   3.196   1.929   4.032 -1.8009  0.0604  2.0146
 7602SOL     OW34267   1.319   0.973   5.216  0.0643  0.2403 -0.0225
 7602SOL    HW134268   1.333   1.047   5.276 -0.8419  0.8158 -0.5210
 7602SOL    HW234269   1.269   0.908   5.264 -0.4964  0.4715 -0.3010
 7603SOL     OW34270   0.176   3.609   2.445  0.0351  0.6902  0.0114
 7603SOL    HW134271   0.252   3.567   2.405 -0.3124 -0.8340  0.9449
 7603SOL    HW234272   0.214   3.694   2.468 -0.4943  0.4939  1.5609
 7604SOL     OW34273   0.808   1.519   3.250 -0.6588 -0.1906  0.3412
 7604SOL    HW134274   0.722   1.540   3.214 -1.7355 -1.9599  1.8778
 7604SOL    HW234275   0.854   1.596   3.216 -0.6543 -0.0982  0.5523
 7605SOL     OW34276   2.076   3.875  15.446 -0.5515  1.0277  0.3607
 7605SOL    HW134277   2.130   3.812  15.495  0.8537  2.5777  0.8090
 7605SOL    HW234278   2.017   3.899  15.517 -2.0115 -0.2625 -0.4316
 7606SOL     OW34279   1.946   0.715   8.703 -0.3327  0.0783 -0.6955
 7606SOL    HW134280   1.944   0.648   8.635 -1.2482 -0.1911 -0.4073
 7606SOL    HW234281   1.928   0.795   8.653  1.3978  1.3098  0.6201
 7607SOL     OW34282   0.056   4.315   8.627  0.1195 -0.6288  0.3291
 7607SOL    HW134283   0.072   4.237   8.680  2.0171 -0.2397  0.3304
 7607SOL    HW234284   0.009   4.369   8.691 -0.4754  1.6720 -2.0313
 7608SOL     OW34285   0.396   3.840   7.618 -0.9238  0.5025  0.8271
 7608SOL    HW134286   0.477   3.795   7.644 -0.8890 -0.6840 -1.3556
 7608SOL    HW234287   0.352   3.764   7.579  1.4932  1.3094 -3.4244
 7609SOL     OW34288   2.006   2.349   5.875  1.2290  0.1208 -0.1684
 7609SOL    HW134289   2.087   2.399   5.863  0.2725  1.1829 -2.1248
 7609SOL    HW234290   2.034   2.263   5.844  1.0966 -0.0103  0.0718
 7610SOL     OW34291   3.345   1.080   2.854  0.0515 -0.2585 -0.5672
 7610SOL    HW134292   3.351   0.986   2.867 -1.2894 -0.1854  0.5527
 7610SOL    HW234293   3.429   1.107   2.890 -0.4580  0.1889  0.2701
 7611SOL     OW34294   4.401   2.446   7.970  0.3211 -0.5453 -0.5882
 7611SOL    HW134295   4.453   2.524   7.950  0.5766 -0.7893 -0.8901
 7611SOL    HW234296   4.469   2.402   8.022  0.4677  1.5101  0.9290
 7612SOL     OW34297   0.583   1.000  10.375 -0.6715 -0.3361  0.3711
 7612SOL    HW134298   0.595   0.998  10.470  1.6819 -2.4357  0.0236
 7612SOL    HW234299   0.606   0.911  10.348 -0.8370 -0.7439  1.5835
 7613SOL     OW34300   0.627   2.302   4.284 -0.2162  0.1226  0.3751
 7613SOL    HW134301   0.591   2.235   4.226  0.7931  0.3379 -0.4961
 7613SOL    HW234302   0.719   2.276   4.289 -0.3914 -0.1559  2.3469
 7614SOL     OW34303   4.320   0.310   7.585 -0.3990  0.6861  0.3727
 7614SOL    HW134304   4.335   0.236   7.643 -0.7923  0.8458  0.6834
 7614SOL    HW234305   4.234   0.285   7.551  0.6981 -1.4481 -0.8027
 7615SOL     OW34306   3.591   0.859   1.808 -0.3347  0.1988 -0.0831
 7615SOL    HW134307   3.571   0.815   1.891  1.3186  0.3414  0.3817
 7615SOL    HW234308   3.506   0.900   1.793 -0.7786  0.5700  3.3739
 7616SOL     OW34309   0.320   2.624   6.955 -0.2372 -0.3065  0.0752
 7616SOL    HW134310   0.259   2.677   6.903  0.4690  0.1617 -0.2712
 7616SOL    HW234311   0.327   2.537   6.916  0.4830 -0.3993  0.4200
 7617SOL     OW34312   2.749   0.242  12.350  0.3140 -0.1186  0.1575
 7617SOL    HW134313   2.835   0.205  12.334  0.7488 -0.1949  2.7684
 7617SOL    HW234314   2.773   0.313  12.410  0.3630  0.1961 -0.2286
 7618SOL     OW34315   4.193   3.356   0.905  0.2267 -0.7200 -0.1886
 7618SOL    HW134316   4.285   3.335   0.889  0.3028 -1.4831  1.2620
 7618SOL    HW234317   4.162   3.346   0.815 -2.6787  0.1216  0.7300
 7619SOL     OW34318   4.137   1.059   9.074  0.3829  0.2363 -0.5602
 7619SOL    HW134319   4.148   0.969   9.043  0.0555 -0.3771  1.1601
 7619SOL    HW234320   4.196   1.060   9.149 -2.2681  0.5687  1.4974
 7620SOL     OW34321   3.283   1.736   4.910 -0.2670 -0.0613  0.0985
 7620SOL    HW134322   3.298   1.761   4.819 -0.1581 -0.9425 -0.1219
 7620SOL    HW234323   3.278   1.819   4.957 -0.9422 -0.4378  0.7034
 7621SOL     OW34324   4.093   0.640   1.839  0.4546  0.0471  0.1145
 7621SOL    HW134325   4.171   0.653   1.893  1.4626 -2.2288 -0.8103
 7621SOL    HW234326   4.048   0.567   1.880  0.2217  0.0075 -0.2085
 7622SOL     OW34327   2.036   3.193   6.958  0.2860 -0.2044  0.7898
 7622SOL    HW134328   2.112   3.230   7.004  0.0500 -2.6583  3.1815
 7622SOL    HW234329   1.996   3.141   7.028  0.3820 -0.0609  0.9518
 7623SOL     OW34330   4.644   0.259  10.074 -0.2925 -0.1698  0.5327
 7623SOL    HW134331   4.621   0.329  10.013 -0.6499  0.6049  1.5486
 7623SOL    HW234332   4.658   0.321  10.145 -0.8185 -1.2424  1.5758
 7624SOL     OW34333   3.244   1.521   7.373 -0.0463 -0.1492 -0.5428
 7624SOL    HW134334   3.330   1.486   7.351  1.3971  2.7194  0.6010
 7624SOL    HW234335   3.245   1.528   7.469  1.6240  0.9922 -0.6570
 7625SOL     OW34336   2.029   0.408   0.851  0.3318 -0.2644  0.0333
 7625SOL    HW134337   1.936   0.408   0.873  0.3169  0.7387 -0.0501
 7625SOL    HW234338   2.065   0.349   0.917 -0.3697 -0.3532  0.3303
 7626SOL     OW34339   0.696   1.817   3.696  0.8058 -0.1582 -0.2596
 7626SOL    HW134340   0.666   1.903   3.727  0.3764 -1.0269  1.7982
 7626SOL    HW234341   0.766   1.821   3.632 -0.4819 -0.5267 -1.6832
 7627SOL     OW34342   3.341   3.732   7.439  0.3789 -0.9531  0.2409
 7627SOL    HW134343   3.408   3.755   7.374 -0.2363 -0.0791 -0.0813
 7627SOL    HW234344   3.400   3.717   7.513  0.7770  0.7864  0.2833
 7628SOL     OW34345   2.393   1.290   3.134 -0.0583  0.6661 -0.3073
 7628SOL    HW134346   2.392   1.278   3.039  0.0020  2.0211 -0.4860
 7628SOL    HW234347   2.412   1.384   3.132  0.6487  0.4910 -1.8506
 7629SOL     OW34348   1.775   4.324   6.956  0.0983 -0.6267  0.3436
 7629SOL    HW134349   1.802   4.299   7.044  0.5946  0.6976  0.5622
 7629SOL    HW234350   1.725   4.250   6.922 -2.6214  1.5733 -0.3889
 7630SOL     OW34351   0.812   2.143   1.874  0.5735 -0.2597 -0.6798
 7630SOL    HW134352   0.906   2.134   1.858  0.4828 -0.6695 -0.9773
 7630SOL    HW234353   0.809   2.191   1.957 -0.8642 -0.0489 -0.8531
 7631SOL     OW34354   4.128   2.787  14.279 -0.1580  0.0493 -0.7064
 7631SOL    HW134355   4.184   2.808  14.205  0.2507  1.8530  0.1148
 7631SOL    HW234356   4.165   2.849  14.343 -0.4257 -1.3649  0.8353
 7632SOL     OW34357   4.106   4.701   8.250  0.0466 -0.2856 -0.4327
 7632SOL    HW134358   4.165   4.708   8.325 -1.5881  2.3160  0.6166
 7632SOL    HW234359   4.070   4.612   8.249 -2.5392  0.7246  0.8799
 7633SOL     OW34360   0.154   3.825   1.476  0.4704  0.1221  0.7308
 7633SOL    HW134361   0.169   3.912   1.514  1.8254  1.4039 -2.7987
 7633SOL    HW234362   0.114   3.780   1.550 -2.7998 -1.1100 -1.8118
 7634SOL     OW34363   2.977   2.786   5.766 -0.3562  0.5190  0.2016
 7634SOL    HW134364   2.964   2.880   5.779 -0.1419  0.5744  0.0267
 7634SOL    HW234365   2.956   2.758   5.855  0.5701 -1.1277 -0.0853
 7635SOL     OW34366   3.209   2.221  11.160 -0.4130  0.1545  0.2371
 7635SOL    HW134367   3.117   2.196  11.151 -0.4441  0.2566  0.2700
 7635SOL    HW234368   3.214   2.277  11.237 -4.2125 -1.4395  1.6090
 7636SOL     OW34369   0.940   0.750   3.941  0.0990 -0.1007  0.0899
 7636SOL    HW134370   0.868   0.725   3.883 -0.4430 -0.7849  1.0478
 7636SOL    HW234371   0.973   0.821   3.887  0.4916 -0.0531  0.3958
 7637SOL     OW34372   2.852   3.908  15.338  0.3027  1.0667 -0.3499
 7637SOL    HW134373   2.852   3.959  15.257 -0.2795 -0.2469 -1.1711
 7637SOL    HW234374   2.946   3.916  15.357  0.0769  1.8891  0.3683
 7638SOL     OW34375   0.574   3.723   3.202  0.4934  0.0738 -0.1726
 7638SOL    HW134376   0.625   3.801   3.177  0.4504 -1.3384 -4.5658
 7638SOL    HW234377   0.640   3.681   3.258 -0.2622 -0.1719  0.5251
 7639SOL     OW34378   1.361   1.594  15.261 -0.1838 -0.0538 -0.4277
 7639SOL    HW134379   1.269   1.572  15.274 -0.3714  1.3483  0.6619
 7639SOL    HW234380   1.378   1.639  15.344 -1.3983  1.6000 -1.0474
 7640SOL     OW34381   1.669   2.661   3.373  0.1662  0.3876 -0.2490
 7640SOL    HW134382   1.632   2.728   3.431  0.1316 -0.2750  0.4981
 7640SOL    HW234383   1.608   2.588   3.388  1.4868 -0.5915  0.3661
 7641SOL     OW34384   1.786   0.961   8.031  0.0136  0.6768 -0.8188
 7641SOL    HW134385   1.726   1.035   8.020 -0.2750  0.8731  2.0055
 7641SOL    HW234386   1.864   0.997   7.990  0.0798  2.5156  0.9337
 7642SOL     OW34387   0.219   0.941   9.310 -0.7653 -0.1441 -0.0788
 7642SOL    HW134388   0.177   0.871   9.359 -1.2345 -0.1423 -0.4866
 7642SOL    HW234389   0.166   1.017   9.335 -1.0248 -1.5763  3.6990
 7643SOL     OW34390   3.233   0.204   8.735  0.2261  0.4554  0.2258
 7643SOL    HW134391   3.276   0.126   8.772 -3.5147 -1.2434  0.9677
 7643SOL    HW234392   3.305   0.256   8.698  0.8781  0.0867  0.9644
 7644SOL     OW34393   4.505   4.601   8.352 -0.3909  0.1636 -0.2695
 7644SOL    HW134394   4.598   4.577   8.359  0.0234  1.8575  0.1021
 7644SOL    HW234395   4.496   4.547   8.273 -0.8920  0.4547 -0.4077
 7645SOL     OW34396   2.389   3.253  10.892 -0.0627  0.3448  0.5166
 7645SOL    HW134397   2.355   3.300  10.968  0.2738  0.8638  0.3499
 7645SOL    HW234398   2.350   3.298  10.818 -0.2443  0.7801  0.8805
 7646SOL     OW34399   2.268   4.018   5.575  0.3177  0.4025  0.3318
 7646SOL    HW134400   2.174   4.010   5.591  0.0881  1.1259 -0.6664
 7646SOL    HW234401   2.283   4.095   5.629  1.7418 -0.5402  1.2530
 7647SOL     OW34402   4.084   2.891  16.192  0.0164 -0.1088 -0.3261
 7647SOL    HW134403   4.117   2.928  16.110 -0.3351 -0.9444 -0.8463
 7647SOL    HW234404   4.040   2.969  16.226  1.0043  0.2727  0.0830
 7648SOL     OW34405   1.317   3.259   4.811  0.0887 -0.1985 -0.0885
 7648SOL    HW134406   1.290   3.180   4.858 -1.8840  0.2752 -0.4069
 7648SOL    HW234407   1.373   3.309   4.870  0.2019 -1.2635  0.6962
 7649SOL     OW34408   3.081   1.473   5.001  0.2802 -0.5799 -0.5584
 7649SOL    HW134409   3.140   1.433   5.064  1.7752 -0.4095 -1.8529
 7649SOL    HW234410   3.143   1.497   4.932 -1.1668  1.2464 -1.2305
 7650SOL     OW34411   1.078   3.360  11.256  0.0854 -0.5286 -0.3307
 7650SOL    HW134412   1.062   3.433  11.315  0.3437 -1.3110  0.7092
 7650SOL    HW234413   1.161   3.322  11.284  0.0590 -0.8673 -0.7118
 7651SOL     OW34414   3.452   0.011   6.908 -0.7688 -0.4073  0.0736
 7651SOL    HW134415   3.538   0.019   6.949 -0.9053 -2.0200  0.6566
 7651SOL    HW234416   3.477   4.696   6.823 -1.9743 -0.7751 -0.1217
 7652SOL     OW34417   3.272   1.320   7.993  0.1961  0.0614 -0.1601
 7652SOL    HW134418   3.272   1.404   8.039  0.2704  0.5848 -1.1233
 7652SOL    HW234419   3.179   1.308   7.971 -0.0303  3.1899 -0.9574
 7653SOL     OW34420   2.279   0.877   9.497 -0.4917  0.3833 -0.0983
 7653SOL    HW134421   2.351   0.848   9.440 -0.7300 -1.0308  0.3330
 7653SOL    HW234422   2.205   0.824   9.467 -2.2319  1.7180  1.8316
 7654SOL     OW34423   4.112   2.178  12.709  0.0610  0.2919 -0.1700
 7654SOL    HW134424   4.128   2.105  12.768 -1.5611  0.0379 -0.0372
 7654SOL    HW234425   4.033   2.141  12.668 -0.1387  2.8374 -2.0996
 7655SOL     OW34426   3.079   3.881   4.842  0.3511 -0.5658  0.6891
 7655SOL    HW134427   3.143   3.930   4.894 -0.6572  0.5602  0.8699
 7655SOL    HW234428   3.108   3.791   4.854 -1.6219 -1.4345 -0.9968
 7656SOL     OW34429   2.493   1.680   6.408  0.2248 -0.0063  0.1474
 7656SOL    HW134430   2.480   1.586   6.421  1.1455 -0.2935 -1.0231
 7656SOL    HW234431   2.417   1.697   6.353  0.4607 -1.2218 -0.5636
 7657SOL     OW34432   1.129   2.331   2.209  0.3278 -0.5212 -0.5671
 7657SOL    HW134433   1.178   2.373   2.139 -0.5782  2.6265  0.6954
 7657SOL    HW234434   1.143   2.241   2.181 -0.4265 -1.1536  1.0549
 7658SOL     OW34435   4.420   1.274   4.107 -0.4336  0.3364  0.4439
 7658SOL    HW134436   4.498   1.321   4.080 -1.6233  1.5395 -0.9327
 7658SOL    HW234437   4.357   1.304   4.041 -0.2593 -0.6446 -0.1763
 7659SOL     OW34438   1.716   3.395   5.016  0.4181 -0.6778 -0.1025
 7659SOL    HW134439   1.636   3.419   4.968  0.6627 -2.0907 -1.2041
 7659SOL    HW234440   1.693   3.306   5.040 -0.2404 -0.5344 -0.1987
 7660SOL     OW34441   4.698   1.970   5.254 -0.2280  0.1650  0.5092
 7660SOL    HW134442   0.011   1.948   5.167  0.9924  1.3681  0.6829
 7660SOL    HW234443   4.665   1.884   5.277 -1.1532  0.1259 -0.9409
 7661SOL     OW34444   2.864   1.351   3.943  0.2153  0.2044 -0.3551
 7661SOL    HW134445   2.840   1.442   3.927 -2.0341 -0.0582  1.5727
 7661SOL    HW234446   2.953   1.344   3.909  0.5711 -0.5899  0.7111
 7662SOL     OW34447   4.454   2.637   6.592 -0.3053 -0.0934 -0.2071
 7662SOL    HW134448   4.461   2.544   6.568 -2.2919 -0.5235  0.8998
 7662SOL    HW234449   4.359   2.638   6.586 -0.3235 -0.6278 -0.0295
 7663SOL     OW34450   0.238   2.366   5.520  0.1646 -0.5398  0.2431
 7663SOL    HW134451   0.228   2.312   5.599 -2.3987  1.3989  1.2439
 7663SOL    HW234452   0.146   2.375   5.494  0.4184  0.7071 -0.2271
 7664SOL     OW34453   4.083   4.101   5.541  0.1537  0.6234  0.2758
 7664SOL    HW134454   4.025   4.068   5.610 -0.7426 -1.8767 -1.6948
 7664SOL    HW234455   4.167   4.090   5.585  0.5248  2.1113 -0.0377
 7665SOL     OW34456   0.829   0.899  16.509 -0.0302  0.1473 -0.3700
 7665SOL    HW134457   0.814   0.993  16.500  0.5806  0.3935  1.3398
 7665SOL    HW234458   0.840   0.883  16.603 -2.5784  2.7748  0.3770
 7666SOL     OW34459   0.354   4.452   1.562  0.0501  0.0254  0.1876
 7666SOL    HW134460   0.396   4.486   1.483 -0.9529 -0.4470 -0.5570
 7666SOL    HW234461   0.393   4.366   1.579  0.9688  0.4354  0.1621
 7667SOL     OW34462   1.048   4.107   8.336  0.1830 -0.1995 -1.1030
 7667SOL    HW134463   1.105   4.078   8.265  2.2154  1.5971 -0.2434
 7667SOL    HW234464   1.086   4.050   8.403 -1.5893 -0.6798 -0.5186
 7668SOL     OW34465   0.094   4.438   4.843  0.1484  0.1128 -0.3172
 7668SOL    HW134466   0.004   4.472   4.848 -0.1260 -0.6954  0.2864
 7668SOL    HW234467   0.094   4.375   4.915  1.1742  0.0525 -0.3730
 7669SOL     OW34468   2.468   2.813   4.255 -0.0544  0.5171  0.0849
 7669SOL    HW134469   2.528   2.757   4.304 -0.4661  0.2213  0.2545
 7669SOL    HW234470   2.482   2.897   4.299 -0.2743  0.6317 -0.0668
 7670SOL     OW34471   2.778   0.753  16.351 -0.4047  0.4856  0.3280
 7670SOL    HW134472   2.832   0.742  16.430 -0.2959 -0.0577  0.1771
 7670SOL    HW234473   2.699   0.710  16.381 -1.7112  1.1925 -2.1012
 7671SOL     OW34474   4.310   2.023   5.539 -0.0385 -0.0331  0.3287
 7671SOL    HW134475   4.309   2.074   5.620  1.2724 -0.1280  0.4097
 7671SOL    HW234476   4.230   2.065   5.507 -0.1003 -0.9196 -0.6915
 7672SOL     OW34477   2.866   4.558   9.294 -0.2183  0.2118 -0.3112
 7672SOL    HW134478   2.772   4.578   9.300 -0.2579 -0.2503  0.4781
 7672SOL    HW234479   2.861   4.503   9.216 -1.8608 -1.3002  0.8618
 7673SOL     OW34480   3.160   2.494   0.020  0.2189  0.0972 -0.0401
 7673SOL    HW134481   3.197   2.577   0.048  0.4982 -0.0705  0.0897
 7673SOL    HW234482   3.119   2.481   0.106  0.4879 -0.1133  0.0548
 7674SOL     OW34483   3.470   1.967  12.304 -0.3629 -0.5968 -0.1271
 7674SOL    HW134484   3.400   2.005  12.357  1.2820  3.0058 -0.5257
 7674SOL    HW234485   3.437   1.990  12.217  0.8528 -1.9662 -0.9445
 7675SOL     OW34486   4.458   3.635   5.306  0.3316  0.2170  0.3704
 7675SOL    HW134487   4.485   3.545   5.289 -0.1232  0.1790 -0.1475
 7675SOL    HW234488   4.496   3.644   5.393 -0.6653 -1.0029  0.9373
 7676SOL     OW34489   4.704   0.920  16.414 -0.5408 -0.3691 -0.0037
 7676SOL    HW134490   4.648   0.891  16.342 -0.7031  1.6472 -0.6705
 7676SOL    HW234491   0.069   0.923  16.375 -0.1659  1.6151  0.9886
 7677SOL     OW34492   0.155   4.019   8.081 -0.3296  0.2035 -1.2903
 7677SOL    HW134493   0.110   3.992   8.160  0.3962 -0.2719 -1.0333
 7677SOL    HW234494   0.149   4.114   8.088 -2.4349 -0.0511  0.2608
 7678SOL     OW34495   3.223   3.912   6.814 -0.4088  0.1910 -0.2278
 7678SOL    HW134496   3.164   3.987   6.819 -0.8160 -0.2142  1.0573
 7678SOL    HW234497   3.207   3.856   6.890  0.1743 -1.1272 -1.0752
 7679SOL     OW34498   0.155   1.665   8.194  0.0745  0.5985 -0.2236
 7679SOL    HW134499   0.227   1.712   8.152  0.1407  0.2380 -0.5206
 7679SOL    HW234500   0.196   1.639   8.277 -3.3226  1.1159  1.6005
 7680SOL     OW34501   0.414   3.814  10.873 -0.1978  0.5825 -0.6010
 7680SOL    HW134502   0.410   3.835  10.966  0.4815 -1.8040 -0.0241
 7680SOL    HW234503   0.447   3.900  10.845 -0.3104  0.2348 -1.7867
 7681SOL     OW34504   4.667   1.861  16.482 -0.8669 -0.6722  0.2396
 7681SOL    HW134505   0.003   1.821  16.417 -0.9317  2.2800 -1.6251
 7681SOL    HW234506   4.652   1.778  16.527 -0.6279 -1.2222 -0.6945
 7682SOL     OW34507   3.385   2.014  10.308  0.0539  0.3246 -0.4929
 7682SOL    HW134508   3.375   2.062  10.390  0.9358  0.1513 -0.2850
 7682SOL    HW234509   3.479   2.018  10.295  0.0731  2.2016  0.1895
 7683SOL     OW34510   3.398   2.866  12.941  0.6629  0.2644 -0.5507
 7683SOL    HW134511   3.490   2.889  12.947  1.1088 -1.2811 -1.4783
 7683SOL    HW234512   3.381   2.892  13.032  1.0361 -0.4972 -0.2629
 7684SOL     OW34513   0.716   3.080   2.115 -0.2907 -0.2369  0.0131
 7684SOL    HW134514   0.640   3.104   2.062  0.5658  1.1649 -0.5909
 7684SOL    HW234515   0.727   3.156   2.173  0.5615  0.6404 -1.2904
 7685SOL     OW34516   4.539   2.339   8.180  0.0262  0.1646 -0.3825
 7685SOL    HW134517   4.492   2.391   8.245 -1.7760  0.1308 -1.6496
 7685SOL    HW234518   4.544   2.251   8.216 -1.0321  0.3091  0.1397
 7686SOL     OW34519   3.935   3.472   3.482  0.1270  0.1736 -0.6455
 7686SOL    HW134520   3.840   3.484   3.486  0.2859  1.4936 -0.8356
 7686SOL    HW234521   3.954   3.455   3.574  2.6839  0.5976 -1.0973
 7687SOL     OW34522   1.689   0.782   9.114  0.0535  0.1567  0.2050
 7687SOL    HW134523   1.740   0.717   9.065  0.6021 -1.0657  2.3840
 7687SOL    HW234524   1.732   0.860   9.079 -1.2782  0.2859 -1.1502
 7688SOL     OW34525   3.703   4.202   3.680 -0.1863  0.6338 -0.1750
 7688SOL    HW134526   3.727   4.187   3.589 -2.3008 -0.0233 -0.6240
 7688SOL    HW234527   3.790   4.188   3.719 -1.5942 -1.3414  2.2827
 7689SOL     OW34528   0.331   2.407   1.455  0.0484  0.1168  0.2422
 7689SOL    HW134529   0.367   2.439   1.372  0.4465  0.3670  0.5132
 7689SOL    HW234530   0.386   2.331   1.470 -0.1720  0.4219  2.5622
 7690SOL     OW34531   2.377   1.079   4.914  0.6949 -0.4710  0.4000
 7690SOL    HW134532   2.305   1.018   4.901 -0.5162  1.3903 -1.7157
 7690SOL    HW234533   2.451   1.020   4.928  1.2226  0.6636  2.4628
 7691SOL     OW34534   4.214   3.777   9.772 -0.4423 -0.4105 -0.2661
 7691SOL    HW134535   4.135   3.761   9.721 -1.7328  1.8192  1.0592
 7691SOL    HW234536   4.232   3.685   9.791  1.2355  0.0270  0.2524
 7692SOL     OW34537   4.365   1.771  15.756 -0.5253 -0.2456  0.5954
 7692SOL    HW134538   4.454   1.740  15.767 -0.0216  0.8897 -0.2200
 7692SOL    HW234539   4.353   1.772  15.661  2.7406  1.5690  0.2266
 7693SOL     OW34540   0.539   1.441   9.708  0.0981  0.3911 -0.3794
 7693SOL    HW134541   0.621   1.391   9.708 -1.7751 -2.6470  0.7410
 7693SOL    HW234542   0.509   1.407   9.792 -0.6237  0.6768 -0.5219
 7694SOL     OW34543   2.773   2.747   6.390  0.4136 -0.4593 -0.2792
 7694SOL    HW134544   2.815   2.792   6.464 -1.1111  1.7981 -0.8010
 7694SOL    HW234545   2.823   2.781   6.316  2.1015  0.7924  1.4316
 7695SOL     OW34546   4.668   0.073   5.416 -0.4635 -0.4787 -0.2415
 7695SOL    HW134547   4.616   4.714   5.414  1.7180 -1.9014  0.1340
 7695SOL    HW234548   4.664   0.092   5.510 -1.0696 -0.3355 -0.2934
 7696SOL     OW34549   4.352   2.488   3.375  0.0305  0.0583 -0.7808
 7696SOL    HW134550   4.346   2.494   3.280 -2.4402  0.3382 -0.6098
 7696SOL    HW234551   4.343   2.581   3.396 -1.7044 -0.1598 -0.5460
 7697SOL     OW34552   1.811   4.152   6.461 -0.5549  0.1383 -0.1277
 7697SOL    HW134553   1.819   4.112   6.548  1.2125 -0.2327 -0.4661
 7697SOL    HW234554   1.733   4.110   6.424 -0.9086  0.6805  0.0048
 7698SOL     OW34555   2.122   3.634   3.689  0.0491 -0.3351  0.4514
 7698SOL    HW134556   2.143   3.552   3.644  0.2855 -0.7867  1.3785
 7698SOL    HW234557   2.160   3.621   3.776  1.5567  0.7148 -0.0434
 7699SOL     OW34558   0.999   3.199   2.206 -1.0293  0.2303  0.1824
 7699SOL    HW134559   0.917   3.236   2.238  0.8376  2.8081  2.0156
 7699SOL    HW234560   1.054   3.278   2.199 -1.1093  0.2578 -0.1396
 7700SOL     OW34561   4.377   4.001   4.203  0.7839  0.5940 -0.3130
 7700SOL    HW134562   4.444   3.944   4.241 -0.6866  0.0353  1.4794
 7700SOL    HW234563   4.293   3.959   4.221  1.5401  0.4025  2.8490
 7701SOL     OW34564   1.343   1.418  12.430  0.0363 -0.3341  0.7264
 7701SOL    HW134565   1.359   1.494  12.375 -0.2976 -0.7412  0.0653
 7701SOL    HW234566   1.250   1.420  12.409 -0.1261  1.2282  1.5659
 7702SOL     OW34567   3.995   1.000  17.435 -0.2350  0.1439 -0.2674
 7702SOL    HW134568   4.069   1.048  17.396  0.4297 -0.6280  0.0349
 7702SOL    HW234569   3.925   1.058  17.407 -3.6783 -2.7998  2.2323
 7703SOL     OW34570   0.080   2.654   4.439  0.2233 -0.5085  0.1773
 7703SOL    HW134571   0.102   2.601   4.362 -0.2079  0.9915 -0.9627
 7703SOL    HW234572   0.161   2.675   4.486 -0.8394  1.9624  0.9125
 7704SOL     OW34573   1.596   3.338   1.075 -0.1300  0.3469 -0.2021
 7704SOL    HW134574   1.652   3.282   1.128 -1.5592 -0.2409  0.7080
 7704SOL    HW234575   1.517   3.284   1.070 -0.1925  0.3851  0.3342
 7705SOL     OW34576   2.234   1.850  13.710  0.4042  0.0591  0.3363
 7705SOL    HW134577   2.328   1.864  13.719  0.0996  1.9104  0.7592
 7705SOL    HW234578   2.208   1.939  13.735 -1.4223 -1.8010  5.1531
 7706SOL     OW34579   0.067   3.586   8.144  0.1826  0.4957  1.0449
 7706SOL    HW134580   0.002   3.556   8.081  1.8207  0.9095 -0.8252
 7706SOL    HW234581   0.119   3.651   8.096 -0.1583  0.3754  0.5080
 7707SOL     OW34582   3.197   3.867  15.486  0.5396 -0.1860  0.1784
 7707SOL    HW134583   3.214   3.961  15.479 -0.7252 -0.2588 -3.6243
 7707SOL    HW234584   3.174   3.842  15.397 -0.5678  0.8544  0.1594
 7708SOL     OW34585   1.049   4.606   3.729  0.6431 -0.2910 -0.0836
 7708SOL    HW134586   1.136   4.603   3.687  0.9497 -0.2323  0.5521
 7708SOL    HW234587   0.992   4.615   3.652  1.8053 -1.6827 -1.1163
 7709SOL     OW34588   3.130   0.527   0.424  0.3287  0.5717 -0.3836
 7709SOL    HW134589   3.212   0.537   0.376  0.1208 -1.5824 -1.2043
 7709SOL    HW234590   3.112   0.433   0.413  0.8424  0.6477 -1.8200
 7710SOL     OW34591   3.393   4.074   3.054 -0.0415  0.1683  0.0450
 7710SOL    HW134592   3.318   4.035   3.009 -0.0118  1.8985 -1.4912
 7710SOL    HW234593   3.350   4.112   3.132  2.4017  1.9597  0.4993
 7711SOL     OW34594   2.102   4.545   7.258 -0.2320  0.3351 -0.4150
 7711SOL    HW134595   2.073   4.463   7.298  1.0188  0.3421  0.5176
 7711SOL    HW234596   2.184   4.569   7.302  0.4432 -3.0159  0.1233
 7712SOL     OW34597   1.934   0.884  17.033 -0.4523  0.0437  0.4936
 7712SOL    HW134598   2.011   0.903  17.087 -1.0149  0.4633  1.1515
 7712SOL    HW234599   1.864   0.919  17.087 -0.1499  1.7794 -0.2353
 7713SOL     OW34600   0.068   2.006   0.534  0.5150  0.0492  0.4639
 7713SOL    HW134601   0.073   1.913   0.513 -0.4095  0.3003 -0.8730
 7713SOL    HW234602   4.697   2.019   0.553  0.7829  3.4369 -0.5395
 7714SOL     OW34603   3.089   4.556   7.702 -0.0475  0.2700  0.3758
 7714SOL    HW134604   3.153   4.516   7.643 -1.5834  0.6793 -1.5846
 7714SOL    HW234605   3.027   4.484   7.695  0.9444 -0.6299  0.9636
 7715SOL     OW34606   2.543   4.168   5.520 -0.2769 -0.2033  0.2896
 7715SOL    HW134607   2.447   4.161   5.518 -0.1642 -1.8845  0.2671
 7715SOL    HW234608   2.562   4.095   5.460  2.7671 -0.8724  2.0641
 7716SOL     OW34609   2.414   1.721  14.836 -0.5952 -0.0470 -0.1444
 7716SOL    HW134610   2.478   1.750  14.770 -2.3410  0.2221 -1.7092
 7716SOL    HW234611   2.439   1.630  14.853  1.7855  0.6836  0.3163
 7717SOL     OW34612   1.866   2.381   3.268 -0.5861  0.6401  0.1881
 7717SOL    HW134613   1.889   2.420   3.183  1.6487 -0.5458  0.2544
 7717SOL    HW234614   1.772   2.395   3.276 -1.0534 -1.4689 -1.5248
 7718SOL     OW34615   3.890   1.208   7.844  0.0503  0.3621 -0.1854
 7718SOL    HW134616   3.848   1.251   7.918  1.0515  0.2280  0.4702
 7718SOL    HW234617   3.837   1.132   7.820  0.0363  0.1033  0.6556
 7719SOL     OW34618   0.237   3.396   4.406 -0.5651 -0.3414  0.0737
 7719SOL    HW134619   0.209   3.402   4.315  1.1479  1.6708 -0.3430
 7719SOL    HW234620   0.260   3.489   4.415  0.3380 -0.4499 -1.1168
 7720SOL     OW34621   2.038   2.340   5.258 -0.1072  0.3828 -0.2789
 7720SOL    HW134622   1.956   2.294   5.274  1.2079 -2.2062 -0.9399
 7720SOL    HW234623   2.063   2.344   5.351 -1.8547 -0.1249  0.2080
 7721SOL     OW34624   4.237   4.309   1.801  0.0006  0.0293 -0.2958
 7721SOL    HW134625   4.254   4.337   1.711  0.7378 -1.4691 -0.6230
 7721SOL    HW234626   4.162   4.364   1.823  1.4685  1.3492  1.4112
 7722SOL     OW34627   4.298   2.210   5.865 -0.1032 -0.6519  0.1735
 7722SOL    HW134628   4.231   2.192   5.930 -1.9152  1.8012 -1.0237
 7722SOL    HW234629   4.376   2.197   5.919 -0.0138  1.4166  0.5326
 7723SOL     OW34630   2.976   4.024   2.634 -0.1034  0.0803  0.2268
 7723SOL    HW134631   3.052   3.969   2.617  0.1481  1.1747 -2.2127
 7723SOL    HW234632   2.908   3.967   2.598  1.4150 -2.3578  1.2954
 7724SOL     OW34633   2.967   0.088   7.663 -0.0894 -0.1743 -0.3806
 7724SOL    HW134634   3.029   0.128   7.725 -1.8548  0.1868  1.1495
 7724SOL    HW234635   3.003   4.721   7.660 -3.2873 -1.3812 -2.3443
 7725SOL     OW34636   0.978   0.744   4.458 -0.1648  0.2093 -0.0878
 7725SOL    HW134637   1.010   0.767   4.371 -2.3462  2.2635 -0.3303
 7725SOL    HW234638   1.053   0.689   4.482  0.4532  1.1994  0.2597
 7726SOL     OW34639   2.327   0.797   6.706  1.0927 -0.5142  0.0391
 7726SOL    HW134640   2.254   0.736   6.691  1.8956 -0.9485 -2.1631
 7726SOL    HW234641   2.386   0.744   6.758  0.3371  0.0159  1.4317
 7727SOL     OW34642   2.667   4.383  15.557  0.3693 -0.2924  0.0951
 7727SOL    HW134643   2.625   4.321  15.497  1.5791 -1.3369  0.3327
 7727SOL    HW234644   2.597   4.449  15.567 -0.9854 -1.7142  0.0170
 7728SOL     OW34645   0.595   4.153   5.486  0.9004 -0.0750 -0.4132
 7728SOL    HW134646   0.582   4.213   5.559  2.2874  0.8549 -0.9275
 7728SOL    HW234647   0.507   4.117   5.475 -0.5423  3.1297  0.9920
 7729SOL     OW34648   3.377   1.296   2.213 -0.0019 -0.1459 -0.2456
 7729SOL    HW134649   3.440   1.359   2.179  0.5013 -0.4056  0.2117
 7729SOL    HW234650   3.423   1.213   2.227  1.1150  0.7322  1.2134
 7730SOL     OW34651   1.153   3.717   9.080  0.3617 -0.1279 -0.1974
 7730SOL    HW134652   1.182   3.804   9.052  0.3662 -0.0370  0.0860
 7730SOL    HW234653   1.137   3.726   9.174  0.0524 -1.4729 -0.1170
 7731SOL     OW34654   4.558   3.613   5.830 -0.2345 -0.0073 -0.0163
 7731SOL    HW134655   4.511   3.555   5.770  2.7461 -3.2972  0.8115
 7731SOL    HW234656   4.530   3.578   5.914  1.2859 -1.3861 -0.1000
 7732SOL     OW34657   3.874   0.580   6.865 -0.1299  0.2336 -0.2502
 7732SOL    HW134658   3.811   0.646   6.894 -1.4314  0.4402 -3.6139
 7732SOL    HW234659   3.809   0.523   6.822 -1.8513  3.1149 -1.4655
 7733SOL     OW34660   1.093   2.920   7.416  0.3359 -0.6148 -0.2186
 7733SOL    HW134661   1.112   3.006   7.378 -0.6960 -0.5527 -0.5864
 7733SOL    HW234662   1.175   2.896   7.458  0.0265  0.3231  0.9218
 7734SOL     OW34663   0.536   2.515   8.554 -0.0241 -0.2289 -0.3243
 7734SOL    HW134664   0.600   2.553   8.495  4.2623  0.3205  4.7216
 7734SOL    HW234665   0.595   2.474   8.617 -1.3427  0.5789  1.4419
 7735SOL     OW34666   1.868   0.900   7.037 -0.6693 -0.5661 -0.3796
 7735SOL    HW134667   1.947   0.904   6.983 -0.7336  0.3053 -0.4054
 7735SOL    HW234668   1.822   0.978   7.006 -0.9474 -0.7963 -0.5508
 7736SOL     OW34669   2.162   0.711   7.402  0.2448 -0.3423  0.1226
 7736SOL    HW134670   2.158   0.788   7.345  1.3625  0.0426  0.5609
 7736SOL    HW234671   2.092   0.657   7.365  0.9462  0.3798 -2.2524
 7737SOL     OW34672   2.903   3.618  17.525  0.1730 -0.6567 -0.1781
 7737SOL    HW134673   2.924   3.526  17.506  0.0220 -0.8039  0.3769
 7737SOL    HW234674   2.818   3.607  17.568  1.5485  1.3608  2.9735
 7738SOL     OW34675   2.296   3.311  16.220 -0.1474  0.1659  0.0568
 7738SOL    HW134676   2.302   3.217  16.203 -0.9376  0.2578 -0.7546
 7738SOL    HW234677   2.221   3.311  16.281 -0.9477 -2.6172 -0.9300
 7739SOL     OW34678   2.902   3.383  14.246  0.6177  0.2448  0.6435
 7739SOL    HW134679   2.948   3.465  14.229 -2.0634  1.5828  0.0037
 7739SOL    HW234680   2.960   3.320  14.202 -0.8927 -0.7683  0.0804
 7740SOL     OW34681   0.797   2.706   0.372  0.0884  0.9488  0.2079
 7740SOL    HW134682   0.864   2.770   0.346 -1.1422  2.0859 -0.1788
 7740SOL    HW234683   0.820   2.672   0.458 -0.2116  1.5690  0.5399
 7741SOL     OW34684   3.207   3.727   6.410 -0.1481  0.2836 -0.3149
 7741SOL    HW134685   3.144   3.721   6.481  1.8065 -0.8002  1.3087
 7741SOL    HW234686   3.174   3.803   6.361 -2.0643  0.6681  1.5549
 7742SOL     OW34687   0.346   2.064   5.898  0.1545  0.3760 -0.0459
 7742SOL    HW134688   0.288   2.124   5.851  0.5488  2.8173  2.5706
 7742SOL    HW234689   0.279   2.003   5.930 -0.0659  0.5091 -0.2544
 7743SOL     OW34690   1.292   0.872   4.704  0.5676 -0.1081 -0.5261
 7743SOL    HW134691   1.282   0.934   4.777 -1.2400 -0.1176 -0.7695
 7743SOL    HW234692   1.253   0.792   4.738 -0.2865 -0.0618 -1.4142
 7744SOL     OW34693   2.023   3.590   4.876 -0.2442 -0.4327 -0.1742
 7744SOL    HW134694   2.019   3.504   4.920  3.0327 -0.5625 -0.1734
 7744SOL    HW234695   1.982   3.562   4.794  1.4508  1.2039 -1.5518
 7745SOL     OW34696   0.132   4.025   2.458 -0.2326 -0.2969 -0.1614
 7745SOL    HW134697   0.190   4.100   2.468  1.3002 -1.3432 -1.1443
 7745SOL    HW234698   0.172   3.956   2.510  0.1531 -0.8336 -1.1717
 7746SOL     OW34699   3.300   2.159   3.921  0.0602  0.5417  0.0299
 7746SOL    HW134700   3.284   2.196   3.834 -1.6300 -0.5538 -0.1357
 7746SOL    HW234701   3.230   2.096   3.902 -1.9101  2.1897  1.9317
 7747SOL     OW34702   4.123   2.231   8.435  0.2309  0.3641  0.0400
 7747SOL    HW134703   4.059   2.299   8.455 -0.0839  0.3346 -0.8514
 7747SOL    HW234704   4.156   2.249   8.347  0.1305  0.6633  0.0651
 7748SOL     OW34705   3.883   1.969   7.679 -0.3991 -0.3737  0.3049
 7748SOL    HW134706   3.898   1.920   7.598  1.2814 -1.9143  1.5409
 7748SOL    HW234707   3.797   1.938   7.706 -0.5856  0.3192  0.4826
 7749SOL     OW34708   4.164   0.569   1.550 -0.7602 -0.2975  0.0521
 7749SOL    HW134709   4.165   0.578   1.645  1.1653  1.3946 -0.1274
 7749SOL    HW234710   4.119   0.487   1.529  0.4765 -1.6740  2.7804
 7750SOL     OW34711   2.036   3.756   8.197  0.0876  0.2969  0.3260
 7750SOL    HW134712   2.087   3.830   8.165 -1.8662  0.5433 -2.2339
 7750SOL    HW234713   1.943   3.781   8.193  0.1758  0.4174 -1.2137
 7751SOL     OW34714   3.346   0.671   5.844  0.1763 -0.0562 -0.5154
 7751SOL    HW134715   3.297   0.753   5.835  0.3111  0.0043 -0.7011
 7751SOL    HW234716   3.271   0.615   5.865  0.4379 -0.0204  0.4798
 7752SOL     OW34717   2.369   1.395   6.664 -0.0759 -0.5004 -0.6971
 7752SOL    HW134718   2.401   1.424   6.579  2.9178  1.8531  1.2481
 7752SOL    HW234719   2.276   1.404   6.643  0.7177  0.9044 -3.6133
 7753SOL     OW34720   0.920   1.010   5.473  0.0375  0.3854 -0.4304
 7753SOL    HW134721   0.913   0.938   5.410 -0.6689  0.5066 -0.4940
 7753SOL    HW234722   1.005   1.038   5.439  0.0980 -0.2429 -0.8130
 7754SOL     OW34723   2.902   0.850   8.927  0.2242 -0.1929  0.7287
 7754SOL    HW134724   2.977   0.806   8.966  0.6351 -0.4301 -0.3243
 7754SOL    HW234725   2.887   0.929   8.978  1.3072 -0.7516  1.8992
 7755SOL     OW34726   0.351   2.732   5.628 -0.1305  0.1351 -0.6866
 7755SOL    HW134727   0.345   2.683   5.546  1.5663 -0.6045 -0.3494
 7755SOL    HW234728   0.362   2.824   5.602 -0.0764 -0.0688 -1.3883
 7756SOL     OW34729   3.695   1.070   8.016  0.2287 -1.0016 -0.3454
 7756SOL    HW134730   3.738   1.129   8.078  1.5924 -1.2555 -1.0466
 7756SOL    HW234731   3.606   1.078   8.052  0.2955 -0.6665 -0.2557
 7757SOL     OW34732   0.640   4.563   9.195 -0.0101 -0.3258 -0.1748
 7757SOL    HW134733   0.660   4.542   9.104  2.1622  0.4545  0.1103
 7757SOL    HW234734   0.597   4.648   9.191  0.7807 -0.0333 -2.3196
 7758SOL     OW34735   4.190   4.135   8.384  0.4317 -0.2985  0.9199
 7758SOL    HW134736   4.110   4.176   8.416 -1.4383 -2.2305 -1.2454
 7758SOL    HW234737   4.233   4.093   8.459 -1.9377 -0.9194  1.9260
 7759SOL     OW34738   1.591   4.110  17.494  0.2188  0.3746  0.0253
 7759SOL    HW134739   1.586   4.192  17.445 -0.2436  0.3562  0.0355
 7759SOL    HW234740   1.684   4.090  17.484  0.5211  0.7954  1.9989
 7760SOL     OW34741   2.757   3.321   1.388 -0.2583 -0.0963 -0.2821
 7760SOL    HW134742   2.715   3.394   1.342  1.4668  0.8116 -0.4031
 7760SOL    HW234743   2.768   3.345   1.479 -0.1231 -2.0685  0.2218
 7761SOL     OW34744   2.815   2.430  17.281 -0.4571 -0.4171  0.0546
 7761SOL    HW134745   2.795   2.489  17.353 -1.0260  0.8322 -1.1344
 7761SOL    HW234746   2.834   2.350  17.330  0.6522 -0.0081  0.2929
 7762SOL     OW34747   2.793   0.985   0.318  0.1466  0.0071  0.5452
 7762SOL    HW134748   2.765   1.075   0.337  0.2905  0.6615 -2.3179
 7762SOL    HW234749   2.874   1.004   0.271 -0.8170  0.6098 -0.8729
 7763SOL     OW34750   0.240   0.928   7.767  0.6856 -0.2763 -0.1587
 7763SOL    HW134751   0.307   0.996   7.775 -2.1662  2.4691  0.1710
 7763SOL    HW234752   0.255   0.907   7.675 -0.4892 -0.7936 -0.2292
 7764SOL     OW34753   3.562   2.361  12.249  0.3444 -0.3147 -0.0082
 7764SOL    HW134754   3.479   2.340  12.205  1.4166  0.1271 -2.2397
 7764SOL    HW234755   3.617   2.310  12.190  0.5936  1.4227 -1.2598
 7765SOL     OW34756   1.468   1.676   5.642 -0.3336 -0.4641 -0.5529
 7765SOL    HW134757   1.476   1.735   5.567  1.2854 -2.9979 -2.3581
 7765SOL    HW234758   1.388   1.714   5.678  1.2905  0.8054  1.7403
 7766SOL     OW34759   4.612   1.690  15.094 -0.3752 -0.5858 -0.0366
 7766SOL    HW134760   4.658   1.625  15.147  0.4989  0.0195 -0.0541
 7766SOL    HW234761   4.653   1.762  15.142  1.9454 -2.0611  0.1598
 7767SOL     OW34762   2.127   0.609   8.388  0.1795 -0.1079 -0.5582
 7767SOL    HW134763   2.113   0.696   8.351  0.6627  0.4569  0.5703
 7767SOL    HW234764   2.187   0.649   8.452  1.5419  2.3216 -3.3481
 7768SOL     OW34765   3.656   1.329   2.015 -0.2399  0.2181 -0.2615
 7768SOL    HW134766   3.647   1.309   1.922  0.0258  0.6224 -0.3719
 7768SOL    HW234767   3.746   1.361   2.017  0.1277 -0.8726  1.0277
 7769SOL     OW34768   2.255   3.596   7.486 -0.1906 -0.3457 -0.7816
 7769SOL    HW134769   2.262   3.571   7.578  3.4184  1.2250 -0.6081
 7769SOL    HW234770   2.173   3.646   7.487  0.8262  1.3349  0.7502
 7770SOL     OW34771   0.189   1.892  13.662 -0.2655  0.2416  0.2295
 7770SOL    HW134772   0.184   1.979  13.623 -2.0144 -0.1853 -0.4815
 7770SOL    HW234773   0.232   1.844  13.591 -0.2241  0.1540  0.3146
 7771SOL     OW34774   4.406   1.618   9.253 -0.0525  0.4665 -0.2532
 7771SOL    HW134775   4.377   1.554   9.317  0.3834  0.1233 -0.3964
 7771SOL    HW234776   4.387   1.701   9.297  2.3655 -0.2577  2.1516
 7772SOL     OW34777   0.102   2.777  15.625  0.8166  0.1869  0.1161
 7772SOL    HW134778   0.127   2.863  15.659 -0.4093  0.3517  0.6011
 7772SOL    HW234779   0.164   2.749  15.558 -0.1006 -0.6297 -0.4012
 7773SOL     OW34780   4.166   0.205  14.869  0.2241 -0.4466  0.0746
 7773SOL    HW134781   4.100   0.198  14.800 -0.1696  0.8330  0.3269
 7773SOL    HW234782   4.120   0.148  14.930  0.5205 -1.3570 -0.5601
 7774SOL     OW34783   0.308   2.111   4.825 -0.4337 -0.1201  0.6283
 7774SOL    HW134784   0.295   2.017   4.830  0.3526 -0.3441 -1.4806
 7774SOL    HW234785   0.337   2.140   4.911 -2.2963  0.8398  0.9490
 7775SOL     OW34786   0.845   4.521  13.249  0.3951 -0.4821 -0.3492
 7775SOL    HW134787   0.879   4.599  13.206  0.2131 -1.0559 -1.5123
 7775SOL    HW234788   0.922   4.477  13.285  2.9156  2.1596 -2.6440
 7776SOL     OW34789   2.354   3.790   0.280 -0.5295  0.5220 -0.6360
 7776SOL    HW134790   2.383   3.880   0.290  3.7648 -0.5473 -3.4031
 7776SOL    HW234791   2.340   3.775   0.374 -2.3428 -0.8172 -1.1151
 7777SOL     OW34792   0.968   3.144  12.176 -0.6596 -0.2707  0.3703
 7777SOL    HW134793   1.021   3.208  12.224  1.0763 -1.1790 -0.3469
 7777SOL    HW234794   0.918   3.095  12.241  2.8814 -1.6347  2.0829
 7778SOL     OW34795   2.781   4.674  14.801  0.0384  0.0213 -0.3959
 7778SOL    HW134796   2.766   4.581  14.788  1.0051 -0.2815  0.6854
 7778SOL    HW234797   2.696   4.707  14.833  0.8440  2.7187 -1.0608
 7779SOL     OW34798   1.749   4.625   2.709 -0.0202 -0.2938  0.0584
 7779SOL    HW134799   1.781   4.569   2.780  0.1211 -1.7303 -1.1426
 7779SOL    HW234800   1.829   4.670   2.683 -0.3839  0.6570  0.5938
 7780SOL     OW34801   0.993   3.580   8.380 -0.0446 -0.7706 -0.0135
 7780SOL    HW134802   1.019   3.558   8.290 -1.5439  0.6865 -0.7838
 7780SOL    HW234803   0.939   3.504   8.402 -0.9788 -0.1334 -0.1573
 7781SOL     OW34804   1.183   2.304   7.259 -0.4478 -0.0165  0.3178
 7781SOL    HW134805   1.160   2.373   7.197 -1.4116  0.4772  1.2463
 7781SOL    HW234806   1.162   2.354   7.338  1.5993 -0.2208  0.9879
 7782SOL     OW34807   2.853   4.256   2.720 -0.2976 -0.5048 -0.2403
 7782SOL    HW134808   2.889   4.174   2.685  1.0127  0.5908 -1.4888
 7782SOL    HW234809   2.768   4.230   2.685 -0.4139  2.1105 -1.9274
 7783SOL     OW34810   2.810   0.864   5.207  0.2098 -0.0948 -0.5252
 7783SOL    HW134811   2.720   0.895   5.198 -0.4036 -1.5262  0.5787
 7783SOL    HW234812   2.849   0.930   5.263  0.4909  1.8993 -3.0634
 7784SOL     OW34813   3.418   3.581   5.756 -0.5183  0.3744 -0.4666
 7784SOL    HW134814   3.433   3.568   5.663  1.4481  0.1971 -0.1254
 7784SOL    HW234815   3.400   3.492   5.789  1.5504  0.2097  0.2160
 7785SOL     OW34816   2.622   3.480   5.638  0.4160  0.0357  0.1431
 7785SOL    HW134817   2.566   3.496   5.713 -0.1453  0.4885 -0.3799
 7785SOL    HW234818   2.696   3.445   5.689  0.2585 -0.9154 -0.2774
 7786SOL     OW34819   1.542   0.769   5.217 -0.2349  0.3581  0.2584
 7786SOL    HW134820   1.596   0.840   5.253  2.5048 -0.6953 -1.7524
 7786SOL    HW234821   1.489   0.815   5.153  0.9590  0.7766 -0.4331
 7787SOL     OW34822   4.145   1.931  13.956 -1.1052 -0.4275 -0.3488
 7787SOL    HW134823   4.154   2.018  13.995  0.3791 -0.6654 -0.1578
 7787SOL    HW234824   4.130   1.964  13.868  0.0082  0.8058 -0.0759
 7788SOL     OW34825   4.468   3.310  14.763  0.3857 -0.3656 -0.2971
 7788SOL    HW134826   4.450   3.284  14.853 -0.0648  0.9487 -0.0109
 7788SOL    HW234827   4.548   3.363  14.769 -0.6218  1.1687 -0.2697
 7789SOL     OW34828   2.273   1.438   5.837  0.2429  1.3218  0.2633
 7789SOL    HW134829   2.186   1.478   5.840 -1.2796 -1.8785 -1.9544
 7789SOL    HW234830   2.293   1.420   5.928  2.0435  0.1404 -0.3744
 7790SOL     OW34831   2.330   4.276   6.132  0.1015  0.4499 -0.3357
 7790SOL    HW134832   2.251   4.289   6.080  0.4201  3.7507 -0.0406
 7790SOL    HW234833   2.312   4.199   6.185  1.9235  0.6427  0.5625
 7791SOL     OW34834   2.269   3.109  11.290  0.2888  0.0802  0.0459
 7791SOL    HW134835   2.339   3.139  11.233 -1.1615  1.0454 -1.2494
 7791SOL    HW234836   2.319   3.075  11.364  0.2825 -1.7736 -0.7800
 7792SOL     OW34837   4.627   4.126   9.548  0.5754 -0.2513  0.0311
 7792SOL    HW134838   4.707   4.178   9.551  0.4637 -0.1029  0.4555
 7792SOL    HW234839   4.580   4.166   9.622  1.0891 -3.5091  2.1080
 7793SOL     OW34840   0.396   4.090  11.312 -0.0685  0.2243 -0.1045
 7793SOL    HW134841   0.353   4.174  11.293 -1.3126 -0.1313  1.1490
 7793SOL    HW234842   0.374   4.029  11.241 -2.2489  1.8124 -0.7984
 7794SOL     OW34843   0.616   4.469   8.024 -0.2759  0.3306 -0.1723
 7794SOL    HW134844   0.527   4.437   8.040  1.0677 -3.4137 -0.2556
 7794SOL    HW234845   0.657   4.443   8.106  0.7101 -2.0365 -1.4170
 7795SOL     OW34846   2.364   0.773   6.260  0.2317  0.5280 -0.4502
 7795SOL    HW134847   2.271   0.786   6.243  0.3528 -1.4594 -2.6878
 7795SOL    HW234848   2.397   0.859   6.286  1.8037  0.5829 -2.6285
 7796SOL     OW34849   3.095   2.511   8.022  0.0082  0.2134  0.2565
 7796SOL    HW134850   3.016   2.459   8.034  0.1628 -0.2156 -0.5557
 7796SOL    HW234851   3.115   2.526   8.114 -1.3702 -1.9374  0.8902
 7797SOL     OW34852   3.065   4.560   6.551  0.2937 -0.2559 -0.1120
 7797SOL    HW134853   3.007   4.604   6.488 -1.6490 -1.9512  0.5125
 7797SOL    HW234854   3.119   4.499   6.500 -1.3821 -0.1781 -1.9643
 7798SOL     OW34855   0.012   0.874  12.121  0.0705  0.1268  0.0161
 7798SOL    HW134856   0.093   0.884  12.170  0.0037 -1.5720  0.4667
 7798SOL    HW234857   4.710   0.964  12.096 -0.5172 -0.8331 -2.8890
 7799SOL     OW34858   2.055   1.268   4.597  0.0504  0.0475  0.2582
 7799SOL    HW134859   2.037   1.238   4.507  1.7615  0.5793 -0.2539
 7799SOL    HW234860   2.146   1.291   4.578 -0.3863 -0.0908 -2.0974
 7800SOL     OW34861   3.937   2.084   9.479  0.1522 -0.0734  0.6602
 7800SOL    HW134862   3.974   2.163   9.520  0.0950  0.9620 -1.2534
 7800SOL    HW234863   3.847   2.118   9.480  0.2977  0.2604  1.7256
 7801SOL     OW34864   4.655   3.542   3.759  0.0296  0.5784  0.0798
 7801SOL    HW134865   4.626   3.494   3.681  0.8078  0.9823 -0.4630
 7801SOL    HW234866   4.683   3.619   3.710 -0.2451  0.4406 -0.2909
 7802SOL     OW34867   1.327   4.244   9.119 -0.2413 -0.3393  0.3177
 7802SOL    HW134868   1.321   4.205   9.206  1.3791 -4.1822 -1.2730
 7802SOL    HW234869   1.274   4.323   9.129  1.4326  0.9246 -1.0497
 7803SOL     OW34870   0.857   1.696  11.676 -0.1213  0.0432  0.2058
 7803SOL    HW134871   0.894   1.760  11.615 -0.0491  0.0883  0.2970
 7803SOL    HW234872   0.842   1.745  11.756  1.2054 -1.5570  1.4266
 7804SOL     OW34873   2.771   1.684   6.439 -0.2392  0.5743  0.1090
 7804SOL    HW134874   2.817   1.694   6.356  0.1257 -1.7713  0.0397
 7804SOL    HW234875   2.680   1.698   6.413  0.4598  2.1610 -1.4433
 7805SOL     OW34876   4.259   2.027  15.181 -0.3352 -0.5165  0.3648
 7805SOL    HW134877   4.247   2.093  15.113  0.9208 -2.6768 -1.9203
 7805SOL    HW234878   4.186   1.975  15.147 -1.0167  1.7668 -1.6536
 7806SOL     OW34879   3.482   3.434  15.845 -0.4411 -0.1812  0.0349
 7806SOL    HW134880   3.388   3.416  15.857 -0.4582  0.1950  0.4516
 7806SOL    HW234881   3.504   3.364  15.783  2.1148 -1.1780  2.0941
 7807SOL     OW34882   2.743   0.141   3.365  0.5199  0.7955 -0.2955
 7807SOL    HW134883   2.785   0.100   3.288 -0.4408  0.5032 -0.6592
 7807SOL    HW234884   2.734   0.231   3.335 -2.4221  1.1718  1.7262
 7808SOL     OW34885   3.274   0.954   2.328  0.7069 -0.0788  0.0237
 7808SOL    HW134886   3.240   0.903   2.401  1.9094  1.0643  1.4031
 7808SOL    HW234887   3.336   1.011   2.376  2.1190 -2.7901  1.4379
 7809SOL     OW34888   2.856   0.739   9.330  0.0162  0.1909  0.6560
 7809SOL    HW134889   2.851   0.660   9.385 -0.1694 -0.0306  0.3252
 7809SOL    HW234890   2.764   0.767   9.337 -0.4542 -0.3824 -3.6232
 7810SOL     OW34891   1.502   4.658   2.606  0.3328  0.2649  0.7080
 7810SOL    HW134892   1.593   4.647   2.633  0.9993  0.1774 -1.5861
 7810SOL    HW234893   1.497   4.618   2.519  0.0240 -0.2356  0.9587
 7811SOL     OW34894   4.502   1.859   6.711 -0.3756 -0.0065  0.2359
 7811SOL    HW134895   4.460   1.871   6.796 -0.0497 -1.5684  0.6261
 7811SOL    HW234896   4.589   1.831   6.738 -1.1193 -2.6714 -0.1223
 7812SOL     OW34897   2.455   1.367  10.043 -0.1467  0.3733 -0.2247
 7812SOL    HW134898   2.415   1.350  10.128 -0.4650  2.6570  0.0790
 7812SOL    HW234899   2.397   1.341   9.972  0.2672 -2.1258  0.3648
 7813SOL     OW34900   3.825   1.338  14.365  0.0357  0.0983 -0.0505
 7813SOL    HW134901   3.796   1.282  14.436 -1.2832 -1.4909 -1.8464
 7813SOL    HW234902   3.817   1.279  14.290 -2.9320  0.5356 -0.0831
 7814SOL     OW34903   0.283   3.872   3.589 -0.0333 -0.2177  0.3377
 7814SOL    HW134904   0.309   3.963   3.572  3.0973 -0.7445  2.4725
 7814SOL    HW234905   0.322   3.867   3.676  1.9713  0.6030 -0.5133
 7815SOL     OW34906   4.478   1.943   3.900  0.0450  0.3090  0.2220
 7815SOL    HW134907   4.474   1.905   3.988 -1.8888  0.1702  0.0787
 7815SOL    HW234908   4.560   1.903   3.871 -1.0624 -1.9948  0.2567
 7816SOL     OW34909   1.958   3.908   2.276 -0.3749  0.2750 -0.0181
 7816SOL    HW134910   1.918   3.936   2.358 -2.2194  1.2164 -1.2368
 7816SOL    HW234911   1.947   3.991   2.230 -0.4998  0.0401 -0.4143
 7817SOL     OW34912   2.301   2.650   6.228 -0.2009  0.3255 -0.2143
 7817SOL    HW134913   2.370   2.591   6.199  1.0698  1.9218 -0.4354
 7817SOL    HW234914   2.306   2.723   6.166  0.7040  1.8951  1.6911
 7818SOL     OW34915   0.410   1.794   8.147 -0.1710  0.2283 -0.8327
 7818SOL    HW134916   0.411   1.849   8.226 -0.4501  0.1514 -0.7766
 7818SOL    HW234917   0.400   1.855   8.075  2.0894  0.2463 -1.1566
 7819SOL     OW34918   0.852   0.951   6.910 -0.1688  0.3569 -0.4668
 7819SOL    HW134919   0.869   0.895   6.987 -2.4994  1.5799  0.9419
 7819SOL    HW234920   0.937   0.992   6.893 -0.0740  0.0230 -0.7970
 7820SOL     OW34921   0.463   2.541   2.712  0.0831  0.0823 -0.0041
 7820SOL    HW134922   0.532   2.600   2.681 -0.5245 -0.6503 -2.7697
 7820SOL    HW234923   0.511   2.494   2.780 -0.1448 -0.2473 -0.0697
 7821SOL     OW34924   1.472   2.793   7.767  0.1297  0.7804 -0.1005
 7821SOL    HW134925   1.517   2.820   7.847  2.3847  0.9155 -1.4407
 7821SOL    HW234926   1.381   2.786   7.797  0.4189  1.5359  0.9471
 7822SOL     OW34927   4.492   1.464   5.220  0.2071 -0.0940 -0.2282
 7822SOL    HW134928   4.539   1.464   5.303  3.7307 -2.2626 -2.2217
 7822SOL    HW234929   4.466   1.372   5.219 -2.2781  0.6055 -0.7539
 7823SOL     OW34930   4.221   0.680  11.298 -0.3871  1.0470  0.1931
 7823SOL    HW134931   4.190   0.755  11.247  0.4594  1.2282 -0.0602
 7823SOL    HW234932   4.136   0.637  11.302 -0.3329  0.9894  0.7655
 7824SOL     OW34933   1.918   1.244   7.028  0.3786 -0.1184 -0.5085
 7824SOL    HW134934   1.878   1.199   6.954 -1.4808  2.2784 -0.9556
 7824SOL    HW234935   1.887   1.197   7.105 -0.4028 -0.2960 -0.9238
 7825SOL     OW34936   3.421   1.771  13.638 -0.0375 -0.0321 -0.1940
 7825SOL    HW134937   3.382   1.697  13.684  0.8331 -1.2304 -1.3511
 7825SOL    HW234938   3.444   1.838  13.702 -1.4015 -0.6377  0.9296
 7826SOL     OW34939   2.479   0.267  13.694 -0.1285  0.4445 -0.3263
 7826SOL    HW134940   2.543   0.221  13.641 -2.2203 -2.6348 -0.1904
 7826SOL    HW234941   2.453   0.190  13.745  0.4407  1.0717  0.9324
 7827SOL     OW34942   1.483   3.371   7.105  0.2525 -0.5102  0.3681
 7827SOL    HW134943   1.504   3.281   7.128  3.9566  0.3183  0.2976
 7827SOL    HW234944   1.391   3.354   7.084  0.2142  0.4294 -0.2272
 7828SOL     OW34945   0.554   2.235   1.799  0.3250 -0.2374 -0.4576
 7828SOL    HW134946   0.642   2.201   1.815 -0.1866  0.1010  2.8917
 7828SOL    HW234947   0.516   2.203   1.880  1.4223 -1.7396 -0.5271
 7829SOL     OW34948   3.836   1.080   2.973 -0.2906 -0.0577  0.4014
 7829SOL    HW134949   3.907   1.132   2.934 -0.8721  0.4428 -0.0049
 7829SOL    HW234950   3.770   1.146   2.994  2.2053  2.1749  1.2088
 7830SOL     OW34951   4.081   2.080  10.452 -0.8329  0.4288 -0.3316
 7830SOL    HW134952   4.033   2.012  10.499  0.4029  0.9147  1.6440
 7830SOL    HW234953   4.163   2.047  10.415 -0.3212 -1.6477  2.6843
 7831SOL     OW34954   2.511   2.136  13.701 -0.1459  0.6333  0.2837
 7831SOL    HW134955   2.504   2.042  13.718  2.1381  0.4143  0.0151
 7831SOL    HW234956   2.479   2.173  13.783  0.8727 -1.7385  1.7780
 7832SOL     OW34957   0.221   3.250   7.903 -0.3212 -0.0260  0.2690
 7832SOL    HW134958   0.186   3.240   7.992  0.5832  2.7254  0.9222
 7832SOL    HW234959   0.227   3.155   7.891  1.2183  0.5204 -3.0480
 7833SOL     OW34960   1.930   1.337  15.563 -0.1420  0.3840 -0.2190
 7833SOL    HW134961   1.931   1.247  15.595  0.8052  0.2650 -0.5800
 7833SOL    HW234962   1.837   1.358  15.554  0.3494  2.6267 -0.0661
 7834SOL     OW34963   0.051   0.791   8.813 -0.1221 -0.0151 -0.2539
 7834SOL    HW134964   0.054   0.884   8.787 -0.4419 -0.2607 -1.1794
 7834SOL    HW234965   0.138   0.789   8.854  0.4310 -0.6035 -1.4419
 7835SOL     OW34966   2.948   1.719   6.889  0.2108 -0.2364 -0.0719
 7835SOL    HW134967   2.984   1.681   6.969  1.9661 -2.5391 -1.9486
 7835SOL    HW234968   2.855   1.708   6.907 -0.1428 -1.0380 -2.3607
 7836SOL     OW34969   2.491   1.094   1.903  0.0197  0.1802 -0.1869
 7836SOL    HW134970   2.455   1.084   1.815 -1.1472  0.5537  0.2419
 7836SOL    HW234971   2.477   1.187   1.924  3.1634  0.6840 -0.4046
 7837SOL     OW34972   4.548   4.531  13.046 -0.0255 -0.1262 -0.0561
 7837SOL    HW134973   4.636   4.513  13.079  0.3639  0.4775 -0.7541
 7837SOL    HW234974   4.533   4.471  12.973 -0.2360  2.8817 -2.4881
 7838SOL     OW34975   0.779   2.415   2.606  0.0014  0.5370  0.8594
 7838SOL    HW134976   0.739   2.335   2.640  2.4259 -0.4797  1.3230
 7838SOL    HW234977   0.754   2.405   2.514 -0.2415 -0.0516  0.9899
 7839SOL     OW34978   3.913   2.319   8.985 -0.2137  0.6103 -0.2044
 7839SOL    HW134979   3.899   2.264   8.908 -0.3618 -1.2665  1.1623
 7839SOL    HW234980   4.005   2.344   8.983 -0.1258  0.2059 -0.8596
 7840SOL     OW34981   0.753   4.481   4.007 -0.3191  0.0303 -0.1863
 7840SOL    HW134982   0.811   4.456   4.079 -0.6020  1.3227  0.4873
 7840SOL    HW234983   0.810   4.550   3.972 -1.0413  1.7526  1.9982
 7841SOL     OW34984   3.237   4.467   6.299  0.0120  0.2360  0.1724
 7841SOL    HW134985   3.323   4.425   6.292  1.0175  1.7102  3.4895
 7841SOL    HW234986   3.247   4.540   6.238 -1.4489 -0.2646 -0.6560
 7842SOL     OW34987   4.655   4.468   6.657  0.1644 -0.4057  0.4666
 7842SOL    HW134988   4.700   4.384   6.656  2.2411  0.6770  3.2801
 7842SOL    HW234989   4.713   4.522   6.711 -1.2380  2.0258 -0.4565
 7843SOL     OW34990   1.497   3.796  14.192 -0.5293  0.2755  0.4413
 7843SOL    HW134991   1.548   3.830  14.265 -0.7057  2.6470 -0.5500
 7843SOL    HW234992   1.478   3.710  14.230 -0.0305 -0.1727 -0.3194
 7844SOL     OW34993   1.176   3.371   5.896 -0.0892 -0.4143 -0.0455
 7844SOL    HW134994   1.266   3.401   5.913 -0.4995  0.3446  0.7601
 7844SOL    HW234995   1.142   3.352   5.984  0.8213  1.3760  0.6966
 7845SOL     OW34996   1.076   1.427   2.216  0.2609 -0.3417  1.1161
 7845SOL    HW134997   0.982   1.409   2.204 -0.3415  1.4551  3.0850
 7845SOL    HW234998   1.102   1.350   2.165 -1.1899  1.3696 -2.1681
 7846SOL     OW34999   2.586   3.385  10.377  0.4127 -0.1532  0.3345
 7846SOL    HW135000   2.657   3.449  10.375 -0.0818  0.3344 -2.1218
 7846SOL    HW235001   2.513   3.445  10.389  1.2673  1.5330 -2.7388
 7847SOL     OW35002   4.055   3.249  15.817 -0.1321 -0.0191  0.1371
 7847SOL    HW135003   4.059   3.160  15.783 -0.0792  0.1621 -0.3476
 7847SOL    HW235004   4.132   3.291  15.778 -0.4726  0.2571 -0.2454
 7848SOL     OW35005   0.881   2.871  15.128  1.3899 -0.0637  0.2342
 7848SOL    HW135006   0.878   2.832  15.215  2.5393 -0.9016 -0.1110
 7848SOL    HW235007   0.959   2.926  15.131  1.1941  0.3004 -1.2329
 7849SOL     OW35008   2.789   4.701  10.925  0.5009  0.4879  0.9505
 7849SOL    HW135009   2.777   4.679  10.833  0.2056  2.8101  0.4276
 7849SOL    HW235010   2.702   0.009  10.952  0.7092  0.0200  2.1378
 7850SOL     OW35011   2.444   2.103  13.401  0.2667  0.1868  0.5070
 7850SOL    HW135012   2.522   2.156  13.419 -0.0600  0.3195  1.5097
 7850SOL    HW235013   2.389   2.116  13.478  0.1773 -0.5381  0.5626
 7851SOL     OW35014   3.466   4.328   4.079  0.0368 -0.0391 -0.1391
 7851SOL    HW135015   3.380   4.329   4.121 -0.2621 -2.5849 -0.7214
 7851SOL    HW235016   3.445   4.262   4.013  0.6990 -1.9256  1.5362
 7852SOL     OW35017   1.676   1.344   0.203  0.0109  0.0086  0.0807
 7852SOL    HW135018   1.657   1.435   0.179  2.6371  0.1125 -1.5558
 7852SOL    HW235019   1.721   1.348   0.287 -0.5737  0.3870  0.3820
 7853SOL     OW35020   1.540   2.011   6.142 -0.0487 -0.4083  0.0898
 7853SOL    HW135021   1.561   2.038   6.231  0.2487  2.2750 -0.7954
 7853SOL    HW235022   1.631   2.031   6.120 -0.2536  2.0946  1.5127
 7854SOL     OW35023   3.469   4.343   3.415  0.0232  0.1482  0.0651
 7854SOL    HW135024   3.515   4.422   3.444 -0.8464  0.3331  0.9796
 7854SOL    HW235025   3.531   4.279   3.381  0.1253 -0.3752  1.2300
 7855SOL     OW35026   3.017   3.758  11.677 -0.1479  0.2243 -0.3517
 7855SOL    HW135027   3.062   3.828  11.631 -1.4970  2.9413  2.5091
 7855SOL    HW235028   2.950   3.739  11.612  0.9426 -1.7213 -0.9175
 7856SOL     OW35029   3.505   0.991  12.151  0.0789  0.4682 -0.5184
 7856SOL    HW135030   3.500   1.071  12.099 -1.4549  1.2971  0.8876
 7856SOL    HW235031   3.585   0.951  12.117 -0.1362  0.5055 -1.0637
 7857SOL     OW35032   4.711   1.291   3.510  0.0056  0.2908 -0.0969
 7857SOL    HW135033   0.001   1.351   3.436  2.8468  0.7915  0.7662
 7857SOL    HW235034   0.081   1.285   3.535 -0.2055  2.4111  1.2290
 7858SOL     OW35035   3.606   4.281   7.375  0.0695  0.0774  0.7058
 7858SOL    HW135036   3.576   4.296   7.286 -1.2804 -2.0002  0.8069
 7858SOL    HW235037   3.589   4.187   7.387 -0.7592  0.1484  0.1258
 7859SOL     OW35038   0.715   1.917   2.618  0.3421  0.4371  0.4998
 7859SOL    HW135039   0.706   1.992   2.676 -0.9735  1.2482 -0.7448
 7859SOL    HW235040   0.801   1.908   2.577  0.3416 -0.0764  0.6069
 7860SOL     OW35041   0.310   1.775  14.619 -0.1741  0.4209 -0.0126
 7860SOL    HW135042   0.402   1.758  14.640  0.2009 -0.2655 -2.1404
 7860SOL    HW235043   0.313   1.870  14.625  0.6340  0.3360  0.8734
 7861SOL     OW35044   3.541   2.865   6.990  0.2412 -0.3256  0.4080
 7861SOL    HW135045   3.499   2.793   6.943  0.2070 -1.3212  1.9512
 7861SOL    HW235046   3.624   2.834   7.027  0.2947  1.8399  2.0704
 7862SOL     OW35047   2.414   1.773   5.545 -0.1966 -0.0595  0.0540
 7862SOL    HW135048   2.338   1.725   5.511 -0.4298 -0.1191  0.6594
 7862SOL    HW235049   2.447   1.816   5.466 -0.8137  0.2714 -0.0307
 7863SOL     OW35050   2.721   0.764  14.921  1.1324  0.6993  0.6048
 7863SOL    HW135051   2.793   0.735  14.865 -1.0811  0.2660 -2.0190
 7863SOL    HW235052   2.736   0.852  14.889  1.2718  0.1808 -0.7629
 7864SOL     OW35053   3.810   2.017   9.810 -0.7556  0.6448 -0.2947
 7864SOL    HW135054   3.745   2.037   9.742 -0.9506  1.5007  0.1481
 7864SOL    HW235055   3.774   1.935   9.844  0.0206  1.2113  1.8539
 7865SOL     OW35056   0.285   3.649  12.142 -0.0170  0.4580  0.2861
 7865SOL    HW135057   0.207   3.598  12.120  1.6700 -0.8002 -2.6737
 7865SOL    HW235058   0.257   3.662  12.233 -0.5236 -1.3901  0.3892
 7866SOL     OW35059   2.393   4.259   3.289 -0.6220  0.1531  0.0757
 7866SOL    HW135060   2.354   4.334   3.334 -0.5047  0.0255  0.3890
 7866SOL    HW235061   2.482   4.285   3.266 -0.6926  1.7717  1.6311
 7867SOL     OW35062   2.394   2.749   6.463 -0.0865 -0.1742  0.6380
 7867SOL    HW135063   2.451   2.679   6.495 -0.4168 -1.1280 -0.8405
 7867SOL    HW235064   2.343   2.705   6.395 -0.3544  0.0371  0.7006
 7868SOL     OW35065   2.348   3.498   4.324  0.4936  0.1231  0.3035
 7868SOL    HW135066   2.443   3.495   4.329  0.4558 -2.5780 -0.7103
 7868SOL    HW235067   2.330   3.447   4.402 -1.6225 -1.4906 -1.2213
 7869SOL     OW35068   1.452   4.087   2.819  0.7582  0.4038  0.0836
 7869SOL    HW135069   1.493   4.138   2.889  0.3180 -0.6211  1.0763
 7869SOL    HW235070   1.510   4.012   2.829  0.7742  0.5055  0.7176
 7870SOL     OW35071   4.580   3.864  12.005  0.0697 -0.2373 -0.2462
 7870SOL    HW135072   4.559   3.777  12.039  1.7466 -0.9203 -0.9795
 7870SOL    HW235073   4.667   3.871  12.045  0.1584  0.3202 -0.5330
 7871SOL     OW35074   0.105   2.624   3.763  0.2595 -0.3390  0.1018
 7871SOL    HW135075   0.074   2.534   3.770 -1.2360  0.1629  0.1576
 7871SOL    HW235076   0.083   2.657   3.851  2.0410 -0.7800  0.7130
 7872SOL     OW35077   0.102   3.331   2.885  0.1580  0.7517  0.1724
 7872SOL    HW135078   0.147   3.284   2.815 -0.3473 -1.0510  1.0627
 7872SOL    HW235079   0.159   3.407   2.897 -0.4186  0.9046  1.9856
 7873SOL     OW35080   1.392   2.074  12.301 -0.0995  0.2920 -0.1978
 7873SOL    HW135081   1.323   2.011  12.280 -1.3086  2.1829 -1.8647
 7873SOL    HW235082   1.408   2.115  12.216  0.5038  0.3294 -0.0662
 7874SOL     OW35083   4.157   0.550  14.820 -0.3082  0.2343  0.3110
 7874SOL    HW135084   4.179   0.588  14.905  1.3118 -0.2860  0.1302
 7874SOL    HW235085   4.240   0.518  14.785 -0.3219 -0.8979  1.3186
 7875SOL     OW35086   2.876   0.242  13.135  0.0388 -0.3949 -0.2131
 7875SOL    HW135087   2.855   0.243  13.042 -0.5666  0.2912 -0.0698
 7875SOL    HW235088   2.891   0.148  13.146  2.0987  0.1492  1.6826
 7876SOL     OW35089   1.839   2.665   5.697 -0.4991  0.0972  0.1463
 7876SOL    HW135090   1.798   2.720   5.630 -0.5356 -0.2308 -0.0989
 7876SOL    HW235091   1.899   2.625   5.633 -0.8190  0.8870 -0.6524
 7877SOL     OW35092   0.057   1.587   6.192  0.2668  0.5887  0.1917
 7877SOL    HW135093   4.715   1.521   6.218 -1.3233  0.9668 -2.7829
 7877SOL    HW235094   0.031   1.606   6.102 -0.8279 -0.5856  0.2652
 7878SOL     OW35095   3.681   2.646   6.396  0.0958  0.4517 -0.3023
 7878SOL    HW135096   3.665   2.561   6.439  2.1949  0.2440  0.0821
 7878SOL    HW235097   3.727   2.690   6.468  0.4015  0.3012 -0.4017
 7879SOL     OW35098   0.072   2.873   1.659  0.2389 -0.1253 -0.5936
 7879SOL    HW135099   4.708   2.913   1.650  0.4895  0.6390  0.4255
 7879SOL    HW235100   0.100   2.874   1.751 -0.6534  1.6230 -0.3459
 7880SOL     OW35101   0.457   4.456   5.916 -0.2033 -0.4444 -0.5597
 7880SOL    HW135102   0.480   4.411   5.997 -0.4512 -0.7031 -0.6340
 7880SOL    HW235103   0.470   4.543   5.955  2.4025 -0.8635 -0.4608
 7881SOL     OW35104   1.066   1.307   6.038  0.3257  0.8390  0.3376
 7881SOL    HW135105   0.993   1.366   6.019  0.1985  1.0027  1.3279
 7881SOL    HW235106   1.043   1.269   6.123 -1.1324  0.5687 -0.1667
 7882SOL     OW35107   1.328   4.177   2.598  0.3574  0.2917 -0.4807
 7882SOL    HW135108   1.368   4.152   2.681  0.2134 -0.2197 -0.5654
 7882SOL    HW235109   1.296   4.266   2.616 -1.0255 -0.2767 -0.1519
 7883SOL     OW35110   3.238   1.896   4.545 -0.4457  0.0315 -0.8497
 7883SOL    HW135111   3.199   1.932   4.465 -2.9602  0.8336  0.7361
 7883SOL    HW235112   3.181   1.928   4.615  0.8526  1.0643 -0.2719
 7884SOL     OW35113   3.493   1.864   8.470 -0.2907  0.5377 -0.2224
 7884SOL    HW135114   3.493   1.797   8.538 -0.9827 -0.5344 -1.2725
 7884SOL    HW235115   3.434   1.922   8.517 -0.6668 -1.5449  1.8313
 7885SOL     OW35116   2.527   1.867   9.228 -0.5622  0.2233  0.4045
 7885SOL    HW135117   2.570   1.950   9.210  0.0973 -0.5902 -1.7755
 7885SOL    HW235118   2.604   1.811   9.236 -0.1677  0.8945  1.2910
 7886SOL     OW35119   0.111   3.182   5.345  0.3037 -0.3251  0.2106
 7886SOL    HW135120   0.017   3.167   5.358  0.2054 -0.4613 -0.6465
 7886SOL    HW235121   0.113   3.143   5.258  1.6415 -0.5570  0.3415
 7887SOL     OW35122   0.603   1.020   8.835 -0.0541  0.4337  0.0687
 7887SOL    HW135123   0.607   1.110   8.802 -2.2969  0.2908 -0.5366
 7887SOL    HW235124   0.691   0.983   8.821  0.6366  1.0012  2.9691
 7888SOL     OW35125   0.870   4.428   4.986 -0.0486  0.7294 -0.0307
 7888SOL    HW135126   0.806   4.490   4.950 -1.0246  0.1167  0.6644
 7888SOL    HW235127   0.855   4.419   5.080  1.4560  1.1121  0.2457
 7889SOL     OW35128   0.023   4.466   7.870  0.3041 -0.0020 -0.3374
 7889SOL    HW135129   0.081   4.441   7.798  1.0252  1.4085 -0.2500
 7889SOL    HW235130   4.667   4.486   7.818  0.4655 -1.4569 -1.1346
 7890SOL     OW35131   2.877   1.824   7.775  0.6822 -0.1864  0.1709
 7890SOL    HW135132   2.955   1.859   7.818 -1.2564  2.9956  1.0887
 7890SOL    HW235133   2.809   1.874   7.820  0.8426  0.7776 -0.6620
 7891SOL     OW35134   4.219   0.087  12.937  0.0795  0.0284 -0.5365
 7891SOL    HW135135   4.294   0.087  12.995 -1.6720 -0.0729  1.7252
 7891SOL    HW235136   4.234   0.168  12.888 -0.4219  0.4543  0.0134
 7892SOL     OW35137   2.093   0.354  13.489 -0.2334  0.2604 -0.1935
 7892SOL    HW135138   2.144   0.419  13.537 -0.3695  0.0635  0.2232
 7892SOL    HW235139   2.048   0.299  13.553 -2.4288  0.9687 -1.1137
 7893SOL     OW35140   0.566   3.135  16.972 -0.1744  0.2518  0.3782
 7893SOL    HW135141   0.491   3.145  17.031  0.0085 -0.2765  0.6995
 7893SOL    HW235142   0.538   3.182  16.893 -1.9457  0.8530  1.3754
 7894SOL     OW35143   1.365   2.634   4.494 -1.3873  0.3961 -0.0457
 7894SOL    HW135144   1.352   2.540   4.493 -0.5057  0.2864 -1.5007
 7894SOL    HW235145   1.401   2.634   4.583  2.3294 -0.1350 -1.5652
 7895SOL     OW35146   0.773   0.143   9.426 -0.1501 -0.3492  0.5380
 7895SOL    HW135147   0.779   0.169   9.334  1.7006  0.1134  0.7935
 7895SOL    HW235148   0.773   0.228   9.470 -1.5783 -0.1581  0.1773
 7896SOL     OW35149   0.619   3.731   7.690 -0.2529 -0.0063 -0.0639
 7896SOL    HW135150   0.707   3.693   7.684  0.1534  1.4679 -3.0931
 7896SOL    HW235151   0.638   3.815   7.732  1.6583 -0.2190 -0.4766
 7897SOL     OW35152   2.736   1.782   7.532 -0.4471  0.5100  0.4811
 7897SOL    HW135153   2.760   1.799   7.623  0.8808  1.5814 -0.0753
 7897SOL    HW235154   2.675   1.708   7.537 -1.2238  1.0231 -1.4566
 7898SOL     OW35155   4.132   3.133   2.934 -0.3483  0.4488 -0.0123
 7898SOL    HW135156   4.085   3.150   3.016 -1.2434 -1.6084 -0.1028
 7898SOL    HW235157   4.162   3.220   2.911  2.6454 -0.4255  0.5618
 7899SOL     OW35158   0.231   3.865  12.371  0.1393 -0.0641 -0.8421
 7899SOL    HW135159   0.311   3.840  12.418  0.4599  0.5564 -1.0610
 7899SOL    HW235160   0.222   3.955  12.401  1.4364  0.1615 -1.1445
 7900SOL     OW35161   2.811   3.331  13.728 -0.4490 -0.0155 -0.4375
 7900SOL    HW135162   2.898   3.352  13.761 -1.5966 -0.1897  2.6870
 7900SOL    HW235163   2.811   3.236  13.733  0.1776  0.0438  0.7989
 7901SOL     OW35164   2.767   2.982   7.127  0.1618  0.0560 -0.3923
 7901SOL    HW135165   2.845   3.038   7.135  0.6639 -0.8547  1.1743
 7901SOL    HW235166   2.718   3.004   7.206  0.6248 -0.6876  0.1066
 7902SOL     OW35167   0.775   1.425   9.317 -0.6046  0.7365 -0.2030
 7902SOL    HW135168   0.865   1.403   9.339 -0.5644  0.2673 -0.8291
 7902SOL    HW235169   0.778   1.521   9.311 -1.6111  0.8045  0.3944
 7903SOL     OW35170   2.769   0.945   1.986 -0.4508 -0.9099  0.4855
 7903SOL    HW135171   2.823   0.867   1.999  1.0770 -0.0381 -0.5205
 7903SOL    HW235172   2.696   0.907   1.938  0.3122 -1.0073 -0.5932
 7904SOL     OW35173   3.073   0.318  13.743 -0.0733  0.0189  0.4011
 7904SOL    HW135174   3.113   0.343  13.826  0.7065  0.6034 -0.1485
 7904SOL    HW235175   2.988   0.279  13.764  1.1386 -2.0475  1.4122
 7905SOL     OW35176   1.564   3.002  10.879 -0.5228  0.1037  0.0439
 7905SOL    HW135177   1.632   2.934  10.884  0.1536  0.9659  2.5290
 7905SOL    HW235178   1.543   3.005  10.785 -0.3453 -0.9620 -0.0369
 7906SOL     OW35179   3.321   3.370   1.258  0.0395  0.6541 -0.9462
 7906SOL    HW135180   3.350   3.457   1.234  3.3946 -0.0633  0.5746
 7906SOL    HW235181   3.281   3.383   1.344  2.0027  0.4819 -0.0257
 7907SOL     OW35182   4.461   2.908   7.833  0.1347  0.0106 -0.4153
 7907SOL    HW135183   4.523   2.836   7.849 -0.4306 -0.0414  1.5637
 7907SOL    HW235184   4.518   2.982   7.856  0.8488  0.4277 -3.5800
 7908SOL     OW35185   4.411   0.893   2.911 -0.4519 -0.4204  0.1170
 7908SOL    HW135186   4.413   0.857   3.000  1.1259  0.5444  0.4700
 7908SOL    HW235187   4.477   0.962   2.918 -0.0913 -0.8187  0.6905
 7909SOL     OW35188   2.648   0.056   5.701 -0.3105 -0.4442 -0.0301
 7909SOL    HW135189   2.658   0.144   5.738 -1.4475  0.9786 -3.0477
 7909SOL    HW235190   2.735   0.040   5.663  0.3881  1.3900  0.7964
 7910SOL     OW35191   2.243   0.243   2.854  0.0660  0.0097  0.6514
 7910SOL    HW135192   2.304   0.208   2.919  0.8649  1.6494  0.7785
 7910SOL    HW235193   2.306   0.309   2.825 -1.5045  0.7110 -1.1357
 7911SOL     OW35194   0.435   2.911   3.323 -0.1412 -0.9996  0.6619
 7911SOL    HW135195   0.397   2.952   3.401  2.6354 -0.0717  1.5362
 7911SOL    HW235196   0.372   2.925   3.252  1.7928  2.2699 -0.4174
 7912SOL     OW35197   0.116   2.214   5.733  0.0807 -0.0577  0.7234
 7912SOL    HW135198   0.042   2.164   5.696  0.0679  0.1844  0.4189
 7912SOL    HW235199   0.079   2.300   5.753  0.2442  0.1135  0.3001
 7913SOL     OW35200   2.650   3.320  14.020 -0.1821  0.5409  0.3154
 7913SOL    HW135201   2.725   3.283  13.973  1.4296  2.7023  1.1852
 7913SOL    HW235202   2.691   3.392  14.068  0.7653  1.1899 -1.4878
 7914SOL     OW35203   1.289   0.264  14.772 -0.6914  0.1738  0.0245
 7914SOL    HW135204   1.292   0.212  14.692 -2.3117 -0.5916  0.4574
 7914SOL    HW235205   1.230   0.202  14.816 -0.0943 -1.5624 -1.6016
 7915SOL     OW35206   1.582   0.512   8.844 -0.2233  0.5855  0.3731
 7915SOL    HW135207   1.564   0.477   8.932 -0.9946 -1.8061 -0.7388
 7915SOL    HW235208   1.667   0.554   8.857  0.6330 -1.3222  1.1153
 7916SOL     OW35209   0.226   0.300   0.439  0.2155 -0.2026 -0.2812
 7916SOL    HW135210   0.176   0.218   0.444  0.5761 -0.4118 -0.0672
 7916SOL    HW235211   0.302   0.264   0.486 -0.0800 -0.7066 -0.1930
 7917SOL     OW35212   4.495   4.519   8.082  0.1697  0.2045  0.3455
 7917SOL    HW135213   4.501   4.502   7.987  1.7924 -0.9296  0.6375
 7917SOL    HW235214   4.437   4.447   8.106 -1.2213  1.5329  0.9247
 7918SOL     OW35215   2.180   0.316  16.375 -0.9439  0.3212  0.1197
 7918SOL    HW135216   2.162   0.404  16.342  2.2899  0.7235 -0.5815
 7918SOL    HW235217   2.125   0.311  16.453 -0.3015  1.4856  0.6558
 7919SOL     OW35218   2.076   1.354   9.663  0.2840  0.0426 -0.2160
 7919SOL    HW135219   2.080   1.373   9.569 -0.7208 -0.4346 -0.3561
 7919SOL    HW235220   2.019   1.277   9.652 -0.9741  1.3975 -3.1666
 7920SOL     OW35221   0.661   3.385  12.195  0.2336  0.1667  0.1960
 7920SOL    HW135222   0.576   3.388  12.151  1.6865 -0.0528 -2.6229
 7920SOL    HW235223   0.721   3.368  12.122  0.6441 -0.1649  0.6110
 7921SOL     OW35224   4.424   0.238   5.135  0.1995  0.4299  0.2035
 7921SOL    HW135225   4.361   0.250   5.207 -2.2617  1.0538 -2.0465
 7921SOL    HW235226   4.424   0.142   5.140 -1.1781  0.4232  0.2520
 7922SOL     OW35227   0.575   0.863   3.584  0.0103 -0.6455  0.3292
 7922SOL    HW135228   0.618   0.813   3.515  0.8490 -0.1138  0.4678
 7922SOL    HW235229   0.494   0.814   3.599  0.2753 -1.4677 -0.9441
 7923SOL     OW35230   1.863   4.255  10.011  0.1090 -0.2684  0.2277
 7923SOL    HW135231   1.924   4.232  10.081 -1.4536 -0.6237  1.4801
 7923SOL    HW235232   1.789   4.199  10.035  0.9248 -0.1596  2.9755
 7924SOL     OW35233   0.568   0.658   6.893 -0.2848 -0.0814 -0.1515
 7924SOL    HW135234   0.616   0.688   6.816  1.2604 -0.4266  0.6667
 7924SOL    HW235235   0.490   0.713   6.900  0.8060  1.4981 -0.2614
 7925SOL     OW35236   0.428   0.935   5.354 -0.6659 -0.2924  0.6326
 7925SOL    HW135237   0.447   0.920   5.447 -0.2071 -0.6657  0.4798
 7925SOL    HW235238   0.334   0.926   5.368 -1.0581  1.5391 -0.8777
 7926SOL     OW35239   3.218   3.106   0.826 -0.1384 -0.2859  0.0031
 7926SOL    HW135240   3.286   3.126   0.890 -0.1836  0.8401 -0.3028
 7926SOL    HW235241   3.211   3.012   0.845  2.3670  0.2024  3.2482
 7927SOL     OW35242   0.907   2.549  14.330  0.2039 -0.3983  0.2571
 7927SOL    HW135243   0.901   2.523  14.238  2.7692 -0.3431  0.0739
 7927SOL    HW235244   0.846   2.622  14.326  0.1157 -0.5550 -1.5528
 7928SOL     OW35245   4.413   2.714  14.316  0.4888  0.2331 -0.1875
 7928SOL    HW135246   4.371   2.746  14.396 -1.0205  2.0671 -1.7302
 7928SOL    HW235247   4.464   2.790  14.286 -0.2634  0.9788  0.4377
 7929SOL     OW35248   3.521   0.416   9.362  0.0725 -0.0089 -0.1931
 7929SOL    HW135249   3.582   0.470   9.412 -0.5995 -1.5401  2.2877
 7929SOL    HW235250   3.437   0.460   9.376  0.8597  0.6563  2.4987
 7930SOL     OW35251   2.532   2.104  11.508 -0.4110 -0.4678  0.3996
 7930SOL    HW135252   2.477   2.069  11.438  0.5462 -1.3621  0.0792
 7930SOL    HW235253   2.602   2.038  11.515 -0.3613 -0.5013 -0.3741
 7931SOL     OW35254   2.627   3.669   6.061 -0.2847 -0.0329 -0.0594
 7931SOL    HW135255   2.708   3.672   6.111 -1.3541 -1.2475  1.7382
 7931SOL    HW235256   2.615   3.757   6.023  1.6520  0.7528  1.1813
 7932SOL     OW35257   2.991   3.101   5.139  0.5491  0.3782  0.3945
 7932SOL    HW135258   2.959   3.031   5.196  2.6427 -0.1174  0.9596
 7932SOL    HW235259   2.916   3.090   5.081  0.1893  3.1124  0.3664
 7933SOL     OW35260   4.318   4.365   3.996  0.4246  0.5115  0.2199
 7933SOL    HW135261   4.364   4.338   4.075 -1.3099  0.6357  1.2894
 7933SOL    HW235262   4.243   4.305   3.998  0.7612  0.0912  0.0144
 7934SOL     OW35263   0.934   3.250  17.445 -0.2162  0.1879 -0.7639
 7934SOL    HW135264   0.948   3.220  17.355  0.5502  1.3353 -1.0309
 7934SOL    HW235265   0.866   3.316  17.437 -0.4324 -0.0255 -0.6984
 7935SOL     OW35266   1.957   0.855   3.207  0.1067 -0.0410 -0.3429
 7935SOL    HW135267   1.954   0.885   3.116  0.3983 -0.9824 -0.6651
 7935SOL    HW235268   2.039   0.890   3.243 -0.9754 -1.8657  3.9265
 7936SOL     OW35269   2.245   1.159   7.867  0.4155 -0.1347  0.5384
 7936SOL    HW135270   2.322   1.123   7.821  0.3796  0.1875  0.2249
 7936SOL    HW235271   2.270   1.251   7.859  1.1787 -0.2055  2.0812
 7937SOL     OW35272   0.778   1.716   8.254 -0.4596 -0.8398  0.0478
 7937SOL    HW135273   0.747   1.628   8.235  1.6264 -1.6414  0.4646
 7937SOL    HW235274   0.754   1.709   8.347 -0.1238 -0.3731  0.1694
 7938SOL     OW35275   1.626   0.441   8.580 -0.6436 -0.0023  0.8418
 7938SOL    HW135276   1.612   0.476   8.668 -0.5339 -1.0887  1.2963
 7938SOL    HW235277   1.652   0.517   8.528 -2.0633 -0.5567 -0.6556
 7939SOL     OW35278   0.055   1.597   2.571  0.0246 -0.1233 -0.1433
 7939SOL    HW135279   0.111   1.520   2.580  0.4725 -0.0248 -2.0606
 7939SOL    HW235280   4.704   1.565   2.517  1.1311 -0.0901 -1.6511
 7940SOL     OW35281   3.859   0.153   2.242 -0.0933  0.1933 -0.3378
 7940SOL    HW135282   3.848   0.244   2.213  0.2795  0.5842  0.7612
 7940SOL    HW235283   3.794   0.118   2.181  2.8158 -1.3125 -2.5739
 7941SOL     OW35284   1.907   2.890   6.322 -0.3075 -0.1461  0.6196
 7941SOL    HW135285   1.826   2.861   6.280  0.3277 -0.2770 -0.5099
 7941SOL    HW235286   1.920   2.822   6.389 -0.0872 -0.6721  0.0410
 7942SOL     OW35287   0.262   2.290   7.945  0.4052 -0.6200 -0.0162
 7942SOL    HW135288   0.286   2.316   8.034 -1.9383 -0.5882  0.6007
 7942SOL    HW235289   0.172   2.267   7.964  0.1852  1.7233  1.7693
 7943SOL     OW35290   2.180   2.066  12.584  0.3455 -0.0476 -0.6033
 7943SOL    HW135291   2.154   2.082  12.675  0.2682 -0.2831 -0.5841
 7943SOL    HW235292   2.253   2.127  12.574  0.7783 -0.7206 -1.4496
 7944SOL     OW35293   4.542   0.560   2.552 -0.2584  0.0768  0.4595
 7944SOL    HW135294   4.547   0.547   2.458 -1.6438 -0.2683  0.4450
 7944SOL    HW235295   4.631   0.542   2.584 -0.2596  1.3268  1.1629
 7945SOL     OW35296   3.030   3.826   3.119  0.6390  0.1273  0.4011
 7945SOL    HW135297   3.029   3.778   3.202 -3.7910 -0.0142  0.2991
 7945SOL    HW235298   2.947   3.872   3.135  0.5967 -0.5506  2.2065
 7946SOL     OW35299   3.494   1.388   6.215  0.5572  0.1671  0.1058
 7946SOL    HW135300   3.547   1.468   6.212  1.7817 -0.6896 -0.7206
 7946SOL    HW235301   3.553   1.338   6.272 -1.0640 -1.8396 -0.0200
 7947SOL     OW35302   2.489   1.318   5.583 -0.1873  0.2370  0.2064
 7947SOL    HW135303   2.575   1.359   5.569 -0.4855  0.5631 -0.6429
 7947SOL    HW235304   2.506   1.232   5.546 -0.2929  0.4448 -0.3200
 7948SOL     OW35305   2.398   2.404   6.504  0.0090  0.1846 -0.1216
 7948SOL    HW135306   2.476   2.437   6.459  1.1575 -2.6799 -0.1799
 7948SOL    HW235307   2.442   2.367   6.580 -2.7777 -0.1758  1.3268
 7949SOL     OW35308   4.240   2.000   2.169 -0.3475 -0.5132 -0.4351
 7949SOL    HW135309   4.223   2.093   2.154 -2.2472 -0.6348  0.8919
 7949SOL    HW235310   4.335   2.006   2.177 -0.5152  1.1675  0.3267
 7950SOL     OW35311   1.577   0.852   3.119 -0.1702 -0.0529  0.1874
 7950SOL    HW135312   1.559   0.907   3.043 -3.3881 -0.8290  0.3955
 7950SOL    HW235313   1.505   0.875   3.178 -1.4383 -0.5607 -1.1432
 7951SOL     OW35314   2.367   3.197   2.655  0.3594  0.0970  0.0594
 7951SOL    HW135315   2.321   3.130   2.605  0.1554  1.2548 -1.3195
 7951SOL    HW235316   2.434   3.224   2.592 -1.4019  1.8826 -1.0458
 7952SOL     OW35317   3.044   3.169   3.185 -0.1363  0.9359 -0.2865
 7952SOL    HW135318   3.066   3.157   3.093 -0.7172  0.9573 -0.4276
 7952SOL    HW235319   3.037   3.264   3.182 -1.0332  0.7723 -3.4611
 7953SOL     OW35320   0.508   0.779   2.886  0.4196  0.3605  0.2103
 7953SOL    HW135321   0.570   0.833   2.935  1.6482 -1.7287  0.9314
 7953SOL    HW235322   0.518   0.816   2.798  0.4594 -1.4899 -0.5427
 7954SOL     OW35323   1.388   3.787   3.420  0.4918 -0.1046  0.0378
 7954SOL    HW135324   1.476   3.799   3.385  1.1723  1.7893  2.3967
 7954SOL    HW235325   1.389   3.694   3.444 -2.7946  0.1899  1.3913
 7955SOL     OW35326   1.717   2.590   6.316 -0.1162  0.4373 -0.6063
 7955SOL    HW135327   1.744   2.596   6.224  0.0927  3.3686 -0.3688
 7955SOL    HW235328   1.692   2.679   6.339 -1.3098  0.5488 -2.3774
 7956SOL     OW35329   3.554   4.650   3.752 -0.4337  0.1320  1.0973
 7956SOL    HW135330   3.567   0.017   3.785  1.4884 -0.0124  0.7504
 7956SOL    HW235331   3.556   4.611   3.839  1.6283  0.8170  1.3629
 7957SOL     OW35332   4.339   1.423   8.313 -0.3286  0.0476  0.3361
 7957SOL    HW135333   4.364   1.376   8.393  0.7517  1.3775  0.7678
 7957SOL    HW235334   4.248   1.396   8.297 -0.4430  0.4851  0.2393
 7958SOL     OW35335   4.457   0.698   9.752  0.1085 -0.1601  0.1035
 7958SOL    HW135336   4.409   0.769   9.709  0.9717 -0.0946 -0.7610
 7958SOL    HW235337   4.486   0.751   9.826 -0.5598 -0.2736  0.4463
 7959SOL     OW35338   4.316   4.351   4.806 -0.1703 -0.0501  0.2486
 7959SOL    HW135339   4.348   4.264   4.781  0.2864  0.2176 -0.1092
 7959SOL    HW235340   4.386   4.383   4.862 -1.2190  0.8865  1.0131
 7960SOL     OW35341   0.721   2.917   4.161  0.3870 -0.3545  0.0365
 7960SOL    HW135342   0.697   2.836   4.115 -1.9406 -1.1821  2.7424
 7960SOL    HW235343   0.641   2.966   4.143 -1.9822 -3.0078  3.3609
 7961SOL     OW35344   3.720   1.582  16.639  0.3356 -0.1983 -0.1763
 7961SOL    HW135345   3.792   1.606  16.582 -0.0191  0.4890 -0.3330
 7961SOL    HW235346   3.710   1.491  16.611  0.4978 -0.6979  1.4002
 7962SOL     OW35347   0.159   0.329  11.715  0.2990 -0.2550 -0.4612
 7962SOL    HW135348   0.201   0.321  11.801  2.9075 -0.3773 -1.7481
 7962SOL    HW235349   0.219   0.393  11.677  0.5391 -0.2487 -0.0714
 7963SOL     OW35350   0.792   2.314   3.632 -0.7219 -0.0683 -0.6415
 7963SOL    HW135351   0.869   2.261   3.613 -2.0961 -1.8901 -1.1766
 7963SOL    HW235352   0.821   2.384   3.574 -1.6913 -0.6833 -1.8863
 7964SOL     OW35353   1.001   0.313  14.581 -0.5025  0.0080 -0.5218
 7964SOL    HW135354   0.955   0.360  14.650 -0.1612  2.5157 -1.9886
 7964SOL    HW235355   0.960   0.349  14.502 -0.7526  1.8901  0.4886
 7965SOL     OW35356   4.575   2.016   1.832 -0.4320 -0.6740 -0.9321
 7965SOL    HW135357   4.646   1.953   1.819  0.9399  0.4805  1.0157
 7965SOL    HW235358   4.515   1.971   1.772 -1.2392 -0.0203 -0.6101
 7966SOL     OW35359   2.978   1.001   7.255  0.1672  0.2433  0.3225
 7966SOL    HW135360   3.032   0.924   7.242 -0.8749 -0.1542 -1.7270
 7966SOL    HW235361   2.886   0.973   7.253  0.2593  0.0056 -0.6777
 7967SOL     OW35362   0.810   0.006   6.639 -0.2631  0.1794 -0.5834
 7967SOL    HW135363   0.821   4.699   6.730  0.4503  1.9855 -0.1003
 7967SOL    HW235364   0.784   0.098   6.646 -2.0936 -0.3591 -0.2787
 7968SOL     OW35365   2.562   0.926   8.697 -0.0736  0.2318 -0.8195
 7968SOL    HW135366   2.628   0.858   8.707  0.0245  0.4584  0.0502
 7968SOL    HW235367   2.605   0.995   8.748 -0.6666 -1.4346  1.8887
 7969SOL     OW35368   0.117   1.005  16.039 -0.4473  0.2821  0.0596
 7969SOL    HW135369   0.087   0.928  15.990 -0.6268  0.7520 -0.5792
 7969SOL    HW235370   0.118   1.061  15.961 -0.9786  0.8207  0.4406
 7970SOL     OW35371   0.204   1.799  13.158  0.3009  0.1392  0.2138
 7970SOL    HW135372   0.287   1.787  13.111  0.5519  2.1203  0.1681
 7970SOL    HW235373   0.138   1.743  13.117  0.9790  0.1879 -0.9306
 7971SOL     OW35374   4.307   1.835  16.010 -0.3527 -0.2931  0.0444
 7971SOL    HW135375   4.333   1.796  15.927 -1.9674  0.3084 -0.7591
 7971SOL    HW235376   4.368   1.909  16.011 -1.6584  0.7716  1.9217
 7972SOL     OW35377   1.678   1.655   2.789  0.4495  0.3676  0.5717
 7972SOL    HW135378   1.724   1.709   2.854  1.0879 -1.4506  1.6287
 7972SOL    HW235379   1.723   1.674   2.707  0.7889 -2.8892  0.0169
 7973SOL     OW35380   0.820   2.228  12.335 -0.0298  0.1406  0.3098
 7973SOL    HW135381   0.740   2.280  12.335  0.0667  0.2890  2.0390
 7973SOL    HW235382   0.894   2.289  12.338  1.0318 -1.1967  1.2050
 7974SOL     OW35383   3.124   2.686  14.774 -0.4228  0.1239  0.3732
 7974SOL    HW135384   3.200   2.740  14.793  0.4797 -1.1146  0.3106
 7974SOL    HW235385   3.057   2.742  14.812 -2.1242 -0.3985 -1.8884
 7975SOL     OW35386   1.046   3.309   4.953 -0.6898  0.7527 -0.4299
 7975SOL    HW135387   1.108   3.321   4.881 -0.2922  0.6849 -0.1011
 7975SOL    HW235388   1.104   3.315   5.029  0.8259 -1.7658 -1.4040
 7976SOL     OW35389   0.594   0.856   7.987 -0.0262 -0.0498  0.6710
 7976SOL    HW135390   0.511   0.811   8.001  1.1692 -1.7836  2.1673
 7976SOL    HW235391   0.630   0.850   8.075 -1.4661 -3.1184  1.0474
 7977SOL     OW35392   3.184   1.765   5.959 -0.2540  0.0349 -0.4344
 7977SOL    HW135393   3.237   1.771   5.879 -1.5420  1.3782 -1.1828
 7977SOL    HW235394   3.227   1.704   6.019 -2.7659 -2.2401 -0.9100
 7978SOL     OW35395   3.911   3.613   4.197 -0.2261  0.2959  0.2857
 7978SOL    HW135396   3.895   3.661   4.116  1.3003 -0.4946 -0.4927
 7978SOL    HW235397   3.823   3.614   4.233 -0.4150  2.3149 -0.2638
 7979SOL     OW35398   3.012   1.139   1.937 -0.0330  0.6111 -0.2913
 7979SOL    HW135399   3.056   1.061   1.969 -1.6998 -0.6073 -0.9618
 7979SOL    HW235400   3.037   1.155   1.846  0.9070  1.5296  0.1305
 7980SOL     OW35401   3.673   1.560  12.978 -0.1843  0.1569  0.0013
 7980SOL    HW135402   3.676   1.648  13.015 -0.4150  1.1126 -2.2282
 7980SOL    HW235403   3.578   1.554  12.977 -0.2655  1.7406 -1.9997
 7981SOL     OW35404   3.019   3.810   5.487  0.3388 -0.5503 -0.1763
 7981SOL    HW135405   2.973   3.784   5.567 -1.5897  1.6983 -0.5392
 7981SOL    HW235406   2.958   3.813   5.414 -0.0193  1.9731  0.2165
 7982SOL     OW35407   3.435   1.435  13.251  0.1857 -0.3498 -0.0349
 7982SOL    HW135408   3.441   1.526  13.280 -0.3122  1.0596 -4.2753
 7982SOL    HW235409   3.518   1.400  13.282  0.5475  1.7120  1.3096
 7983SOL     OW35410   0.011   0.171   9.760 -0.0027 -0.1264  0.4155
 7983SOL    HW135411   0.006   0.080   9.789 -0.4322 -0.3645 -0.4095
 7983SOL    HW235412   4.639   0.186   9.763 -0.2946 -1.6687 -0.6829
 7984SOL     OW35413   0.109   3.287   4.629 -0.1662  0.2025 -0.8000
 7984SOL    HW135414   0.156   3.338   4.563  0.0009  1.7632  0.5427
 7984SOL    HW235415   0.018   3.310   4.613 -0.7100 -3.0228 -2.3953
 7985SOL     OW35416   0.898   4.205  13.218  0.1740  0.2545  0.0476
 7985SOL    HW135417   0.883   4.199  13.123 -1.2240  2.3285  0.1127
 7985SOL    HW235418   0.822   4.161  13.255 -1.1958  0.1793 -2.8505
 7986SOL     OW35419   1.332   2.234   6.884 -0.1325 -0.0867 -0.0490
 7986SOL    HW135420   1.378   2.231   6.967  0.0174  2.1914 -0.0465
 7986SOL    HW235421   1.338   2.145   6.848 -0.6120 -1.6697  3.8595
 7987SOL     OW35422   4.653   4.124   5.581  0.3626  0.7072  0.5418
 7987SOL    HW135423   4.669   4.099   5.672 -2.9125  0.7175  1.1088
 7987SOL    HW235424   4.559   4.113   5.592 -0.0925  3.4918 -0.6474
 7988SOL     OW35425   2.026   4.644   6.386  0.7114  0.2923 -0.1939
 7988SOL    HW135426   2.070   4.600   6.459 -1.8206 -1.1909  0.4434
 7988SOL    HW235427   2.004   0.007   6.424 -0.2110 -0.5088  1.0752
 7989SOL     OW35428   4.368   4.249  15.227 -0.1123 -0.7005  0.2424
 7989SOL    HW135429   4.414   4.267  15.145 -0.1681  1.4586  0.6859
 7989SOL    HW235430   4.418   4.293  15.296 -0.7638 -0.1787  0.3794
 7990SOL     OW35431   0.787   2.189   6.637  0.1381 -0.1355 -0.2462
 7990SOL    HW135432   0.729   2.138   6.694 -0.0570 -1.3253 -1.4982
 7990SOL    HW235433   0.865   2.193   6.692 -0.9276  0.3341  1.2024
 7991SOL     OW35434   0.992   1.124  13.222  0.1293 -0.0600  0.0809
 7991SOL    HW135435   0.982   1.092  13.132 -0.1487  1.8118 -0.5397
 7991SOL    HW235436   1.052   1.199  13.219 -0.6894  0.6775  2.0275
 7992SOL     OW35437   4.300   0.373   3.966  0.1174  0.1205 -0.0402
 7992SOL    HW135438   4.328   0.420   3.887  0.3090  2.1057  1.2131
 7992SOL    HW235439   4.378   0.320   3.983 -0.5399 -1.3276 -1.5718
 7993SOL     OW35440   1.185   1.630  13.069 -0.0739 -0.3989 -0.0919
 7993SOL    HW135441   1.214   1.720  13.054 -1.5663  0.3850  1.7073
 7993SOL    HW235442   1.261   1.576  13.046 -1.3675 -1.3688 -2.1113
 7994SOL     OW35443   2.389   4.129  15.699 -0.1545 -0.1278  0.3488
 7994SOL    HW135444   2.316   4.069  15.714 -1.6956  1.6811  0.0752
 7994SOL    HW235445   2.400   4.176  15.782 -1.0051  0.3430  0.1940
 7995SOL     OW35446   1.708   0.052   2.323  0.3180 -0.8453  0.5884
 7995SOL    HW135447   1.643   0.110   2.362  0.0672  1.2075 -2.9630
 7995SOL    HW235448   1.647   0.016   2.259 -0.0726  2.8823 -1.0819
 7996SOL     OW35449   2.172   2.372   4.937 -0.3592 -0.1256 -0.5185
 7996SOL    HW135450   2.171   2.410   4.850  1.3187 -0.8735 -0.8533
 7996SOL    HW235451   2.179   2.438   5.006  1.5320 -0.5675 -0.2995
 7997SOL     OW35452   1.169   2.332  10.997 -0.4405  0.4511 -0.0090
 7997SOL    HW135453   1.163   2.240  11.022 -0.1969  0.2994 -0.5214
 7997SOL    HW235454   1.264   2.340  10.985 -0.1250 -3.2443 -0.0416
 7998SOL     OW35455   1.226   3.055  16.176  0.4406 -0.0321 -0.0781
 7998SOL    HW135456   1.160   3.005  16.127 -0.1594 -0.4931  1.1937
 7998SOL    HW235457   1.307   3.035  16.129 -0.1117 -0.5702 -0.8069
 7999SOL     OW35458   2.851   3.848  15.690  0.4790 -0.0230  0.5989
 7999SOL    HW135459   2.918   3.872  15.754  1.1148  0.9797 -0.4477
 7999SOL    HW235460   2.773   3.865  15.743  1.1819 -0.6679  1.8409
 8000SOL     OW35461   2.246   3.397  10.232  0.1857 -0.3200 -0.1165
 8000SOL    HW135462   2.215   3.474  10.279  0.0198  1.1497 -2.6159
 8000SOL    HW235463   2.282   3.446  10.158  1.2533  0.6435  1.0542
 8001SOL     OW35464   0.025   2.810   5.558  0.0488 -0.2947 -0.1138
 8001SOL    HW135465   0.078   2.731   5.542  2.1992  0.6640  2.3201
 8001SOL    HW235466   0.024   2.839   5.467  1.4011  1.0839  0.3076
 8002SOL     OW35467   1.177   2.797  17.627  0.3996  0.0869  0.4450
 8002SOL    HW135468   1.212   2.720  17.583  0.5076  1.9130 -2.6484
 8002SOL    HW235469   1.205   2.864  17.566 -2.1847  1.0254  0.2818
 8003SOL     OW35470   0.937   3.046   4.285  0.0015  0.3827 -0.1105
 8003SOL    HW135471   0.882   2.982   4.239  1.4159  0.0506 -1.3429
 8003SOL    HW235472   0.877   3.114   4.313 -0.8090 -0.2764 -0.2510
 8004SOL     OW35473   1.434   0.767   9.288 -0.9168  0.0834 -0.3713
 8004SOL    HW135474   1.392   0.773   9.202 -0.7252 -0.7316 -0.5213
 8004SOL    HW235475   1.526   0.776   9.262 -0.6874 -0.9192  0.1015
 8005SOL     OW35476   4.488   3.429   0.103 -0.2212  0.0895  0.0780
 8005SOL    HW135477   4.402   3.429   0.146  0.7016 -2.1340  1.9530
 8005SOL    HW235478   4.503   3.514   0.062 -2.1841 -0.1059 -1.0251
 8006SOL     OW35479   1.313   4.137   5.262  0.9455 -0.2195 -0.3620
 8006SOL    HW135480   1.237   4.147   5.320  2.4591  0.3325  1.5096
 8006SOL    HW235481   1.332   4.047   5.289  3.4251  0.2419 -0.5850
 8007SOL     OW35482   2.996   4.156  12.011 -0.3395  0.5603 -0.0926
 8007SOL    HW135483   3.001   4.245  12.045 -2.9187  0.8549 -0.5186
 8007SOL    HW235484   3.015   4.169  11.919  0.5976 -1.5704 -0.2059
 8008SOL     OW35485   2.259   3.334   7.067  0.0602  0.5982 -0.3236
 8008SOL    HW135486   2.216   3.372   7.143  2.2597 -2.9159  2.7007
 8008SOL    HW235487   2.262   3.416   7.018  1.2799  0.4426 -0.5176
 8009SOL     OW35488   0.746   2.590   3.835  0.4319 -0.4779  0.0281
 8009SOL    HW135489   0.828   2.609   3.792 -0.2980  1.9016 -0.3159
 8009SOL    HW235490   0.692   2.617   3.761  0.6167 -0.0516  0.0471
 8010SOL     OW35491   4.408   1.373   3.432  0.3618  0.4603  0.2560
 8010SOL    HW135492   4.492   1.356   3.388 -0.5020  0.0344 -1.2254
 8010SOL    HW235493   4.421   1.468   3.439  2.2452  0.3282 -1.2319
 8011SOL     OW35494   0.213   2.527   6.268 -0.4353  0.2783 -0.4008
 8011SOL    HW135495   0.275   2.600   6.270 -1.1143  0.8456  0.3184
 8011SOL    HW235496   0.255   2.441   6.265 -0.7825  0.1973 -2.4365
 8012SOL     OW35497   4.411   2.659   1.715  0.7891  0.0079  0.0648
 8012SOL    HW135498   4.448   2.606   1.786 -0.4952  1.0050  1.4922
 8012SOL    HW235499   4.487   2.657   1.657  1.3145 -1.7761  0.8240
 8013SOL     OW35500   3.881   4.594  11.156 -0.3889 -0.6990 -0.0232
 8013SOL    HW135501   3.836   4.663  11.107 -1.1906 -0.9300  0.3925
 8013SOL    HW235502   3.908   4.535  11.086 -1.7084  0.3182 -1.3830
 8014SOL     OW35503   3.981   4.014  15.295 -0.1827 -0.2952  0.7311
 8014SOL    HW135504   3.974   3.956  15.371 -0.7308  0.2270  1.0777
 8014SOL    HW235505   3.949   4.100  15.322  2.4200  1.1378 -0.7026
 8015SOL     OW35506   4.567   4.705   3.534 -0.0375 -0.2867  0.0371
 8015SOL    HW135507   4.539   4.633   3.591  1.0806 -0.3833  0.4588
 8015SOL    HW235508   4.567   0.053   3.599 -0.2426 -1.2963  1.1167
 8016SOL     OW35509   0.178   2.117   1.570 -0.3614  0.3448 -0.3582
 8016SOL    HW135510   0.266   2.086   1.591 -0.6586 -0.7877 -0.8142
 8016SOL    HW235511   0.163   2.075   1.485  2.8087  0.4241 -0.9723
 8017SOL     OW35512   0.458   1.320   2.489  0.1252  0.2362 -0.1388
 8017SOL    HW135513   0.465   1.225   2.499 -0.1540  0.3574  1.2111
 8017SOL    HW235514   0.446   1.321   2.394 -2.7159 -2.3112  0.2369
 8018SOL     OW35515   1.482   2.671  10.564 -0.1695  0.6463 -0.1554
 8018SOL    HW135516   1.513   2.641  10.650  2.0654  2.4741 -0.3319
 8018SOL    HW235517   1.419   2.738  10.592  0.0966  0.7921  0.0908
 8019SOL     OW35518   2.669   1.775  16.440 -0.2994 -0.3343 -0.0076
 8019SOL    HW135519   2.730   1.702  16.453  1.5705  1.1950 -0.2382
 8019SOL    HW235520   2.726   1.827  16.384 -3.3429  1.3605 -1.5300
 8020SOL     OW35521   3.578   2.227   2.157  0.3346  0.1916 -0.0879
 8020SOL    HW135522   3.557   2.301   2.214 -0.6657 -0.1722  0.0302
 8020SOL    HW235523   3.616   2.276   2.084 -3.0858  3.6178  0.4196
 8021SOL     OW35524   3.797   3.985   1.721 -0.3191 -0.5374 -0.5693
 8021SOL    HW135525   3.884   4.023   1.735 -0.3741 -0.2319 -1.0883
 8021SOL    HW235526   3.750   4.012   1.800  0.4560  0.5107 -0.4617
 8022SOL     OW35527   2.489   0.068   9.954  0.5330 -0.5060  0.6177
 8022SOL    HW135528   2.535   0.031  10.030  0.1275 -1.1060  0.5670
 8022SOL    HW235529   2.448   4.710   9.920  0.8386 -0.8993  1.1728
 8023SOL     OW35530   4.207   3.792  10.708 -0.2565 -0.2729  0.2984
 8023SOL    HW135531   4.169   3.879  10.725 -0.5636 -0.4095  0.3254
 8023SOL    HW235532   4.272   3.775  10.776  0.7077  0.9813 -0.3148
 8024SOL     OW35533   1.618   4.534   7.614 -0.4480 -0.8855 -0.7284
 8024SOL    HW135534   1.622   4.486   7.532  1.4349  0.0613 -1.1857
 8024SOL    HW235535   1.699   4.507   7.658 -0.7893  0.6617  0.8668
 8025SOL     OW35536   0.867   0.702  13.759  0.3758 -0.0830 -0.1473
 8025SOL    HW135537   0.867   0.665  13.671  1.8506  1.7749 -0.9439
 8025SOL    HW235538   0.781   0.674  13.791  1.9127 -1.1619  3.0467
 8026SOL     OW35539   2.527   1.139   0.969 -0.0233 -0.6064 -0.0667
 8026SOL    HW135540   2.463   1.070   0.953  1.2157 -1.3597 -1.7600
 8026SOL    HW235541   2.462   1.210   0.974 -0.4293 -0.9486 -0.5563
 8027SOL     OW35542   1.896   2.011   4.616 -0.1034  0.4642  0.5047
 8027SOL    HW135543   1.859   1.935   4.661  0.2357 -0.0464 -0.0621
 8027SOL    HW235544   1.973   1.964   4.582 -0.9673 -0.0539 -0.7433
 8028SOL     OW35545   1.454   3.220  13.518 -0.0562  0.0108  0.2452
 8028SOL    HW135546   1.505   3.219  13.437 -0.4064  1.2212  0.0084
 8028SOL    HW235547   1.496   3.291  13.567 -0.3905  1.0105 -0.9221
 8029SOL     OW35548   0.774   3.029   0.996  0.0687  0.0173  0.1200
 8029SOL    HW135549   0.709   3.063   0.934 -0.2684 -1.1937 -0.1935
 8029SOL    HW235550   0.765   3.083   1.074 -1.7986  0.0990 -0.1407
 8030SOL     OW35551   3.335   2.177   7.155  0.3501 -0.1705  0.3786
 8030SOL    HW135552   3.394   2.176   7.080 -1.3520  2.8427 -0.9911
 8030SOL    HW235553   3.299   2.088   7.148  0.3392 -0.1650  0.3650
 8031SOL     OW35554   3.333   2.406   2.480  0.4963 -0.3150 -0.5606
 8031SOL    HW135555   3.389   2.390   2.556 -1.1819  1.3045  1.0062
 8031SOL    HW235556   3.359   2.330   2.427  1.2916 -0.1110 -0.4706
 8032SOL     OW35557   0.978   0.969   5.053 -0.3637 -0.0178  0.3557
 8032SOL    HW135558   1.067   0.993   5.028  0.1471 -0.9415  1.3271
 8032SOL    HW235559   0.955   1.050   5.099 -0.2172 -1.8018  3.4794
 8033SOL     OW35560   0.342   2.837   9.156 -0.0592  0.2052 -0.1351
 8033SOL    HW135561   0.265   2.892   9.137 -1.6070 -0.3264  4.6887
 8033SOL    HW235562   0.315   2.751   9.124 -0.6388  1.2141 -2.3592
 8034SOL     OW35563   1.961   1.143   4.383  0.0629  0.4537  0.1573
 8034SOL    HW135564   1.887   1.104   4.430  0.1224 -0.9281 -0.9110
 8034SOL    HW235565   2.013   1.063   4.377  0.0137  0.3425  1.1223
 8035SOL     OW35566   1.468   4.608   1.732  0.1748 -0.4943  0.3706
 8035SOL    HW135567   1.509   4.605   1.819  1.5079  2.1130 -0.1883
 8035SOL    HW235568   1.408   4.536   1.754 -0.0042 -0.8190 -1.2229
 8036SOL     OW35569   1.409   2.789  14.898 -0.0258 -0.9892  0.2037
 8036SOL    HW135570   1.494   2.772  14.939  1.3862 -1.3219 -2.8447
 8036SOL    HW235571   1.392   2.699  14.870 -0.3515 -0.6973 -0.5274
 8037SOL     OW35572   0.405   1.758   5.648 -0.2388 -0.4251 -0.0555
 8037SOL    HW135573   0.460   1.750   5.725  1.1605 -1.5169 -1.1652
 8037SOL    HW235574   0.314   1.775   5.671 -0.4823  1.0378 -2.0267
 8038SOL     OW35575   4.062   4.707   6.880  0.2046  0.1231  0.2462
 8038SOL    HW135576   4.118   4.706   6.802  0.1831 -1.7571  0.2678
 8038SOL    HW235577   4.110   0.043   6.939 -1.7944 -0.0615  2.0694
 8039SOL     OW35578   4.028   4.442  17.236 -0.0908  0.3774 -0.4324
 8039SOL    HW135579   3.959   4.389  17.196 -1.2110  1.0206  0.6670
 8039SOL    HW235580   4.000   4.468  17.324  0.2523  1.5793 -0.6759
 8040SOL     OW35581   0.699   0.417   3.254 -0.2795  0.1283 -0.2930
 8040SOL    HW135582   0.648   0.488   3.216  0.9413  1.8103  1.2276
 8040SOL    HW235583   0.643   0.339   3.250  2.0941 -1.6125  0.2797
 8041SOL     OW35584   2.140   4.428   7.845  0.0805  0.4004 -0.8204
 8041SOL    HW135585   2.154   4.339   7.878 -1.1768  0.2468 -0.6819
 8041SOL    HW235586   2.155   4.482   7.922 -0.5017  0.8280 -1.0068
 8042SOL     OW35587   2.176   3.640  10.598  0.0025  0.1687  0.0271
 8042SOL    HW135588   2.087   3.607  10.606 -1.1388  3.8612  2.1962
 8042SOL    HW235589   2.207   3.638  10.688  1.7214  2.2613 -0.5311
 8043SOL     OW35590   1.225   0.266  17.630  0.0889  0.6095 -0.0024
 8043SOL    HW135591   1.169   0.225   0.006  4.1355  0.0261  3.0860
 8043SOL    HW235592   1.171   0.340  17.600  2.0757  2.4023  0.8408
 8044SOL     OW35593   3.071   3.407   7.767  0.2558  0.6094 -0.3071
 8044SOL    HW135594   3.045   3.326   7.811  0.8975  0.7146  0.2714
 8044SOL    HW235595   3.074   3.382   7.675  0.5828  2.2424 -0.7362
 8045SOL     OW35596   2.337   4.660   6.467  0.1177  0.0502 -0.0620
 8045SOL    HW135597   2.374   4.601   6.401 -0.1029 -1.8204  1.4724
 8045SOL    HW235598   2.299   4.603   6.534 -1.1812  0.4107 -0.4933
 8046SOL     OW35599   2.902   2.886   5.303 -0.2785  0.2496  0.4218
 8046SOL    HW135600   2.949   2.867   5.384  0.9269  0.7969 -0.1566
 8046SOL    HW235601   2.860   2.801   5.287 -2.4667  1.2038  1.0554
 8047SOL     OW35602   3.364   1.000  10.148 -0.5037  0.1008 -0.2361
 8047SOL    HW135603   3.365   0.906  10.128  2.5725 -0.0334  0.5316
 8047SOL    HW235604   3.282   1.031  10.109 -0.6479 -1.2103 -1.0015
 8048SOL     OW35605   2.346   1.500   4.788  0.0101  0.0043  0.1223
 8048SOL    HW135606   2.373   1.445   4.714 -2.3441  0.1041 -0.8322
 8048SOL    HW235607   2.302   1.434   4.842 -0.3840  1.1326  1.1802
 8049SOL     OW35608   2.301   2.970   4.098  0.2432  0.3879  0.5594
 8049SOL    HW135609   2.253   2.915   4.036  1.4642  1.5773 -1.4295
 8049SOL    HW235610   2.336   2.911   4.165  1.3524  0.1367 -0.2492
 8050SOL     OW35611   2.587   0.928  11.305 -0.2903  0.2667 -0.3730
 8050SOL    HW135612   2.557   0.840  11.280 -1.5045  0.6814 -0.3654
 8050SOL    HW235613   2.536   0.942  11.385  0.2278  0.2718 -0.0430
 8051SOL     OW35614   2.041   2.908  10.872  0.9928 -0.4951  0.2494
 8051SOL    HW135615   2.093   2.829  10.875  0.7414 -0.6565  0.4312
 8051SOL    HW235616   2.081   2.955  10.946 -2.8788  0.9331  1.4845
 8052SOL     OW35617   2.473   2.387   6.199  0.2471 -0.4460  0.0971
 8052SOL    HW135618   2.513   2.300   6.203  0.0752 -0.4213  2.2130
 8052SOL    HW235619   2.554   2.436   6.218  1.3406 -1.9393 -0.6793
 8053SOL     OW35620   3.043   0.538   7.257 -0.1180 -0.6655  0.2706
 8053SOL    HW135621   3.065   0.480   7.183  0.4996 -2.0299  1.5224
 8053SOL    HW235622   2.960   0.575   7.228  1.0442  1.1165 -0.7413
 8054SOL     OW35623   1.609   2.007   1.386  0.2911 -0.4972 -0.0478
 8054SOL    HW135624   1.705   2.008   1.385  0.2664  0.6845 -0.1729
 8054SOL    HW235625   1.584   1.988   1.295  1.6207  0.1930 -0.5519
 8055SOL     OW35626   3.089   2.826   7.312  0.1384 -0.7049 -0.3148
 8055SOL    HW135627   3.088   2.770   7.390  2.0027  0.1390  0.3298
 8055SOL    HW235628   3.180   2.825   7.283  0.2177 -1.2622 -0.0565
 8056SOL     OW35629   2.148   2.111   5.859 -0.2259  0.0657 -0.5497
 8056SOL    HW135630   2.101   2.048   5.913 -0.2623  2.4998  2.2909
 8056SOL    HW235631   2.160   2.057   5.781  1.1626 -1.5105  0.7548
 8057SOL     OW35632   4.697   4.456   3.781  0.3009  0.0012  0.6068
 8057SOL    HW135633   0.050   4.404   3.753 -1.3578 -2.6498  1.1630
 8057SOL    HW235634   0.022   4.525   3.828 -2.1532  0.1802  2.8359
 8058SOL     OW35635   1.165   4.236   6.389 -0.3096 -0.4284  0.2416
 8058SOL    HW135636   1.098   4.268   6.450  1.3552  1.4357  1.0866
 8058SOL    HW235637   1.112   4.167   6.348 -0.2709 -0.0345 -0.4707
 8059SOL     OW35638   2.348   1.937   5.124  0.1288 -0.4284  0.2799
 8059SOL    HW135639   2.343   1.921   5.029  0.9181 -2.2391  0.5564
 8059SOL    HW235640   2.401   1.862   5.149  0.7870 -0.2199 -0.4897
 8060SOL     OW35641   0.461   2.933   2.800  0.5034  0.2065  0.1888
 8060SOL    HW135642   0.467   2.839   2.786  2.9941  0.3482  0.2462
 8060SOL    HW235643   0.471   2.963   2.710 -1.2725  1.1469  0.2973
 8061SOL     OW35644   0.845   4.569   2.928  0.3482  0.2671  0.4027
 8061SOL    HW135645   0.857   4.637   2.861 -0.5104 -0.0414 -0.0563
 8061SOL    HW235646   0.927   4.520   2.924 -0.3952 -1.0866  1.8357
 8062SOL     OW35647   3.801   2.859   7.080  0.5902 -0.6772  0.4153
 8062SOL    HW135648   3.796   2.929   7.145 -2.2395 -0.9331  0.4456
 8062SOL    HW235649   3.881   2.892   7.039 -1.4879  1.3314 -2.0671
 8063SOL     OW35650   4.568   2.692   8.522 -0.0067 -0.1198 -0.0139
 8063SOL    HW135651   4.550   2.725   8.435  1.3735  0.3786 -0.1194
 8063SOL    HW235652   4.648   2.642   8.504 -1.0635 -1.7370 -0.1860
 8064SOL     OW35653   2.220   3.046  16.200 -0.3501  0.0153  0.6334
 8064SOL    HW135654   2.253   2.963  16.234 -0.5880 -0.0269  0.7587
 8064SOL    HW235655   2.175   3.019  16.120  0.1234  0.8319  0.0917
 8065SOL     OW35656   4.056   1.072  11.790  0.0921 -0.4291  0.2128
 8065SOL    HW135657   4.014   1.064  11.876  1.9227  0.1379  1.1603
 8065SOL    HW235658   4.092   0.983  11.789 -1.0499 -0.8935 -0.3706
 8066SOL     OW35659   3.628   3.274  14.478  0.1802  0.0602 -0.7776
 8066SOL    HW135660   3.628   3.348  14.538  0.3523 -1.1186  0.6632
 8066SOL    HW235661   3.569   3.213  14.522  1.9556 -0.8440  0.3521
 8067SOL     OW35662   2.878   2.380   4.151  0.4382 -0.0733  0.0142
 8067SOL    HW135663   2.909   2.398   4.062  0.1263  0.7974  0.0789
 8067SOL    HW235664   2.798   2.334   4.126 -0.3245  1.8593 -1.1120
 8068SOL     OW35665   1.020   3.610  13.718 -0.0257 -0.2177  0.0484
 8068SOL    HW135666   0.950   3.645  13.663 -0.7932 -0.9639  0.5686
 8068SOL    HW235667   1.099   3.632  13.668  0.5008  1.0088  1.4134
 8069SOL     OW35668   4.217   3.500   5.948  0.1428  0.3664 -0.2568
 8069SOL    HW135669   4.248   3.544   5.869 -0.4224  0.0479 -0.6516
 8069SOL    HW235670   4.123   3.513   5.939 -0.2300 -1.5608  0.7180
 8070SOL     OW35671   0.378   1.143   6.956  0.1196  0.0635 -0.6060
 8070SOL    HW135672   0.440   1.073   6.936  0.1376 -0.0478 -0.1632
 8070SOL    HW235673   0.394   1.205   6.885  0.4984 -0.6055 -1.1050
 8071SOL     OW35674   3.984   0.524  13.656 -0.2453  0.3470  0.3978
 8071SOL    HW135675   3.920   0.570  13.710 -0.7656  1.1991 -0.9522
 8071SOL    HW235676   4.058   0.579  13.682  0.9338 -1.2887  0.5061
 8072SOL     OW35677   4.217   4.401   8.551 -0.0976  0.3165  0.4058
 8072SOL    HW135678   4.170   4.338   8.606 -0.7119  0.1001 -0.3598
 8072SOL    HW235679   4.303   4.374   8.584 -1.0791  1.1656  3.6688
 8073SOL     OW35680   0.652   0.235   7.560 -0.0700  0.0389 -0.1791
 8073SOL    HW135681   0.695   0.213   7.643 -0.3175 -0.1380 -0.0961
 8073SOL    HW235682   0.727   0.281   7.524  0.6065 -2.4042 -1.8655
 8074SOL     OW35683   3.728   1.154  15.994 -0.1818  0.4429  0.1029
 8074SOL    HW135684   3.769   1.222  15.942  1.8094 -1.3614 -0.6819
 8074SOL    HW235685   3.789   1.144  16.067 -0.7972 -0.1755  0.5274
 8075SOL     OW35686   4.392   4.281   6.995  0.6399  0.3410 -0.1571
 8075SOL    HW135687   4.319   4.222   6.975 -0.5974  1.8884 -0.1754
 8075SOL    HW235688   4.458   4.219   7.027 -0.7170 -1.1300 -0.2113
 8076SOL     OW35689   2.969   1.554   7.587 -0.3202  0.3428 -0.3121
 8076SOL    HW135690   2.929   1.625   7.637 -1.8975  0.4050 -1.6436
 8076SOL    HW235691   2.969   1.586   7.497 -1.0709  1.0956 -0.0393
 8077SOL     OW35692   1.458   4.134  15.951  0.2361  0.0335  0.2280
 8077SOL    HW135693   1.451   4.128  16.047 -2.2774  0.3066  0.0503
 8077SOL    HW235694   1.367   4.164  15.942  0.3377 -0.1973 -1.4166
 8078SOL     OW35695   0.360   0.123   6.641 -0.1510 -0.2207  0.3291
 8078SOL    HW135696   0.378   0.048   6.698 -0.2150  0.2320  0.9404
 8078SOL    HW235697   0.397   0.196   6.690  1.5924  0.9639 -2.7467
 8079SOL     OW35698   1.451   1.278   3.578  0.3582 -0.0623 -0.3064
 8079SOL    HW135699   1.497   1.223   3.515  2.8092  0.7148  0.8146
 8079SOL    HW235700   1.494   1.363   3.564  0.1508 -0.2336 -2.0032
 8080SOL     OW35701   4.141   2.010   2.595  0.0545 -0.4384 -0.5268
 8080SOL    HW135702   4.207   2.055   2.648  1.0124 -1.1521 -1.1241
 8080SOL    HW235703   4.066   2.059   2.630  0.3359 -0.7175  0.4779
 8081SOL     OW35704   0.316   1.653   0.893  0.3009  0.5020  0.2666
 8081SOL    HW135705   0.347   1.743   0.893 -0.0992  0.6405  1.3328
 8081SOL    HW235706   0.222   1.665   0.905  0.0055 -0.2876 -1.2989
 8082SOL     OW35707   2.927   2.915   8.728  0.1034 -0.3961  0.1763
 8082SOL    HW135708   3.020   2.903   8.707 -0.3416 -2.6557 -0.4843
 8082SOL    HW235709   2.932   2.955   8.814  0.7619  0.0173 -0.0518
 8083SOL     OW35710   4.469   1.775   6.311  0.6423  0.5526 -0.2234
 8083SOL    HW135711   4.434   1.695   6.351  0.9260  0.4561 -0.1653
 8083SOL    HW235712   4.430   1.760   6.225 -3.0003 -0.3013  1.5888
 8084SOL     OW35713   4.334   3.651   8.639  0.7751  0.5985 -0.1242
 8084SOL    HW135714   4.299   3.562   8.640  0.5404  0.6991  0.9418
 8084SOL    HW235715   4.272   3.714   8.602  0.6049  0.2794 -0.3794
 8085SOL     OW35716   2.472   2.117   9.836 -0.2182 -0.1876  0.2002
 8085SOL    HW135717   2.488   2.081   9.748 -2.5411 -0.3294 -0.1609
 8085SOL    HW235718   2.440   2.043   9.888  0.3175 -0.1984  0.5219
 8086SOL     OW35719   4.412   2.939   9.196  0.7166 -0.9148  0.2058
 8086SOL    HW135720   4.444   3.029   9.205  1.4141 -0.9619 -1.7116
 8086SOL    HW235721   4.415   2.915   9.289 -0.5002 -2.8598 -0.2754
 8087SOL     OW35722   4.586   3.292   8.173 -0.0643  0.1575 -0.4091
 8087SOL    HW135723   4.536   3.211   8.187  1.6706 -0.7211  0.6550
 8087SOL    HW235724   4.527   3.367   8.179  0.0662  0.1933  0.3451
 8088SOL     OW35725   0.614   2.408   6.742 -0.1021 -0.3301  0.0802
 8088SOL    HW135726   0.639   2.380   6.654 -0.3288 -1.9569  0.5343
 8088SOL    HW235727   0.558   2.484   6.726  0.8083  0.4796  0.7313
 8089SOL     OW35728   3.883   3.656  12.270 -0.0037 -0.2683  0.1745
 8089SOL    HW135729   3.975   3.662  12.242 -1.0058  2.2428 -2.5169
 8089SOL    HW235730   3.884   3.605  12.351  0.0378 -1.3669 -0.5104
 8090SOL     OW35731   1.768   4.167   8.240 -0.0262 -0.0616  0.5296
 8090SOL    HW135732   1.825   4.138   8.311  2.1546  3.6541  0.3058
 8090SOL    HW235733   1.680   4.149   8.273 -0.5661  0.9869 -0.3277
 8091SOL     OW35734   1.624   1.189   8.006 -0.5765  0.0890  0.9448
 8091SOL    HW135735   1.683   1.265   8.008 -1.2818  0.6364  1.2131
 8091SOL    HW235736   1.610   1.202   7.912 -0.4702  3.9090  1.4318
 8092SOL     OW35737   4.135   1.570   7.727 -0.3189 -0.4516  0.1901
 8092SOL    HW135738   4.188   1.643   7.696  0.0667  0.3021  2.5957
 8092SOL    HW235739   4.134   1.573   7.823 -2.5772 -0.5408  0.1852
 8093SOL     OW35740   3.589   1.676  13.357 -0.2534  0.4249 -0.3251
 8093SOL    HW135741   3.543   1.736  13.415 -0.5057 -0.4516  0.3907
 8093SOL    HW235742   3.608   1.722  13.276  0.5921  1.4427  0.4370
 8094SOL     OW35743   1.865   0.724   3.968 -0.0048  0.4072  0.0402
 8094SOL    HW135744   1.885   0.808   4.010  0.2284 -0.1668  1.0652
 8094SOL    HW235745   1.777   0.738   3.931 -0.9641 -0.8027  1.8836
 8095SOL     OW35746   1.383   1.708   2.769 -0.1101  0.2450  0.2735
 8095SOL    HW135747   1.378   1.779   2.705  3.4631  1.4105  1.2328
 8095SOL    HW235748   1.476   1.685   2.767 -0.6425 -1.6820 -1.8102
 8096SOL     OW35749   1.006   0.131   2.639  0.5776 -0.3476  0.3221
 8096SOL    HW135750   1.044   0.051   2.602  2.3771  0.0912  1.2075
 8096SOL    HW235751   1.045   0.141   2.726 -0.6110 -0.1915  0.8338
 8097SOL     OW35752   2.306   3.528   7.751  0.4326  0.1827 -0.1913
 8097SOL    HW135753   2.313   3.499   7.842 -1.4375  3.6966  1.0532
 8097SOL    HW235754   2.341   3.616   7.766 -0.3811  0.3361  0.7968
 8098SOL     OW35755   3.224   1.093   6.576  0.4884 -0.0422  0.3334
 8098SOL    HW135756   3.295   1.029   6.582 -0.4634 -1.0155  1.1881
 8098SOL    HW235757   3.145   1.041   6.590  0.1657  0.6147  0.9315
 8099SOL     OW35758   3.169   2.693   2.763 -0.1568 -0.0392 -0.5560
 8099SOL    HW135759   3.262   2.709   2.751  0.1613 -0.7722  0.9274
 8099SOL    HW235760   3.135   2.653   2.683 -0.1073  0.8779 -1.0324
 8100SOL     OW35761   3.240   1.146   5.824  0.0942  0.4792  0.7415
 8100SOL    HW135762   3.257   1.059   5.860 -1.0672  0.5112  1.3893
 8100SOL    HW235763   3.239   1.203   5.901  0.7433  0.2021  0.9445
 8101SOL     OW35764   0.817   1.902  11.874 -0.5005 -0.6393 -0.4585
 8101SOL    HW135765   0.739   1.946  11.840 -0.4658 -0.5270 -0.3928
 8101SOL    HW235766   0.853   1.972  11.929  0.3265 -0.3234 -1.3984
 8102SOL     OW35767   1.829   0.298   7.161 -0.4121 -0.1158 -0.2837
 8102SOL    HW135768   1.793   0.209   7.165  0.3720 -0.3947  0.5952
 8102SOL    HW235769   1.804   0.322   7.250  0.2821  2.3663 -0.7656
 8103SOL     OW35770   3.519   4.398   7.621 -0.3819  0.7330 -0.4599
 8103SOL    HW135771   3.581   4.408   7.693  0.3578 -1.3771 -0.8111
 8103SOL    HW235772   3.572   4.357   7.553  1.3737  0.6748  0.9492
 8104SOL     OW35773   2.207   2.446   8.805 -0.5065  0.1043  0.1038
 8104SOL    HW135774   2.281   2.483   8.852  0.2638 -1.1313 -0.1637
 8104SOL    HW235775   2.139   2.453   8.872  1.9304  0.9305  2.4879
 8105SOL     OW35776   1.154   3.612   5.595  0.9810 -0.2411 -0.2057
 8105SOL    HW135777   1.127   3.657   5.675  0.1164  0.1403 -0.7214
 8105SOL    HW235778   1.146   3.682   5.531  2.9380  0.0512 -0.1435
 8106SOL     OW35779   0.238   4.576  15.195  0.2376  0.0700  0.2545
 8106SOL    HW135780   0.329   4.581  15.225  0.1812  1.9114  0.1120
 8106SOL    HW235781   0.248   4.605  15.104 -0.0615  1.0215  0.5245
 8107SOL     OW35782   2.403   3.939   5.365 -0.3733 -0.6796 -0.0384
 8107SOL    HW135783   2.345   3.964   5.437 -1.4969 -1.3601 -0.7054
 8107SOL    HW235784   2.343   3.940   5.290  1.7371 -1.9732 -1.7279
 8108SOL     OW35785   1.742   2.430   5.896 -0.0129  0.0471 -0.4196
 8108SOL    HW135786   1.788   2.513   5.885  2.7170 -1.3880  0.2135
 8108SOL    HW235787   1.814   2.368   5.906  0.5373 -0.0551 -4.8748
 8109SOL     OW35788   0.057   3.811  12.768  0.1711  0.1807  0.1357
 8109SOL    HW135789   4.709   3.867  12.734  2.3122  2.7321 -0.0021
 8109SOL    HW235790   0.031   3.812  12.861 -0.3152  0.6162 -0.0059
 8110SOL     OW35791   2.684   1.109   9.043 -0.1405 -0.4690  0.0211
 8110SOL    HW135792   2.779   1.113   9.047 -0.1990 -0.5948  1.5260
 8110SOL    HW235793   2.669   1.143   8.955  0.5547  0.3376  0.2097
 8111SOL     OW35794   2.428   4.499  11.908 -0.1528  0.1922  0.4756
 8111SOL    HW135795   2.466   4.476  11.823 -1.7731 -0.8046  0.0114
 8111SOL    HW235796   2.337   4.513  11.881  0.4418  2.9363 -0.0429
 8112SOL     OW35797   1.751   4.397  13.832 -0.4582  0.2369 -0.8133
 8112SOL    HW135798   1.673   4.371  13.782 -0.0991 -3.0605  0.3057
 8112SOL    HW235799   1.719   4.485  13.851  1.3203  0.5460  0.7775
 8113SOL     OW35800   3.207   2.245   0.298 -0.4630  0.6106  0.8606
 8113SOL    HW135801   3.137   2.307   0.279 -0.7238 -0.0875 -0.5015
 8113SOL    HW235802   3.282   2.297   0.327  1.8266 -2.0120 -0.3059
 8114SOL     OW35803   4.691   0.289   9.501 -0.1242  0.1153  0.1160
 8114SOL    HW135804   4.638   0.348   9.555  2.5789 -0.0363  2.8899
 8114SOL    HW235805   4.718   0.217   9.558  1.5025  1.4350  1.0130
 8115SOL     OW35806   0.294   1.536   8.398  0.4667 -0.0486  0.0081
 8115SOL    HW135807   0.362   1.598   8.426 -1.3144 -0.7150  5.7124
 8115SOL    HW235808   0.293   1.486   8.480 -2.6881  1.6965  1.0334
 8116SOL     OW35809   0.224   4.126   1.523 -0.6345  0.7403  0.2834
 8116SOL    HW135810   0.256   4.169   1.443  1.4807 -0.0109  0.7089
 8116SOL    HW235811   0.278   4.170   1.590 -1.0504  0.1447  1.0003
 8117SOL     OW35812   0.835   1.255   8.020 -0.8043 -0.7282  0.0467
 8117SOL    HW135813   0.742   1.239   8.033 -0.8330  0.0646  0.8258
 8117SOL    HW235814   0.849   1.196   7.946 -1.7699 -1.7867  0.7031
 8118SOL     OW35815   4.303   2.808   1.033 -0.1778 -0.2052 -0.3925
 8118SOL    HW135816   4.368   2.800   1.102  0.4526 -1.4633 -1.1186
 8118SOL    HW235817   4.234   2.752   1.070  1.0306  0.1303  2.3595
 8119SOL     OW35818   1.666   3.981   5.691  0.0381 -0.6068  0.3164
 8119SOL    HW135819   1.686   3.892   5.664 -0.3241 -0.9800  1.2719
 8119SOL    HW235820   1.614   4.024   5.623  0.1523 -0.3255  0.4072
 8120SOL     OW35821   0.149   0.153   7.675 -0.2797  0.2013  0.3354
 8120SOL    HW135822   0.055   0.161   7.658  0.0431 -1.1866 -2.0950
 8120SOL    HW235823   0.140   0.179   7.767  3.3434  2.2516  0.1332
 8121SOL     OW35824   0.009   3.642  17.064 -0.2197  0.4664  0.0593
 8121SOL    HW135825   4.721   3.550  17.042 -2.2824  0.5399  0.6258
 8121SOL    HW235826   0.081   3.665  17.005 -0.9645 -2.1141 -1.8555
 8122SOL     OW35827   1.814   0.629   6.013  0.1935  0.1475  0.1695
 8122SOL    HW135828   1.892   0.579   6.038 -0.0966 -0.6682 -0.5634
 8122SOL    HW235829   1.808   0.618   5.918  2.4036 -0.8827  0.1449
 8123SOL     OW35830   2.551   3.112   3.892  0.2378  0.1302 -0.1035
 8123SOL    HW135831   2.554   3.164   3.972 -1.4187  1.0009 -0.6147
 8123SOL    HW235832   2.619   3.155   3.841  1.6879 -0.9745  0.8700
 8124SOL     OW35833   1.002   0.800   2.606 -0.1266 -0.4568  0.1217
 8124SOL    HW135834   1.043   0.739   2.544  2.6588 -2.1272  3.5782
 8124SOL    HW235835   0.941   0.844   2.547 -0.5701 -0.6221  0.4592
 8125SOL     OW35836   3.893   0.499   4.555 -0.3043  0.0690 -0.0832
 8125SOL    HW135837   3.950   0.451   4.615  0.3318  1.0202  0.0778
 8125SOL    HW235838   3.890   0.586   4.594  3.0632  0.8614 -1.5634
 8126SOL     OW35839   4.248   2.139  14.918 -0.0768 -0.3015  0.1055
 8126SOL    HW135840   4.167   2.112  14.874 -0.4928  0.4068  0.4325
 8126SOL    HW235841   4.305   2.174  14.850  0.7533  0.9086  1.4212
 8127SOL     OW35842   0.452   1.237   4.143 -0.1791  0.8685  0.4203
 8127SOL    HW135843   0.424   1.198   4.226  0.3155 -0.0443  0.1524
 8127SOL    HW235844   0.428   1.169   4.080  1.1315 -0.9804  1.9072
 8128SOL     OW35845   3.684   0.773   6.932 -0.0363 -0.3015  0.4537
 8128SOL    HW135846   3.686   0.868   6.926 -0.5286 -0.5079 -3.0889
 8128SOL    HW235847   3.590   0.764   6.947  0.4199 -1.6158  2.4887
 8129SOL     OW35848   4.337   4.685  13.685 -0.0169  0.0847  0.0999
 8129SOL    HW135849   4.262   4.636  13.719  0.0274  0.5795  0.9033
 8129SOL    HW235850   4.282   0.035  13.656  0.9237 -0.7520 -3.6705
 8130SOL     OW35851   2.437   4.010   6.561  0.3404 -0.4752 -0.1580
 8130SOL    HW135852   2.349   4.046   6.557  0.6448  0.4346  1.3384
 8130SOL    HW235853   2.425   3.919   6.536 -1.5103 -0.1633 -0.4070
 8131SOL     OW35854   2.798   1.157   3.264 -0.6158 -0.5504  0.0441
 8131SOL    HW135855   2.750   1.079   3.237  2.3860 -1.6833 -1.9986
 8131SOL    HW235856   2.850   1.131   3.340 -0.7915  1.6524  0.9148
 8132SOL     OW35857   0.475   1.654   2.869 -0.6351  0.1070  0.2603
 8132SOL    HW135858   0.380   1.657   2.863 -0.7871 -0.9506  2.2759
 8132SOL    HW235859   0.486   1.602   2.789 -0.6590  0.1615  0.2222
 8133SOL     OW35860   2.210   1.659   5.418  0.1243  0.2683 -0.7773
 8133SOL    HW135861   2.117   1.677   5.434 -0.0349 -0.5973 -0.7504
 8133SOL    HW235862   2.198   1.611   5.336  1.0355 -0.7816 -0.2923
 8134SOL     OW35863   1.317   4.327   7.696 -0.7590  0.0471 -0.1858
 8134SOL    HW135864   1.402   4.371   7.702 -0.0212 -1.4771  0.5726
 8134SOL    HW235865   1.305   4.314   7.790 -2.4936 -1.3916 -0.6270
 8135SOL     OW35866   4.675   0.475  14.459 -0.0591 -0.0458  0.0192
 8135SOL    HW135867   4.707   0.456  14.547 -1.1730 -1.1727  0.1661
 8135SOL    HW235868   4.656   0.391  14.418  1.2170 -0.7209  0.7982
 8136SOL     OW35869   3.796   2.504   8.009  0.0742  0.6125 -0.0798
 8136SOL    HW135870   3.825   2.512   8.100 -1.2774  0.8427  0.3335
 8136SOL    HW235871   3.866   2.444   7.984 -0.4382  0.5783 -1.4029
 8137SOL     OW35872   3.237   0.166   0.574  0.0932  0.9894 -0.5103
 8137SOL    HW135873   3.239   0.258   0.603 -0.2977  1.1148 -0.8794
 8137SOL    HW235874   3.150   0.141   0.605 -0.1788  0.1783 -1.9629
 8138SOL     OW35875   0.458   3.285   9.061  0.4579 -0.7121  0.2288
 8138SOL    HW135876   0.515   3.306   9.135  0.2772  0.4859  0.0342
 8138SOL    HW235877   0.422   3.198   9.080  0.8233 -0.7167  0.8757
 8139SOL     OW35878   4.600   2.832   8.263 -0.3844 -0.3312 -0.4189
 8139SOL    HW135879   4.541   2.907   8.270 -2.7198 -2.1328 -0.7591
 8139SOL    HW235880   4.629   2.849   8.173  0.4740  0.2100 -0.0356
 8140SOL     OW35881   0.073   1.357   8.535 -0.6317 -0.3841  0.8073
 8140SOL    HW135882   0.046   1.311   8.614 -0.7880  1.1658  1.6689
 8140SOL    HW235883   0.141   1.294   8.509  0.9843  1.1507  1.2850
 8141SOL     OW35884   2.044   3.031   3.640  0.3098 -0.1465 -0.3050
 8141SOL    HW135885   1.976   3.044   3.574 -0.1806 -1.3541 -0.0240
 8141SOL    HW235886   2.111   2.981   3.594  0.6806 -0.4318  0.5487
 8142SOL     OW35887   2.475   3.409   4.705  0.0236  0.9415  0.6656
 8142SOL    HW135888   2.544   3.474   4.696  0.1908  0.5052 -1.2648
 8142SOL    HW235889   2.521   3.336   4.746 -2.3707 -1.2488 -0.5031
 8143SOL     OW35890   2.388   1.977  17.489  0.3253 -0.3458 -0.8925
 8143SOL    HW135891   2.402   1.893  17.445  0.1822 -0.4769 -0.6894
 8143SOL    HW235892   2.296   1.967  17.511  0.5345  0.8786  0.5538
 8144SOL     OW35893   2.854   0.528   3.046 -0.2217 -0.3734 -0.2843
 8144SOL    HW135894   2.777   0.548   2.992  1.0202 -0.5886 -2.1310
 8144SOL    HW235895   2.867   0.610   3.094 -2.0609  0.4442 -1.1759
 8145SOL     OW35896   0.757   4.220  10.461  0.4956 -0.1936  0.0993
 8145SOL    HW135897   0.763   4.302  10.412  0.3618 -1.0675 -1.3538
 8145SOL    HW235898   0.666   4.203  10.435 -0.0793  0.8695  1.4126
 8146SOL     OW35899   1.662   1.823   4.276  0.4717  0.8073  0.5655
 8146SOL    HW135900   1.730   1.880   4.242  2.2983 -2.5306 -1.3102
 8146SOL    HW235901   1.586   1.874   4.306 -0.2567  0.3773 -0.5285
 8147SOL     OW35902   1.943   2.712  14.440  0.1811  0.1172 -0.2278
 8147SOL    HW135903   1.864   2.761  14.459  0.8496  0.2584  2.1785
 8147SOL    HW235904   2.011   2.778  14.432 -0.8678  1.2380  0.1533
 8148SOL     OW35905   3.803   4.598   8.624 -0.2997  0.3718 -0.8048
 8148SOL    HW135906   3.731   4.538   8.605 -0.1038 -0.0239 -0.3013
 8148SOL    HW235907   3.821   4.643   8.542 -0.0344 -1.5767 -1.7899
 8149SOL     OW35908   4.051   3.511   6.536 -0.0891  0.3158 -0.1688
 8149SOL    HW135909   4.125   3.450   6.530 -1.5313 -1.4861  0.3612
 8149SOL    HW235910   4.036   3.499   6.630  0.3481  0.1177 -0.1258
 8150SOL     OW35911   3.500   4.324  14.091  0.8478 -0.7192  0.4995
 8150SOL    HW135912   3.419   4.294  14.051  1.0186  0.8846 -1.0565
 8150SOL    HW235913   3.535   4.238  14.117 -0.5623 -0.6266  2.6466
 8151SOL     OW35914   2.143   4.480   6.578  0.0934  0.4072  0.0580
 8151SOL    HW135915   2.074   4.416   6.597 -1.1161  1.9520  0.8356
 8151SOL    HW235916   2.213   4.439   6.630  1.7644  1.4994 -1.3209
 8152SOL     OW35917   4.636   0.736   5.367 -0.0472 -0.3818  0.3030
 8152SOL    HW135918   4.580   0.720   5.291 -1.8173 -0.4209  1.6245
 8152SOL    HW235919   4.566   0.721   5.431 -0.2933 -0.7866 -0.0548
 8153SOL     OW35920   3.367   0.061   6.155  0.1409 -0.4048  0.0833
 8153SOL    HW135921   3.406   0.087   6.238  0.7145  0.7993 -0.5607
 8153SOL    HW235922   3.375   0.144   6.108 -0.4229 -0.6615 -0.4644
 8154SOL     OW35923   0.925   3.541   4.016  1.1230 -0.0006 -0.0574
 8154SOL    HW135924   0.860   3.473   3.996  1.7161 -0.9438  1.2484
 8154SOL    HW235925   0.876   3.623   4.007  0.3449 -0.6418 -1.6898
 8155SOL     OW35926   4.719   1.040   8.712  0.3437 -0.3049 -0.2090
 8155SOL    HW135927   4.626   1.018   8.710  0.0182  0.8948  1.8137
 8155SOL    HW235928   0.029   1.003   8.630 -2.1943 -0.8079 -0.9527
 8156SOL     OW35929   0.703   1.386  13.189  0.0427 -0.7377 -0.3654
 8156SOL    HW135930   0.738   1.410  13.275  1.3839  2.8348 -1.8992
 8156SOL    HW235931   0.788   1.410  13.151 -0.6559  0.0830 -1.4153
 8157SOL     OW35932   4.564   0.063  13.610 -0.7242 -0.2453  0.1555
 8157SOL    HW135933   4.486   0.017  13.641 -0.4422 -1.1511 -0.4965
 8157SOL    HW235934   4.569   0.139  13.668 -0.1587  1.3585 -1.9990
 8158SOL     OW35935   0.531   2.624  15.268 -0.0240 -0.1706 -0.2220
 8158SOL    HW135936   0.597   2.621  15.337  0.3634  2.5180 -0.4762
 8158SOL    HW235937   0.535   2.717  15.247 -0.3811 -0.2580 -0.6753
 8159SOL     OW35938   0.686   4.422   3.723  1.0383 -0.3210 -0.1542
 8159SOL    HW135939   0.754   4.489   3.713  2.1879 -1.6590 -1.3816
 8159SOL    HW235940   0.708   4.376   3.803 -1.4122  0.3642  0.8963
 8160SOL     OW35941   3.023   2.812  13.686  0.3343 -0.2728  0.5318
 8160SOL    HW135942   2.940   2.806  13.733  0.8754  1.9592  1.7687
 8160SOL    HW235943   3.086   2.814  13.759 -0.2088 -1.8033  1.0396
 8161SOL     OW35944   0.761   3.257   9.542 -0.1549  0.2313 -0.2300
 8161SOL    HW135945   0.772   3.325   9.475  1.1956  1.0567  0.8470
 8161SOL    HW235946   0.845   3.263   9.585  0.1336 -1.2725 -0.5724
 8162SOL     OW35947   2.048   4.204   5.030 -0.4651 -0.2140 -0.0236
 8162SOL    HW135948   2.048   4.149   5.108 -1.5142 -0.2663 -0.0662
 8162SOL    HW235949   1.953   4.210   5.022 -0.1248  3.7635 -1.2004
 8163SOL     OW35950   2.472   1.955   5.959  0.1279 -0.5353 -0.0920
 8163SOL    HW135951   2.431   1.874   5.927 -1.1692 -1.0134  2.7988
 8163SOL    HW235952   2.557   1.919   5.985  1.4932  1.1356 -2.1924
 8164SOL     OW35953   1.346   4.372   1.643 -0.1735 -0.4336  0.8786
 8164SOL    HW135954   1.256   4.348   1.667 -0.3236  0.4370  1.1648
 8164SOL    HW235955   1.390   4.305   1.695  2.0502 -0.9423 -1.6751
 8165SOL     OW35956   2.753   0.059  15.132 -0.6038  0.1349  0.1145
 8165SOL    HW135957   2.699   0.088  15.058 -0.3953 -0.4980 -0.2758
 8165SOL    HW235958   2.758   4.686  15.131  2.9301  0.3639 -2.0666
 8166SOL     OW35959   3.297   1.623  13.438  0.2712 -0.5359  0.3355
 8166SOL    HW135960   3.208   1.593  13.457 -1.2441  3.2288 -0.8146
 8166SOL    HW235961   3.327   1.673  13.514  1.0888 -2.4694  1.2873
 8167SOL     OW35962   0.828   1.481   2.755 -0.1960 -0.0872  0.5737
 8167SOL    HW135963   0.761   1.518   2.697  0.6866 -3.0710 -2.3495
 8167SOL    HW235964   0.879   1.437   2.687 -0.8782  1.4211 -0.9093
 8168SOL     OW35965   1.660   0.253   3.234  0.2344  0.0118  1.2363
 8168SOL    HW135966   1.639   0.334   3.280  2.5426  0.5410  1.3950
 8168SOL    HW235967   1.749   0.247   3.271 -0.2210  1.5712  2.5838
 8169SOL     OW35968   1.340   1.281   6.846  0.0518  0.2590 -0.1293
 8169SOL    HW135969   1.383   1.243   6.923 -1.9903 -1.4304  0.1743
 8169SOL    HW235970   1.418   1.287   6.790 -0.2296 -0.2106 -0.5673
 8170SOL     OW35971   1.534   2.925  10.120  0.0930 -0.1299 -0.0121
 8170SOL    HW135972   1.536   2.879  10.203  1.0317  0.1902  0.1441
 8170SOL    HW235973   1.627   2.944  10.107 -0.1305  0.1666 -1.1645
 8171SOL     OW35974   4.152   4.585   7.623 -0.6720 -0.2400 -0.4226
 8171SOL    HW135975   4.091   4.538   7.567 -1.3288 -0.4792  0.4973
 8171SOL    HW235976   4.111   4.571   7.708  2.7019 -1.0154  1.0941
 8172SOL     OW35977   0.521   1.825   7.840 -0.3200  0.0120 -0.3626
 8172SOL    HW135978   0.454   1.892   7.827  2.2208  2.6430  0.1934
 8172SOL    HW235979   0.531   1.778   7.757 -0.3867  0.3313 -0.5499
 8173SOL     OW35980   2.333   3.924   9.103  0.1649 -0.0391 -0.0786
 8173SOL    HW135981   2.254   3.974   9.084  0.6461  0.3393 -1.0990
 8173SOL    HW235982   2.310   3.876   9.183 -0.9051 -0.9194 -0.9136
 8174SOL     OW35983   3.678   2.359   1.206  0.7383 -0.0513  0.2270
 8174SOL    HW135984   3.599   2.311   1.230  1.0267  0.2947  1.8961
 8174SOL    HW235985   3.741   2.299   1.246  0.5081  1.0415  2.2466
 8175SOL     OW35986   0.271   0.183   4.534  0.6729  0.3564  0.4648
 8175SOL    HW135987   0.223   0.197   4.452  1.5168  1.0179  0.0902
 8175SOL    HW235988   0.317   0.267   4.532  1.3258  0.0006  0.5811
 8176SOL     OW35989   0.066   3.187  11.844  0.2052  0.6121 -0.0046
 8176SOL    HW135990   0.136   3.211  11.904  1.5277 -2.0074 -0.4994
 8176SOL    HW235991   0.068   3.267  11.791 -0.2995  2.1856  2.3182
 8177SOL     OW35992   3.441   1.292   4.914 -0.2618  0.1537  0.2311
 8177SOL    HW135993   3.391   1.336   4.983 -0.0500 -2.2563  1.8937
 8177SOL    HW235994   3.414   1.201   4.926 -1.6314  0.4447 -0.5501
 8178SOL     OW35995   3.464   3.486   5.198  0.0244  0.6763 -0.7451
 8178SOL    HW135996   3.410   3.412   5.173 -0.0094  0.7147 -0.7846
 8178SOL    HW235997   3.555   3.455   5.196  0.1771  1.0959 -0.5107
 8179SOL     OW35998   1.590   1.853   3.814  0.3126  0.2164  0.1493
 8179SOL    HW135999   1.617   1.927   3.868 -1.6871 -0.6021  2.2213
 8179SOL    HW236000   1.552   1.917   3.754 -0.8699  0.2162  0.8963
 8180SOL     OW36001   3.070   4.630  15.624  0.2502  0.3974 -0.7923
 8180SOL    HW136002   2.983   4.599  15.598 -0.2280  1.3981 -0.4155
 8180SOL    HW236003   3.083   4.685  15.548 -0.8056  0.5115 -0.8930
 8181SOL     OW36004   1.139   1.649  13.356  0.1109  0.0078 -0.3583
 8181SOL    HW136005   1.167   1.681  13.270  0.4187  1.1242  0.1579
 8181SOL    HW236006   1.135   1.732  13.403 -0.7965 -0.5955  0.6317
 8182SOL     OW36007   4.608   0.132   5.675  0.1553  0.5905 -0.0574
 8182SOL    HW136008   4.619   0.148   5.768 -0.4613 -0.8027  0.2429
 8182SOL    HW236009   4.518   0.159   5.656  0.4926  1.1490 -0.8995
 8183SOL     OW36010   2.140   0.338   9.920 -0.3536 -0.6173  0.2314
 8183SOL    HW136011   2.191   0.338  10.000  0.2533 -0.5578 -0.1558
 8183SOL    HW236012   2.048   0.318   9.939 -1.5214  3.0753 -1.5877
 8184SOL     OW36013   4.532   1.024  15.050 -0.2060  0.2321  0.3637
 8184SOL    HW136014   4.501   0.942  15.011 -0.4247  0.3162  0.3573
 8184SOL    HW236015   4.594   1.035  14.978 -1.8195  1.2538 -0.8833
 8185SOL     OW36016   2.366   4.408   8.948 -0.1323 -0.0227 -0.1419
 8185SOL    HW136017   2.417   4.358   9.011 -0.8675 -0.3767  0.1744
 8185SOL    HW236018   2.359   4.496   8.984 -1.7677 -0.5459  0.8153
 8186SOL     OW36019   0.749   2.168   8.286 -0.0786 -0.1899 -0.0213
 8186SOL    HW136020   0.774   2.122   8.366  1.7288 -0.9286 -0.9965
 8186SOL    HW236021   0.703   2.098   8.240  0.2583 -0.1457 -0.4312
 8187SOL     OW36022   1.912   1.147   9.635  0.0069  0.5451 -0.4200
 8187SOL    HW136023   1.882   1.128   9.546 -0.8133  1.1568 -0.2754
 8187SOL    HW236024   1.839   1.128   9.694  1.9563  1.7138  2.3657
 8188SOL     OW36025   1.027   2.864   0.583  0.3389  0.2529 -0.0624
 8188SOL    HW136026   0.950   2.889   0.532 -1.1190 -0.7564  1.6443
 8188SOL    HW236027   0.999   2.880   0.673 -2.5046  2.1805 -1.2826
 8189SOL     OW36028   2.143   2.144  17.265  0.1000 -0.2060 -0.2583
 8189SOL    HW136029   2.063   2.196  17.276  0.3663 -0.4253  2.5480
 8189SOL    HW236030   2.153   2.113  17.355  1.3969  1.0924  0.0412
 8190SOL     OW36031   0.137   3.724  17.302 -0.0174  0.1555  0.0312
 8190SOL    HW136032   0.109   3.746  17.213  0.1013 -4.8784 -1.2650
 8190SOL    HW236033   0.160   3.810  17.338  0.0715  0.3470 -0.4802
 8191SOL     OW36034   1.130   2.901   3.623  0.1189 -0.0218  0.5473
 8191SOL    HW136035   1.183   2.841   3.676 -0.5384 -0.2858  0.9003
 8191SOL    HW236036   1.196   2.962   3.590 -1.1322  0.6736 -0.6775
 8192SOL     OW36037   4.712   3.093  13.612 -0.1666  0.3462  0.0048
 8192SOL    HW136038   0.078   3.065  13.587 -1.3435 -1.2948 -2.2869
 8192SOL    HW236039   4.715   3.187  13.595  0.0051  0.5603  1.2456
 8193SOL     OW36040   1.697   4.241   3.954  0.1246 -0.1060  0.5756
 8193SOL    HW136041   1.742   4.260   3.872 -0.2866 -0.6669  0.2189
 8193SOL    HW236042   1.642   4.319   3.966 -0.5195 -0.4719  0.0274
 8194SOL     OW36043   4.466   3.096   4.337 -0.2655 -0.0877  0.1909
 8194SOL    HW136044   4.515   3.015   4.328  1.2259  0.9267 -0.7354
 8194SOL    HW236045   4.529   3.164   4.314 -0.3907 -0.8448 -2.4111
 8195SOL     OW36046   3.953   2.645  16.198  0.1462  0.8804 -0.2314
 8195SOL    HW136047   4.015   2.607  16.136 -0.5090 -0.8655  0.1655
 8195SOL    HW236048   3.986   2.734  16.192  1.1572  0.4084 -1.5240
 8196SOL     OW36049   0.280   3.652   4.738 -0.0814  0.4459 -0.2897
 8196SOL    HW136050   0.282   3.558   4.759 -1.5111  0.8301  1.6382
 8196SOL    HW236051   0.300   3.655   4.645  1.4782  0.2001  0.0229
 8197SOL     OW36052   2.565   1.776  10.207  0.0981  0.7227 -0.1194
 8197SOL    HW136053   2.629   1.845  10.190 -0.1435  1.7346  3.1359
 8197SOL    HW236054   2.597   1.746  10.292 -1.9006 -0.3318  0.2517
 8198SOL     OW36055   1.270   3.876   3.643 -0.4741 -0.1501 -0.2218
 8198SOL    HW136056   1.316   3.858   3.562  1.5923  1.8868  0.4867
 8198SOL    HW236057   1.283   3.793   3.689  2.9248 -0.2274 -1.3481
 8199SOL     OW36058   3.284   4.296  14.530 -0.1550 -0.6744 -0.7168
 8199SOL    HW136059   3.300   4.201  14.537 -2.0061 -0.9813 -0.6240
 8199SOL    HW236060   3.268   4.320  14.439  0.6406  1.9916 -0.1370
 8200SOL     OW36061   2.034   2.963  11.330  0.1107  0.0465  0.5315
 8200SOL    HW136062   2.044   2.939  11.422 -1.7332 -1.9622  0.1956
 8200SOL    HW236063   2.120   3.003  11.315  0.3977 -0.3934  0.9845
 8201SOL     OW36064   3.736   2.997   1.727  0.0275 -0.3444  0.0184
 8201SOL    HW136065   3.663   3.055   1.749 -1.1065 -1.3286 -1.1124
 8201SOL    HW236066   3.768   2.976   1.814 -0.1734  1.3479  0.4938
 8202SOL     OW36067   2.803   3.427   3.407  0.0723 -0.1072  0.0309
 8202SOL    HW136068   2.736   3.359   3.397 -0.1767  0.3082 -1.1417
 8202SOL    HW236069   2.764   3.478   3.335 -1.1921 -2.1842 -0.7851
 8203SOL     OW36070   2.526   1.015  10.218  0.2017  1.1909  1.1577
 8203SOL    HW136071   2.505   0.934  10.172  0.1415  0.1433  3.0322
 8203SOL    HW236072   2.567   0.983  10.299  0.6140  1.4412  1.0486
 8204SOL     OW36073   2.593   4.563   4.011 -0.6476 -0.0915 -0.3884
 8204SOL    HW136074   2.547   4.480   4.025  0.7538 -1.0521 -1.3616
 8204SOL    HW236075   2.523   4.626   3.998  0.4945  1.0183 -1.2186
 8205SOL     OW36076   2.676   3.147   7.657  0.2513  0.7730  0.0540
 8205SOL    HW136077   2.653   3.069   7.607  1.1580  1.4260 -1.3994
 8205SOL    HW236078   2.770   3.134   7.670  0.4383  1.8488 -0.1929
 8206SOL     OW36079   0.154   1.135   4.438 -0.2261 -0.3334 -0.4040
 8206SOL    HW136080   0.097   1.196   4.486  1.5679  0.1765  1.0608
 8206SOL    HW236081   0.097   1.059   4.427  1.2341 -0.9118 -3.8316
 8207SOL     OW36082   1.850   2.524  10.428 -0.3842 -0.2913 -0.5653
 8207SOL    HW136083   1.901   2.443  10.417 -0.6411 -0.7645  1.7807
 8207SOL    HW236084   1.901   2.580  10.487 -0.6433 -3.3675  2.6002
 8208SOL     OW36085   2.645   4.421  15.824  0.0723 -0.0688 -0.0342
 8208SOL    HW136086   2.566   4.378  15.857 -0.7213  2.1714  0.9707
 8208SOL    HW236087   2.621   4.404  15.733  1.4523 -0.0677 -0.3982
 8209SOL     OW36088   1.320   1.442   6.624  0.2750 -0.1944  0.1084
 8209SOL    HW136089   1.296   1.395   6.704  2.0216 -0.3195  0.5590
 8209SOL    HW236090   1.361   1.524   6.652  0.8526 -0.7857  1.0142
 8210SOL     OW36091   1.241   0.531  16.661 -0.1324 -0.7378 -0.1269
 8210SOL    HW136092   1.212   0.568  16.577 -0.8613 -0.3135  0.3084
 8210SOL    HW236093   1.295   0.463  16.623 -0.2863 -0.8745 -0.1004
 8211SOL     OW36094   4.354   0.340   7.246  0.4570  0.2005 -0.0879
 8211SOL    HW136095   4.321   0.294   7.324  1.9806 -0.5448  0.1148
 8211SOL    HW236096   4.359   0.261   7.193  1.9339  0.5376 -0.4500
 8212SOL     OW36097   1.677   1.921   6.628  0.2929 -0.2445  0.6380
 8212SOL    HW136098   1.694   2.016   6.626  0.7556 -0.3353  0.2574
 8212SOL    HW236099   1.733   1.891   6.700  1.7200 -0.7974 -0.7049
 8213SOL     OW36100   3.975   2.547   7.356  0.3670  0.3171 -0.1787
 8213SOL    HW136101   3.886   2.579   7.348 -0.5568 -1.8168  1.5112
 8213SOL    HW236102   3.974   2.472   7.296 -0.6492 -0.4925  0.8543
 8214SOL     OW36103   1.009   3.587   4.311 -0.5045  0.3084 -0.1066
 8214SOL    HW136104   1.011   3.568   4.217  2.1561  0.5887 -0.1084
 8214SOL    HW236105   0.918   3.570   4.333 -0.2950  0.1234  0.5883
 8215SOL     OW36106   3.995   2.076   7.285  0.5170 -0.0331 -0.5001
 8215SOL    HW136107   4.088   2.096   7.295  0.7317 -0.4770 -1.6884
 8215SOL    HW236108   3.956   2.097   7.371  1.4892 -0.4605  0.0395
 8216SOL     OW36109   2.707   2.082   1.284 -0.4163  0.2913 -0.9280
 8216SOL    HW136110   2.710   2.070   1.189 -0.0121  0.5072 -0.9405
 8216SOL    HW236111   2.656   2.162   1.296  2.1019  2.2548 -3.4570
 8217SOL     OW36112   1.592   4.054   6.334  0.4590 -0.7923  0.5500
 8217SOL    HW136113   1.551   3.977   6.295  0.4990 -0.1858 -0.6851
 8217SOL    HW236114   1.530   4.126   6.326 -0.5657 -1.8021 -0.8155
 8218SOL     OW36115   2.132   1.240   8.136  0.4282  0.0723  1.0401
 8218SOL    HW136116   2.206   1.300   8.148  0.2360  0.3067  1.0525
 8218SOL    HW236117   2.154   1.196   8.055  2.3697  1.1941  0.9611
 8219SOL     OW36118   2.619   1.230   2.848 -0.0422 -0.0777  0.0775
 8219SOL    HW136119   2.573   1.282   2.782  0.6096  0.2160 -0.1471
 8219SOL    HW236120   2.703   1.275   2.843 -0.5885  0.9708  0.5033
 8220SOL     OW36121   1.760   3.044   8.278  0.0834 -0.0871 -0.2094
 8220SOL    HW136122   1.842   3.087   8.303 -1.3143  1.1982  2.1733
 8220SOL    HW236123   1.793   2.955   8.286 -0.3240 -0.2909 -0.8196
 8221SOL     OW36124   1.054   2.034   2.729  0.1632  0.2809  0.0392
 8221SOL    HW136125   1.039   1.942   2.707 -1.1049  1.3203 -3.5966
 8221SOL    HW236126   1.032   2.073   2.644  1.5243  0.6703 -0.1378
 8222SOL     OW36127   1.704   1.107   6.922  0.0598  0.1602 -0.4055
 8222SOL    HW136128   1.678   1.135   6.834  2.2998  0.9848 -0.8088
 8222SOL    HW236129   1.640   1.037   6.937 -0.0859 -0.2576 -2.9861
 8223SOL     OW36130   2.070   4.377   8.234  0.3443 -0.4898 -0.2347
 8223SOL    HW136131   2.097   4.455   8.185 -0.4849 -0.7807 -1.1680
 8223SOL    HW236132   2.021   4.418   8.305 -1.7895 -2.6677 -0.4410
 8224SOL     OW36133   0.241   1.412   2.630  0.0978 -0.4599 -0.7873
 8224SOL    HW136134   0.254   1.403   2.724 -0.2142  0.2700 -0.6734
 8224SOL    HW236135   0.316   1.365   2.594  0.0658 -0.3882 -0.9470
 8225SOL     OW36136   1.828   2.359  15.946 -0.1078  0.5936 -0.7094
 8225SOL    HW136137   1.863   2.446  15.965  0.9306  0.2625 -1.1485
 8225SOL    HW236138   1.819   2.332  16.037 -1.2274  1.6336 -0.5117
 8226SOL     OW36139   0.168   4.109  12.918  0.4013 -0.3619  0.6598
 8226SOL    HW136140   0.119   4.113  13.000  0.1825  0.9742  0.4676
 8226SOL    HW236141   0.243   4.056  12.945  0.5369 -0.5096 -0.0117
 8227SOL     OW36142   1.038   1.076   3.995 -0.6773 -0.3394 -0.2133
 8227SOL    HW136143   0.990   1.112   4.070 -0.0948 -1.6436  0.7707
 8227SOL    HW236144   1.064   1.158   3.953  0.6217 -0.1476  0.9561
 8228SOL     OW36145   2.178   0.409   4.850  0.2815 -0.1900  0.1326
 8228SOL    HW136146   2.241   0.435   4.917 -0.6108  0.4096  0.7378
 8228SOL    HW236147   2.094   0.409   4.896 -0.6010 -0.6926 -1.4763
 8229SOL     OW36148   3.272   3.991   1.324  0.6331  0.1149 -0.0190
 8229SOL    HW136149   3.213   3.950   1.388  1.2712 -0.8562 -0.0601
 8229SOL    HW236150   3.209   4.061   1.307  1.9928  1.2792 -0.2115
 8230SOL     OW36151   0.658   1.589   2.344  0.1913 -0.5850  0.0242
 8230SOL    HW136152   0.598   1.515   2.340  0.6610 -0.8126 -2.8789
 8230SOL    HW236153   0.615   1.661   2.299 -0.5910 -1.6023 -0.8567
 8231SOL     OW36154   1.289   4.048   7.080 -0.5658  0.3932 -0.2193
 8231SOL    HW136155   1.206   4.002   7.098  0.8253 -1.8871  0.3226
 8231SOL    HW236156   1.302   4.014   6.991 -0.8634 -0.1717 -0.0518
 8232SOL     OW36157   4.417   0.087  13.372 -0.1429  0.8400 -0.5269
 8232SOL    HW136158   4.331   0.126  13.386  0.3148  0.8164  2.3023
 8232SOL    HW236159   4.453   0.103  13.459 -0.4060 -1.1475 -0.0576
 8233SOL     OW36160   2.423   4.061   7.020 -0.2966 -0.2090  0.5523
 8233SOL    HW136161   2.370   4.139   7.034 -1.3272 -0.3559 -2.4342
 8233SOL    HW236162   2.406   4.022   7.105 -3.0764 -0.3732 -0.1067
 8234SOL     OW36163   0.215   4.204   4.299  0.7283  0.1114  0.4833
 8234SOL    HW136164   0.212   4.189   4.393  1.5339 -0.6718  0.3819
 8234SOL    HW236165   0.283   4.270   4.287 -0.3240  0.9157 -1.0596
 8235SOL     OW36166   1.152   0.075   5.234 -0.1316 -0.2083  0.2431
 8235SOL    HW136167   1.068   0.093   5.192 -0.1682  0.0922  0.4457
 8235SOL    HW236168   1.187   0.164   5.230 -0.2785 -0.1220  1.0239
 8236SOL     OW36169   2.480   3.104  13.649 -0.1075  0.2614  0.1361
 8236SOL    HW136170   2.491   3.193  13.685 -0.3028  0.2513  0.2159
 8236SOL    HW236171   2.525   3.057  13.719  0.2022 -2.2082 -1.7270
 8237SOL     OW36172   0.207   4.035   4.047  0.1074 -0.0851 -0.4527
 8237SOL    HW136173   0.156   4.037   4.128 -0.2447  1.0535 -0.6982
 8237SOL    HW236174   0.150   4.087   3.991  3.7939  2.1938 -2.1064
 8238SOL     OW36175   0.112   3.773   9.102 -0.5117  0.3645 -0.5309
 8238SOL    HW136176   0.040   3.828   9.073 -0.7313  0.3860  0.0476
 8238SOL    HW236177   0.126   3.804   9.191 -2.3960 -1.1664  0.3227
 8239SOL     OW36178   4.297   2.323   9.442 -0.4289 -0.1013  0.4040
 8239SOL    HW136179   4.332   2.278   9.365  2.3554 -1.2725  2.3688
 8239SOL    HW236180   4.360   2.395   9.449 -1.7727  1.1090  0.1233
 8240SOL     OW36181   0.558   2.943  13.941 -0.6407 -0.4240 -0.0535
 8240SOL    HW136182   0.557   3.029  13.898 -0.6484 -0.3986 -0.0014
 8240SOL    HW236183   0.533   2.974  14.027 -2.5757 -0.9370 -0.4355
 8241SOL     OW36184   0.748   3.847   8.733  0.4618  0.0383 -0.0837
 8241SOL    HW136185   0.822   3.848   8.672  1.0874  0.6115  0.6751
 8241SOL    HW236186   0.791   3.850   8.819  0.7011 -3.0433 -0.0956
 8242SOL     OW36187   2.483   0.956   9.174 -0.1938 -0.4061 -0.1577
 8242SOL    HW136188   2.508   0.994   9.258 -0.6584  0.7264 -0.5337
 8242SOL    HW236189   2.552   0.987   9.114 -0.6905 -2.4466 -1.7768
 8243SOL     OW36190   2.865   4.474   4.247  0.3479 -0.1204 -0.0572
 8243SOL    HW136191   2.811   4.551   4.265  0.3948  0.1815 -1.1659
 8243SOL    HW236192   2.953   4.510   4.229  0.3118  0.0027  0.0112
 8244SOL     OW36193   1.704   4.509   5.050  0.1554  0.5131 -0.2590
 8244SOL    HW136194   1.758   4.580   5.087 -1.3184  0.7120  1.5381
 8244SOL    HW236195   1.743   4.428   5.083 -1.7377 -1.1044 -2.0886
 8245SOL     OW36196   3.581   3.425   2.742 -0.0521  0.5220  0.1928
 8245SOL    HW136197   3.565   3.403   2.651  0.1572  1.3373 -0.0415
 8245SOL    HW236198   3.587   3.520   2.734  0.1773  0.4002 -1.0134
 8246SOL     OW36199   1.587   2.390   4.893  0.0815 -0.3585 -0.4915
 8246SOL    HW136200   1.607   2.434   4.975 -0.9787 -2.7743  1.0679
 8246SOL    HW236201   1.656   2.424   4.835  0.9835  0.3399  0.9893
 8247SOL     OW36202   1.997   0.446   4.253  0.7419  0.2931  0.2509
 8247SOL    HW136203   1.948   0.399   4.185  1.1557  0.6992 -0.3155
 8247SOL    HW236204   2.084   0.461   4.218 -0.0860  0.1601 -1.8480
 8248SOL     OW36205   2.486   3.538   9.168  0.0706  0.0475  0.6632
 8248SOL    HW136206   2.534   3.611   9.130 -1.7853  0.8003 -0.2655
 8248SOL    HW236207   2.444   3.581   9.242 -0.1703  0.4129  0.3174
 8249SOL     OW36208   1.896   3.912  15.662 -0.2534 -0.3959  0.2403
 8249SOL    HW136209   1.923   3.984  15.719 -2.6032  0.8989 -0.2803
 8249SOL    HW236210   1.801   3.917  15.671 -0.3196  0.2283 -0.7889
 8250SOL     OW36211   4.047   4.587   9.943 -0.7259 -0.0706  0.1986
 8250SOL    HW136212   3.959   4.623   9.956  0.0144  1.4596  0.9933
 8250SOL    HW236213   4.014   4.498   9.949 -1.0321  0.0255 -0.0495
 8251SOL     OW36214   4.623   2.759   6.802  0.1313 -0.5698 -0.0209
 8251SOL    HW136215   4.608   2.708   6.881  1.3531 -1.3380 -0.2886
 8251SOL    HW236216   4.595   2.692   6.739 -0.3334  0.5102 -0.9604
 8252SOL     OW36217   1.388   1.601  13.560  0.1047  0.2411  0.0536
 8252SOL    HW136218   1.331   1.526  13.544  1.8467 -1.2352  0.7898
 8252SOL    HW236219   1.318   1.654  13.597 -0.6184  0.1972 -1.2686
 8253SOL     OW36220   2.238   1.525  12.218  0.1371 -0.1653 -0.2126
 8253SOL    HW136221   2.245   1.431  12.202  1.4567 -0.4121  1.8380
 8253SOL    HW236222   2.143   1.534  12.207  0.0874 -1.2004 -0.6487
 8254SOL     OW36223   0.130   2.957  11.027 -0.1074  0.3017 -0.2499
 8254SOL    HW136224   0.146   2.963  10.933  0.7189 -1.2175 -0.2138
 8254SOL    HW236225   0.044   2.998  11.032 -0.3080 -0.1556  0.0476
 8255SOL     OW36226   3.235   1.637  16.715 -0.4190  0.3997  0.1891
 8255SOL    HW136227   3.314   1.653  16.766  0.0547  1.5745 -0.9141
 8255SOL    HW236228   3.179   1.629  16.792 -2.0183 -2.6793 -1.2861
 8256SOL     OW36229   3.258   1.062   7.404  0.0614 -0.0727 -1.1984
 8256SOL    HW136230   3.171   1.025   7.409 -0.6437  2.0020  2.7714
 8256SOL    HW236231   3.310   0.993   7.446 -0.3480  0.8678  0.8504
 8257SOL     OW36232   0.903   3.162   2.531 -0.0280  0.1306 -0.1532
 8257SOL    HW136233   0.913   3.120   2.446  0.9858  0.7005 -0.3132
 8257SOL    HW236234   0.979   3.218   2.520  0.8978 -0.7693  1.6342
 8258SOL     OW36235   2.077   3.864   7.921 -0.2416  0.8339 -0.2116
 8258SOL    HW136236   1.984   3.875   7.903 -0.1366  0.7282 -0.8054
 8258SOL    HW236237   2.109   3.953   7.934  1.6528  0.5970 -3.2803
 8259SOL     OW36238   0.162   3.103   3.315 -0.2989  0.2165  0.5525
 8259SOL    HW136239   0.141   3.140   3.229 -0.7018 -0.8703  0.1772
 8259SOL    HW236240   0.079   3.062   3.341  0.8876 -2.9417 -0.6422
 8260SOL     OW36241   3.440   3.650   4.977  0.3515 -0.4737 -0.2220
 8260SOL    HW136242   3.444   3.614   5.066 -3.5760 -0.9909 -0.2630
 8260SOL    HW236243   3.517   3.607   4.940  0.7643  1.2158 -1.2843
 8261SOL     OW36244   1.907   1.144   6.597 -0.4206  0.5073  0.3810
 8261SOL    HW136245   1.928   1.057   6.562 -2.8069 -0.1118  0.4356
 8261SOL    HW236246   1.824   1.117   6.638 -0.1676  0.1420  0.6569
 8262SOL     OW36247   1.434   0.652   7.949 -0.4350 -0.2586  0.2698
 8262SOL    HW136248   1.397   0.740   7.939  0.0810  0.0471  1.0496
 8262SOL    HW236249   1.441   0.614   7.862 -2.5908  0.8757 -0.3954
 8263SOL     OW36250   0.411   1.298   9.503 -0.3623 -0.0020  0.1857
 8263SOL    HW136251   0.485   1.238   9.506 -0.8529 -0.6945 -1.9267
 8263SOL    HW236252   0.441   1.365   9.565 -3.3873  1.4232  0.0996
 8264SOL     OW36253   0.419   2.198  12.703 -0.0776 -0.0027 -0.1792
 8264SOL    HW136254   0.345   2.139  12.717  0.4733 -1.1028 -1.8688
 8264SOL    HW236255   0.469   2.184  12.784  2.1477  1.5677 -1.2819
 8265SOL     OW36256   0.627   3.563   6.282 -0.4762  0.2679 -0.0940
 8265SOL    HW136257   0.531   3.560   6.286 -0.5011 -0.9212 -1.5508
 8265SOL    HW236258   0.648   3.604   6.366 -1.8554 -1.5771  1.1595
 8266SOL     OW36259   3.016   4.466   8.975  0.3779 -0.2138 -0.0496
 8266SOL    HW136260   2.933   4.443   8.932  0.8643  2.5042 -2.4156
 8266SOL    HW236261   3.033   4.553   8.939  0.8171 -0.4606 -0.4364
 8267SOL     OW36262   3.864   2.169   2.863  0.2451  0.5179 -0.2149
 8267SOL    HW136263   3.768   2.173   2.865  0.2702  0.2563  1.2385
 8267SOL    HW236264   3.878   2.183   2.769  1.0850  1.1061 -0.0049
 8268SOL     OW36265   3.724   3.605   3.152  0.3148 -0.1376  0.1679
 8268SOL    HW136266   3.737   3.541   3.222 -0.5491  0.2569  0.6850
 8268SOL    HW236267   3.814   3.615   3.122  0.4002  2.4452  1.2788
 8269SOL     OW36268   0.230   1.277   9.288 -0.0600  0.6263  0.2404
 8269SOL    HW136269   0.294   1.238   9.229 -0.1653  0.1379  0.4496
 8269SOL    HW236270   0.288   1.310   9.357  1.2073 -0.0282 -0.5063
 8270SOL     OW36271   3.446   3.887   4.855  0.0698 -0.3286  0.5559
 8270SOL    HW136272   3.387   3.911   4.926 -1.7052  1.0980 -1.4244
 8270SOL    HW236273   3.431   3.793   4.866  2.2438 -0.7591 -0.1291
 8271SOL     OW36274   3.814   0.467   6.488  0.2764  0.3257 -0.2843
 8271SOL    HW136275   3.886   0.404   6.501  1.8692  2.2253  0.1187
 8271SOL    HW236276   3.747   0.419   6.537 -0.1018  1.9987  0.8313
 8272SOL     OW36277   2.851   4.482  17.213  0.1766 -0.4193  0.2049
 8272SOL    HW136278   2.898   4.533  17.279  0.2560 -2.0402  1.3937
 8272SOL    HW236279   2.888   4.516  17.132 -0.8665 -1.0556 -0.5354
 8273SOL     OW36280   3.477   2.381   7.720  0.4594 -0.1627  0.4434
 8273SOL    HW136281   3.562   2.424   7.723  0.4136 -0.0765  0.5125
 8273SOL    HW236282   3.497   2.315   7.653 -1.2784  0.7863 -1.0411
 8274SOL     OW36283   4.340   4.360  12.910 -0.9279  0.6869  0.1243
 8274SOL    HW136284   4.260   4.319  12.944  1.3766 -0.7053  3.8725
 8274SOL    HW236285   4.294   4.433  12.868 -2.4892 -0.8531 -0.8390
 8275SOL     OW36286   2.666   4.585   9.028 -0.0860 -0.4070 -0.5356
 8275SOL    HW136287   2.613   4.613   9.103  1.0266 -0.1288  0.1558
 8275SOL    HW236288   2.661   4.490   9.031 -2.0793 -0.3230 -1.6050
 8276SOL     OW36289   4.007   0.676  17.113 -0.0986  0.3885  0.1341
 8276SOL    HW136290   4.056   0.708  17.189 -0.6396  3.0553 -0.6374
 8276SOL    HW236291   4.068   0.690  17.040 -0.4649 -0.4568 -0.3398
 8277SOL     OW36292   3.628   0.614   8.582 -0.3582 -0.4402  0.3254
 8277SOL    HW136293   3.659   0.533   8.623  1.4454  0.2422  0.2829
 8277SOL    HW236294   3.716   0.648   8.571 -0.6343 -0.1246 -0.8815
 8278SOL     OW36295   3.884   2.886   8.610  0.7777  0.2451 -0.3196
 8278SOL    HW136296   3.974   2.874   8.581  0.8528  0.2459 -0.0833
 8278SOL    HW236297   3.863   2.822   8.678  0.4782 -2.5305 -3.0195
 8279SOL     OW36298   0.427   1.097   4.364  0.3508  0.1238  0.6531
 8279SOL    HW136299   0.441   1.014   4.320 -1.1323  0.4720 -0.4508
 8279SOL    HW236300   0.339   1.089   4.401 -0.1205  1.3710 -0.2027
 8280SOL     OW36301   2.011   2.625   3.186 -0.3865  0.3519  0.4193
 8280SOL    HW136302   1.943   2.629   3.254 -0.9777  0.4512 -0.1805
 8280SOL    HW236303   2.093   2.633   3.235  0.4362 -1.2788 -0.7218
 8281SOL     OW36304   0.429   1.378   4.561 -0.0780 -0.6696  0.7124
 8281SOL    HW136305   0.478   1.317   4.506 -0.8200  1.7419 -2.6072
 8281SOL    HW236306   0.356   1.406   4.505  0.7084  1.9243  0.9935
 8282SOL     OW36307   2.164   4.249  15.933 -0.3366  0.3725 -1.2010
 8282SOL    HW136308   2.211   4.294  15.863  1.6168 -0.4331 -0.4169
 8282SOL    HW236309   2.239   4.247  15.992 -0.2240 -0.4120 -1.3634
 8283SOL     OW36310   1.395   3.885   8.415 -0.3290  0.1120  0.3992
 8283SOL    HW136311   1.390   3.793   8.387 -1.1181  0.1532  0.3946
 8283SOL    HW236312   1.490   3.890   8.422 -0.2388 -1.1499  0.1643
 8284SOL     OW36313   3.427   2.448   1.438  0.3070  0.7011  0.3633
 8284SOL    HW136314   3.355   2.417   1.494  0.7996 -1.6965 -0.3484
 8284SOL    HW236315   3.415   2.384   1.369  0.4230 -2.5257  3.3333
 8285SOL     OW36316   0.023   1.500   4.519  0.2924 -0.1548 -0.5450
 8285SOL    HW136317   4.683   1.427   4.523 -0.7735  0.6974 -1.6494
 8285SOL    HW236318   0.101   1.464   4.478  1.4085  1.1099  0.4652
 8286SOL     OW36319   2.563   4.204   6.391 -0.1796 -0.2496  0.1110
 8286SOL    HW136320   2.533   4.117   6.419  2.5912 -1.0268  0.6211
 8286SOL    HW236321   2.630   4.219   6.458  0.7241 -2.9495 -0.1575
 8287SOL     OW36322   4.005   3.551   3.117  0.1514  1.1668 -0.4187
 8287SOL    HW136323   4.086   3.532   3.165 -0.3917 -1.6684 -0.6190
 8287SOL    HW236324   4.034   3.619   3.055  0.2754  0.8653 -0.6903
 8288SOL     OW36325   3.425   1.019   4.683  0.1564 -0.4603  0.2841
 8288SOL    HW136326   3.494   0.967   4.643  3.5631  2.2546  2.6190
 8288SOL    HW236327   3.390   1.064   4.607 -4.4140 -4.4044  0.0714
 8289SOL     OW36328   0.434   3.120   8.618 -0.1462  0.6124  0.2094
 8289SOL    HW136329   0.480   3.107   8.535 -2.5695  1.0862 -1.1933
 8289SOL    HW236330   0.345   3.099   8.589  1.1310 -2.4920 -1.5406
 8290SOL     OW36331   2.546   4.394   8.742  0.6977  0.3837  0.0235
 8290SOL    HW136332   2.497   4.410   8.661  2.0181  1.6590 -0.5176
 8290SOL    HW236333   2.483   4.398   8.814 -1.5903 -0.0924 -1.9702
 8291SOL     OW36334   2.443   3.455   1.358 -0.1805  0.3968 -0.0611
 8291SOL    HW136335   2.511   3.522   1.363 -2.7835  2.9369  0.8970
 8291SOL    HW236336   2.394   3.478   1.437  3.0190 -0.2259  2.0772
 8292SOL     OW36337   3.437   0.841   7.847  0.3086  1.1532 -0.0472
 8292SOL    HW136338   3.349   0.828   7.882  1.3074 -1.4597  1.5087
 8292SOL    HW236339   3.479   0.904   7.906  2.6740 -0.5645  0.0927
 8293SOL     OW36340   0.554   1.794   4.738  0.1016  0.0156 -0.3116
 8293SOL    HW136341   0.461   1.813   4.732  0.2366  0.4004 -1.2096
 8293SOL    HW236342   0.556   1.706   4.699 -0.9262  0.0282 -0.3778
 8294SOL     OW36343   2.896   4.544   3.158 -0.6017 -0.1124  0.2019
 8294SOL    HW136344   2.839   4.550   3.082  3.0996  0.4956 -2.4807
 8294SOL    HW236345   2.964   4.490   3.119 -2.0653 -1.6960 -0.1700
 8295SOL     OW36346   4.486   1.670  12.803 -0.3773  0.0898 -0.0944
 8295SOL    HW136347   4.504   1.762  12.785 -2.8737  0.4871 -0.6460
 8295SOL    HW236348   4.540   1.654  12.880 -2.3735  1.1803  1.5213
 8296SOL     OW36349   1.088   0.508  15.510 -0.7718  0.4280  0.2002
 8296SOL    HW136350   1.112   0.576  15.447  0.3203 -1.8286 -1.8407
 8296SOL    HW236351   1.166   0.454  15.523  0.5162  1.9234 -1.2950
 8297SOL     OW36352   0.635   4.352   7.356  0.5963  0.1343 -0.6645
 8297SOL    HW136353   0.572   4.400   7.410 -2.0192 -2.3491 -1.5150
 8297SOL    HW236354   0.613   4.263   7.383 -0.6279  0.0388 -1.9533
 8298SOL     OW36355   2.337   2.493   2.092 -0.0204 -0.4216 -0.2450
 8298SOL    HW136356   2.431   2.486   2.112 -0.2794 -0.0770  1.1016
 8298SOL    HW236357   2.322   2.401   2.071  0.3198 -0.3982 -0.6025
 8299SOL     OW36358   4.065   1.107   5.602  0.1552  0.2440  0.5570
 8299SOL    HW136359   4.134   1.050   5.639  1.7575  1.3427 -0.7529
 8299SOL    HW236360   4.070   1.189   5.650  0.1044  1.5971 -1.7821
 8300SOL     OW36361   1.419   0.338   4.556 -0.3730 -0.3210 -0.2779
 8300SOL    HW136362   1.390   0.423   4.590 -0.6892 -0.3969 -0.3505
 8300SOL    HW236363   1.393   0.284   4.631  1.1858  1.3060  1.4348
 8301SOL     OW36364   0.068   4.464  13.165 -0.0949 -0.1560  0.3277
 8301SOL    HW136365   0.158   4.496  13.166 -0.7223  1.6139 -0.0813
 8301SOL    HW236366   0.081   4.370  13.154 -1.2413 -0.2140 -0.5415
 8302SOL     OW36367   4.221   4.603   3.911  0.1135 -0.2833 -0.1474
 8302SOL    HW136368   4.286   4.672   3.921  0.1725  0.2026 -3.8434
 8302SOL    HW236369   4.264   4.524   3.944  0.3556  0.1891  0.6449
 8303SOL     OW36370   1.731   4.343   5.722  0.5522  0.0109  0.4765
 8303SOL    HW136371   1.647   4.384   5.743  0.9637  1.7980 -1.3687
 8303SOL    HW236372   1.731   4.265   5.777 -0.7117 -0.6270 -0.4123
 8304SOL     OW36373   3.015   0.120  12.701 -0.2022 -0.1942 -0.2288
 8304SOL    HW136374   2.977   0.045  12.656 -0.4791  0.2691 -0.7680
 8304SOL    HW236375   3.033   0.181  12.629 -0.6035  1.1592  0.8060
 8305SOL     OW36376   4.208   1.676  14.004 -0.7407  0.3701  0.3674
 8305SOL    HW136377   4.208   1.768  14.030  0.3830  0.5029 -0.1342
 8305SOL    HW236378   4.168   1.692  13.919 -1.8784  1.7440  1.1473
 8306SOL     OW36379   3.138   0.239   7.828  0.1867  0.1196 -0.6740
 8306SOL    HW136380   3.174   0.327   7.823  3.3171 -1.2551 -2.4396
 8306SOL    HW236381   3.090   0.244   7.911 -2.1626  2.4447 -2.1684
 8307SOL     OW36382   0.868   4.343   0.495 -0.2552 -0.0084 -0.0349
 8307SOL    HW136383   0.952   4.302   0.512 -0.0945 -0.1807 -1.1876
 8307SOL    HW236384   0.811   4.271   0.523  1.9457 -0.6611  2.7701
 8308SOL     OW36385   4.591   2.020  13.548  0.1103 -0.1095 -0.9640
 8308SOL    HW136386   4.551   2.087  13.493 -0.3722  0.5356  0.1637
 8308SOL    HW236387   4.527   2.023  13.620  0.0565 -2.1506 -0.9333
 8309SOL     OW36388   4.279   1.424   2.480 -0.3468  0.6573 -0.1226
 8309SOL    HW136389   4.265   1.518   2.473 -1.7987  0.4838  0.4690
 8309SOL    HW236390   4.198   1.393   2.520 -0.0657 -0.3489 -0.3319
 8310SOL     OW36391   0.423   3.880   9.420 -0.1063 -0.1900 -0.3385
 8310SOL    HW136392   0.464   3.824   9.486  1.4820 -0.7756 -1.8073
 8310SOL    HW236393   0.504   3.893   9.370  1.1859 -0.1020  1.7677
 8311SOL     OW36394   3.057   2.947   8.002 -0.4928 -0.3172 -0.4598
 8311SOL    HW136395   2.984   2.943   8.064 -0.2524 -0.9110 -0.2140
 8311SOL    HW236396   3.100   2.862   8.013 -0.2803 -0.0170  1.1164
 8312SOL     OW36397   0.271   2.137   6.611  0.0067 -0.7014 -0.4364
 8312SOL    HW136398   0.285   2.214   6.556 -0.5251  0.3243  0.8862
 8312SOL    HW236399   0.316   2.164   6.691 -1.4714  1.9912 -0.5481
 8313SOL     OW36400   3.563   3.360   4.888 -0.3706 -0.1194  0.0568
 8313SOL    HW136401   3.625   3.424   4.854 -0.1915 -0.9581 -1.2152
 8313SOL    HW236402   3.573   3.293   4.820 -1.0117 -0.6037  0.4368
 8314SOL     OW36403   0.917   3.575   9.657 -0.4485 -0.1382  0.5141
 8314SOL    HW136404   0.938   3.565   9.750 -0.3310 -2.6891  0.2143
 8314SOL    HW236405   0.934   3.492   9.612  3.5567  0.3163  1.1436
 8315SOL     OW36406   0.123   2.515  12.070 -0.5516  0.3446  0.1241
 8315SOL    HW136407   0.170   2.514  11.986 -1.6926  0.5861 -0.5204
 8315SOL    HW236408   0.033   2.507  12.037 -0.6407 -1.7255  0.9062
 8316SOL     OW36409   3.727   3.170   0.160  0.1637  0.6689 -0.4168
 8316SOL    HW136410   3.790   3.103   0.134 -1.3707  0.0061 -2.3439
 8316SOL    HW236411   3.662   3.164   0.091 -0.0933 -1.1279 -0.0084
 8317SOL     OW36412   3.212   1.446   7.656 -0.6166 -0.0192 -0.0452
 8317SOL    HW136413   3.198   1.447   7.750 -1.9125 -0.7108 -0.2364
 8317SOL    HW236414   3.121   1.467   7.635 -0.2963 -0.8787 -2.3221
 8318SOL     OW36415   1.781   3.898   2.738  0.6267 -0.1118 -0.5563
 8318SOL    HW136416   1.757   3.936   2.653 -1.0343 -0.3473 -0.1840
 8318SOL    HW236417   1.833   3.822   2.711 -0.6124 -1.0471 -0.2780
 8319SOL     OW36418   0.825   3.306  11.992  0.8242 -0.0372 -0.0823
 8319SOL    HW136419   0.905   3.283  12.040  1.3600 -1.0781 -1.4565
 8319SOL    HW236420   0.860   3.314  11.903 -1.6424 -1.3458 -1.1559
 8320SOL     OW36421   4.215   0.399   2.799  0.3225  0.2396  0.8164
 8320SOL    HW136422   4.132   0.377   2.756  0.9176  0.3538 -0.3895
 8320SOL    HW236423   4.224   0.492   2.778 -1.2633  0.6868  2.1358
 8321SOL     OW36424   1.127   2.662  16.511 -0.1649  0.1361 -0.0103
 8321SOL    HW136425   1.150   2.573  16.537  0.5399  0.6636  1.1474
 8321SOL    HW236426   1.118   2.709  16.594 -0.6039 -0.2785  0.1758
 8322SOL     OW36427   4.015   1.507   6.004  0.2096  0.2129 -0.3454
 8322SOL    HW136428   3.958   1.579   5.978  0.1129  0.1310 -0.3592
 8322SOL    HW236429   4.004   1.502   6.099  0.8495 -0.0587 -0.2793
 8323SOL     OW36430   2.212   3.294  13.710  0.0825 -0.0115 -0.3438
 8323SOL    HW136431   2.300   3.308  13.746 -0.1057 -0.6539  0.3655
 8323SOL    HW236432   2.198   3.379  13.668  1.5236  0.7167  0.6246
 8324SOL     OW36433   2.233   1.909   3.745  0.1515 -0.6867 -0.0096
 8324SOL    HW136434   2.145   1.936   3.771 -0.0097 -0.9683 -0.2738
 8324SOL    HW236435   2.224   1.886   3.652  0.4547  0.1132 -0.2452
 8325SOL     OW36436   0.285   0.688  15.776  0.2859  0.4034 -0.0607
 8325SOL    HW136437   0.330   0.611  15.813  1.7921  1.1997 -0.2244
 8325SOL    HW236438   0.322   0.695  15.688  0.6170  0.7582  0.1086
 8326SOL     OW36439   2.589   4.601   1.262  0.0559  0.0131 -0.3437
 8326SOL    HW136440   2.581   4.523   1.317  2.5474  1.2451  1.7347
 8326SOL    HW236441   2.611   4.567   1.175 -0.1484 -1.7786  0.2986
 8327SOL     OW36442   4.335   3.227  11.348  0.3018 -0.0274 -0.4023
 8327SOL    HW136443   4.253   3.179  11.360  0.3792  0.3883  1.9817
 8327SOL    HW236444   4.384   3.176  11.284  1.7327 -0.3060  0.9073
 8328SOL     OW36445   0.894   3.736   2.310 -0.3945 -0.0238 -0.4637
 8328SOL    HW136446   0.921   3.812   2.362  1.1277 -0.8201 -0.0731
 8328SOL    HW236447   0.840   3.781   2.245 -0.2900 -0.9210 -1.1726
 8329SOL     OW36448   4.567   0.911   9.943 -0.0149  0.3818 -0.3212
 8329SOL    HW136449   4.549   0.986   9.886  0.5803  0.3537 -0.5420
 8329SOL    HW236450   4.648   0.938   9.986 -0.2858  0.5457  0.0881
 8330SOL     OW36451   4.545   4.130   6.126 -0.0694 -0.6588  0.0881
 8330SOL    HW136452   4.452   4.106   6.130 -0.8700  2.2788 -0.9836
 8330SOL    HW236453   4.574   4.124   6.217  0.0777  0.8112  0.1289
 8331SOL     OW36454   1.224   1.308  17.383 -0.1212 -0.3242 -0.2778
 8331SOL    HW136455   1.260   1.245  17.446 -0.4596 -0.5113 -0.2739
 8331SOL    HW236456   1.130   1.294  17.391  0.0097 -1.0619 -0.0505
 8332SOL     OW36457   0.523   2.674   0.868  0.0100  0.2486 -0.0087
 8332SOL    HW136458   0.475   2.711   0.794  0.0770 -1.2965 -0.8355
 8332SOL    HW236459   0.607   2.666   0.823 -0.5316 -1.5446 -0.7011
 8333SOL     OW36460   0.098   4.356   5.192 -0.0173 -0.2390  0.0607
 8333SOL    HW136461   0.186   4.390   5.174 -0.4497  1.2634  0.8634
 8333SOL    HW236462   0.093   4.376   5.285 -0.1923 -3.1871  0.6843
 8334SOL     OW36463   1.597   2.769  10.347 -0.0220 -0.0014  0.0756
 8334SOL    HW136464   1.548   2.723  10.415 -3.2290 -0.6837 -2.7181
 8334SOL    HW236465   1.661   2.815  10.402 -1.7159  1.8700  0.4540
 8335SOL     OW36466   1.851   0.506  10.203 -0.5268 -0.2693 -0.9204
 8335SOL    HW136467   1.889   0.591  10.183  1.5290 -1.1744 -0.8557
 8335SOL    HW236468   1.764   0.530  10.235  0.7277 -1.0131  3.0859
 8336SOL     OW36469   1.825   3.083  16.391 -0.0671  0.1082  0.4891
 8336SOL    HW136470   1.910   3.039  16.387  0.3165  0.7511  1.5155
 8336SOL    HW236471   1.776   3.014  16.345 -0.6811  1.1592 -0.4406
 8337SOL     OW36472   2.806   2.999   9.594 -0.3879  0.3347 -0.1005
 8337SOL    HW136473   2.745   3.063   9.557 -1.4438  0.8131  2.5236
 8337SOL    HW236474   2.886   3.051   9.599  0.4957 -1.1161  0.9598
 8338SOL     OW36475   2.918   0.217   6.247 -0.1411  0.2420  0.0565
 8338SOL    HW136476   2.954   0.194   6.162  3.4971 -1.8529  2.1561
 8338SOL    HW236477   2.847   0.273   6.215  0.4928  1.2563  0.4495
 8339SOL     OW36478   1.913   3.545  11.280  0.6876  0.0929 -0.1443
 8339SOL    HW136479   1.940   3.590  11.360 -2.7666  0.2298  0.9355
 8339SOL    HW236480   1.899   3.455  11.309 -0.1037 -0.0688 -1.0307
 8340SOL     OW36481   3.509   3.157   2.459  0.1534 -0.0122 -1.0066
 8340SOL    HW136482   3.519   3.249   2.438 -3.6179  0.1531 -2.1387
 8340SOL    HW236483   3.590   3.152   2.510  0.5117  0.2271 -1.5632
 8341SOL     OW36484   0.043   3.547  12.046 -0.3528 -0.3793 -0.2384
 8341SOL    HW136485   0.021   3.513  11.959 -1.1345  1.6888 -0.8586
 8341SOL    HW236486   4.675   3.577  12.061  0.4524 -0.1595  4.1363
 8342SOL     OW36487   0.515   2.675   7.163 -0.0473 -0.0283  0.2888
 8342SOL    HW136488   0.540   2.763   7.134 -0.7861  0.3756  0.8769
 8342SOL    HW236489   0.466   2.641   7.089  0.5702 -1.4366  0.5236
 8343SOL     OW36490   0.980   1.276   4.810 -0.2297  0.5207  0.6098
 8343SOL    HW136491   1.069   1.309   4.797 -0.1322  0.5492  1.3432
 8343SOL    HW236492   0.972   1.265   4.904  0.3437 -0.5121  0.5361
 8344SOL     OW36493   2.939   3.155   7.800  0.4191 -0.1260 -0.1438
 8344SOL    HW136494   2.894   3.177   7.882  0.8469  0.5703 -0.1011
 8344SOL    HW236495   2.954   3.060   7.799 -0.3299 -0.2580  0.6761
 8345SOL     OW36496   1.581   3.554  10.352  0.0367 -0.2752  0.0919
 8345SOL    HW136497   1.610   3.475  10.306  1.1668  1.8165 -2.7407
 8345SOL    HW236498   1.486   3.553  10.356  0.0563 -1.1909  0.2973
 8346SOL     OW36499   2.479   3.400   8.920  0.1989 -0.4467  0.5190
 8346SOL    HW136500   2.471   3.424   9.013 -2.6454  0.7334 -0.0247
 8346SOL    HW236501   2.412   3.457   8.882 -1.2060 -1.3657  1.5864
 8347SOL     OW36502   3.175   0.121   5.121 -0.1184 -0.1456  0.1112
 8347SOL    HW136503   3.114   0.055   5.088 -0.2929 -0.0169  0.1731
 8347SOL    HW236504   3.115   0.196   5.123 -1.1092 -0.9369  0.1070
 8348SOL     OW36505   2.422   0.569  11.536 -0.1543 -0.4449 -0.1248
 8348SOL    HW136506   2.345   0.559  11.592 -1.2054 -1.2400 -1.7417
 8348SOL    HW236507   2.474   0.640  11.574  0.4590  0.0024 -1.8041
 8349SOL     OW36508   0.125   3.363  11.472 -0.0749 -0.5395  0.2732
 8349SOL    HW136509   0.218   3.385  11.485 -0.1827 -0.4594  0.9086
 8349SOL    HW236510   0.127   3.313  11.391  2.2206 -0.4982  0.3040
 8350SOL     OW36511   3.097   2.578   2.989 -0.2567  0.1512  0.5039
 8350SOL    HW136512   3.175   2.528   2.968  0.1180 -0.0578  2.4070
 8350SOL    HW236513   3.092   2.640   2.915 -1.2793  0.1184  0.5394
 8351SOL     OW36514   0.767   4.602   4.779 -0.0708  0.0304 -0.0005
 8351SOL    HW136515   0.813   4.686   4.777  2.0217 -1.1204 -0.3462
 8351SOL    HW236516   0.821   4.554   4.716  1.2153 -0.1560  1.2335
 8352SOL     OW36517   0.264   2.769   9.709 -0.2254  0.2509 -0.8683
 8352SOL    HW136518   0.232   2.769   9.799  4.0978 -0.6135  0.6277
 8352SOL    HW236519   0.343   2.823   9.715 -1.2573  1.6021  0.8696
 8353SOL     OW36520   4.156   2.567   8.106 -0.3270  0.6105  0.4418
 8353SOL    HW136521   4.078   2.517   8.128  0.0251 -1.5252 -3.2344
 8353SOL    HW236522   4.218   2.499   8.079 -0.6077  1.2248 -1.6989
 8354SOL     OW36523   4.187   0.320  15.837 -0.3026 -0.0351  0.7008
 8354SOL    HW136524   4.163   0.347  15.748  2.0192 -0.0294  0.0856
 8354SOL    HW236525   4.105   0.331  15.885  0.8509 -0.1747  2.6768
 8355SOL     OW36526   2.039   1.319  15.828  0.3516  0.1275 -0.1897
 8355SOL    HW136527   2.102   1.249  15.813 -0.2260 -0.0547 -1.7439
 8355SOL    HW236528   1.996   1.295  15.910  2.2398  0.4764  0.8968
 8356SOL     OW36529   3.236   3.091   9.148  0.7113 -0.1517 -0.4325
 8356SOL    HW136530   3.245   3.184   9.167  1.5140 -0.4070  0.4383
 8356SOL    HW236531   3.199   3.063   9.232 -0.0162 -1.7081 -1.2669
 8357SOL     OW36532   2.533   1.244   5.891 -0.3157  0.3567  0.4275
 8357SOL    HW136533   2.618   1.258   5.850 -1.2732  2.9469 -0.5917
 8357SOL    HW236534   2.475   1.296   5.836  1.4400 -1.5115 -3.1938
 8358SOL     OW36535   2.325   0.296   8.390  0.0191 -0.6191 -0.3385
 8358SOL    HW136536   2.273   0.230   8.436  1.0528 -1.6686 -0.6591
 8358SOL    HW236537   2.256   0.321   8.328  2.4384  2.4819 -1.7305
 8359SOL     OW36538   0.439   1.363  11.484 -0.3273  0.5483 -0.3289
 8359SOL    HW136539   0.463   1.435  11.541 -1.4078  0.5550  0.1129
 8359SOL    HW236540   0.517   1.368  11.428  1.9956 -0.4535  2.8264
 8360SOL     OW36541   4.178   3.555   4.123  0.0850  0.6212 -0.9374
 8360SOL    HW136542   4.172   3.492   4.195  0.1754  1.3581 -0.2761
 8360SOL    HW236543   4.093   3.593   4.142 -1.0064 -2.6468  0.8365
 8361SOL     OW36544   2.267   1.622   2.230  0.7992  0.6359 -0.7455
 8361SOL    HW136545   2.259   1.559   2.301  2.6601  0.9366 -0.2756
 8361SOL    HW236546   2.182   1.632   2.186 -0.3557 -2.6347  0.8092
 8362SOL     OW36547   3.571   2.367   3.036 -0.0970  0.3771 -0.3186
 8362SOL    HW136548   3.596   2.310   3.109  0.3570  0.5320 -0.3519
 8362SOL    HW236549   3.619   2.326   2.964  0.5004 -1.5001  1.1464
 8363SOL     OW36550   0.077   2.693   9.027 -0.1240 -0.4591 -0.6983
 8363SOL    HW136551   0.016   2.620   9.015 -0.1927 -0.4048 -0.6747
 8363SOL    HW236552   0.152   2.643   8.993  1.1806  0.4618  0.8464
 8364SOL     OW36553   4.571   3.677   9.363 -0.8409 -0.0583  0.5507
 8364SOL    HW136554   4.653   3.694   9.318 -0.4769  2.0701  1.9915
 8364SOL    HW236555   4.580   3.715   9.451  1.1433  0.7760 -0.0081
 8365SOL     OW36556   2.850   0.489   6.138  0.4823 -0.2824 -0.1272
 8365SOL    HW136557   2.783   0.423   6.121  1.2822 -1.5069  1.4452
 8365SOL    HW236558   2.787   0.561   6.142  0.5559 -0.2269  0.0552
 8366SOL     OW36559   0.274   2.049  14.759 -0.4801  0.1313  0.1340
 8366SOL    HW136560   0.205   2.089  14.706 -0.7256 -0.9254 -0.3414
 8366SOL    HW236561   0.310   2.120  14.814 -0.2965 -0.8184  1.2369
 8367SOL     OW36562   1.206   4.226  15.941  0.2702 -0.1131  0.0792
 8367SOL    HW136563   1.164   4.140  15.928  0.3214 -0.0849 -0.2754
 8367SOL    HW236564   1.149   4.286  15.894 -2.5549  0.3784  4.1691
 8368SOL     OW36565   2.361   0.028  16.530  0.2555  0.0942  0.3787
 8368SOL    HW136566   2.397   0.029  16.441  2.2016  2.2254  1.2034
 8368SOL    HW236567   2.283   4.696  16.516  0.5514 -0.3960  0.6439
 8369SOL     OW36568   3.106   1.450  10.403 -0.5575 -0.6303  0.1143
 8369SOL    HW136569   3.147   1.492  10.478  1.3151 -0.2201 -1.1466
 8369SOL    HW236570   3.020   1.493  10.398  0.4708  1.5968  1.5006
 8370SOL     OW36571   1.733   1.357   8.417 -0.7791 -0.1557 -0.2422
 8370SOL    HW136572   1.665   1.297   8.385 -1.6173  1.1041 -0.8450
 8370SOL    HW236573   1.816   1.313   8.404 -1.7871 -1.5300 -1.9187
 8371SOL     OW36574   3.655   2.507   9.210 -0.2197 -0.5448 -0.2092
 8371SOL    HW136575   3.602   2.511   9.290 -0.8659  1.9681 -0.7822
 8371SOL    HW236576   3.699   2.424   9.229  1.1392  0.1752 -0.2824
 8372SOL     OW36577   3.525   1.900   3.393 -0.6747  0.3593 -0.3206
 8372SOL    HW136578   3.596   1.839   3.411 -0.1367  0.8826 -0.6729
 8372SOL    HW236579   3.458   1.834   3.377 -0.8026  1.1681 -3.0142
 8373SOL     OW36580   3.705   3.666  15.403 -0.2345 -0.8845 -0.3655
 8373SOL    HW136581   3.651   3.649  15.480 -1.2808  0.2063 -0.8578
 8373SOL    HW236582   3.687   3.590  15.347  0.5706 -1.2769 -0.0825
 8374SOL     OW36583   2.603   2.639  10.840  0.5741  0.2063 -0.3751
 8374SOL    HW136584   2.644   2.712  10.792  1.0532  0.1436 -0.0671
 8374SOL    HW236585   2.517   2.672  10.867 -0.4879 -0.8514 -2.5211
 8375SOL     OW36586   1.251   0.684   9.489  0.0188  0.1807 -0.0098
 8375SOL    HW136587   1.320   0.703   9.426 -0.0113  2.9200  0.7764
 8375SOL    HW236588   1.180   0.738   9.455 -1.1101 -1.5760 -0.4123
 8376SOL     OW36589   2.367   4.364   6.710  0.0655 -0.6479 -0.2964
 8376SOL    HW136590   2.363   4.409   6.795 -2.8352  0.4162 -0.9958
 8376SOL    HW236591   2.450   4.401   6.682 -0.5439  2.0490  1.5064
 8377SOL     OW36592   0.289   1.407   2.914 -0.2836 -0.0328 -0.4667
 8377SOL    HW136593   0.230   1.335   2.934  0.5935 -0.0437  2.0777
 8377SOL    HW236594   0.273   1.459   2.994 -2.9165  1.2540 -1.8594
 8378SOL     OW36595   1.280   0.761   3.462  0.2516 -0.6893 -0.0049
 8378SOL    HW136596   1.264   0.729   3.550  1.5134 -0.3466  0.3471
 8378SOL    HW236597   1.235   0.696   3.408 -0.5712  0.5891 -0.8673
 8379SOL     OW36598   4.689   1.721  14.790 -1.1907 -0.1957 -0.2552
 8379SOL    HW136599   0.022   1.736  14.867 -0.8021  0.3360 -0.6385
 8379SOL    HW236600   0.000   1.635  14.766  0.4739  0.6275 -0.9080
 8380SOL     OW36601   1.534   3.950   8.129  0.0506 -0.6070  0.0069
 8380SOL    HW136602   1.520   3.999   8.210  2.0674 -0.8056  0.4978
 8380SOL    HW236603   1.498   4.008   8.062  2.4365 -0.8494 -1.5050
 8381SOL     OW36604   2.602   1.611   4.453 -0.0677  0.1424 -0.1841
 8381SOL    HW136605   2.524   1.557   4.463 -0.7119  0.8979 -1.2510
 8381SOL    HW236606   2.601   1.639   4.362 -2.4692  1.0867  0.1454
 8382SOL     OW36607   0.476   4.137   4.164 -0.3343  0.0743 -0.2154
 8382SOL    HW136608   0.395   4.109   4.121 -0.5519  3.1106 -1.7351
 8382SOL    HW236609   0.453   4.227   4.184  0.6163  0.3523 -0.3649
 8383SOL     OW36610   3.761   0.256   2.585 -0.1008 -0.2984 -0.0858
 8383SOL    HW136611   3.669   0.266   2.609 -0.0922  3.7204 -1.6846
 8383SOL    HW236612   3.769   0.336   2.532 -1.6281 -0.4169 -0.5011
 8384SOL     OW36613   2.354   2.904   1.667 -0.1825  0.3951  0.7918
 8384SOL    HW136614   2.416   2.856   1.612  0.8985  2.8361 -0.1405
 8384SOL    HW236615   2.396   2.990   1.673  0.8507  0.1122 -2.3608
 8385SOL     OW36616   0.604   0.655   9.280  0.0415 -0.0386  0.0301
 8385SOL    HW136617   0.555   0.665   9.361 -1.5281  1.1585 -1.0691
 8385SOL    HW236618   0.583   0.564   9.261 -0.9883  0.0760  0.6331
 8386SOL     OW36619   0.135   1.593   3.779  0.3450  0.2643 -0.2488
 8386SOL    HW136620   0.103   1.506   3.755  0.2127 -0.3666  2.2664
 8386SOL    HW236621   0.224   1.595   3.743  1.0550 -0.9967  1.4407
 8387SOL     OW36622   4.586   4.152   5.843  0.0873 -0.4186  0.4986
 8387SOL    HW136623   4.618   4.168   5.933 -0.6583  1.4405  0.4391
 8387SOL    HW236624   4.540   4.069   5.858 -1.2315  0.0432 -0.9625
 8388SOL     OW36625   0.178   3.126   8.844  0.0306 -0.3747  0.1535
 8388SOL    HW136626   0.208   3.211   8.877 -0.8772 -0.1866  0.5056
 8388SOL    HW236627   0.136   3.075   8.913 -1.1600  1.4695  0.8014
 8389SOL     OW36628   3.931   2.689   9.887 -0.2770  0.2648  0.0074
 8389SOL    HW136629   4.014   2.646   9.908  0.4674  2.0108  0.6000
 8389SOL    HW236630   3.887   2.698   9.971 -1.8556  2.4680 -1.0530
 8390SOL     OW36631   0.355   4.504   5.208  0.0264  0.0529  0.1080
 8390SOL    HW136632   0.369   4.577   5.148  1.1647 -1.1046 -1.0017
 8390SOL    HW236633   0.444   4.469   5.208  0.1534  0.3715  0.4431
 8391SOL     OW36634   3.521   0.349   0.472 -0.4145  0.3918 -0.0605
 8391SOL    HW136635   3.597   0.400   0.501 -1.4581  2.9397 -1.8758
 8391SOL    HW236636   3.533   0.363   0.378  1.6366 -3.4724 -0.3748
 8392SOL     OW36637   3.622   3.894  15.258 -0.7409 -0.7461  0.0954
 8392SOL    HW136638   3.672   3.827  15.305 -1.8913 -2.5804 -1.3011
 8392SOL    HW236639   3.578   3.847  15.188 -0.6733  1.5243 -1.4596
 8393SOL     OW36640   1.275   1.921   5.711  0.0533  0.2620  0.3477
 8393SOL    HW136641   1.243   1.954   5.627  0.0705 -1.4904 -0.3403
 8393SOL    HW236642   1.250   1.994   5.768 -0.6377  0.2955  0.0068
 8394SOL     OW36643   2.687   4.279  12.151 -0.0939  0.0001  0.1463
 8394SOL    HW136644   2.700   4.343  12.081 -2.3640  0.0555 -0.2288
 8394SOL    HW236645   2.698   4.194  12.107  0.9440 -0.6505  1.6679
 8395SOL     OW36646   4.530   1.781   0.845 -0.5940  0.0794 -0.2048
 8395SOL    HW136647   4.513   1.687   0.839 -0.0128 -0.1457  1.5997
 8395SOL    HW236648   4.483   1.809   0.766 -1.5371 -2.5710 -0.5761
 8396SOL     OW36649   2.711   0.972  16.802 -0.1661 -0.0211  0.5019
 8396SOL    HW136650   2.678   1.027  16.731  1.5357  0.4177  0.0516
 8396SOL    HW236651   2.634   0.979  16.858  1.6125  0.9605  2.8169
 8397SOL     OW36652   2.802   3.285   6.497  0.2875 -0.0039  0.0433
 8397SOL    HW136653   2.731   3.222   6.487  0.1656  0.1257  0.0926
 8397SOL    HW236654   2.762   3.372   6.489 -3.2375 -1.7726 -1.2269
 8398SOL     OW36655   3.982   2.128   2.012  0.1757 -0.0882 -0.4950
 8398SOL    HW136656   4.005   2.194   2.078  0.2885 -1.2409  0.6115
 8398SOL    HW236657   4.064   2.123   1.963 -0.0784  1.9627 -1.1189
 8399SOL     OW36658   3.437   4.654   2.155  0.8305  0.3570 -0.0065
 8399SOL    HW136659   3.406   4.564   2.143  0.0955  0.4367  1.1787
 8399SOL    HW236660   3.526   4.659   2.122  0.4733 -1.1146 -1.1983
 8400SOL     OW36661   1.179   0.180   6.320  0.3765 -0.1446 -0.0419
 8400SOL    HW136662   1.233   0.198   6.243  0.5765 -1.6165 -0.2577
 8400SOL    HW236663   1.112   0.132   6.271  0.8703 -0.2075 -0.6514
 8401SOL     OW36664   2.109   0.169   0.975  0.1727  0.1720 -0.1104
 8401SOL    HW136665   2.182   0.162   0.913 -0.2618 -0.1240 -0.5967
 8401SOL    HW236666   2.145   0.144   1.060 -1.6526 -4.9860 -0.8547
 8402SOL     OW36667   4.670   3.287   4.301  0.1380  0.1270  0.2325
 8402SOL    HW136668   0.026   3.251   4.345 -0.8047 -0.9928  0.9839
 8402SOL    HW236669   4.629   3.325   4.379  0.4578  1.6288 -0.3368
 8403SOL     OW36670   3.680   0.956   6.107 -0.0611 -0.0392  0.2124
 8403SOL    HW136671   3.665   0.905   6.027  2.2922 -1.6607  0.8158
 8403SOL    HW236672   3.596   1.001   6.119  1.3761  2.3509  1.1630
 8404SOL     OW36673   1.231   0.398   5.678 -0.4205  0.1108  0.1165
 8404SOL    HW136674   1.200   0.309   5.695  1.5442 -0.6715 -0.4360
 8404SOL    HW236675   1.161   0.443   5.726  0.0373  2.2370 -1.1985
 8405SOL     OW36676   3.228   4.586   6.042  0.3548 -0.3731  0.2409
 8405SOL    HW136677   3.276   4.651   6.093  0.2294  0.2783 -0.4748
 8405SOL    HW236678   3.156   4.643   6.014 -0.4324 -0.1572  2.6475
 8406SOL     OW36679   3.413   2.732  14.840  0.0993 -0.3128  0.0836
 8406SOL    HW136680   3.470   2.803  14.810  1.8417 -1.2068  1.2700
 8406SOL    HW236681   3.453   2.706  14.923  1.7888  1.4594 -0.1791
 8407SOL     OW36682   0.455   4.683   4.992  0.3331 -0.1277  0.1022
 8407SOL    HW136683   0.433   4.660   4.902  0.0244 -0.0422  0.1547
 8407SOL    HW236684   0.411   0.044   5.010  0.8088  0.2431 -0.4605
 8408SOL     OW36685   3.572   2.740  12.686 -0.4248 -0.5005  0.4435
 8408SOL    HW136686   3.584   2.645  12.688  0.7351 -0.4079 -1.8944
 8408SOL    HW236687   3.659   2.767  12.715 -1.2471 -0.3590  2.7804
 8409SOL     OW36688   2.748   0.723  13.851  0.3977  0.3897  0.0219
 8409SOL    HW136689   2.703   0.654  13.803 -1.7462  0.2328  2.2977
 8409SOL    HW236690   2.737   0.796  13.790  0.8127 -0.6280 -1.2607
 8410SOL     OW36691   1.375   1.701   4.510 -0.2977 -0.4721 -0.0901
 8410SOL    HW136692   1.373   1.678   4.417 -1.9221 -0.0256 -0.1689
 8410SOL    HW236693   1.295   1.663   4.546  0.7738 -0.4523  2.3150
 8411SOL     OW36694   4.190   1.140   7.660 -0.5856 -0.5017 -0.0279
 8411SOL    HW136695   4.109   1.190   7.649 -1.2739 -1.4564  0.6597
 8411SOL    HW236696   4.248   1.200   7.614  3.4197 -3.9444  0.5534
 8412SOL     OW36697   3.136   4.472   1.355 -0.2426  0.0520  0.3703
 8412SOL    HW136698   3.088   4.534   1.409  0.3486  0.3727  0.5142
 8412SOL    HW236699   3.209   4.524   1.324 -0.4027  0.2324  0.2959
 8413SOL     OW36700   0.454   3.293   7.180 -0.2911 -0.0699 -0.0433
 8413SOL    HW136701   0.371   3.299   7.228  0.3815 -0.7561  1.1959
 8413SOL    HW236702   0.500   3.238   7.242  1.7077  0.8067 -0.7709
 8414SOL     OW36703   2.624   0.227   8.783  0.2287  0.6170  0.1455
 8414SOL    HW136704   2.574   0.290   8.835 -0.4552 -0.4229  0.7488
 8414SOL    HW236705   2.590   0.238   8.695 -2.7401 -1.9900  0.9942
 8415SOL     OW36706   4.496   0.332  14.846 -0.1350 -0.1444  0.1462
 8415SOL    HW136707   4.409   0.295  14.831 -0.2321  0.7810 -1.5954
 8415SOL    HW236708   4.511   0.319  14.939  1.1045 -1.0084 -0.1762
 8416SOL     OW36709   2.431   0.554   9.517 -0.3805  0.2065 -0.1331
 8416SOL    HW136710   2.388   0.594   9.592  0.5435  1.0378 -0.0557
 8416SOL    HW236711   2.500   0.513   9.569 -1.9031 -0.9078  1.0318
 8417SOL     OW36712   4.626   2.654   1.549 -0.0004 -0.1832 -0.4782
 8417SOL    HW136713   4.688   2.723   1.574  2.0750 -2.0602 -0.4865
 8417SOL    HW236714   4.682   2.587   1.512 -1.0764 -1.0964 -0.4373
 8418SOL     OW36715   0.691   2.124   7.268 -0.2952 -0.0372  0.4253
 8418SOL    HW136716   0.693   2.104   7.174  2.5100  0.5022  0.3751
 8418SOL    HW236717   0.769   2.078   7.298  0.3646  1.0440  0.3524
 8419SOL     OW36718   2.409   0.612   7.564  0.4090 -0.4772  0.3420
 8419SOL    HW136719   2.487   0.660   7.591 -0.3407  0.0733  1.4870
 8419SOL    HW236720   2.382   0.582   7.650 -0.3137 -0.7383  0.0219
 8420SOL     OW36721   1.120   2.282   5.159  0.2395  0.2802 -0.2578
 8420SOL    HW136722   1.063   2.227   5.105  0.7649 -0.1831 -0.3440
 8420SOL    HW236723   1.072   2.364   5.149 -1.0420 -0.3844  0.4987
 8421SOL     OW36724   2.687   1.084   9.405  0.2800 -0.3856  0.6349
 8421SOL    HW136725   2.778   1.057   9.407  0.6377  0.7577 -0.3554
 8421SOL    HW236726   2.689   1.176   9.432 -2.3501  0.3560 -1.6874
 8422SOL     OW36727   2.549   1.129   7.376  0.7212 -0.4662 -0.8873
 8422SOL    HW136728   2.626   1.156   7.427 -1.0193  3.0499 -0.1086
 8422SOL    HW236729   2.548   1.194   7.306  0.2860  0.4513 -0.0315
 8423SOL     OW36730   1.063   0.503  11.462 -0.3107  0.0370 -0.1301
 8423SOL    HW136731   1.083   0.440  11.393  0.1286  0.0526 -0.0175
 8423SOL    HW236732   1.126   0.473  11.529 -0.3706 -0.2306 -0.1947
 8424SOL     OW36733   4.406   0.935   0.068  0.6506  0.1889 -0.0902
 8424SOL    HW136734   4.479   0.896   0.117  0.5927  0.9775  0.6245
 8424SOL    HW236735   4.339   0.867   0.066  1.6474 -0.8054  0.1957
 8425SOL     OW36736   3.543   1.665  12.167  0.5608 -0.1260  0.1316
 8425SOL    HW136737   3.482   1.668  12.093 -1.9073 -0.7352  2.1506
 8425SOL    HW236738   3.521   1.581  12.208 -0.6614  0.5924  0.9363
 8426SOL     OW36739   2.675   1.813   6.056  0.4456  0.0699 -0.0441
 8426SOL    HW136740   2.681   1.726   6.016  0.3143 -0.3892  0.9139
 8426SOL    HW236741   2.763   1.827   6.091 -0.0041  1.9759  0.3082
 8427SOL     OW36742   0.894   1.069  14.917  0.0496 -0.7719  0.2604
 8427SOL    HW136743   0.898   1.164  14.923  1.2335 -0.7504 -0.9282
 8427SOL    HW236744   0.971   1.055  14.972  0.3283 -2.8887 -0.6661
 8428SOL     OW36745   3.204   3.016   7.530 -0.2388  0.4090 -0.4556
 8428SOL    HW136746   3.155   2.959   7.590 -0.0955  1.2819  0.4994
 8428SOL    HW236747   3.147   3.093   7.521 -1.0693  0.3280  4.0268
 8429SOL     OW36748   1.459   2.553  15.178  0.6346 -0.2188  0.5156
 8429SOL    HW136749   1.527   2.613  15.145  0.2594 -0.3038 -0.3978
 8429SOL    HW236750   1.435   2.597  15.260 -0.4315 -1.5350  0.9026
 8430SOL     OW36751   3.059   3.750   3.431  0.1149 -0.1824 -0.0592
 8430SOL    HW136752   3.078   3.820   3.494  2.1616 -2.2775  1.6220
 8430SOL    HW236753   3.150   3.724   3.414 -0.1146  0.0835 -1.7600
 8431SOL     OW36754   0.775   2.897   2.708 -0.1692 -0.0851  1.0215
 8431SOL    HW136755   0.746   2.813   2.675 -1.3533  0.2616  1.1759
 8431SOL    HW236756   0.700   2.955   2.693 -0.5922 -0.9294 -0.1475
 8432SOL     OW36757   4.056   1.655  13.763 -0.0633  0.0185 -0.2108
 8432SOL    HW136758   3.968   1.626  13.739  0.5705 -2.4965  0.6095
 8432SOL    HW236759   4.110   1.651  13.684  0.8853 -2.2190  0.5857
 8433SOL     OW36760   3.560   2.858   6.280 -0.4999  0.1055 -0.0599
 8433SOL    HW136761   3.613   2.869   6.201 -0.3579 -0.9255 -0.0978
 8433SOL    HW236762   3.587   2.769   6.301 -0.4608  0.6933  2.3758
 8434SOL     OW36763   3.871   3.139   1.329 -0.2594 -0.0834  0.0893
 8434SOL    HW136764   3.916   3.105   1.251 -1.0749 -1.1930  0.0997
 8434SOL    HW236765   3.863   3.233   1.312  0.2223 -0.0744 -0.0953
 8435SOL     OW36766   0.861   1.102   2.858  0.5470  0.4081 -0.0790
 8435SOL    HW136767   0.947   1.123   2.894  0.7739  1.8527 -1.4381
 8435SOL    HW236768   0.872   1.122   2.765  2.3305  1.8709  0.4449
 8436SOL     OW36769   0.549   1.943   8.653 -0.2858 -0.0757 -0.5556
 8436SOL    HW136770   0.633   1.898   8.664 -0.3093 -0.0099 -0.1183
 8436SOL    HW236771   0.543   1.996   8.733 -0.3839  0.7605 -1.1134
 8437SOL     OW36772   2.953   4.339   2.045 -0.8310 -0.7326 -0.3099
 8437SOL    HW136773   2.868   4.356   2.085 -1.5081 -0.9872 -1.6460
 8437SOL    HW236774   2.930   4.330   1.953 -1.5694 -0.7888 -0.1236
 8438SOL     OW36775   4.501   4.535   7.790 -0.0268  0.1486  0.0387
 8438SOL    HW136776   4.433   4.598   7.814  0.7646  0.7891  0.5967
 8438SOL    HW236777   4.491   4.532   7.695 -1.4935 -0.5991  0.2097
 8439SOL     OW36778   2.420   4.356   8.079 -0.4784 -0.0492 -0.0405
 8439SOL    HW136779   2.406   4.450   8.069  0.7677  0.1397  0.0380
 8439SOL    HW236780   2.465   4.354   8.164  0.4145  1.2181 -0.4801
 8440SOL     OW36781   0.985   3.964   8.902  0.0128  0.3721  0.0316
 8440SOL    HW136782   1.073   3.964   8.939  1.0968  1.1409 -2.5394
 8440SOL    HW236783   0.941   3.947   8.985 -1.5453 -1.2823 -1.1120
 8441SOL     OW36784   0.372   3.817  11.142 -0.1014  0.4780  0.2476
 8441SOL    HW136785   0.283   3.784  11.151 -0.5939  1.6300 -0.4336
 8441SOL    HW236786   0.419   3.796  11.222  0.8931  0.0735 -0.4426
 8442SOL     OW36787   2.982   4.027  16.385 -0.9757  0.7084 -0.0336
 8442SOL    HW136788   3.065   4.061  16.419 -0.8462 -0.5756  0.9194
 8442SOL    HW236789   2.936   4.020  16.468  1.5632 -0.0230  1.3268
 8443SOL     OW36790   4.140   1.319   8.608 -0.7213  0.0048  0.0966
 8443SOL    HW136791   4.063   1.372   8.584 -1.2190 -2.1532 -3.0088
 8443SOL    HW236792   4.205   1.389   8.601  0.5052 -1.0237  1.0820
 8444SOL     OW36793   1.339   3.108   1.290  0.1268 -0.4132  0.1195
 8444SOL    HW136794   1.426   3.113   1.329  1.0903  1.0206 -2.1759
 8444SOL    HW236795   1.365   3.121   1.198 -3.1024 -1.5208 -0.9421
 8445SOL     OW36796   0.769   4.181   6.031 -0.0520  0.4160 -0.3762
 8445SOL    HW136797   0.821   4.185   5.951  1.9006 -1.2953  0.7960
 8445SOL    HW236798   0.698   4.121   6.009  0.0331 -0.4556  1.6957
 8446SOL     OW36799   1.098   3.480   8.130 -0.4118  0.2422 -0.0192
 8446SOL    HW136800   1.154   3.416   8.173 -2.3384 -0.7872  0.9607
 8446SOL    HW236801   1.012   3.437   8.133 -0.2822 -0.0680 -0.7059
 8447SOL     OW36802   1.248   2.638   3.190 -0.0525 -0.3427  0.2008
 8447SOL    HW136803   1.320   2.637   3.252 -0.1849 -1.1384  0.3460
 8447SOL    HW236804   1.291   2.687   3.120 -0.6824  0.8220  0.6340
 8448SOL     OW36805   4.069   0.327   8.053 -0.2320 -0.1034  0.0225
 8448SOL    HW136806   4.071   0.354   8.144  4.2372  0.6936 -0.3071
 8448SOL    HW236807   4.058   0.415   8.017  1.2565  0.6690  1.4585
 8449SOL     OW36808   0.345   0.072   3.972  0.5136  0.0053  0.1555
 8449SOL    HW136809   0.413   0.060   3.906  1.2962 -2.6293  1.4125
 8449SOL    HW236810   0.394   0.089   4.053  0.9247  2.3177 -0.5868
 8450SOL     OW36811   2.325   3.839   6.840 -0.0774  0.2359  0.1022
 8450SOL    HW136812   2.340   3.933   6.847  0.3158  0.1805  0.0039
 8450SOL    HW236813   2.245   3.842   6.787  1.3893 -1.5898 -2.2118
 8451SOL     OW36814   3.467   3.878  15.605 -0.0016  0.3753 -0.7235
 8451SOL    HW136815   3.398   3.857  15.542 -1.3374  2.4916  0.0306
 8451SOL    HW236816   3.521   3.800  15.600 -0.2491  0.1921 -0.5364
 8452SOL     OW36817   0.024   2.088  15.893  0.7244 -0.4649 -0.2442
 8452SOL    HW136818   0.012   2.142  15.815 -2.1852 -1.3339 -0.3940
 8452SOL    HW236819   0.066   2.153  15.950  1.6454 -1.5247  0.2840
 8453SOL     OW36820   1.515   0.641   8.207 -0.4210  0.6174  0.4550
 8453SOL    HW136821   1.506   0.667   8.116 -0.9511  0.6994  0.5317
 8453SOL    HW236822   1.605   0.607   8.198 -0.4644  0.7739 -0.5620
 8454SOL     OW36823   0.414   1.937   8.401  0.1340  0.2904  0.1747
 8454SOL    HW136824   0.347   2.003   8.383 -0.8287 -0.8805 -0.5133
 8454SOL    HW236825   0.440   1.953   8.492 -2.7910 -0.1522  1.0763
 8455SOL     OW36826   1.278   1.616   4.991 -0.1496  0.0805 -0.8116
 8455SOL    HW136827   1.196   1.654   5.023  1.2075  1.1619  1.3912
 8455SOL    HW236828   1.248   1.543   4.937  3.2611 -1.8775 -0.0772
 8456SOL     OW36829   1.212   0.713   2.974  0.5339  0.1420 -0.2026
 8456SOL    HW136830   1.140   0.758   2.929  1.0206  1.7495  0.6164
 8456SOL    HW236831   1.271   0.788   2.979 -2.1431  2.2878 -0.7423
 8457SOL     OW36832   0.903   1.481   7.764 -0.0316 -0.0228 -0.1040
 8457SOL    HW136833   0.949   1.462   7.845 -0.9214 -3.0210 -0.2890
 8457SOL    HW236834   0.916   1.576   7.770 -4.0893  0.8659 -5.2235
 8458SOL     OW36835   2.691   1.738   9.612  0.1592  0.0052  0.1714
 8458SOL    HW136836   2.642   1.659   9.589 -0.4027 -0.4700  3.0219
 8458SOL    HW236837   2.619   1.800   9.598  2.0866  2.5515  1.4610
 8459SOL     OW36838   2.292   4.146   7.282  0.0682  0.0471 -0.4575
 8459SOL    HW136839   2.213   4.102   7.252  1.1168 -1.3636 -1.1497
 8459SOL    HW236840   2.309   4.208   7.211 -0.4862  1.1361  0.3557
 8460SOL     OW36841   2.130   0.902   7.224  0.2017 -0.4712 -0.2912
 8460SOL    HW136842   2.172   0.956   7.157  2.4380 -1.4803  0.2993
 8460SOL    HW236843   2.042   0.901   7.186  0.9921  0.3043 -2.1213
 8461SOL     OW36844   3.319   2.433   2.948 -0.3631  0.5770 -0.3555
 8461SOL    HW136845   3.394   2.428   3.007 -0.3083 -2.0103 -0.6340
 8461SOL    HW236846   3.359   2.412   2.863  2.2894 -0.5776  1.1711
 8462SOL     OW36847   2.265   4.191  12.214 -0.0638 -0.4290  0.2413
 8462SOL    HW136848   2.345   4.244  12.213 -0.1540 -0.3007 -0.3900
 8462SOL    HW236849   2.201   4.256  12.185  1.1419  1.4067  1.6848
 8463SOL     OW36850   4.322   1.910   6.508 -0.3672 -0.0217 -0.3101
 8463SOL    HW136851   4.374   1.867   6.576  0.0229 -1.3667 -1.4674
 8463SOL    HW236852   4.374   1.882   6.433  1.1409 -1.9647  1.4454
 8464SOL     OW36853   1.411   3.076   7.115  0.2298  0.1169 -0.3692
 8464SOL    HW136854   1.399   3.054   7.023 -0.2001  1.1478 -0.5613
 8464SOL    HW236855   1.462   3.000   7.144  0.4884  0.4759  0.1188
 8465SOL     OW36856   3.659   0.440   4.454 -0.1124  0.3115 -0.2469
 8465SOL    HW136857   3.592   0.490   4.502  0.3711 -0.2429  0.9983
 8465SOL    HW236858   3.745   0.458   4.491 -0.3873  1.9341 -0.3777
 8466SOL     OW36859   3.091   3.239  11.918  0.0899  0.3102 -0.1765
 8466SOL    HW136860   3.030   3.240  11.844  2.6799 -1.1584 -2.3213
 8466SOL    HW236861   3.030   3.212  11.988 -0.3327  0.8123 -0.3507
 8467SOL     OW36862   0.060   2.718   9.521  0.5729  0.5510 -0.1238
 8467SOL    HW136863   0.113   2.714   9.601  1.7337  1.2750 -0.8672
 8467SOL    HW236864   0.107   2.645   9.482  2.1652  1.1749  0.6156
 8468SOL     OW36865   1.413   3.511   3.476 -0.1574 -0.2564 -0.4018
 8468SOL    HW136866   1.370   3.446   3.421 -1.6176  0.4873 -0.1249
 8468SOL    HW236867   1.370   3.491   3.559  1.8009  0.1653  0.7305
 8469SOL     OW36868   1.953   3.488   2.988 -0.3405 -0.0311  0.4143
 8469SOL    HW136869   1.892   3.471   3.060 -1.0864 -0.9039 -0.4259
 8469SOL    HW236870   1.993   3.401   2.984  1.7954  0.9387  0.8412
 8470SOL     OW36871   4.170   1.000  15.048 -0.5407 -0.4014  0.5966
 8470SOL    HW136872   4.194   1.009  15.140 -1.4584 -1.8784  0.9745
 8470SOL    HW236873   4.074   1.006  15.044 -0.4186  0.3511 -1.0528
 8471SOL     OW36874   2.675   1.904   3.571  0.2189 -0.4467  0.2569
 8471SOL    HW136875   2.627   1.832   3.612  0.3936 -0.4955  0.3770
 8471SOL    HW236876   2.653   1.976   3.630 -1.9808  0.5577 -1.8136
 8472SOL     OW36877   1.986   1.571   5.775  0.3500 -0.1510  0.8023
 8472SOL    HW136878   1.929   1.646   5.759  1.9109  1.1162  1.1969
 8472SOL    HW236879   2.002   1.522   5.695  1.9536  1.4307  0.1548
 8473SOL     OW36880   3.748   3.053   5.073  0.1045 -0.0583 -0.0227
 8473SOL    HW136881   3.757   3.056   4.978  0.4787  0.2284  0.0220
 8473SOL    HW236882   3.767   2.964   5.104  1.3740 -0.0375 -0.7047
 8474SOL     OW36883   3.167   0.689  16.246  0.2155 -0.3104  0.1601
 8474SOL    HW136884   3.226   0.764  16.231  0.6893 -0.6428  0.3552
 8474SOL    HW236885   3.214   0.632  16.307  0.8922 -0.7838 -0.7925
 8475SOL     OW36886   3.098   0.396   8.549  0.0717 -0.1755 -0.2574
 8475SOL    HW136887   3.181   0.439   8.570 -0.4024  0.1097  0.9997
 8475SOL    HW236888   3.127   0.305   8.546  2.1935  0.4532  1.4232
 8476SOL     OW36889   0.580   3.922  13.177  0.2911 -0.1348  0.1380
 8476SOL    HW136890   0.558   3.859  13.246 -1.5200 -1.1681 -1.3614
 8476SOL    HW236891   0.500   3.920  13.124  0.2906  0.2470  0.1197
 8477SOL     OW36892   0.122   2.532   3.466 -0.0575  0.2448  0.6156
 8477SOL    HW136893   0.164   2.576   3.539  0.4894 -0.7187  0.8826
 8477SOL    HW236894   0.031   2.544   3.494 -1.1081 -0.6591 -2.3394
 8478SOL     OW36895   4.545   3.844   7.568 -0.0417 -0.0583 -0.1842
 8478SOL    HW136896   4.468   3.886   7.607 -0.8321 -1.0583 -0.6702
 8478SOL    HW236897   4.583   3.920   7.524  0.3881  0.1405  0.5183
 8479SOL     OW36898   1.414   4.584   2.357 -0.3930 -0.0587 -0.1581
 8479SOL    HW136899   1.328   4.590   2.315  0.1293 -3.8953 -1.7965
 8479SOL    HW236900   1.450   4.667   2.327  0.0801 -0.0852  0.3386
 8480SOL     OW36901   4.512   1.147   3.835  0.4765  0.2080 -0.0567
 8480SOL    HW136902   4.473   1.149   3.923 -0.8284 -1.8328 -0.6124
 8480SOL    HW236903   4.511   1.053   3.817 -1.1015  0.5554 -1.6693
 8481SOL     OW36904   3.781   1.044   4.885  0.2467 -0.2447 -0.2346
 8481SOL    HW136905   3.747   0.988   4.815 -1.3713 -0.3331  0.6353
 8481SOL    HW236906   3.736   1.127   4.870  1.6468  0.7305  0.9792
 8482SOL     OW36907   0.985   1.856   2.250  0.4084 -0.1887  0.0459
 8482SOL    HW136908   1.014   1.854   2.159  2.3486 -2.2940  0.7290
 8482SOL    HW236909   1.067   1.814   2.275  0.2448 -1.7826 -2.0805
 8483SOL     OW36910   2.370   1.425   5.175 -0.2059 -0.0935 -0.0652
 8483SOL    HW136911   2.411   1.338   5.179  0.5611  0.2235 -0.8908
 8483SOL    HW236912   2.423   1.460   5.103  0.0347  1.1092  0.6852
 8484SOL     OW36913   1.760   4.552   8.030  0.3400  0.4015 -0.0279
 8484SOL    HW136914   1.748   4.461   8.055  2.8958 -0.1982 -0.9848
 8484SOL    HW236915   1.700   4.608   8.079  2.4284  2.7221 -0.1060
 8485SOL     OW36916   3.608   2.199   0.261 -0.1094  0.0956 -0.5284
 8485SOL    HW136917   3.567   2.116   0.286 -0.0337 -0.2054 -1.4002
 8485SOL    HW236918   3.545   2.266   0.284 -1.8327 -1.8829  0.5312
 8486SOL     OW36919   0.925   0.229  17.080  0.2881  0.0911  0.0670
 8486SOL    HW136920   0.978   0.293  17.127 -1.0269  1.8540 -0.8529
 8486SOL    HW236921   0.994   0.192  17.024  0.5429  2.4638 -1.1796
 8487SOL     OW36922   0.717   4.587   5.349  0.0100 -0.2878 -0.5721
 8487SOL    HW136923   0.643   4.625   5.396  0.7828 -0.8314  1.0927
 8487SOL    HW236924   0.685   4.502   5.320 -0.1963 -0.6440  0.6875
 8488SOL     OW36925   2.178   0.358  14.880  0.4956 -0.0072  0.4230
 8488SOL    HW136926   2.253   0.371  14.823  0.3962 -0.9590  0.0685
 8488SOL    HW236927   2.197   0.412  14.956  1.4278 -0.2862  0.3861
 8489SOL     OW36928   2.561   2.327   1.176  0.4686  0.4333  0.6271
 8489SOL    HW136929   2.654   2.339   1.154  0.5650  1.7501  1.7537
 8489SOL    HW236930   2.540   2.413   1.213  0.0668 -0.1490  1.7680
 8490SOL     OW36931   1.105   2.349  13.039 -0.1420 -0.4582  0.3292
 8490SOL    HW136932   1.085   2.348  12.945 -0.6673 -0.3190  0.4426
 8490SOL    HW236933   1.042   2.417  13.063  0.9831  0.3943  0.8530
 8491SOL     OW36934   0.762   0.289   8.270  0.2563 -0.2481  0.0658
 8491SOL    HW136935   0.799   0.331   8.348 -0.1822  0.3451 -0.0477
 8491SOL    HW236936   0.727   0.203   8.292 -1.4280 -0.1293 -2.1195
 8492SOL     OW36937   3.769   0.342   0.285 -0.9564 -0.0222 -0.0280
 8492SOL    HW136938   3.770   0.385   0.371  2.9015 -1.5879  0.7362
 8492SOL    HW236939   3.681   0.366   0.256 -1.1539 -0.2269  0.4072
 8493SOL     OW36940   3.595   0.448   4.182  0.5304 -0.1625  0.2611
 8493SOL    HW136941   3.690   0.454   4.176  0.4819 -2.2234 -2.8628
 8493SOL    HW236942   3.586   0.501   4.261 -0.0101 -1.0140  0.7795
 8494SOL     OW36943   3.242   3.158   3.566  0.4444  0.0596 -0.5474
 8494SOL    HW136944   3.217   3.250   3.574  0.8114 -0.2614  3.8451
 8494SOL    HW236945   3.165   3.113   3.530  0.3747  0.8132 -1.3322
 8495SOL     OW36946   3.858   3.080   9.427  0.2743 -0.3441 -0.3218
 8495SOL    HW136947   3.815   3.083   9.512 -0.8148  0.0807 -0.8936
 8495SOL    HW236948   3.807   3.145   9.379  0.0888 -1.8727 -2.1919
 8496SOL     OW36949   3.954   4.574   7.880  0.0117  0.1593 -0.1331
 8496SOL    HW136950   4.005   4.508   7.927  0.5267  1.2521  0.8606
 8496SOL    HW236951   3.939   4.640   7.948  0.7948 -1.3252  1.5131
 8497SOL     OW36952   4.197   3.168   5.075  0.1829  0.2087  0.0741
 8497SOL    HW136953   4.113   3.149   5.033 -0.5063  0.5703  1.2849
 8497SOL    HW236954   4.251   3.157   4.996  1.6572 -0.1739  1.1474
 8498SOL     OW36955   3.425   3.785  14.801 -0.3440  0.4163 -1.0391
 8498SOL    HW136956   3.409   3.875  14.774  2.1691  0.8740 -1.0390
 8498SOL    HW236957   3.334   3.758  14.808 -0.3495  0.8942  0.6887
 8499SOL     OW36958   0.532   3.979   5.176  0.1438 -0.6864 -0.2344
 8499SOL    HW136959   0.522   4.072   5.155  1.0517 -1.0440 -2.1861
 8499SOL    HW236960   0.509   3.976   5.269 -2.2178 -0.8333 -0.8168
 8500SOL     OW36961   1.482   0.015   6.397 -0.3356 -0.0929  0.4391
 8500SOL    HW136962   1.389   4.718   6.399 -0.4795  0.2446 -2.5484
 8500SOL    HW236963   1.491   0.056   6.483  0.7288  0.1152  0.2295
 8501SOL     OW36964   0.289   0.426   2.783  0.0565  0.1852  0.1178
 8501SOL    HW136965   0.379   0.405   2.759  0.9527  1.8145  1.9599
 8501SOL    HW236966   0.303   0.518   2.808  1.2458  0.0832 -0.2002
 8502SOL     OW36967   0.828   1.741   3.939 -0.4873 -0.8373 -0.1567
 8502SOL    HW136968   0.791   1.742   3.851  1.2482  1.0642 -0.8519
 8502SOL    HW236969   0.796   1.657   3.972 -0.7602  0.2574  2.3723
 8503SOL     OW36970   3.721   4.003   3.929  0.1114 -0.2749 -0.7303
 8503SOL    HW136971   3.798   3.950   3.948 -2.0692 -2.7951  1.0506
 8503SOL    HW236972   3.766   4.088   3.931  0.1741 -0.3080 -0.7250
 8504SOL     OW36973   0.535   3.501   4.762  0.3845 -0.2341 -0.0555
 8504SOL    HW136974   0.579   3.542   4.688  2.0338 -0.6236  0.7137
 8504SOL    HW236975   0.503   3.573   4.815 -0.9232  0.6996 -2.1270
 8505SOL     OW36976   2.643   1.457   1.024 -0.1955  0.3696 -0.5218
 8505SOL    HW136977   2.666   1.525   1.088 -0.5395  1.0542 -1.1284
 8505SOL    HW236978   2.690   1.492   0.949 -0.2863 -0.9065 -1.1610
 8506SOL     OW36979   1.997   1.439   5.535  0.1718  0.0339  0.8238
 8506SOL    HW136980   2.090   1.417   5.523  0.2488  1.1466 -0.4886
 8506SOL    HW236981   1.987   1.512   5.474  0.8204  0.2189  0.9343
 8507SOL     OW36982   1.071   3.568   1.497  0.3252 -0.4256  0.0998
 8507SOL    HW136983   1.134   3.515   1.448  0.0146 -1.9392  1.3823
 8507SOL    HW236984   0.990   3.532   1.460 -0.2801  1.6024 -0.5972
 8508SOL     OW36985   3.204   0.417   6.294  0.0569 -0.1842  0.1758
 8508SOL    HW136986   3.126   0.379   6.335  0.9358 -0.1482  1.8769
 8508SOL    HW236987   3.178   0.508   6.284  0.7049  0.0451  0.6367
 8509SOL     OW36988   2.883   4.336   6.965  0.1390  0.2994 -0.2142
 8509SOL    HW136989   2.811   4.275   6.980  1.6647 -0.6993  2.9157
 8509SOL    HW236990   2.956   4.277   6.983 -1.3794 -1.6536 -0.4730
 8510SOL     OW36991   1.486   2.818   2.308 -0.1477  0.5568  0.0856
 8510SOL    HW136992   1.545   2.890   2.287 -0.9990  1.9836  2.5869
 8510SOL    HW236993   1.501   2.800   2.401 -2.1073 -1.1348  0.0747
 8511SOL     OW36994   3.701   3.074   5.696 -0.4202  0.0948  0.0749
 8511SOL    HW136995   3.721   3.068   5.603  0.3904  1.1327  0.1765
 8511SOL    HW236996   3.633   3.007   5.703 -0.5246 -0.0151 -2.1961
 8512SOL     OW36997   0.468   2.377   2.241 -0.0941  0.3260 -0.1016
 8512SOL    HW136998   0.416   2.313   2.290  0.3156  2.0539  2.5571
 8512SOL    HW236999   0.399   2.432   2.204  1.1455  2.3042  0.5635
 8513SOL     OW37000   2.468   3.350  11.179 -0.0094  0.2139  0.7866
 8513SOL    HW137001   2.527   3.295  11.231 -1.1093 -0.7416  1.0164
 8513SOL    HW237002   2.421   3.394  11.250  1.1377 -1.0071  2.2872
 8514SOL     OW37003   4.130   0.821   5.081 -0.1744 -0.2165 -0.1345
 8514SOL    HW137004   4.157   0.760   5.150  2.2006  2.8004  1.6109
 8514SOL    HW237005   4.036   0.824   5.095  0.0071 -1.3223  1.3144
 8515SOL     OW37006   1.988   0.955   4.072  0.2291  0.5069  0.2145
 8515SOL    HW137007   2.037   0.939   4.153  1.2215 -2.0938 -0.8793
 8515SOL    HW237008   2.067   0.952   4.017  0.5581  2.4138  0.5908
 8516SOL     OW37009   2.370   0.452   7.161 -0.5241 -0.1387  0.0477
 8516SOL    HW137010   2.375   0.515   7.233  1.1327 -0.1781 -0.0381
 8516SOL    HW237011   2.453   0.468   7.117 -0.7891  1.4894  0.1539
 8517SOL     OW37012   3.995   3.529   4.447  0.4389 -0.3780  0.1356
 8517SOL    HW137013   3.985   3.546   4.354  1.8033  0.5961  0.1576
 8517SOL    HW237014   3.982   3.615   4.489  1.5014 -0.0780 -0.1498
 8518SOL     OW37015   2.489   4.615   2.451 -0.3085  0.0335 -0.3140
 8518SOL    HW137016   2.430   4.582   2.384 -0.4740  1.8591 -1.0591
 8518SOL    HW237017   2.481   4.539   2.509 -0.5045 -0.0028 -0.3878
 8519SOL     OW37018   4.200   1.467  16.146 -0.3752 -0.5853  0.0533
 8519SOL    HW137019   4.233   1.381  16.173 -1.0958 -1.2666 -1.2430
 8519SOL    HW237020   4.229   1.465  16.054  1.9649 -0.2952  0.7750
 8520SOL     OW37021   1.056   0.407   6.526 -0.1252 -0.2001 -0.1741
 8520SOL    HW137022   1.077   0.452   6.608  2.0786  0.9465 -1.3599
 8520SOL    HW237023   1.093   0.469   6.463 -0.3864 -0.7332 -0.8580
 8521SOL     OW37024   3.093   4.683   1.536  0.0824 -0.3236 -0.5467
 8521SOL    HW137025   3.031   0.029   1.512  0.4659 -0.2115 -1.2166
 8521SOL    HW237026   3.098   4.708   1.628 -0.2694 -0.6658 -0.4366
 8522SOL     OW37027   0.070   3.132  16.732 -0.1556  0.3733  0.0857
 8522SOL    HW137028   0.078   3.227  16.743  0.1482  0.4721 -1.0256
 8522SOL    HW237029   0.006   3.136  16.660  0.1252 -1.7116 -0.2555
 8523SOL     OW37030   2.534   1.634  16.253 -0.7412 -0.2461  0.2510
 8523SOL    HW137031   2.566   1.680  16.331  1.0175  0.1158 -0.6813
 8523SOL    HW237032   2.487   1.703  16.207  2.8630  1.6259 -0.5917
 8524SOL     OW37033   4.256   2.716   5.495 -0.4608  0.7071 -0.3601
 8524SOL    HW137034   4.303   2.754   5.570 -1.1705  0.5292  0.1698
 8524SOL    HW237035   4.312   2.739   5.421  0.0605 -0.4988 -0.3405
 8525SOL     OW37036   3.320   4.699   8.853  0.1314  0.4370  0.0486
 8525SOL    HW137037   3.365   4.643   8.790  0.6444  0.5376  0.3270
 8525SOL    HW237038   3.391   4.709   8.916 -0.2942 -1.8921  0.8944
 8526SOL     OW37039   4.651   2.037   7.157  0.3070 -0.2232 -0.6800
 8526SOL    HW137040   4.624   1.999   7.240  0.2788 -0.7381 -0.9242
 8526SOL    HW237041   4.579   2.091   7.124  0.6353  0.9897  0.5846
 8527SOL     OW37042   3.351   0.207   3.732  0.4919 -0.6725 -0.4585
 8527SOL    HW137043   3.431   0.235   3.688  0.0416 -0.2407 -1.0022
 8527SOL    HW237044   3.319   0.145   3.667  0.1024  0.7353 -1.6259
 8528SOL     OW37045   3.332   3.098   1.821  0.4371  0.5931  0.0260
 8528SOL    HW137046   3.283   3.035   1.873 -1.9230  1.5843 -0.9828
 8528SOL    HW237047   3.283   3.097   1.739  1.5776  1.8211 -0.6676
 8529SOL     OW37048   0.414   2.972   8.844 -0.0978 -0.2648  0.5098
 8529SOL    HW137049   0.479   3.003   8.781 -0.7634 -0.0647 -0.0797
 8529SOL    HW237050   0.332   3.010   8.815  1.0993  1.6186 -0.4349
 8530SOL     OW37051   1.567   0.141   3.013 -0.0936  0.2241 -0.0864
 8530SOL    HW137052   1.578   0.196   2.935  1.2894 -1.5982 -1.1682
 8530SOL    HW237053   1.616   0.190   3.079 -0.2857 -0.5114  0.6003
 8531SOL     OW37054   3.628   3.138   5.396  0.0771  0.6629  0.2005
 8531SOL    HW137055   3.660   3.192   5.324 -0.0732 -0.2786 -0.5699
 8531SOL    HW237056   3.691   3.070   5.419 -0.9309 -0.8730 -1.5581
 8532SOL     OW37057   3.729   0.135   3.336  0.0437  0.0128 -0.2847
 8532SOL    HW137058   3.718   0.055   3.386  1.7204 -1.0627 -1.6477
 8532SOL    HW237059   3.820   0.143   3.307  0.4164 -2.7647  0.1522
 8533SOL     OW37060   1.141   0.524  17.025  0.1845 -0.1115 -0.0734
 8533SOL    HW137061   1.119   0.601  17.076 -0.6677 -1.4273  1.5395
 8533SOL    HW237062   1.134   0.459  17.095 -1.2543 -0.7159 -0.7706
 8534SOL     OW37063   0.872   0.865   3.119 -0.3640 -0.1348 -0.0742
 8534SOL    HW137064   0.932   0.838   3.049  0.0083 -0.0879  0.2221
 8534SOL    HW237065   0.794   0.885   3.069  0.1178  1.4767 -0.1543
 8535SOL     OW37066   1.034   0.472   4.992  0.3974 -0.1039  0.9620
 8535SOL    HW137067   0.958   0.450   5.046 -0.0412  0.7183  0.6854
 8535SOL    HW237068   1.012   0.421   4.914  0.6968  0.7955  0.2949
 8536SOL     OW37069   1.911   2.676   6.116  0.5003 -0.1295 -0.2104
 8536SOL    HW137070   1.987   2.677   6.059  0.1730  1.7527 -0.6393
 8536SOL    HW237071   1.949   2.671   6.204  1.4252 -0.0296 -0.6055
 8537SOL     OW37072   3.594   4.180   2.509  0.1502 -0.0002  0.3813
 8537SOL    HW137073   3.602   4.121   2.583 -3.7562  0.1081  0.8691
 8537SOL    HW237074   3.570   4.267   2.542 -0.9228 -0.1019 -0.1289
 8538SOL     OW37075   3.460   4.338  16.570 -0.0747 -0.2885  0.1854
 8538SOL    HW137076   3.530   4.401  16.584 -0.8714 -0.0401  3.0307
 8538SOL    HW237077   3.447   4.370  16.481 -0.4304  0.3338  0.4607
 8539SOL     OW37078   2.262   0.176   4.534  0.3352 -0.1707 -0.4500
 8539SOL    HW137079   2.308   0.193   4.452  0.5723  2.0493  0.1324
 8539SOL    HW237080   2.331   0.164   4.600 -0.1403  1.6749  0.3934
 8540SOL     OW37081   2.776   1.990  10.128 -0.1207 -0.0823  0.0609
 8540SOL    HW137082   2.826   1.921  10.171 -1.6989 -1.8294 -0.9094
 8540SOL    HW237083   2.828   2.064  10.159 -1.9145  1.6893 -1.1757
 8541SOL     OW37084   1.833   1.661   9.811 -0.3734  0.1907  0.2962
 8541SOL    HW137085   1.779   1.670   9.890  1.2790  1.1283  1.3028
 8541SOL    HW237086   1.917   1.680   9.851  0.4097 -0.0020 -1.2611
 8542SOL     OW37087   2.933   1.901  17.630 -0.3979  0.0998  0.1286
 8542SOL    HW137088   2.959   1.951   0.018  1.0813  0.6988 -0.7504
 8542SOL    HW237089   2.888   1.966  17.576  0.5441  0.6364 -0.0088
 8543SOL     OW37090   4.564   3.413   3.535 -0.3399  0.3183 -0.6062
 8543SOL    HW137091   4.501   3.483   3.517  0.0295  0.4601 -1.3417
 8543SOL    HW237092   4.572   3.363   3.455  1.2255  1.3115 -1.0590
 8544SOL     OW37093   2.906   3.846   9.532  0.2363  0.6103 -0.3474
 8544SOL    HW137094   2.856   3.775   9.573  0.9871  0.8775  1.0117
 8544SOL    HW237095   2.947   3.889   9.607 -1.3754  0.8818  0.3664
 8545SOL     OW37096   3.591   2.508  13.455  0.0465 -0.1684 -0.2234
 8545SOL    HW137097   3.607   2.599  13.480  0.0971 -1.3266  3.9743
 8545SOL    HW237098   3.673   2.494  13.409  1.0499  4.6563  0.0163
 8546SOL     OW37099   1.174   3.375   2.845  0.3754  0.2247 -0.0843
 8546SOL    HW137100   1.230   3.451   2.857 -0.3006  1.0706 -2.3649
 8546SOL    HW237101   1.241   3.311   2.820 -2.0644 -1.3468 -2.5853
 8547SOL     OW37102   0.294   0.551   5.028  0.4600 -0.4737 -0.2503
 8547SOL    HW137103   0.353   0.504   5.088 -1.4994 -0.1543  1.9468
 8547SOL    HW237104   0.356   0.599   4.973  2.6504 -2.2340  0.6920
 8548SOL     OW37105   3.857   4.178   7.097 -0.4518 -0.0800 -0.0514
 8548SOL    HW137106   3.823   4.256   7.051 -0.0866  0.4351  0.5574
 8548SOL    HW237107   3.838   4.117   7.025  0.5301 -0.3233 -0.0946
 8549SOL     OW37108   1.448   1.241   0.066  0.2680 -0.4335  0.3207
 8549SOL    HW137109   1.534   1.272   0.093  1.2412 -3.2150  0.4101
 8549SOL    HW237110   1.395   1.321   0.064 -0.1639 -0.7850 -1.7762
 8550SOL     OW37111   2.044   0.222  13.257 -0.1951  0.1044 -0.5786
 8550SOL    HW137112   1.956   0.250  13.282 -0.4670 -0.7273 -0.5917
 8550SOL    HW237113   2.102   0.244  13.330  0.0863 -0.1984 -0.7110
 8551SOL     OW37114   0.682   3.571   2.312  0.2300  0.0121  0.3224
 8551SOL    HW137115   0.731   3.607   2.385  1.3079  0.7380 -0.7517
 8551SOL    HW237116   0.705   3.635   2.244  0.7665  1.4240  1.8556
 8552SOL     OW37117   1.205   3.250   8.273  0.0054  0.0631  0.0982
 8552SOL    HW137118   1.227   3.186   8.341  0.0282 -0.3211 -0.2740
 8552SOL    HW237119   1.153   3.190   8.220 -0.4810  3.4168 -3.2289
 8553SOL     OW37120   1.841   0.803  16.452 -0.1371 -0.8284  0.1568
 8553SOL    HW137121   1.761   0.823  16.402 -1.4337  0.0529  2.5867
 8553SOL    HW237122   1.818   0.733  16.512 -1.5280  0.0192  0.6273
 8554SOL     OW37123   0.929   4.210   8.008  0.0570  0.0609 -0.1954
 8554SOL    HW137124   0.962   4.245   8.090  2.5023 -1.3053 -0.6115
 8554SOL    HW237125   0.850   4.165   8.038  0.6537 -0.8050  0.0774
 8555SOL     OW37126   0.206   1.974   9.211 -0.6738 -0.4924 -0.2885
 8555SOL    HW137127   0.264   1.982   9.136  0.1193  1.6074  0.5508
 8555SOL    HW237128   0.211   1.880   9.230 -0.6203 -0.4155  0.0824
 8556SOL     OW37129   2.324   3.861   9.930 -0.2592 -0.3428  0.1735
 8556SOL    HW137130   2.383   3.901   9.994 -0.5781 -1.1974  1.0029
 8556SOL    HW237131   2.278   3.794   9.980 -1.6629  0.2793 -0.3028
 8557SOL     OW37132   0.047   2.460   5.802 -0.2090  0.3022 -0.3132
 8557SOL    HW137133   0.123   2.515   5.822  0.9450  0.2589 -4.6531
 8557SOL    HW237134   0.019   2.434   5.889 -1.0412  0.4941 -0.5255
 8558SOL     OW37135   3.076   3.877   1.483 -0.2215 -0.2884  0.6166
 8558SOL    HW137136   3.051   3.794   1.443  1.4793 -0.9020  0.8294
 8558SOL    HW237137   2.991   3.918   1.496 -0.3065  0.1980 -1.6028
 8559SOL     OW37138   0.987   0.393   0.571 -0.3979 -0.2963  0.0783
 8559SOL    HW137139   0.925   0.443   0.625 -1.2406 -1.9655  0.6415
 8559SOL    HW237140   1.061   0.453   0.557  0.0687 -0.5500  1.4160
 8560SOL     OW37141   1.478   2.842  17.381  0.4960 -0.1155  0.4070
 8560SOL    HW137142   1.450   2.788  17.307 -0.1514  0.9690 -0.1273
 8560SOL    HW237143   1.404   2.901  17.396  1.6425  1.5436 -0.4805
 8561SOL     OW37144   4.054   0.346   1.922  0.1870 -0.3403  0.4876
 8561SOL    HW137145   4.116   0.286   1.963  0.3557 -0.4038  0.1416
 8561SOL    HW237146   4.028   0.303   1.841 -0.2463  0.3672  0.2534
 8562SOL     OW37147   1.182   2.370  15.937  0.1821  1.1373  0.0120
 8562SOL    HW137148   1.119   2.392  15.869 -1.8913  0.4235  1.6996
 8562SOL    HW237149   1.238   2.315  15.882  0.9408  1.6987  0.2141
 8563SOL     OW37150   4.147   3.515   8.029 -0.6572  0.3466 -0.1235
 8563SOL    HW137151   4.147   3.610   8.039 -0.6592  0.6873 -3.6460
 8563SOL    HW237152   4.078   3.497   7.965 -1.6379  4.5431 -0.1940
 8564SOL     OW37153   2.639   2.893   0.105  0.0117 -0.0063 -0.9670
 8564SOL    HW137154   2.705   2.891   0.175  0.5506 -0.3036 -1.4757
 8564SOL    HW237155   2.684   2.959   0.053  2.3766 -1.0538 -0.2901
 8565SOL     OW37156   3.682   2.942  12.952 -0.0491  0.0637  0.3722
 8565SOL    HW137157   3.725   2.866  12.913  0.8440 -1.0639  3.5491
 8565SOL    HW237158   3.694   3.011  12.887 -0.0235  0.1392  0.4571
 8566SOL     OW37159   4.634   1.525  13.538  0.0576 -0.4764  0.8999
 8566SOL    HW137160   4.613   1.436  13.565  1.5798 -1.0245  0.2821
 8566SOL    HW237161   4.680   1.570  13.609 -1.9684  2.2418  0.5140
 8567SOL     OW37162   4.228   1.758   5.456 -0.8724  0.0397  0.1394
 8567SOL    HW137163   4.229   1.852   5.472 -1.7451 -0.3364  2.3310
 8567SOL    HW237164   4.318   1.730   5.474  0.1807  1.7936 -2.4652
 8568SOL     OW37165   1.015   4.625   6.178 -0.5443  0.1378  0.2613
 8568SOL    HW137166   0.949   4.560   6.153 -0.6695  0.2859  0.2006
 8568SOL    HW237167   1.091   4.602   6.125 -0.9609  1.4114 -0.9098
 8569SOL     OW37168   3.460   1.330  16.539  0.0898 -0.2582 -0.2670
 8569SOL    HW137169   3.548   1.332  16.500  0.0911  0.0066 -0.2507
 8569SOL    HW237170   3.434   1.422  16.541 -1.6006 -0.7509  0.5315
 8570SOL     OW37171   0.534   1.634  13.199  0.1926 -0.3077  0.2948
 8570SOL    HW137172   0.553   1.674  13.114 -0.4703  0.1977  0.3882
 8570SOL    HW237173   0.571   1.546  13.189 -1.0775 -0.7258 -0.7124
 8571SOL     OW37174   2.371   3.612   9.398 -0.0268 -0.6724  0.1549
 8571SOL    HW137175   2.454   3.655   9.422 -0.6229  1.5668 -1.7026
 8571SOL    HW237176   2.395   3.522   9.421 -0.0002 -0.2024  2.0024
 8572SOL     OW37177   2.340   4.527   5.777 -0.0837  0.0945 -0.0837
 8572SOL    HW137178   2.321   4.508   5.685  0.6209  0.9572 -0.4036
 8572SOL    HW237179   2.262   4.573   5.809  0.3240  1.6137 -1.2864
 8573SOL     OW37180   3.035   1.851   8.498  0.2032  0.6548  0.4867
 8573SOL    HW137181   2.952   1.823   8.536 -0.2417  1.4732  0.1343
 8573SOL    HW237182   3.055   1.778   8.440 -1.1518 -0.6533  1.6760
 8574SOL     OW37183   3.194   2.920   3.235 -0.3852 -0.0781 -0.1243
 8574SOL    HW137184   3.163   3.002   3.196  0.5401 -0.1077 -0.9323
 8574SOL    HW237185   3.282   2.949   3.262 -0.1775  0.0749 -0.9697
 8575SOL     OW37186   4.655   2.212   2.243 -0.2036  0.1353 -0.1110
 8575SOL    HW137187   4.702   2.181   2.320 -1.4370 -0.3537  0.4417
 8575SOL    HW237188   4.595   2.138   2.238  1.9521 -1.4491 -2.4837
 8576SOL     OW37189   0.277   1.434  16.016 -0.1187  0.2182 -0.3388
 8576SOL    HW137190   0.356   1.443  15.963 -0.6239 -1.6125 -1.4221
 8576SOL    HW237191   0.219   1.407  15.944 -2.4339  0.3993  1.4412
 8577SOL     OW37192   0.082   3.048  17.044  0.2147 -0.4205  0.5983
 8577SOL    HW137193   0.045   3.072  16.959  0.3352 -2.0486  0.0823
 8577SOL    HW237194   0.176   3.049  17.024 -0.3734 -0.6854 -2.0626
 8578SOL     OW37195   2.660   1.181   3.866 -0.4497 -0.4357  0.2448
 8578SOL    HW137196   2.661   1.195   3.771 -0.1765  1.6139  0.5587
 8578SOL    HW237197   2.732   1.240   3.885 -2.1793  1.2271  1.5566
 8579SOL     OW37198   3.238   3.713  10.542  0.1897  0.5810 -0.3626
 8579SOL    HW137199   3.255   3.626  10.506 -0.0505  0.8317 -1.0948
 8579SOL    HW237200   3.287   3.706  10.623  0.8073 -1.0240 -0.8845
 8580SOL     OW37201   2.704   3.389   4.080 -0.0789  0.0629  0.2507
 8580SOL    HW137202   2.793   3.356   4.068  1.2756  3.3200  1.5690
 8580SOL    HW237203   2.721   3.482   4.091 -1.7473  0.4668 -0.6965
 8581SOL     OW37204   3.531   2.662   3.092 -0.3057  0.4942 -0.7603
 8581SOL    HW137205   3.450   2.665   3.142  0.6719  2.0944  0.7436
 8581SOL    HW237206   3.550   2.568   3.084 -1.5943  0.4189 -2.8874
 8582SOL     OW37207   4.346   4.009   7.395 -0.1505 -0.3953  0.2228
 8582SOL    HW137208   4.315   3.946   7.329  0.8589  2.9990 -3.5096
 8582SOL    HW237209   4.427   3.968   7.426  1.5371  1.1417 -2.1586
 8583SOL     OW37210   1.617   3.864   9.927  0.3444 -0.1107 -0.1369
 8583SOL    HW137211   1.577   3.891   9.844  1.1414 -0.7816 -0.7340
 8583SOL    HW237212   1.706   3.847   9.898  0.3650  0.6256 -0.5189
 8584SOL     OW37213   0.698   0.214   3.018  0.3228  0.5767 -0.2142
 8584SOL    HW137214   0.706   0.135   3.072  0.7714  1.8197  1.5215
 8584SOL    HW237215   0.611   0.249   3.037 -0.0359 -1.4603  1.8647
 8585SOL     OW37216   3.386   4.100   6.405 -0.1758  0.0859  0.6473
 8585SOL    HW137217   3.295   4.121   6.384 -0.2207 -0.6137  0.1553
 8585SOL    HW237218   3.431   4.182   6.381 -0.2218  0.4625  1.8349
 8586SOL     OW37219   3.961   2.233   2.610  0.3386 -0.1402  0.0566
 8586SOL    HW137220   4.033   2.295   2.622 -0.2844  1.0073 -2.1570
 8586SOL    HW237221   3.912   2.268   2.536  1.2852 -0.1393 -0.5721
 8587SOL     OW37222   2.163   3.689  12.419  0.5314  0.3153  0.4239
 8587SOL    HW137223   2.169   3.735  12.503 -0.5935 -2.5855  2.0931
 8587SOL    HW237224   2.085   3.635  12.433  0.3810 -0.2020 -2.4367
 8588SOL     OW37225   1.579   1.599   7.675  0.5612 -0.2909  0.3679
 8588SOL    HW137226   1.624   1.535   7.730  1.3986 -0.8658 -0.9720
 8588SOL    HW237227   1.577   1.682   7.723 -0.0028  2.3074 -4.1201
 8589SOL     OW37228   3.330   1.633  15.887 -0.3453  0.5024 -0.3350
 8589SOL    HW137229   3.364   1.545  15.877 -1.3912  0.0364  0.1780
 8589SOL    HW237230   3.236   1.618  15.897  0.2305 -2.1960  1.0070
 8590SOL     OW37231   3.672   2.927   4.163 -0.5909  0.0512  0.0303
 8590SOL    HW137232   3.755   2.906   4.122 -0.7146  1.0591 -0.7372
 8590SOL    HW237233   3.626   2.929   4.079  2.1517 -0.3179 -1.4722
 8591SOL     OW37234   1.153   1.350  13.304 -0.1329 -0.4493  0.0920
 8591SOL    HW137235   1.219   1.339  13.372 -1.5991 -0.7827  1.4641
 8591SOL    HW237236   1.148   1.445  13.313 -0.5449 -0.2919 -1.8125
 8592SOL     OW37237   1.665   2.042   8.700  0.6219 -0.2453  0.8482
 8592SOL    HW137238   1.689   2.076   8.786 -0.5843  1.3858  0.5464
 8592SOL    HW237239   1.744   1.991   8.685  0.6787  0.0709  0.0727
 8593SOL     OW37240   1.734   1.161   1.879 -0.2390 -0.2252 -0.0943
 8593SOL    HW137241   1.817   1.139   1.836  0.0690 -2.5266  1.6641
 8593SOL    HW237242   1.729   1.089   1.941 -0.8919  0.2273  0.3815
 8594SOL     OW37243   0.638   4.266   7.106  0.0176 -0.1131  0.0532
 8594SOL    HW137244   0.663   4.310   7.187  0.0503  1.8658 -1.0342
 8594SOL    HW237245   0.568   4.324   7.079 -0.1985  0.5317  2.0623
 8595SOL     OW37246   3.667   1.396   1.446 -0.2934  0.4288  0.0395
 8595SOL    HW137247   3.729   1.429   1.512  0.9959 -1.3036 -0.3114
 8595SOL    HW237248   3.588   1.440   1.476 -1.7361 -1.3388 -1.2026
 8596SOL     OW37249   1.768   4.251  10.289  0.2557 -0.1580  0.4306
 8596SOL    HW137250   1.693   4.310  10.276 -0.5806 -0.9464  1.7539
 8596SOL    HW237251   1.748   4.182  10.225 -1.6353  1.0090 -0.2462
 8597SOL     OW37252   3.377   1.589   7.051  0.0767 -0.1950  0.1794
 8597SOL    HW137253   3.434   1.528   7.096 -0.6075  1.0380  2.6868
 8597SOL    HW237254   3.397   1.566   6.960  1.0092 -2.2409  0.9123
 8598SOL     OW37255   2.757   1.083   1.694  0.7952 -0.7387  0.4144
 8598SOL    HW137256   2.774   1.088   1.788 -1.0618  1.3564  0.6433
 8598SOL    HW237257   2.845   1.074   1.659  0.4588  2.2009 -1.1460
 8599SOL     OW37258   0.258   4.670  14.955 -0.3182 -0.4647  0.0004
 8599SOL    HW137259   0.227   4.598  14.901  2.4538 -0.5281 -1.5325
 8599SOL    HW237260   0.344   4.688  14.917 -0.8521 -0.4007 -1.1756
 8600SOL     OW37261   4.212   4.093   4.519  0.9516 -0.7805  0.9829
 8600SOL    HW137262   4.280   4.075   4.584  1.6640 -0.7153  0.2454
 8600SOL    HW237263   4.183   4.182   4.540  2.3627 -0.2678  0.7420
 8601SOL     OW37264   0.290   0.637  16.465 -0.3627 -0.0769  0.2203
 8601SOL    HW137265   0.352   0.618  16.395  1.1846 -0.3561  1.6479
 8601SOL    HW237266   0.311   0.728  16.483  1.1243 -0.3930  0.0556
 8602SOL     OW37267   0.990   3.848   5.218 -0.0319 -0.3461 -0.6514
 8602SOL    HW137268   1.055   3.873   5.152 -1.8390 -0.3703 -2.4304
 8602SOL    HW237269   0.915   3.832   5.162  0.4633 -2.1618 -0.7792
 8603SOL     OW37270   4.568   2.476   1.867  0.5405 -0.0446  0.2879
 8603SOL    HW137271   4.609   2.462   1.953 -1.0246 -1.4994  0.8075
 8603SOL    HW237272   4.620   2.417   1.813  0.6890  1.6683 -1.4278
 8604SOL     OW37273   3.300   4.539   5.217 -0.0656  0.1682 -0.2869
 8604SOL    HW137274   3.310   4.501   5.130  1.6449  2.6650 -1.1816
 8604SOL    HW237275   3.205   4.555   5.218 -0.7201 -3.7405 -0.8446
 8605SOL     OW37276   1.993   0.312   6.672 -0.0773  0.2858  0.3538
 8605SOL    HW137277   1.946   0.333   6.753 -1.5399 -1.3751 -0.0564
 8605SOL    HW237278   1.998   0.216   6.668  2.8971  0.3807  1.9144
 8606SOL     OW37279   4.488   2.045  15.949  0.3223 -0.2463 -0.7743
 8606SOL    HW137280   4.452   2.077  15.866  0.3438  1.3048 -0.1792
 8606SOL    HW237281   4.580   2.068  15.945 -0.1586  1.6953 -0.3538
 8607SOL     OW37282   1.302   0.417   8.213 -0.2025 -0.1999  0.1858
 8607SOL    HW137283   1.252   0.498   8.214  1.1256  0.5995  1.5093
 8607SOL    HW237284   1.390   0.443   8.185 -0.3828 -0.0715 -0.2625
 8608SOL     OW37285   4.386   4.546  12.211  0.3472  0.5274  0.1498
 8608SOL    HW137286   4.403   4.569  12.302  0.4034 -0.4432  0.3869
 8608SOL    HW237287   4.357   4.455  12.219 -0.1856  0.6181 -0.6548
 8609SOL     OW37288   3.439   3.011   8.313  0.2405 -0.2444 -0.0020
 8609SOL    HW137289   3.415   2.982   8.401  0.2743 -0.6498 -0.1278
 8609SOL    HW237290   3.532   3.026   8.332 -0.0106 -1.9739  2.6562
 8610SOL     OW37291   0.146   3.721   6.938 -0.1378  0.7918  0.3386
 8610SOL    HW137292   0.203   3.660   6.891 -0.4443  1.2121 -0.5880
 8610SOL    HW237293   0.112   3.670   7.012 -0.7153  2.4340  1.2051
 8611SOL     OW37294   4.068   2.872   5.300 -0.6014 -0.1305  0.0941
 8611SOL    HW137295   4.124   2.845   5.373 -1.1082 -1.9763 -0.2099
 8611SOL    HW237296   4.085   2.794   5.247  1.6220  0.8377 -0.6420
 8612SOL     OW37297   0.127   0.357   8.668  0.9486  0.4293 -0.1165
 8612SOL    HW137298   0.063   0.428   8.665  1.2006  0.5748 -2.6023
 8612SOL    HW237299   0.123   0.332   8.760 -1.0791 -0.2327 -0.3875
 8613SOL     OW37300   3.820   0.669   8.909  0.3911 -0.2620  0.2534
 8613SOL    HW137301   3.861   0.601   8.855 -2.2769 -1.3714 -0.3911
 8613SOL    HW237302   3.891   0.729   8.930  0.6425 -1.5478  3.0719
 8614SOL     OW37303   4.007   0.979  17.134  0.8595 -0.4244  0.6057
 8614SOL    HW137304   4.071   0.934  17.079 -1.6592 -1.4988 -1.4476
 8614SOL    HW237305   3.975   0.912  17.193 -0.5185 -1.2197 -1.0313
 8615SOL     OW37306   3.944   3.084   1.577 -0.0406 -0.6861 -0.1345
 8615SOL    HW137307   3.872   3.094   1.640 -1.3816  2.9521 -2.2392
 8615SOL    HW237308   3.902   3.103   1.493 -0.7297  1.3132  0.6688
 8616SOL     OW37309   3.275   2.099  15.662 -0.7742 -0.4697  0.1971
 8616SOL    HW137310   3.275   2.172  15.723 -0.4530  1.4110 -2.0274
 8616SOL    HW237311   3.250   2.135  15.577  0.1060 -0.4590 -0.0573
 8617SOL     OW37312   2.519   2.175   4.967  0.2059 -0.0616 -0.4653
 8617SOL    HW137313   2.564   2.092   4.985 -0.9763 -0.4850  0.5305
 8617SOL    HW237314   2.445   2.178   5.028 -0.1699  0.2918 -0.9408
 8618SOL     OW37315   2.210   3.381   6.176  0.4210  0.2887  0.7013
 8618SOL    HW137316   2.302   3.355   6.169  0.3126  0.1352 -0.1855
 8618SOL    HW237317   2.185   3.352   6.088 -0.1806 -0.8146  1.2384
 8619SOL     OW37318   2.714   4.586   8.412  0.0737  0.1313  0.2978
 8619SOL    HW137319   2.660   4.526   8.360  1.7315 -0.2096 -1.0073
 8619SOL    HW237320   2.803   4.574   8.380 -0.6551 -1.7029 -1.0436
 8620SOL     OW37321   2.208   1.111   5.691  0.5045 -0.0560 -0.4580
 8620SOL    HW137322   2.266   1.180   5.660  1.6982 -0.6655  0.4475
 8620SOL    HW237323   2.135   1.111   5.628  0.1716 -0.5556 -0.0780
 8621SOL     OW37324   4.378   2.792   5.734 -0.4710 -0.3693  0.2104
 8621SOL    HW137325   4.413   2.717   5.782 -0.6704  1.3404  3.0608
 8621SOL    HW237326   4.303   2.811   5.791 -0.7550  0.1068 -0.3267
 8622SOL     OW37327   4.524   4.342   2.075 -0.5688 -0.2048 -0.1743
 8622SOL    HW137328   4.535   4.436   2.064 -0.5761 -0.0707  1.0365
 8622SOL    HW237329   4.438   4.337   2.116 -0.2184 -0.8274  0.4891
 8623SOL     OW37330   4.504   0.721  14.714 -0.0285 -0.6156  0.1284
 8623SOL    HW137331   4.569   0.653  14.732  2.3153  1.6933  0.3744
 8623SOL    HW237332   4.440   0.679  14.656 -0.3513 -2.0767  1.5273
 8624SOL     OW37333   1.679   3.860   8.493 -0.0864 -0.0076  0.1889
 8624SOL    HW137334   1.696   3.843   8.401 -3.0532 -0.9188 -0.1791
 8624SOL    HW237335   1.702   3.953   8.494 -1.2957  0.2932 -2.0448
 8625SOL     OW37336   1.711   2.776  12.062 -0.0679  0.4475 -0.1526
 8625SOL    HW137337   1.692   2.854  12.009 -1.1083  0.5630  0.3935
 8625SOL    HW237338   1.657   2.794  12.139 -0.9945  0.4723 -0.7983
 8626SOL     OW37339   0.780   1.079  13.419  0.3945 -0.7701 -0.3809
 8626SOL    HW137340   0.807   1.159  13.464 -0.3929  0.1034 -1.4393
 8626SOL    HW237341   0.828   1.093  13.337 -2.4520 -1.2300 -2.1282
 8627SOL     OW37342   4.602   0.300   3.353  0.4211  0.1035  0.2885
 8627SOL    HW137343   4.633   0.373   3.407  1.6033 -0.3050  0.1776
 8627SOL    HW237344   4.528   0.272   3.407  0.0055  0.8620  0.1024
 8628SOL     OW37345   1.319   2.457  13.112  1.0185 -0.4803  0.1860
 8628SOL    HW137346   1.247   2.403  13.081  2.8112 -2.2616 -0.8117
 8628SOL    HW237347   1.298   2.460  13.205 -0.1101 -0.5071 -0.0656
 8629SOL     OW37348   3.842   1.347  10.750 -0.1220  0.1722 -0.7357
 8629SOL    HW137349   3.893   1.324  10.828  0.4400 -0.6008 -1.3335
 8629SOL    HW237350   3.775   1.402  10.790  0.9151  2.0746 -1.6236
 8630SOL     OW37351   1.252   3.212   2.356  0.0227  0.0962  0.3392
 8630SOL    HW137352   1.185   3.263   2.399 -0.1483 -0.5693  0.8576
 8630SOL    HW237353   1.298   3.178   2.433 -1.1809 -2.4526 -0.0608
 8631SOL     OW37354   4.540   3.696  13.429  0.6215  0.6997  0.7247
 8631SOL    HW137355   4.551   3.682  13.523  1.8281 -0.5451  0.3934
 8631SOL    HW237356   4.480   3.771  13.433 -0.6489 -0.2073 -1.4488
 8632SOL     OW37357   1.909   2.519   4.313 -0.2289 -0.3746  0.0868
 8632SOL    HW137358   1.881   2.428   4.301 -0.1788 -0.6320  1.8305
 8632SOL    HW237359   1.849   2.570   4.259 -0.7033 -0.9421  0.0729
 8633SOL     OW37360   0.712   2.118   6.952 -0.1540 -0.0998  0.3184
 8633SOL    HW137361   0.674   2.205   6.968  1.6811  1.0734 -1.6443
 8633SOL    HW237362   0.643   2.077   6.900  0.1387  0.9464 -0.9050
 8634SOL     OW37363   2.923   1.858   9.571 -0.4846  0.2570 -0.4059
 8634SOL    HW137364   2.843   1.808   9.582 -1.4537  1.7835 -0.4752
 8634SOL    HW237365   2.895   1.943   9.605 -2.2796  0.0357 -1.3412
 8635SOL     OW37366   0.490   0.118   9.440  0.2245 -0.0225  0.8573
 8635SOL    HW137367   0.570   0.094   9.487  1.1649  0.1238 -0.6767
 8635SOL    HW237368   0.436   0.056   9.490  0.9861  2.0674  4.2529
 8636SOL     OW37369   2.714   4.261   9.459  0.3708  0.4162  0.4709
 8636SOL    HW137370   2.722   4.235   9.550 -1.8287  1.2431  0.9208
 8636SOL    HW237371   2.783   4.326   9.444  1.1841 -0.4195  0.6428
 8637SOL     OW37372   3.399   0.597   4.039 -0.1392  0.1168  0.1788
 8637SOL    HW137373   3.414   0.558   3.953 -2.8540  2.5398 -1.3845
 8637SOL    HW237374   3.465   0.559   4.098 -0.6698 -1.7535 -0.4494
 8638SOL     OW37375   2.661   3.543   6.710 -0.0768  0.3840  0.5557
 8638SOL    HW137376   2.632   3.508   6.626  0.0156  0.1453  0.6233
 8638SOL    HW237377   2.573   3.530   6.746 -0.3596  0.0393 -0.2776
 8639SOL     OW37378   1.171   2.616   5.756 -0.4212  0.0434  0.3831
 8639SOL    HW137379   1.139   2.532   5.725  0.3753  0.4370 -1.5309
 8639SOL    HW237380   1.253   2.583   5.793  0.1330  1.3663  0.3532
 8640SOL     OW37381   3.076   3.693   6.658 -0.2187 -0.2658  0.1551
 8640SOL    HW137382   3.077   3.624   6.725  1.3466  1.0702  1.4889
 8640SOL    HW237383   3.128   3.754   6.709  0.2742  0.2831 -1.0073
 8641SOL     OW37384   3.356   2.592   8.173  0.4951 -0.0350  0.3812
 8641SOL    HW137385   3.385   2.529   8.106 -1.6310 -0.6468  0.0523
 8641SOL    HW237386   3.371   2.673   8.123  2.0528 -0.4957  0.0974
 8642SOL     OW37387   1.932   1.917   9.595  0.1185 -0.2266  0.0110
 8642SOL    HW137388   1.848   1.886   9.631  0.3893 -1.2636 -0.2303
 8642SOL    HW237389   1.970   1.840   9.552 -1.6604  0.7381 -3.3238
 8643SOL     OW37390   4.154   4.235   0.057  0.1231 -0.4252  0.1211
 8643SOL    HW137391   4.072   4.279   0.079 -1.0121 -1.5380 -1.8009
 8643SOL    HW237392   4.207   4.277   0.124 -0.2519  0.0130  0.1449
 8644SOL     OW37393   2.183   2.532   5.162 -0.2091  0.1255  0.0786
 8644SOL    HW137394   2.158   2.449   5.201 -1.4350  0.3832 -0.1651
 8644SOL    HW237395   2.142   2.591   5.225 -3.4729 -0.5656 -1.4151
 8645SOL     OW37396   1.377   3.222   7.894  0.2214  0.3461 -0.2748
 8645SOL    HW137397   1.399   3.250   7.983 -1.0497 -1.4304  0.5959
 8645SOL    HW237398   1.356   3.306   7.855 -1.8560 -0.2288 -0.3842
 8646SOL     OW37399   4.132   1.431   7.361  0.2595  0.3467 -0.3115
 8646SOL    HW137400   4.094   1.373   7.427 -0.4009  0.4725 -0.5844
 8646SOL    HW237401   4.190   1.362   7.330  0.1434 -0.0307  0.3100
 8647SOL     OW37402   3.233   1.891   1.120 -0.5423  0.3443 -0.0920
 8647SOL    HW137403   3.207   1.804   1.149 -1.4609  0.7804  0.3895
 8647SOL    HW237404   3.208   1.888   1.027 -0.4818  0.3968 -0.1099
 8648SOL     OW37405   1.570   1.149   6.079  0.3603 -0.2784 -0.0969
 8648SOL    HW137406   1.598   1.088   6.010 -0.5268 -0.9454  0.1342
 8648SOL    HW237407   1.499   1.097   6.115  0.7673  0.5219  1.8387
 8649SOL     OW37408   2.036   4.246   2.578  0.1025 -0.2368  1.1193
 8649SOL    HW137409   2.039   4.316   2.513 -1.7240 -1.0586  0.1752
 8649SOL    HW237410   2.051   4.290   2.662  1.9542  1.0003  0.1295
 8650SOL     OW37411   0.668   3.627   5.931  0.6058 -0.6730 -0.2600
 8650SOL    HW137412   0.683   3.636   6.025  1.5721 -0.3339 -0.4433
 8650SOL    HW237413   0.623   3.710   5.916 -1.2854 -1.9369 -1.5035
 8651SOL     OW37414   1.185   2.403  14.621  0.3091 -0.5497  0.4424
 8651SOL    HW137415   1.184   2.431  14.530 -0.6064 -2.4072 -0.1089
 8651SOL    HW237416   1.092   2.422  14.637  0.6432  0.4803  1.1705
 8652SOL     OW37417   4.093   4.393  13.365  0.1452 -0.1270  0.4881
 8652SOL    HW137418   4.017   4.391  13.307  0.2159  0.5274  0.3681
 8652SOL    HW237419   4.160   4.409  13.298 -1.5017  1.1173 -0.8622
 8653SOL     OW37420   3.246   3.599   3.276  0.8877 -0.1476 -0.3359
 8653SOL    HW137421   3.305   3.524   3.278  0.0134 -0.8294 -0.4382
 8653SOL    HW237422   3.280   3.645   3.199  1.5998  2.6240  1.6068
 8654SOL     OW37423   1.345   3.675   3.795 -0.0635  0.6073 -0.4285
 8654SOL    HW137424   1.343   3.582   3.773  0.3353  0.3715  0.5655
 8654SOL    HW237425   1.440   3.691   3.793 -0.2861  2.0341  0.8345
 8655SOL     OW37426   4.005   1.975  15.055  0.7861 -0.0417  0.0256
 8655SOL    HW137427   4.013   1.953  14.962 -1.6490  1.5572 -0.5746
 8655SOL    HW237428   3.914   2.005  15.053  0.5336 -0.8761 -0.7917
 8656SOL     OW37429   3.888   0.091   7.983 -0.2466 -0.4717 -0.5777
 8656SOL    HW137430   3.945   0.166   7.999 -1.9713  0.2315  2.3065
 8656SOL    HW237431   3.866   0.102   7.890 -2.9154  0.0999  0.1123
 8657SOL     OW37432   0.504   0.861   5.638  0.4337  0.0917 -0.2802
 8657SOL    HW137433   0.533   0.834   5.725 -1.6655  0.8931  0.6746
 8657SOL    HW237434   0.576   0.923   5.623  0.8617 -0.5881 -1.0680
 8658SOL     OW37435   0.015   4.196  16.421  0.5500  0.3823 -0.0013
 8658SOL    HW137436   4.656   4.162  16.381 -0.0013  0.7697  0.7692
 8658SOL    HW237437   0.069   4.170  16.346 -2.8629 -0.5286 -2.1530
 8659SOL     OW37438   1.178   4.199   3.963 -0.3223 -0.3647 -0.1826
 8659SOL    HW137439   1.092   4.163   3.938 -0.4488 -0.8758  0.9802
 8659SOL    HW237440   1.153   4.291   3.966 -2.2877 -0.8604 -1.2757
 8660SOL     OW37441   0.460   2.404   9.187 -0.0979 -0.2968  0.0388
 8660SOL    HW137442   0.461   2.354   9.105 -0.3105 -1.8626  0.9881
 8660SOL    HW237443   0.370   2.391   9.217  0.1981  1.4850  1.6991
 8661SOL     OW37444   4.146   0.754   8.527 -0.7348 -0.0667  0.3433
 8661SOL    HW137445   4.173   0.796   8.608 -0.2686 -1.4797  0.9099
 8661SOL    HW237446   4.152   0.825   8.463  0.2055  0.8780  1.4889
 8662SOL     OW37447   3.767   4.445   2.896 -0.0850  0.8465  0.3757
 8662SOL    HW137448   3.734   4.501   2.825 -1.5263 -0.5546 -0.0649
 8662SOL    HW237449   3.862   4.449   2.901 -0.1155  1.9470  0.0084
 8663SOL     OW37450   3.682   2.863   6.023  0.0734  0.0685 -0.7141
 8663SOL    HW137451   3.651   2.773   6.013 -0.4266  0.1035  0.5968
 8663SOL    HW237452   3.766   2.854   5.978  0.9367  2.3101  0.4355
 8664SOL     OW37453   4.363   1.168   3.605  0.9298 -0.2861  0.0212
 8664SOL    HW137454   4.405   1.235   3.550  0.1213 -0.9894 -1.4539
 8664SOL    HW237455   4.416   1.176   3.684 -0.8815 -1.7821  1.3531
 8665SOL     OW37456   2.519   2.996   4.681 -0.1919  0.2718 -0.3884
 8665SOL    HW137457   2.434   2.962   4.711  0.3909 -1.6063 -0.8591
 8665SOL    HW237458   2.531   3.071   4.739 -1.5933 -0.4721  0.8965
 8666SOL     OW37459   2.388   4.585   4.365  0.2432 -0.0254  0.2503
 8666SOL    HW137460   2.315   4.553   4.418 -0.6782  1.1913 -0.2893
 8666SOL    HW237461   2.375   4.529   4.288  1.6865 -0.3097  0.1974
 8667SOL     OW37462   2.614   2.100  11.012  0.1677  0.3833  0.0128
 8667SOL    HW137463   2.649   2.186  10.988  0.7946  0.9445  2.9307
 8667SOL    HW237464   2.523   2.130  11.008 -0.4115 -1.4064 -0.2097
 8668SOL     OW37465   1.083   0.093  16.665  0.6143 -0.3063  0.6207
 8668SOL    HW137466   1.002   0.042  16.659  0.0354  0.4720  1.7555
 8668SOL    HW237467   1.124   0.094  16.578  1.3594 -0.2129  0.9759
 8669SOL     OW37468   2.819   0.377   5.608  0.6333  0.1573 -0.3756
 8669SOL    HW137469   2.786   0.461   5.575 -0.3519 -0.8500 -1.9715
 8669SOL    HW237470   2.766   0.365   5.687 -0.2817  0.6553 -0.9111
 8670SOL     OW37471   2.857   2.519   3.623  0.3850 -0.4806  0.1195
 8670SOL    HW137472   2.908   2.442   3.600  1.5402  0.3256 -0.0270
 8670SOL    HW237473   2.766   2.490   3.617  0.1686  0.0598  0.7467
 8671SOL     OW37474   2.355   1.317   3.628  0.1232 -0.1459 -0.1337
 8671SOL    HW137475   2.318   1.401   3.654  0.3879 -0.1644  0.3084
 8671SOL    HW237476   2.278   1.271   3.662 -0.1551  1.0073  0.8171
 8672SOL     OW37477   3.717   3.711   4.000 -0.3493 -0.2729 -0.2028
 8672SOL    HW137478   3.630   3.675   4.021  0.1915 -1.2243  0.4301
 8672SOL    HW237479   3.696   3.739   3.911 -0.5068 -1.7693 -0.6427
 8673SOL     OW37480   2.135   4.101   9.657  0.2836  0.0820  0.5563
 8673SOL    HW137481   2.219   4.108   9.702  1.2538  1.7372 -1.4594
 8673SOL    HW237482   2.137   4.007   9.638  1.0048  0.2117 -0.0302
 8674SOL     OW37483   2.095   4.677   5.834  0.2894 -0.3255  0.0175
 8674SOL    HW137484   2.051   4.595   5.810  0.9448 -0.4708 -0.6801
 8674SOL    HW237485   2.088   4.674   5.929  3.9594 -1.0123  0.2524
 8675SOL     OW37486   2.627   4.689   5.304 -0.5390  0.2456 -0.2027
 8675SOL    HW137487   2.568   0.036   5.336  2.8477  2.7488  0.7255
 8675SOL    HW237488   2.572   4.610   5.301 -0.5299  0.2479 -0.4331
 8676SOL     OW37489   2.728   0.022   3.720 -0.1605  0.4001 -0.3973
 8676SOL    HW137490   2.714   0.076   3.798  0.6285  0.3629 -0.2218
 8676SOL    HW237491   2.641   0.014   3.682 -0.7725 -3.8778  1.8909
 8677SOL     OW37492   1.003   0.327   8.129 -0.6646  0.4783 -0.1860
 8677SOL    HW137493   0.918   0.320   8.172 -0.3182  3.2428  0.9681
 8677SOL    HW237494   1.053   0.394   8.175  0.0827 -0.2338  0.0423
 8678SOL     OW37495   2.704   4.084  15.164 -0.0149 -0.0951 -0.1786
 8678SOL    HW137496   2.685   4.056  15.075  0.8401 -1.4628  0.0766
 8678SOL    HW237497   2.648   4.162  15.167 -0.9584 -0.8546  2.2034
 8679SOL     OW37498   3.756   1.715   3.369  0.4157  0.2787 -0.2224
 8679SOL    HW137499   3.787   1.625   3.358 -0.0696  0.2131 -1.0047
 8679SOL    HW237500   3.706   1.697   3.449 -0.0977 -0.2999 -0.6647
 8680SOL     OW37501   3.463   4.105  15.758  0.1821  0.0918  0.5805
 8680SOL    HW137502   3.513   4.186  15.760  0.1625  0.1664 -2.4100
 8680SOL    HW237503   3.488   4.066  15.674  2.4965 -0.8475  1.7039
 8681SOL     OW37504   4.290   1.775   2.708  0.3911 -0.4142  0.8863
 8681SOL    HW137505   4.221   1.839   2.694 -0.0380 -1.1206 -0.2255
 8681SOL    HW237506   4.325   1.768   2.619  0.8741  0.0172  1.0419
 8682SOL     OW37507   2.232   1.063   2.784  0.4652  0.0534  0.1818
 8682SOL    HW137508   2.321   1.065   2.750  0.3530  1.4343 -0.0154
 8682SOL    HW237509   2.181   1.010   2.721 -0.4827  1.5124 -0.2851
 8683SOL     OW37510   3.729   3.538  13.936 -0.2827  0.2324  0.1675
 8683SOL    HW137511   3.703   3.608  13.996  1.4515  1.6975 -0.8183
 8683SOL    HW237512   3.781   3.486  13.998 -2.6206 -0.1872  1.7534
 8684SOL     OW37513   4.557   0.486   7.142 -0.2946  0.5011 -0.9929
 8684SOL    HW137514   4.478   0.441   7.171 -0.2486  1.3561  0.4856
 8684SOL    HW237515   4.595   0.498   7.229 -1.3752 -1.6782 -0.2187
 8685SOL     OW37516   1.221   1.178   9.010  0.3014  0.0953  0.1723
 8685SOL    HW137517   1.309   1.146   8.991  1.0035  1.3839  1.2920
 8685SOL    HW237518   1.230   1.272   9.028 -2.0658  0.6241 -1.3862
 8686SOL     OW37519   1.388   3.863   5.356  0.6054  0.2403 -0.2890
 8686SOL    HW137520   1.313   3.863   5.415  3.1554 -3.2681  2.9690
 8686SOL    HW237521   1.363   3.804   5.285 -1.5932  0.0051  0.6940
 8687SOL     OW37522   4.344   2.684  16.195  0.4228  0.2796  0.1415
 8687SOL    HW137523   4.338   2.744  16.121  0.4861  0.0674 -0.0329
 8687SOL    HW237524   4.342   2.598  16.154  2.7398  0.5994 -0.6726
 8688SOL     OW37525   4.626   4.060   7.445 -0.2403 -0.6430 -0.0921
 8688SOL    HW137526   4.634   4.098   7.358 -1.2180 -0.5640 -0.1367
 8688SOL    HW237527   4.671   4.128   7.496  0.7317 -1.3889  0.0390
 8689SOL     OW37528   4.678   0.510  14.752 -0.3152 -0.2163 -0.7043
 8689SOL    HW137529   4.605   0.458  14.785 -1.1398  0.7067 -1.0559
 8689SOL    HW237530   0.029   0.516  14.813 -1.9406  0.2924  1.2093
 8690SOL     OW37531   3.892   0.241  12.652 -0.2900 -0.3883  0.1085
 8690SOL    HW137532   3.848   0.244  12.567 -1.2196  0.5740  0.6209
 8690SOL    HW237533   3.961   0.307  12.642 -0.3987 -0.1342  1.0048
 8691SOL     OW37534   3.070   1.400   6.770 -0.3064 -0.6382 -0.2521
 8691SOL    HW137535   3.120   1.400   6.851 -1.6644  1.1567  0.5769
 8691SOL    HW237536   2.993   1.451   6.795  0.9999  0.4326  1.5524
 8692SOL     OW37537   3.666   2.388   7.178 -0.0398  0.1546 -0.2039
 8692SOL    HW137538   3.670   2.479   7.205 -0.2347  0.8645 -2.5778
 8692SOL    HW237539   3.759   2.367   7.173  0.5931  3.3450 -1.7091
 8693SOL     OW37540   3.316   0.016   7.703 -0.0218  0.1670  0.2962
 8693SOL    HW137541   3.318   0.062   7.787  0.9742 -2.3203  1.6458
 8693SOL    HW237542   3.245   4.674   7.711  0.1400 -0.2036 -1.1128
 8694SOL     OW37543   0.299   0.894  12.215 -0.3919  0.1675  0.1929
 8694SOL    HW137544   0.255   0.941  12.286  1.0194 -2.5655  2.8567
 8694SOL    HW237545   0.297   0.962  12.147 -0.8975 -0.8632 -0.8170
 8695SOL     OW37546   1.961   2.112  12.788 -0.0481  0.4919  0.2044
 8695SOL    HW137547   2.017   2.124  12.864  1.2226 -3.2796 -0.1337
 8695SOL    HW237548   1.979   2.020  12.768  2.8609  1.0952  0.0498
 8696SOL     OW37549   2.059   2.513  16.175  0.0347  0.2601 -0.7254
 8696SOL    HW137550   2.025   2.590  16.130 -1.6776 -0.1418 -0.1339
 8696SOL    HW237551   1.980   2.460  16.190  0.3347  0.4640  1.4968
 8697SOL     OW37552   3.555   2.194  11.775 -0.3432  0.1608 -0.3157
 8697SOL    HW137553   3.574   2.123  11.714 -0.7230 -0.6264  0.4896
 8697SOL    HW237554   3.486   2.158  11.830 -0.6415  0.5083 -0.4571
 8698SOL     OW37555   3.632   2.160  17.283  0.3827  0.3486  0.6313
 8698SOL    HW137556   3.652   2.067  17.292 -0.0500  0.2104  0.1374
 8698SOL    HW237557   3.682   2.168  17.201 -0.5702 -2.2819 -0.2114
 8699SOL     OW37558   4.395   4.415  13.829  0.2049 -0.1302  0.0466
 8699SOL    HW137559   4.374   4.490  13.884  0.5901  0.2917 -0.3904
 8699SOL    HW237560   4.318   4.429  13.773 -0.3960  0.1548  0.9379
 8700SOL     OW37561   1.969   1.244   8.357  0.0746  0.8762  0.6416
 8700SOL    HW137562   2.012   1.171   8.403 -1.0234 -0.5424 -0.5925
 8700SOL    HW237563   2.008   1.236   8.270 -3.0767  0.5113 -0.7305
 8701SOL     OW37564   2.991   2.001   0.957 -0.3686 -0.4281  0.0992
 8701SOL    HW137565   2.964   1.914   0.988  0.3035 -1.1547 -1.3377
 8701SOL    HW237566   2.925   2.054   1.001  1.3814  1.2823  0.6657
 8702SOL     OW37567   0.848   1.414   8.226  0.1722  0.5609  0.0499
 8702SOL    HW137568   0.927   1.468   8.226  0.9264 -0.5504  1.0970
 8702SOL    HW237569   0.850   1.370   8.141 -0.5904 -1.1329  0.9085
 8703SOL     OW37570   3.230   3.402  15.916 -0.7566  0.4887 -0.0941
 8703SOL    HW137571   3.144   3.380  15.954 -0.7048 -1.1228 -0.9345
 8703SOL    HW237572   3.264   3.469  15.975 -3.0523  0.7227  0.9753
 8704SOL     OW37573   4.455   2.470   9.775 -0.5001 -0.1905  0.1494
 8704SOL    HW137574   4.528   2.436   9.827 -0.1384  1.0958  0.4656
 8704SOL    HW237575   4.434   2.395   9.720  0.0346 -0.0386 -0.2589
 8705SOL     OW37576   3.508   0.659  16.868  0.5412  0.4409 -0.2103
 8705SOL    HW137577   3.583   0.692  16.917 -0.2693  1.7971  0.0938
 8705SOL    HW237578   3.433   0.683  16.923 -0.4582 -0.0251 -1.3639
 8706SOL     OW37579   0.154   3.299   8.394 -0.3754  0.3910  0.1190
 8706SOL    HW137580   0.239   3.334   8.423 -1.4077  1.4598  1.8069
 8706SOL    HW237581   0.136   3.227   8.455 -0.1772  0.0118 -0.2600
 8707SOL     OW37582   4.121   0.656   8.950  0.0865 -0.4572 -0.2350
 8707SOL    HW137583   4.172   0.712   8.892  2.1060 -1.6731  0.3472
 8707SOL    HW237584   4.178   0.657   9.027 -1.6032  1.2291  0.9609
 8708SOL     OW37585   0.753   4.044   4.881  0.2323 -0.1262  0.1125
 8708SOL    HW137586   0.746   3.964   4.934 -1.9293  1.3892  2.1045
 8708SOL    HW237587   0.674   4.034   4.828 -0.7740  2.1480  1.1817
 8709SOL     OW37588   0.622   3.875   3.918 -0.0649  0.1380 -0.4299
 8709SOL    HW137589   0.632   3.806   3.983  0.5211  1.3129  0.7522
 8709SOL    HW237590   0.681   3.944   3.950 -0.5439  1.4776 -2.3876
 8710SOL     OW37591   0.756   3.180  15.296 -0.1335 -0.4050  0.2528
 8710SOL    HW137592   0.796   3.143  15.375  1.0532  0.6322  0.1414
 8710SOL    HW237593   0.695   3.242  15.336  1.9684  2.2503 -0.6003
 8711SOL     OW37594   0.228   4.252   7.300 -0.2058  0.2729 -0.3134
 8711SOL    HW137595   0.277   4.301   7.366 -1.6839  0.8883  0.3257
 8711SOL    HW237596   0.275   4.170   7.315 -0.8675  0.1887  1.4007
 8712SOL     OW37597   2.625   1.438  12.281  0.0718  0.2454 -0.1622
 8712SOL    HW137598   2.696   1.438  12.345  0.3315  0.7885 -0.4443
 8712SOL    HW237599   2.586   1.351  12.286 -1.2466  0.8363 -0.2092
 8713SOL     OW37600   1.464   3.404   4.555  0.1511 -0.3097  0.2889
 8713SOL    HW137601   1.421   3.323   4.527  1.6773 -1.1323  0.3624
 8713SOL    HW237602   1.456   3.383   4.648  0.1792  3.0797  1.0463
 8714SOL     OW37603   3.480   2.063   1.070  0.2076  0.4933  0.2271
 8714SOL    HW137604   3.403   2.008   1.056 -0.7009  1.4316  1.4451
 8714SOL    HW237605   3.546   2.000   1.042  0.9645  1.0294  0.7993
 8715SOL     OW37606   2.858   0.262  11.046  0.4718  0.4608 -0.1082
 8715SOL    HW137607   2.841   0.172  11.072 -1.6815  1.1658  0.9388
 8715SOL    HW237608   2.817   0.262  10.959 -0.3727 -0.6175  0.3009
 8716SOL     OW37609   1.597   3.393   9.107  0.2215  0.4682 -0.4927
 8716SOL    HW137610   1.540   3.470   9.106 -2.1329 -1.2799 -2.0381
 8716SOL    HW237611   1.607   3.389   9.202  1.2575 -0.9993 -0.6585
 8717SOL     OW37612   3.033   1.618  16.064 -0.0965 -0.7187  0.2854
 8717SOL    HW137613   2.949   1.588  16.099  1.1835 -2.1073  2.1739
 8717SOL    HW237614   3.042   1.591  15.973 -0.2896 -0.9924  0.3459
 8718SOL     OW37615   1.651   1.814  13.896  0.3162  0.7980  0.3408
 8718SOL    HW137616   1.703   1.770  13.963 -2.3606 -1.2766  1.0473
 8718SOL    HW237617   1.571   1.825  13.949 -0.6557  1.2421 -1.2215
 8719SOL     OW37618   1.089   2.493   6.187 -0.1874 -0.1745  0.0010
 8719SOL    HW137619   1.179   2.467   6.170 -0.3803 -0.8454 -0.0069
 8719SOL    HW237620   1.100   2.567   6.246 -1.1372 -0.1523  0.1563
 8720SOL     OW37621   2.623   3.949   5.721 -0.2654 -0.3260 -0.4018
 8720SOL    HW137622   2.542   3.902   5.704  1.4800 -1.9735 -4.1475
 8720SOL    HW237623   2.590   4.032   5.689  0.5716  1.4623  3.2953
 8721SOL     OW37624   2.002   4.716   8.228 -0.2416 -0.0895  0.9566
 8721SOL    HW137625   1.994   4.644   8.291 -1.2749 -0.6661  0.1723
 8721SOL    HW237626   1.916   0.031   8.248  0.2767 -0.2279  3.5133
 8722SOL     OW37627   4.493   3.059   2.690 -0.0478 -0.3423 -0.1746
 8722SOL    HW137628   4.532   3.021   2.769 -0.0785 -1.1115 -0.5288
 8722SOL    HW237629   4.434   3.125   2.729 -0.1934 -1.4613  1.5345
 8723SOL     OW37630   2.800   2.208   7.756  0.4080 -0.5019  0.5093
 8723SOL    HW137631   2.797   2.299   7.725 -0.3147 -1.0776 -1.1045
 8723SOL    HW237632   2.846   2.159   7.688  2.8013  3.1902 -0.5371
 8724SOL     OW37633   3.809   2.338  16.340  0.0655 -0.2999 -0.2009
 8724SOL    HW137634   3.786   2.390  16.417 -0.7932 -2.6721  1.1431
 8724SOL    HW237635   3.722   2.309  16.311 -1.4838  2.9690  1.2036
 8725SOL     OW37636   3.440   0.542  16.354 -0.4647 -0.1128  0.0893
 8725SOL    HW137637   3.502   0.615  16.366 -0.2355 -0.0883 -1.2013
 8725SOL    HW237638   3.496   0.484  16.303  0.1558  0.2408  0.3631
 8726SOL     OW37639   3.560   3.437  11.659 -0.5895 -0.2173  0.2567
 8726SOL    HW137640   3.495   3.366  11.663 -0.8002 -0.0799 -0.7583
 8726SOL    HW237641   3.516   3.504  11.712  0.7329  3.5821 -3.4823
 8727SOL     OW37642   0.443   2.285   5.210  0.2475 -0.1293 -0.1921
 8727SOL    HW137643   0.463   2.203   5.165  1.2803 -1.9831  3.6465
 8727SOL    HW237644   0.487   2.290   5.295  1.8753 -1.2177 -0.9733
 8728SOL     OW37645   1.117   2.240   2.474  0.0734 -0.5163 -0.4169
 8728SOL    HW137646   1.206   2.217   2.447 -0.8195 -1.4188 -2.5744
 8728SOL    HW237647   1.099   2.322   2.428  1.2641 -0.8343 -1.4471
 8729SOL     OW37648   0.591   3.049   7.916  0.2160 -0.2542  0.0175
 8729SOL    HW137649   0.612   2.964   7.957  1.9469  1.0345  1.8034
 8729SOL    HW237650   0.530   3.090   7.977 -0.5007  1.2203 -1.7115
 8730SOL     OW37651   4.599   3.092   2.449  0.0334  0.4104  0.7188
 8730SOL    HW137652   4.526   3.130   2.400 -1.3850 -1.8739  1.0196
 8730SOL    HW237653   4.554   3.090   2.534  0.2896 -1.1029  0.8266
 8731SOL     OW37654   4.164   3.490   7.504 -0.2574 -0.7364 -0.2505
 8731SOL    HW137655   4.088   3.479   7.447 -1.4786 -0.9181  1.4384
 8731SOL    HW237656   4.217   3.422   7.462 -0.5508 -2.7253  2.6410
 8732SOL     OW37657   2.726   0.517  11.493 -0.3935  0.6092  0.0004
 8732SOL    HW137658   2.704   0.608  11.513  0.2835  0.7287  0.2187
 8732SOL    HW237659   2.768   0.525  11.408 -1.1359  0.5892 -0.3610
 8733SOL     OW37660   1.170   0.546  14.703 -0.3690 -0.0093 -0.4402
 8733SOL    HW137661   1.264   0.562  14.694 -0.0274 -1.4068  0.7041
 8733SOL    HW237662   1.177   0.469  14.759 -0.5517 -0.1448 -0.6044
 8734SOL     OW37663   2.230   0.977   4.572  0.2372 -0.3726  0.1350
 8734SOL    HW137664   2.173   0.901   4.578  0.4888 -0.7014 -1.6002
 8734SOL    HW237665   2.302   0.954   4.632 -0.3020 -1.0340  0.5155
 8735SOL     OW37666   2.933   1.074   5.339  0.3434 -0.0680  0.0475
 8735SOL    HW137667   3.029   1.075   5.340  0.3561  0.3805 -1.1527
 8735SOL    HW237668   2.902   1.107   5.423 -1.2982  0.7133 -0.8554
 8736SOL     OW37669   4.286   0.782   8.793 -0.3313  0.3601  0.1885
 8736SOL    HW137670   4.358   0.790   8.856  0.9567  1.3254 -1.3915
 8736SOL    HW237671   4.332   0.795   8.710  0.1132 -0.3092  0.3307
 8737SOL     OW37672   2.688   3.296   8.590  0.7919 -0.4615 -0.4982
 8737SOL    HW137673   2.686   3.359   8.662  0.1078 -0.9396 -0.0842
 8737SOL    HW237674   2.673   3.220   8.648  0.8662 -2.2618 -2.8456
 8738SOL     OW37675   3.680   0.384   8.713  0.2998  0.0425  0.0322
 8738SOL    HW137676   3.750   0.400   8.776 -1.0484  0.4912  1.4211
 8738SOL    HW237677   3.613   0.350   8.774  0.8047  0.7104  0.9626
 8739SOL     OW37678   0.457   0.746   4.232 -0.4733  0.2830 -0.5615
 8739SOL    HW137679   0.544   0.781   4.250  0.6195 -1.0478 -3.3673
 8739SOL    HW237680   0.473   0.684   4.161  0.9009 -0.9495  0.8162
 8740SOL     OW37681   3.141   0.823   5.785  0.3206  0.4915 -0.7028
 8740SOL    HW137682   3.111   0.910   5.757  1.1248  0.4626 -1.6317
 8740SOL    HW237683   3.058   0.781   5.809  0.7416  0.4023  0.6055
 8741SOL     OW37684   3.049   1.740   4.229  0.3930  0.3981 -0.1602
 8741SOL    HW137685   3.136   1.746   4.191 -0.2486 -0.4386 -1.7595
 8741SOL    HW237686   3.055   1.665   4.289  0.5452  0.1146 -0.5329
 8742SOL     OW37687   3.486   1.162  16.112  0.1644  0.1727 -0.1345
 8742SOL    HW137688   3.579   1.183  16.106 -0.2631  1.9344 -0.9466
 8742SOL    HW237689   3.466   1.210  16.031  2.1490 -0.5261 -1.0365
 8743SOL     OW37690   1.895   0.020   7.865  0.6134 -0.1305  0.2490
 8743SOL    HW137691   1.979   0.027   7.911  0.0200  0.1862  1.2840
 8743SOL    HW237692   1.855   4.679   7.925 -1.4492  0.0029 -0.9993
 8744SOL     OW37693   0.769   3.167  11.198  0.6943  0.2513  0.2142
 8744SOL    HW137694   0.675   3.186  11.205  0.5213 -0.5479  0.1377
 8744SOL    HW237695   0.780   3.114  11.119  0.8883 -0.6694  0.8483
 8745SOL     OW37696   2.578   0.627   5.052  0.3769  0.1788  0.1781
 8745SOL    HW137697   2.627   0.549   5.027 -1.6539 -0.9152 -0.3747
 8745SOL    HW237698   2.493   0.591   5.077  0.2010  0.1430 -0.4674
 8746SOL     OW37699   0.486   1.226   2.162 -0.3531 -0.8290 -0.3348
 8746SOL    HW137700   0.403   1.199   2.122 -1.3997  1.8124  0.0810
 8746SOL    HW237701   0.480   1.318   2.136 -0.6127 -0.7927 -0.1486
 8747SOL     OW37702   3.242   0.985   5.337 -0.2914 -0.6983 -0.0242
 8747SOL    HW137703   3.334   0.979   5.365  0.5477  1.4255 -2.2345
 8747SOL    HW237704   3.240   1.081   5.326 -1.6211 -0.6375  0.8277
 8748SOL     OW37705   3.859   2.589   8.964 -0.9817 -0.9438 -0.6566
 8748SOL    HW137706   3.891   2.592   8.873 -0.4231 -1.2351 -0.4697
 8748SOL    HW237707   3.857   2.493   8.971 -0.9340 -0.8970 -0.0313
 8749SOL     OW37708   3.380   4.111  17.140  0.2197 -0.1498  0.3188
 8749SOL    HW137709   3.443   4.130  17.210  1.4389 -0.4828 -0.6912
 8749SOL    HW237710   3.402   4.183  17.081 -0.7968  1.6841  2.1585
 8750SOL     OW37711   4.153   4.241  12.572 -0.1640 -0.7822  0.3348
 8750SOL    HW137712   4.058   4.233  12.577 -0.2688  0.1332 -0.1948
 8750SOL    HW237713   4.169   4.332  12.547  2.1632 -1.1474  0.4524
 8751SOL     OW37714   0.063   3.746   5.945 -0.3407 -0.4990  0.3608
 8751SOL    HW137715   4.712   3.696   5.908 -0.5206 -0.8940  1.2312
 8751SOL    HW237716   0.026   3.802   6.014  0.7576 -0.1252  0.6416
 8752SOL     OW37717   0.417   0.972   1.267  0.2362 -0.0340 -0.4880
 8752SOL    HW137718   0.504   0.978   1.306 -0.2252 -2.4753  0.8902
 8752SOL    HW237719   0.387   1.061   1.284  0.4760 -0.0747  0.1038
 8753SOL     OW37720   2.415   3.522   4.968 -0.6054 -0.7057  0.1062
 8753SOL    HW137721   2.330   3.501   5.006 -1.1605  1.0121 -0.1817
 8753SOL    HW237722   2.431   3.444   4.916 -1.2338 -0.0121 -1.1316
 8754SOL     OW37723   0.876   3.290  11.449  0.2026  0.1158 -0.6036
 8754SOL    HW137724   0.815   3.246  11.390 -0.7494  1.4414 -0.6076
 8754SOL    HW237725   0.937   3.296  11.376 -0.5790 -3.3174 -1.5229
 8755SOL     OW37726   0.650   2.686  13.820  0.1497 -0.0792 -1.0604
 8755SOL    HW137727   0.600   2.690  13.738  0.3544 -4.1523 -1.3956
 8755SOL    HW237728   0.646   2.777  13.849  1.2011 -0.8100  1.3153
 8756SOL     OW37729   0.510   2.709   8.813  0.0991 -0.5413 -0.7994
 8756SOL    HW137730   0.474   2.796   8.825 -0.2717 -0.8367  0.2411
 8756SOL    HW237731   0.563   2.714   8.733  2.3669 -1.0074  0.6558
 8757SOL     OW37732   1.024   2.123  15.769  0.1133  0.3819 -0.2030
 8757SOL    HW137733   1.118   2.124  15.786 -0.0118 -1.4943  0.5734
 8757SOL    HW237734   0.998   2.047  15.821  0.8184  0.7375  0.6639
 8758SOL     OW37735   4.458   1.573   8.121 -0.0512 -0.0496 -0.0269
 8758SOL    HW137736   4.434   1.515   8.193  1.6485  0.1608  0.7120
 8758SOL    HW237737   4.461   1.509   8.050 -1.5968 -0.5305  0.3486
 8759SOL     OW37738   3.780   0.911  13.949  0.2969 -0.1061 -0.3991
 8759SOL    HW137739   3.846   0.980  13.959  0.0908  0.0841 -0.3647
 8759SOL    HW237740   3.731   0.917  14.030 -0.7090 -1.4917 -0.9081
 8760SOL     OW37741   0.485   4.255  16.987  0.2133  0.2378 -0.2696
 8760SOL    HW137742   0.464   4.262  16.894  1.2155 -0.8031 -0.5750
 8760SOL    HW237743   0.526   4.340  17.002  0.4789 -0.4424  2.8731
 8761SOL     OW37744   0.061   2.393   3.214  0.0299 -0.3942  0.0671
 8761SOL    HW137745   0.084   2.428   3.300 -2.7332  0.6841  0.3745
 8761SOL    HW237746   0.145   2.367   3.175 -0.0720 -0.1204 -0.3326
 8762SOL     OW37747   2.165   0.221  12.141 -0.1269 -0.0241  0.2099
 8762SOL    HW137748   2.159   0.316  12.154  0.5285  0.4170 -2.8321
 8762SOL    HW237749   2.258   0.204  12.127 -0.0675  0.4062  0.0717
 8763SOL     OW37750   0.966   2.560   2.825 -0.5031  0.4192  0.0390
 8763SOL    HW137751   1.042   2.504   2.811 -1.4446 -1.1550  1.2067
 8763SOL    HW237752   0.899   2.529   2.763  1.1515 -0.4307 -1.3334
 8764SOL     OW37753   3.847   3.428   1.263  0.6343  0.0171  0.4520
 8764SOL    HW137754   3.816   3.518   1.272  0.4775  0.2268 -2.2577
 8764SOL    HW237755   3.814   3.420   1.174  0.1385  1.8429  0.4744
 8765SOL     OW37756   0.451   2.274  11.176  0.1088  0.2429 -0.6345
 8765SOL    HW137757   0.495   2.192  11.154  0.8364  1.2267 -2.8464
 8765SOL    HW237758   0.521   2.338  11.169  0.7476 -0.6079 -1.9235
 8766SOL     OW37759   4.374   1.938   4.823 -0.1613  0.2304  0.3673
 8766SOL    HW137760   4.397   1.953   4.914  1.3442 -3.8590  0.6379
 8766SOL    HW237761   4.337   2.026   4.814 -0.0483  0.1044 -1.3349
 8767SOL     OW37762   0.365   0.234   8.239 -0.1355  0.3373  0.0433
 8767SOL    HW137763   0.373   0.280   8.323 -0.9298 -0.7853  0.7390
 8767SOL    HW237764   0.368   0.309   8.180 -1.9325  0.1724 -0.2721
 8768SOL     OW37765   4.364   0.055   2.638 -0.0192  0.7462 -0.2693
 8768SOL    HW137766   4.324   0.041   2.552 -0.7032 -0.7770  0.3161
 8768SOL    HW237767   4.333   4.705   2.693 -0.6146 -0.0889 -1.6933
 8769SOL     OW37768   1.016   4.705  13.142  0.0203  0.2423 -0.5772
 8769SOL    HW137769   1.082   4.714  13.211 -1.2693  2.8617  0.3196
 8769SOL    HW237770   1.018   0.072  13.108  0.3265  1.0220  1.4900
 8770SOL     OW37771   0.625   1.936   6.422 -0.7609  0.1479 -0.3005
 8770SOL    HW137772   0.622   1.977   6.336 -0.2530 -0.1367 -0.4490
 8770SOL    HW237773   0.716   1.909   6.428  0.1257  2.3170 -4.2837
 8771SOL     OW37774   3.877   0.510   7.122  0.9204 -0.1509  0.5959
 8771SOL    HW137775   3.816   0.439   7.106  1.8720 -0.2382 -2.6228
 8771SOL    HW237776   3.885   0.540   7.031 -1.8606  0.3021  0.5052
 8772SOL     OW37777   0.246   3.663   3.946  0.4925  0.0151 -0.0963
 8772SOL    HW137778   0.247   3.597   3.877 -1.9126 -1.9118  1.7109
 8772SOL    HW237779   0.307   3.729   3.914  1.8855 -0.5078  1.4530
 8773SOL     OW37780   3.054   1.543   4.416 -0.2280  0.0235  0.3866
 8773SOL    HW137781   2.981   1.547   4.478 -2.3547 -1.0322 -2.0560
 8773SOL    HW237782   3.070   1.449   4.410 -1.2421 -0.3331  3.2281
 8774SOL     OW37783   3.581   1.420   5.600  0.1255  0.3977 -1.4016
 8774SOL    HW137784   3.654   1.449   5.654 -1.0217  0.1849  0.2597
 8774SOL    HW237785   3.623   1.427   5.514  0.8233 -0.4265 -1.1194
 8775SOL     OW37786   3.593   1.934  12.027 -0.5091  0.0320  0.5663
 8775SOL    HW137787   3.528   1.976  11.970 -0.4720 -0.6144  0.0439
 8775SOL    HW237788   3.655   1.904  11.961  1.9725  0.4117  2.7180
 8776SOL     OW37789   3.169   2.321  11.428  0.0879  0.3211 -0.5595
 8776SOL    HW137790   3.202   2.262  11.495  1.3600 -1.0645 -2.4210
 8776SOL    HW237791   3.166   2.404  11.477  0.4678  0.2166 -0.3640
 8777SOL     OW37792   4.332   2.858  13.466  0.5934  0.4612  0.2780
 8777SOL    HW137793   4.314   2.801  13.541  0.9129  0.2001  0.1534
 8777SOL    HW237794   4.337   2.800  13.390 -0.2632 -0.8736  1.2326
 8778SOL     OW37795   3.556   1.555   2.810  0.1027  0.0854  0.1544
 8778SOL    HW137796   3.581   1.643   2.837 -2.0449  0.6198  0.4331
 8778SOL    HW237797   3.460   1.556   2.816  0.2176  0.3500  1.8822
 8779SOL     OW37798   2.198   3.680  15.669 -0.1554  0.3154 -0.1061
 8779SOL    HW137799   2.272   3.681  15.730 -1.4781  1.1105  1.4566
 8779SOL    HW237800   2.254   3.658  15.594  0.4514 -1.5647  0.8825
 8780SOL     OW37801   1.984   0.851   3.622 -0.2786  0.3849 -0.1167
 8780SOL    HW137802   2.078   0.853   3.640 -0.5739  0.4378  1.4434
 8780SOL    HW237803   1.974   0.908   3.546  0.1548 -0.6577 -0.9412
 8781SOL     OW37804   3.285   2.246   6.265 -0.0048  0.7790  0.1965
 8781SOL    HW137805   3.333   2.203   6.337 -1.1389 -1.4943 -0.4216
 8781SOL    HW237806   3.309   2.202   6.183  2.7384  1.6878  0.4900
 8782SOL     OW37807   3.431   2.727  16.647  0.1913 -0.3364 -0.6134
 8782SOL    HW137808   3.434   2.712  16.742  0.5129 -1.0886 -0.7421
 8782SOL    HW237809   3.350   2.775  16.631  0.2518 -0.9760 -2.8906
 8783SOL     OW37810   2.590   4.028   7.693  0.4290 -0.4416  0.6297
 8783SOL    HW137811   2.577   4.022   7.599 -0.5947 -0.6724  0.7750
 8783SOL    HW237812   2.587   4.123   7.705 -1.2951 -0.3658 -0.3614
 8784SOL     OW37813   2.081   1.111   6.837  0.8799  0.1269  0.6412
 8784SOL    HW137814   2.007   1.095   6.780  0.3693  0.5348  1.1934
 8784SOL    HW237815   2.157   1.123   6.779  0.8402  0.0289  0.5691
 8785SOL     OW37816   0.241   3.843  10.651  0.5323 -0.0891 -0.0935
 8785SOL    HW137817   0.297   3.795  10.589  2.0208  0.8464  0.5423
 8785SOL    HW237818   0.295   3.844  10.730 -0.8364  0.5635  0.8329
 8786SOL     OW37819   3.403   1.223   4.176  0.5659 -0.2130 -0.8775
 8786SOL    HW137820   3.407   1.137   4.218  1.3607 -0.1534 -0.8219
 8786SOL    HW237821   3.489   1.259   4.198  0.0219 -0.7337  2.0582
 8787SOL     OW37822   3.784   0.918   4.033  0.0544 -0.6297  0.5817
 8787SOL    HW137823   3.689   0.914   4.042 -0.0087  0.8996  0.6189
 8787SOL    HW237824   3.805   0.838   3.985 -0.9601 -0.6156  0.1239
 8788SOL     OW37825   1.155   2.968   3.036  0.2491 -0.2049  0.2062
 8788SOL    HW137826   1.240   3.007   3.057  1.1289 -1.3797 -1.1913
 8788SOL    HW237827   1.154   2.893   3.096 -1.6064 -0.5626 -0.2526
 8789SOL     OW37828   3.927   1.127   7.051  0.1305 -0.6723 -0.2237
 8789SOL    HW137829   3.909   1.118   7.144 -0.2879  1.6835 -0.0798
 8789SOL    HW237830   3.857   1.187   7.024  1.3244  0.1673 -1.4675
 8790SOL     OW37831   3.154   3.025  13.550  0.1644 -0.0149 -0.1103
 8790SOL    HW137832   3.089   2.963  13.583 -1.1349  1.0933 -0.5718
 8790SOL    HW237833   3.181   3.076  13.626 -0.5408 -1.4339  1.0881
 8791SOL     OW37834   2.743   1.494  13.970  0.2262  0.1733  0.4626
 8791SOL    HW137835   2.740   1.499  14.066  2.4102  1.8986  0.4414
 8791SOL    HW237836   2.771   1.406  13.948 -1.0029 -0.0221 -0.2941
 8792SOL     OW37837   2.511   2.899   2.605 -0.2275 -0.2059 -0.5004
 8792SOL    HW137838   2.422   2.915   2.572  0.7539  2.4110 -1.8512
 8792SOL    HW237839   2.550   2.831   2.549  0.7563 -1.8722  2.1772
 8793SOL     OW37840   1.605   0.205   8.249 -0.0677  0.1782 -0.1424
 8793SOL    HW137841   1.602   0.114   8.277  4.2692  0.4183  1.2352
 8793SOL    HW237842   1.518   0.235   8.276  0.3332  3.2182 -2.2120
 8794SOL     OW37843   3.071   3.607   4.528  0.0359  0.7498  0.1647
 8794SOL    HW137844   3.165   3.615   4.542  0.0967 -2.3804  1.4914
 8794SOL    HW237845   3.031   3.646   4.607  0.4540  0.0442  0.7232
 8795SOL     OW37846   2.825   4.555  16.928 -0.2298  0.4548 -0.1798
 8795SOL    HW137847   2.776   4.475  16.909 -0.0847 -0.1070  1.8527
 8795SOL    HW237848   2.779   4.621  16.875 -0.4845  0.1091 -0.3924
 8796SOL     OW37849   0.654   2.351   6.001 -0.3484 -0.1714 -0.2694
 8796SOL    HW137850   0.639   2.407   5.925  1.9966  2.2722  1.0968
 8796SOL    HW237851   0.661   2.422   6.065 -2.9754  0.2279 -0.3980
 8797SOL     OW37852   4.671   2.020   6.536 -0.5275  0.6986  0.6149
 8797SOL    HW137853   0.034   1.977   6.549 -0.2395  1.0793  0.0215
 8797SOL    HW237854   4.611   1.968   6.590 -0.9121 -1.5661 -1.9273
 8798SOL     OW37855   1.093   0.592   8.213  0.0978  0.5214 -0.0294
 8798SOL    HW137856   1.084   0.654   8.140  1.6687  0.8653  0.0663
 8798SOL    HW237857   1.090   0.655   8.285 -1.3543 -0.0980  0.4420
 8799SOL     OW37858   2.945   4.449   8.307 -0.5711 -0.2300 -0.1355
 8799SOL    HW137859   2.913   4.397   8.234  1.9013 -2.1112  0.1341
 8799SOL    HW237860   2.965   4.376   8.366  0.1362 -0.4463 -0.6516
 8800SOL     OW37861   1.312   0.796   1.354 -0.2427 -0.4062  0.2227
 8800SOL    HW137862   1.342   0.879   1.316 -0.3965 -1.3706 -2.0198
 8800SOL    HW237863   1.372   0.727   1.324 -0.8231 -0.7803 -0.0730
 8801SOL     OW37864   0.341   1.501   9.067 -0.3635  0.6383  0.3277
 8801SOL    HW137865   0.415   1.535   9.118  0.1639  0.2796 -0.1943
 8801SOL    HW237866   0.307   1.427   9.117 -1.1689 -0.1321 -1.3484
 8802SOL     OW37867   4.591   2.520  12.001  0.1303  0.2934  0.3211
 8802SOL    HW137868   4.554   2.432  12.008 -1.7822  0.9919 -1.0203
 8802SOL    HW237869   4.533   2.564  12.064  0.8399  2.6022 -0.6629
 8803SOL     OW37870   0.104   3.873  11.706  0.2609 -0.3377 -0.4579
 8803SOL    HW137871   0.119   3.821  11.785  1.0114 -1.1784 -1.1585
 8803SOL    HW237872   0.141   3.820  11.635 -0.8524  1.5945 -2.4632
 8804SOL     OW37873   1.493   3.687  10.102 -0.4521 -0.6245  0.1898
 8804SOL    HW137874   1.540   3.742  10.040 -0.1962 -3.0394 -1.7390
 8804SOL    HW237875   1.528   3.600  10.082 -2.3925 -1.5071  0.5830
 8805SOL     OW37876   3.432   3.420   6.290 -0.5095 -0.9428  0.8673
 8805SOL    HW137877   3.419   3.439   6.197  0.8540 -2.0249  0.4592
 8805SOL    HW237878   3.442   3.325   6.282  3.4915 -0.5430  1.1366
 8806SOL     OW37879   3.346   2.888   8.820  0.3874  0.5314 -0.2660
 8806SOL    HW137880   3.369   2.980   8.811 -0.3557  0.8062  0.5775
 8806SOL    HW237881   3.283   2.869   8.751  0.4222  0.3512 -0.2479
 8807SOL     OW37882   2.582   1.085   0.103 -0.4518  0.3391 -0.4070
 8807SOL    HW137883   2.579   0.991   0.121  1.1686  0.5595  1.0251
 8807SOL    HW237884   2.560   1.126   0.187  1.5907  2.0755 -0.7377
 8808SOL     OW37885   4.339   3.463   2.275 -0.4503 -0.2606  0.8329
 8808SOL    HW137886   4.327   3.432   2.185 -1.1628  1.0124  0.4891
 8808SOL    HW237887   4.319   3.556   2.271  3.3988  0.4924 -0.8208
 8809SOL     OW37888   3.833   1.464   3.381  0.1847  0.3938 -0.4600
 8809SOL    HW137889   3.816   1.371   3.365  1.1833  0.3728 -1.3623
 8809SOL    HW237890   3.779   1.469   3.460  0.9165 -0.1606  0.0739
 8810SOL     OW37891   0.323   2.388  15.653  0.2031 -0.2638 -0.1091
 8810SOL    HW137892   0.289   2.371  15.565  3.9879  2.2067 -2.0199
 8810SOL    HW237893   0.413   2.412  15.631 -1.0091  2.0201 -2.5875
 8811SOL     OW37894   2.517   4.471   3.605  0.0973 -0.0879  0.3754
 8811SOL    HW137895   2.515   4.567   3.600  0.4032 -0.1945 -1.6180
 8811SOL    HW237896   2.485   4.469   3.695 -0.1531  1.1859  0.3213
 8812SOL     OW37897   4.243   2.819  14.028 -0.1377  0.2852  0.0381
 8812SOL    HW137898   4.211   2.827  13.938  2.3001  1.5958 -0.7259
 8812SOL    HW237899   4.324   2.769  14.016  0.6810  1.4637  0.5842
 8813SOL     OW37900   3.647   0.457   6.194  0.3922 -0.1098 -0.0222
 8813SOL    HW137901   3.679   0.492   6.277  0.1957  1.0741 -0.4484
 8813SOL    HW237902   3.727   0.459   6.142  1.0203  1.6659  1.0087
 8814SOL     OW37903   4.511   4.124   8.545  0.4749 -0.2082  0.1058
 8814SOL    HW137904   4.592   4.077   8.565  0.4855  0.6922  2.2241
 8814SOL    HW237905   4.533   4.155   8.458  0.9777 -2.1378 -0.4498
 8815SOL     OW37906   0.742   1.987   4.595 -0.3922 -0.6481 -0.1813
 8815SOL    HW137907   0.713   1.920   4.656 -1.6787  0.4199  0.3717
 8815SOL    HW237908   0.663   2.039   4.577  0.9822  1.2114 -0.9151
 8816SOL     OW37909   0.533   2.242   1.351  0.2275  0.5104 -0.3494
 8816SOL    HW137910   0.623   2.251   1.321  0.0247  1.9646 -0.5176
 8816SOL    HW237911   0.476   2.252   1.275 -0.6911  0.9854  0.4036
 8817SOL     OW37912   0.389   1.077  11.485 -0.1604 -0.6784  0.6743
 8817SOL    HW137913   0.384   1.170  11.506  1.2423 -0.3714 -0.3997
 8817SOL    HW237914   0.387   1.086  11.390  1.2571 -0.8470  0.6379
 8818SOL     OW37915   2.489   0.886   9.896  0.1143 -0.1291  0.3163
 8818SOL    HW137916   2.516   0.845   9.978 -1.0152 -1.1212  0.1797
 8818SOL    HW237917   2.406   0.929   9.915  0.6069  0.7980  0.3839
 8819SOL     OW37918   1.721   0.450   4.621 -0.3316 -0.0483  0.5760
 8819SOL    HW137919   1.662   0.482   4.553  1.9750  1.1219 -0.8691
 8819SOL    HW237920   1.801   0.437   4.570  0.1099 -0.3824  1.3636
 8820SOL     OW37921   4.406   0.920   5.170  0.0506 -0.5418 -0.1924
 8820SOL    HW137922   4.377   0.859   5.238  0.3824  0.5827  0.9529
 8820SOL    HW237923   4.442   0.858   5.107 -0.2822  0.4915 -1.3890
 8821SOL     OW37924   0.520   3.308   8.777 -0.3670 -0.0895  0.0407
 8821SOL    HW137925   0.478   3.243   8.721 -1.8223 -0.7412  1.8726
 8821SOL    HW237926   0.458   3.321   8.849 -1.7240  0.3218 -1.2023
 8822SOL     OW37927   3.031   2.232   6.224  0.1200 -0.0047  0.3754
 8822SOL    HW137928   3.120   2.249   6.254  1.0267 -1.7036 -1.3103
 8822SOL    HW237929   3.007   2.308   6.171 -0.5033  0.6632  1.6142
 8823SOL     OW37930   2.112   2.375   8.364 -0.6278 -1.4096  0.2407
 8823SOL    HW137931   2.044   2.332   8.416 -0.7355 -0.9465  0.4842
 8823SOL    HW237932   2.180   2.381   8.431 -1.6703 -0.5590  1.2286
 8824SOL     OW37933   3.851   0.710  10.887  0.3623 -0.5064  0.8388
 8824SOL    HW137934   3.800   0.640  10.847 -1.7432 -0.6248  3.8123
 8824SOL    HW237935   3.828   0.782  10.828 -0.9428 -0.7565  1.0613
 8825SOL     OW37936   2.501   1.016   5.991  0.1995 -0.3417 -0.1065
 8825SOL    HW137937   2.596   1.022   5.983  0.5930 -2.6732  2.5212
 8825SOL    HW237938   2.486   1.107   5.968  0.1136 -0.5318 -0.7859
 8826SOL     OW37939   2.837   0.465   8.636  0.4448 -0.4685  1.1430
 8826SOL    HW137940   2.807   0.375   8.648  3.3872 -1.7034 -0.7786
 8826SOL    HW237941   2.930   0.455   8.616  0.0434  1.5832 -1.8247
 8827SOL     OW37942   4.050   3.921   1.557  0.5869  0.5080 -0.3974
 8827SOL    HW137943   3.975   3.898   1.501 -0.4669  0.9656  0.8254
 8827SOL    HW237944   4.120   3.880   1.507 -0.4147 -2.9448  1.0218
 8828SOL     OW37945   3.170   3.956   2.914 -0.4011  0.4806  0.1920
 8828SOL    HW137946   3.139   3.898   2.984 -0.5890  0.5599  0.1740
 8828SOL    HW237947   3.118   3.936   2.836  0.7448 -0.1014 -0.4123
 8829SOL     OW37948   1.773   4.386   1.289  0.0683 -0.4781 -0.3989
 8829SOL    HW137949   1.708   4.419   1.352 -0.0723 -1.0393 -0.2462
 8829SOL    HW237950   1.792   4.299   1.324  1.0008 -0.1121 -0.0159
 8830SOL     OW37951   3.123   3.902   8.566 -0.3246 -0.0488  0.4262
 8830SOL    HW137952   3.074   3.929   8.488  1.5357  2.0573 -0.0069
 8830SOL    HW237953   3.075   3.922   8.647 -0.2030  4.0383 -0.5223
 8831SOL     OW37954   2.514   4.006   3.245  0.2961 -0.4780 -0.0056
 8831SOL    HW137955   2.449   3.977   3.181 -0.0729 -0.6267  0.4350
 8831SOL    HW237956   2.477   4.089   3.275  0.8643 -0.6693  1.2091
 8832SOL     OW37957   4.027   1.757  16.058 -0.5792 -0.3150  0.1608
 8832SOL    HW137958   4.057   1.779  15.970 -0.3916 -0.0031  0.3016
 8832SOL    HW237959   4.104   1.788  16.107 -1.1215  1.3403 -0.0212
 8833SOL     OW37960   3.496   0.479   3.794 -0.1710  0.1013 -0.0419
 8833SOL    HW137961   3.421   0.499   3.738 -0.6634 -0.1080  0.5305
 8833SOL    HW237962   3.570   0.504   3.740  0.2840  0.0404  0.5555
 8834SOL     OW37963   3.154   2.371   0.728  0.0390  0.3682  0.1045
 8834SOL    HW137964   3.185   2.306   0.665  0.4786  0.1034  0.5947
 8834SOL    HW237965   3.225   2.369   0.792 -2.0291 -3.2842  2.2851
 8835SOL     OW37966   1.943   2.670   3.833 -0.3334 -0.1216  0.7504
 8835SOL    HW137967   1.902   2.641   3.915 -1.3293 -0.1926  0.2276
 8835SOL    HW237968   1.995   2.749   3.849 -0.0255  0.2904 -2.3442
 8836SOL     OW37969   0.667   1.892  12.508  0.1288 -0.3813 -0.4055
 8836SOL    HW137970   0.580   1.879  12.545  0.8465 -1.4912  0.8935
 8836SOL    HW237971   0.667   1.827  12.438  2.7364 -0.2166 -0.5441
 8837SOL     OW37972   4.002   2.170   1.686 -0.0981 -0.0454 -0.1198
 8837SOL    HW137973   4.019   2.084   1.725  0.8556  0.3130  0.2448
 8837SOL    HW237974   3.950   2.151   1.608  0.7006  3.7479 -1.5742
 8838SOL     OW37975   0.508   3.680   6.628  0.0499 -0.0241  0.1291
 8838SOL    HW137976   0.441   3.640   6.572  0.2907  1.4879 -1.2521
 8838SOL    HW237977   0.538   3.599   6.668 -1.8344 -0.7396  0.0947
 8839SOL     OW37978   1.173   0.214  12.967 -0.4762 -0.4478 -0.0748
 8839SOL    HW137979   1.250   0.269  12.983  0.7515 -1.5722 -2.0177
 8839SOL    HW237980   1.205   0.124  12.975 -0.1239 -0.2651  0.6223
 8840SOL     OW37981   2.163   2.329   3.065  0.1122 -0.4920  0.0584
 8840SOL    HW137982   2.193   2.372   2.985 -0.1365 -1.8037 -0.7303
 8840SOL    HW237983   2.102   2.264   3.030  0.4927  0.3554 -2.1993
 8841SOL     OW37984   0.188   0.163   2.825 -0.4989  0.1207 -0.5641
 8841SOL    HW137985   0.201   0.257   2.813 -0.6237  0.5251  2.4132
 8841SOL    HW237986   0.097   0.154   2.853  0.4254 -0.6876  2.2375
 8842SOL     OW37987   3.696   2.230  10.793 -0.5917  0.0486  0.0651
 8842SOL    HW137988   3.720   2.307  10.844  1.7595 -0.3205 -0.5026
 8842SOL    HW237989   3.703   2.253  10.701 -2.4322 -2.0169 -0.6053
 8843SOL     OW37990   0.884   0.512   4.071 -0.2004  0.5508 -0.1541
 8843SOL    HW137991   0.962   0.489   4.122 -2.1623 -1.1301  2.0878
 8843SOL    HW237992   0.900   0.603   4.049 -0.8318  0.4608 -0.9836
 8844SOL     OW37993   4.017   0.770  14.044  0.3244 -0.2730  0.5341
 8844SOL    HW137994   3.989   0.851  14.001  2.1433  1.8336  3.3310
 8844SOL    HW237995   3.941   0.718  14.019  0.1370  0.5138 -0.5288
 8845SOL     OW37996   3.339   1.537   5.537  0.9292  0.1815 -0.1464
 8845SOL    HW137997   3.426   1.501   5.556  1.4682  1.1252 -0.7727
 8845SOL    HW237998   3.288   1.508   5.612  1.8237  0.2296  0.4765
 8846SOL     OW37999   4.151   2.160  11.972 -0.1577  0.5979  0.3162
 8846SOL    HW138000   4.133   2.152  12.066  0.0966 -0.1903  0.2976
 8846SOL    HW238001   4.065   2.136  11.938  0.1539 -1.6754  1.0804
 8847SOL     OW38002   2.086   1.799  17.277  0.2429  0.0883  0.7412
 8847SOL    HW138003   2.176   1.819  17.253  0.2311  0.9541  1.4320
 8847SOL    HW238004   2.054   1.801  17.186 -0.7314  0.3543  1.0945
 8848SOL     OW38005   0.946   1.656  16.628  0.4330  0.0484  0.5046
 8848SOL    HW138006   0.976   1.693  16.545 -0.2537  0.6902  0.5454
 8848SOL    HW238007   0.976   1.720  16.693 -0.5715  1.0372 -0.0102
 8849SOL     OW38008   2.452   2.869  14.480  0.1459  0.2175  0.4940
 8849SOL    HW138009   2.498   2.858  14.564 -2.6865  0.5913  2.0940
 8849SOL    HW238010   2.363   2.844  14.503  0.2432 -0.4083  0.1887
 8850SOL     OW38011   3.806   1.259  11.701 -0.4364 -0.1837  0.5239
 8850SOL    HW138012   3.826   1.342  11.744  0.1145  0.5094 -1.0512
 8850SOL    HW238013   3.813   1.198  11.774 -1.5194 -0.8576  0.0726
 8851SOL     OW38014   4.068   3.292  17.155 -0.2841  0.5003  0.4646
 8851SOL    HW138015   4.044   3.209  17.114  1.9648  0.1192 -0.0863
 8851SOL    HW238016   4.129   3.277  17.228 -0.9401  0.8418  1.0843
 8852SOL     OW38017   3.803   4.682   4.243  0.5022  0.2736  0.4020
 8852SOL    HW138018   3.873   4.646   4.189 -1.8404  1.6239 -3.4789
 8852SOL    HW238019   3.779   0.033   4.186  0.3651  0.0591  0.1859
 8853SOL     OW38020   0.057   0.481   2.668 -0.1742 -0.2151  0.1006
 8853SOL    HW138021   0.143   0.502   2.703  0.5205 -0.8595 -1.2083
 8853SOL    HW238022   0.027   0.426   2.741 -0.1348  1.6038  1.4989
 8854SOL     OW38023   3.517   2.431  13.180 -0.3010  0.8663  0.0168
 8854SOL    HW138024   3.530   2.519  13.145  0.4435  0.2574 -1.2380
 8854SOL    HW238025   3.506   2.452  13.273 -0.9763 -0.1245  0.1637
 8855SOL     OW38026   3.523   0.899  16.128  0.0729  0.2367 -0.2939
 8855SOL    HW138027   3.443   0.908  16.180  0.0646  0.6990 -0.3785
 8855SOL    HW238028   3.551   0.990  16.117 -0.4170  0.0695 -2.9192
 8856SOL     OW38029   1.243   3.912   1.908 -0.5706  0.1805  0.0726
 8856SOL    HW138030   1.314   3.970   1.878  1.9087 -3.4751 -1.0769
 8856SOL    HW238031   1.168   3.966   1.884 -0.3013  0.0556 -1.0336
 8857SOL     OW38032   3.900   0.950   7.491 -0.0245  0.3223  0.1962
 8857SOL    HW138033   3.823   0.927   7.544 -0.6539  0.7336 -0.5301
 8857SOL    HW238034   3.973   0.911   7.538  1.5338  1.4577 -1.2827
 8858SOL     OW38035   2.293   3.807   7.792 -0.0966 -0.1050 -0.8813
 8858SOL    HW138036   2.216   3.817   7.848 -0.1697 -0.6025 -0.8914
 8858SOL    HW238037   2.365   3.829   7.850 -0.2360  1.1585 -1.1953
 8859SOL     OW38038   4.011   4.093   3.310 -0.0500 -0.8755 -0.1075
 8859SOL    HW138039   4.005   3.997   3.316  0.4041 -0.9270 -0.4692
 8859SOL    HW238040   4.106   4.097   3.309 -0.0393 -0.7545  0.9046
 8860SOL     OW38041   2.132   3.827   6.652  0.3686  0.3470 -0.1167
 8860SOL    HW138042   2.112   3.901   6.595  1.1760  0.6309 -0.0419
 8860SOL    HW238043   2.061   3.764   6.643 -0.4770  1.4376 -1.0240
 8861SOL     OW38044   3.426   2.109  14.485 -0.3528  0.0762 -0.1347
 8861SOL    HW138045   3.340   2.071  14.470 -0.7282  1.0642 -0.4456
 8861SOL    HW238046   3.408   2.195  14.523  3.8063 -0.2178  2.5721
 8862SOL     OW38047   4.411   2.573   5.914  0.1331  0.0573 -0.6940
 8862SOL    HW138048   4.490   2.526   5.888 -0.8999 -1.4410 -1.1387
 8862SOL    HW238049   4.397   2.545   6.004  1.6784 -0.2207 -0.5318
 8863SOL     OW38050   1.285   3.968  16.588  0.1864  0.0998  0.2336
 8863SOL    HW138051   1.314   4.060  16.585  1.0894 -0.2408 -1.3788
 8863SOL    HW238052   1.210   3.964  16.647  0.3005  0.4009  0.4003
 8864SOL     OW38053   1.472   4.618  11.688 -0.1865  0.0943  0.2336
 8864SOL    HW138054   1.468   4.586  11.598 -1.4891  1.2300 -0.1037
 8864SOL    HW238055   1.508   4.548  11.743  0.9996  1.3006  0.9837
 8865SOL     OW38056   1.311   1.114  17.549  0.3475 -0.0493 -0.1593
 8865SOL    HW138057   1.353   1.153  17.626  0.0422 -1.7427  0.8751
 8865SOL    HW238058   1.356   1.030  17.549  0.9650  0.2710  1.6277
 8866SOL     OW38059   4.346   4.067   5.639 -0.2100  0.2098  0.0802
 8866SOL    HW138060   4.355   4.162   5.651  1.9971  0.1358 -1.0758
 8866SOL    HW238061   4.389   4.051   5.722  2.9271 -0.0598 -1.6055
 8867SOL     OW38062   2.266   2.737   3.308 -0.7123 -0.2913  0.1356
 8867SOL    HW138063   2.247   2.741   3.214 -2.1535 -3.0737  0.3209
 8867SOL    HW238064   2.349   2.691   3.296 -0.1388  0.4883  1.0995
 8868SOL     OW38065   3.079   3.815  17.607  0.4629 -0.0991  0.0955
 8868SOL    HW138066   3.146   3.755  17.574  0.2725  0.4737 -1.3555
 8868SOL    HW238067   3.012   3.752  17.579 -1.2601  1.3227  1.0499
 8869SOL     OW38068   1.723   2.834   4.533 -0.4150 -0.8811 -0.1853
 8869SOL    HW138069   1.653   2.813   4.596 -1.6721  2.3655 -0.4868
 8869SOL    HW238070   1.803   2.812   4.581  0.5767 -1.4752 -2.1254
 8870SOL     OW38071   2.777   2.306  14.470  0.4658  0.3877  0.0742
 8870SOL    HW138072   2.799   2.325  14.561 -2.0946  1.1098  0.5510
 8870SOL    HW238073   2.842   2.242  14.443  0.7137  0.5531  0.2779
 8871SOL     OW38074   3.026   0.654   6.866 -0.3248  0.5587 -0.1961
 8871SOL    HW138075   3.006   0.563   6.887 -2.8364  1.0878 -0.3582
 8871SOL    HW238076   3.110   0.638   6.823 -0.1614  0.7637  0.0408
 8872SOL     OW38077   3.777   1.155   8.750 -0.0505  0.2290 -0.0687
 8872SOL    HW138078   3.822   1.074   8.725 -2.7815 -1.1663 -0.4739
 8872SOL    HW238079   3.843   1.184   8.814 -0.2385 -0.5331  0.4812
 8873SOL     OW38080   2.613   0.484   0.587 -0.4707  0.2704 -0.2177
 8873SOL    HW138081   2.683   0.545   0.608 -1.0969  0.4990  1.1890
 8873SOL    HW238082   2.641   0.457   0.500  1.9071  1.3076  0.2389
 8874SOL     OW38083   1.647   0.374   6.433 -0.2583 -0.2170  0.4425
 8874SOL    HW138084   1.732   0.348   6.395  0.1692  1.1653  0.4411
 8874SOL    HW238085   1.610   0.441   6.375 -0.2802 -0.4882  0.1411
 8875SOL     OW38086   2.405   3.435   9.790 -0.2573  0.3262  0.0626
 8875SOL    HW138087   2.492   3.464   9.817 -0.9452  1.6142  0.8744
 8875SOL    HW238088   2.354   3.454   9.869 -0.5110  2.5443 -0.6428
 8876SOL     OW38089   0.340   3.937  13.899 -0.1820  0.2078  0.2739
 8876SOL    HW138090   0.380   3.950  13.985  3.2439 -0.3814 -1.2523
 8876SOL    HW238091   0.303   4.022  13.872  0.1537  0.3749  0.3368
 8877SOL     OW38092   3.696   1.852   1.707  0.1313 -0.2203  0.5973
 8877SOL    HW138093   3.654   1.767   1.720  0.4004 -0.2099  1.5242
 8877SOL    HW238094   3.644   1.911   1.762  0.9189  0.8567  0.2044
 8878SOL     OW38095   1.656   4.637  11.983 -0.2561  0.2613 -0.1206
 8878SOL    HW138096   1.612   4.722  11.978  0.9298  0.6888 -3.1945
 8878SOL    HW238097   1.714   4.646  12.058  0.7913  0.3237 -0.9344
 8879SOL     OW38098   0.519   0.684   7.511  0.2487  0.6486 -0.1077
 8879SOL    HW138099   0.548   0.721   7.594 -3.0927 -0.4854  1.5626
 8879SOL    HW238100   0.496   0.593   7.530 -0.6443  1.2054  1.5275
 8880SOL     OW38101   2.877   3.916  16.143 -0.0853 -0.2720  0.0908
 8880SOL    HW138102   2.945   3.926  16.076 -1.0647  1.3901 -0.6831
 8880SOL    HW238103   2.920   3.956  16.218 -0.6857 -1.3262  0.9812
 8881SOL     OW38104   3.714   2.031   8.540 -0.5994 -0.6730 -0.2413
 8881SOL    HW138105   3.746   2.071   8.459 -0.1274  1.2169  0.8610
 8881SOL    HW238106   3.658   1.966   8.497  0.8816 -2.7503  0.9962
 8882SOL     OW38107   3.247   2.297   1.930 -0.9080 -0.0138  0.1531
 8882SOL    HW138108   3.254   2.298   2.026  1.0548 -1.7005  0.0231
 8882SOL    HW238109   3.320   2.239   1.909  1.1013  2.7741 -0.5965
 8883SOL     OW38110   1.074   4.275  13.747  0.1474 -0.5150 -0.6993
 8883SOL    HW138111   0.994   4.280  13.694 -0.5351 -3.2054  0.1156
 8883SOL    HW238112   1.070   4.180  13.757 -0.0543 -0.0442  3.4509
 8884SOL     OW38113   1.891   1.666   4.838  0.3239  0.1033 -0.7752
 8884SOL    HW138114   1.817   1.716   4.873  0.9374 -0.6902  1.6648
 8884SOL    HW238115   1.865   1.640   4.749 -0.2286 -1.1864 -0.2468
 8885SOL     OW38116   1.634   1.284   5.148  0.0659  0.4105  0.5291
 8885SOL    HW138117   1.589   1.264   5.065 -1.3455  0.0091  1.3845
 8885SOL    HW238118   1.655   1.376   5.129  0.0589  0.4425  0.6794
 8886SOL     OW38119   1.505   3.448   6.819 -0.0917  0.6259  0.1249
 8886SOL    HW138120   1.540   3.409   6.899 -1.3494 -1.8507 -0.5466
 8886SOL    HW238121   1.490   3.538   6.849  1.5647  0.6735  0.8303
 8887SOL     OW38122   2.816   4.376   5.700  0.3296  0.0396 -0.4863
 8887SOL    HW138123   2.735   4.427   5.690 -0.3707 -0.4596  2.6032
 8887SOL    HW238124   2.795   4.304   5.759  2.1575  0.1337  0.2898
 8888SOL     OW38125   2.194   3.847   2.795  0.0770 -0.1372  0.2840
 8888SOL    HW138126   2.254   3.781   2.830  0.7746 -0.2641 -1.1631
 8888SOL    HW238127   2.113   3.795   2.797  0.0276 -0.0881 -0.6935
 8889SOL     OW38128   4.072   2.890   7.037  0.0297  0.1707  0.3259
 8889SOL    HW138129   4.145   2.831   7.019 -1.4737 -1.7535  0.4553
 8889SOL    HW238130   4.080   2.932   7.123 -1.6535  0.8530  0.1622
 8890SOL     OW38131   3.695   2.290   0.894 -0.1454  0.2657 -0.8043
 8890SOL    HW138132   3.663   2.221   0.952 -0.7325  1.4332  0.2536
 8890SOL    HW238133   3.753   2.236   0.841 -1.8134 -1.3791 -0.9678
 8891SOL     OW38134   0.562   2.430  13.454 -0.1869  0.5365 -0.1082
 8891SOL    HW138135   0.525   2.428  13.366 -0.6275 -0.9322  0.1020
 8891SOL    HW238136   0.510   2.368  13.505 -0.3528 -0.7452 -1.7981
 8892SOL     OW38137   0.804   2.159   5.767  0.2807 -0.4344  0.0583
 8892SOL    HW138138   0.715   2.141   5.737  0.0311  2.8884 -1.1777
 8892SOL    HW238139   0.809   2.253   5.750  0.3560 -0.4975 -0.2547
 8893SOL     OW38140   4.523   1.092   2.374  0.3774 -0.2118 -0.4474
 8893SOL    HW138141   4.493   1.103   2.284  1.2400 -1.0238 -0.8327
 8893SOL    HW238142   4.447   1.106   2.431  0.6393  0.1122 -0.1798
 8894SOL     OW38143   4.300   0.867   5.435 -0.2962 -0.1453 -0.4614
 8894SOL    HW138144   4.259   0.861   5.521  1.0662 -0.1571  0.1766
 8894SOL    HW238145   4.356   0.942   5.452 -1.0253 -0.0233  1.3944
 8895SOL     OW38146   0.962   4.515  10.585 -0.0982 -0.0891  0.1752
 8895SOL    HW138147   0.940   4.478  10.499 -0.0528  0.0450  0.1049
 8895SOL    HW238148   1.026   4.575  10.546 -1.8003  1.7702  0.2486
 8896SOL     OW38149   0.088   1.862  11.524  0.8086  0.6142 -0.0675
 8896SOL    HW138150   4.718   1.835  11.523  1.1087 -0.4170  1.3382
 8896SOL    HW238151   0.125   1.802  11.588 -1.2297 -0.6757 -0.1056
 8897SOL     OW38152   1.013   1.870   5.851 -0.1787  0.1631 -0.4636
 8897SOL    HW138153   1.052   1.943   5.803  1.2399 -0.0638  0.3389
 8897SOL    HW238154   0.932   1.908   5.885 -1.0631  0.2474 -2.6324
 8898SOL     OW38155   2.745   3.196   4.384 -0.1171 -0.1015  0.1054
 8898SOL    HW138156   2.795   3.216   4.304  1.3772 -1.1383  0.7825
 8898SOL    HW238157   2.762   3.274   4.437 -1.9270  0.4086 -0.0671
 8899SOL     OW38158   3.048   1.326  14.501 -0.3873  0.0470 -0.3206
 8899SOL    HW138159   3.058   1.232  14.510 -0.7724  0.3918  3.6677
 8899SOL    HW238160   2.957   1.339  14.529 -0.4821 -0.0564 -0.5793
 8900SOL     OW38161   2.758   2.674  10.221  0.3478  0.0247 -0.3629
 8900SOL    HW138162   2.679   2.622  10.213 -0.9252  1.6228  1.5896
 8900SOL    HW238163   2.710   2.755  10.240  0.8046  0.3361 -0.5260
 8901SOL     OW38164   1.629   1.639  15.953  0.3919 -0.0056  0.0308
 8901SOL    HW138165   1.695   1.591  15.902  0.1515 -2.2317  1.7893
 8901SOL    HW238166   1.611   1.712  15.895 -0.2627 -0.8300 -0.7902
 8902SOL     OW38167   2.688   1.289  14.782  0.2428  0.0618 -0.4173
 8902SOL    HW138168   2.781   1.312  14.786  0.2356  0.3725 -1.9660
 8902SOL    HW238169   2.662   1.254  14.867 -0.6161  2.0889  0.1422
 8903SOL     OW38170   2.795   4.220   7.318  0.3371 -0.4372 -0.3094
 8903SOL    HW138171   2.722   4.205   7.378  0.2671  3.2600  0.4761
 8903SOL    HW238172   2.761   4.196   7.231  1.4066 -1.3513 -0.4675
 8904SOL     OW38173   4.702   0.035   3.293 -0.5615  0.0456 -0.0702
 8904SOL    HW138174   4.686   0.129   3.289  2.4883  0.5759  0.1337
 8904SOL    HW238175   4.672   0.029   3.384 -0.2340 -0.2720  0.0202
 8905SOL     OW38176   0.331   2.725  16.628 -0.3533  0.0447 -0.1809
 8905SOL    HW138177   0.424   2.746  16.639 -0.9735  2.9232 -0.3957
 8905SOL    HW238178   0.312   2.779  16.552  0.5991 -1.4310 -1.4596
 8906SOL     OW38179   4.205   4.642   6.299  0.0693 -0.5882  0.4051
 8906SOL    HW138180   4.238   4.614   6.214  1.4067 -0.2194  0.7965
 8906SOL    HW238181   4.118   4.602   6.295  0.1153 -0.6375 -0.0797
 8907SOL     OW38182   0.921   4.466  11.635  0.0659  0.5152 -0.0947
 8907SOL    HW138183   0.875   4.384  11.655  0.2692  0.4849  0.2461
 8907SOL    HW238184   1.000   4.441  11.588 -0.5163  1.6721 -1.6853
 8908SOL     OW38185   2.371   3.263   6.460 -0.1025  0.7689  0.3481
 8908SOL    HW138186   2.445   3.240   6.403 -1.0799  0.0393 -0.6284
 8908SOL    HW238187   2.357   3.179   6.504  1.3365  0.4335  0.1729
 8909SOL     OW38188   1.069   3.638   9.930 -0.0520 -0.4687  0.3367
 8909SOL    HW138189   0.983   3.640   9.972 -0.3547 -0.4018 -0.2787
 8909SOL    HW238190   1.087   3.728   9.903 -1.4105 -0.7615 -1.5395
 8910SOL     OW38191   2.550   1.368  15.152 -0.1483  0.1141 -0.1273
 8910SOL    HW138192   2.541   1.411  15.237  1.6656 -1.1563  0.6981
 8910SOL    HW238193   2.520   1.281  15.178  1.0198 -0.6814 -1.4277
 8911SOL     OW38194   4.494   3.945  11.751 -0.0953  0.3323 -0.2714
 8911SOL    HW138195   4.568   4.006  11.751  1.0003 -0.9770  0.8068
 8911SOL    HW238196   4.514   3.905  11.836 -0.2852 -1.5082 -1.0807
 8912SOL     OW38197   1.782   2.937   6.618 -0.3923 -0.1053 -0.0612
 8912SOL    HW138198   1.838   2.962   6.691  1.4439 -0.2866 -1.4187
 8912SOL    HW238199   1.827   2.862   6.579 -0.0567  0.6811 -1.1935
 8913SOL     OW38200   0.152   1.499   2.158 -0.2227 -0.2726 -0.0034
 8913SOL    HW138201   0.088   1.571   2.160  0.5994  0.4982 -2.3870
 8913SOL    HW238202   0.089   1.429   2.137  0.6464 -0.8750 -0.5927
 8914SOL     OW38203   3.045   4.235   3.787 -0.0571 -0.1288  0.5884
 8914SOL    HW138204   2.974   4.224   3.850 -1.7479  1.1947 -1.0624
 8914SOL    HW238205   3.058   4.329   3.778  0.2153 -0.0091  2.2211
 8915SOL     OW38206   0.681   1.465  11.363 -0.1168  0.0777 -0.2202
 8915SOL    HW138207   0.736   1.411  11.420 -0.9655 -3.0539 -2.3916
 8915SOL    HW238208   0.649   1.521  11.434  0.5274  2.9810 -2.2292
 8916SOL     OW38209   0.894   0.847  14.777  0.2936 -0.0305 -0.1543
 8916SOL    HW138210   0.891   0.932  14.822  0.8937  0.1070 -0.3726
 8916SOL    HW238211   0.808   0.849  14.735 -0.2025 -0.1568  0.8618
 8917SOL     OW38212   2.876   0.103   4.445 -0.2631 -0.3979 -0.1572
 8917SOL    HW138213   2.897   0.026   4.497 -2.7293  1.0134  2.9921
 8917SOL    HW238214   2.781   0.103   4.433 -0.5784 -0.3288  2.3488
 8918SOL     OW38215   3.433   2.629   3.951  0.4606  0.1304  0.0299
 8918SOL    HW138216   3.419   2.621   3.857  0.1867  3.1231 -0.1865
 8918SOL    HW238217   3.476   2.715   3.952 -0.1326  0.4263  0.2694
 8919SOL     OW38218   3.958   3.632   3.842  0.0832  0.3065 -1.1801
 8919SOL    HW138219   3.879   3.666   3.884 -0.0604  0.6429 -1.7165
 8919SOL    HW238220   3.929   3.542   3.828 -0.3330 -0.0943  2.3070
 8920SOL     OW38221   2.766   0.554  10.366  0.1637 -0.1276  0.1724
 8920SOL    HW138222   2.817   0.481  10.331 -0.1267 -0.0695 -0.3598
 8920SOL    HW238223   2.705   0.586  10.300 -1.7795 -1.3147  1.3712
 8921SOL     OW38224   2.565   2.821  12.132  0.3278  0.1185 -0.8772
 8921SOL    HW138225   2.546   2.727  12.122 -0.0782 -0.0719  1.7770
 8921SOL    HW238226   2.659   2.804  12.141 -0.0465 -0.7075  1.4081
 8922SOL     OW38227   2.065   1.333   9.380 -0.2548 -0.1277 -0.4490
 8922SOL    HW138228   2.036   1.403   9.321 -1.7958 -0.8610 -0.5588
 8922SOL    HW238229   2.058   1.257   9.322 -0.2482 -0.3376 -0.1726
 8923SOL     OW38230   2.314   4.192   0.880 -0.5786  0.2929 -0.4993
 8923SOL    HW138231   2.309   4.161   0.971 -0.5698  2.2246  0.1558
 8923SOL    HW238232   2.287   4.283   0.884  0.9213  0.6031  2.6266
 8924SOL     OW38233   2.210   4.027   6.237  0.2562  0.4857 -0.2968
 8924SOL    HW138234   2.123   3.988   6.224  1.3407 -2.3845  0.9679
 8924SOL    HW238235   2.192   4.069   6.321 -3.3557  2.5754 -2.1140
 8925SOL     OW38236   2.793   1.584  11.158 -0.4731 -0.4777 -0.5973
 8925SOL    HW138237   2.811   1.577  11.252 -0.9159 -0.8911 -0.5453
 8925SOL    HW238238   2.718   1.642  11.161  0.4221  0.5828  0.9731
 8926SOL     OW38239   3.242   2.756   2.374 -0.3165  0.7129  0.2488
 8926SOL    HW138240   3.225   2.689   2.309 -0.3325  0.5852  0.3836
 8926SOL    HW238241   3.273   2.827   2.319  1.6952 -1.3772 -1.3390
 8927SOL     OW38242   0.814   3.146   4.879 -0.0864 -0.3404 -0.1192
 8927SOL    HW138243   0.742   3.181   4.931  1.4120  2.8978 -0.2047
 8927SOL    HW238244   0.886   3.161   4.940  0.2142 -0.4547 -0.4444
 8928SOL     OW38245   4.371   1.841   3.312  0.0112  0.5312  0.2367
 8928SOL    HW138246   4.379   1.915   3.251 -2.3015  1.5193  1.1640
 8928SOL    HW238247   4.277   1.826   3.312  0.1762 -0.5375  0.9448
 8929SOL     OW38248   4.015   2.378   2.109  0.2169  0.2805 -0.1413
 8929SOL    HW138249   3.922   2.389   2.088  0.2401 -0.6926 -0.7401
 8929SOL    HW238250   4.014   2.445   2.178  0.8150 -0.8957  1.0087
 8930SOL     OW38251   2.392   2.362  10.536 -0.4286 -0.5572 -0.0878
 8930SOL    HW138252   2.320   2.425  10.536 -1.5188 -1.8315 -1.6900
 8930SOL    HW238253   2.395   2.330  10.626 -0.9798  2.8865  1.1319
 8931SOL     OW38254   0.796   3.782   5.036 -0.1183 -0.1686  0.6065
 8931SOL    HW138255   0.705   3.754   5.040 -0.4229  0.8644  0.8814
 8931SOL    HW238256   0.842   3.717   4.982 -1.2839  0.9886 -1.7699
 8932SOL     OW38257   3.159   1.552  16.475  0.1279 -0.4013 -0.0099
 8932SOL    HW138258   3.229   1.582  16.417  1.9617 -4.2427  0.2713
 8932SOL    HW238259   3.193   1.581  16.560 -0.0106 -1.6442  0.4650
 8933SOL     OW38260   0.967   1.105   1.917 -0.6668  0.3319  0.7136
 8933SOL    HW138261   0.894   1.047   1.895 -0.0979 -0.8326  1.9544
 8933SOL    HW238262   1.029   1.037   1.943 -0.3087  1.1500  1.9701
 8934SOL     OW38263   4.330   1.729   8.370 -0.0022 -0.2524 -0.2104
 8934SOL    HW138264   4.406   1.768   8.414  0.2837 -1.0353 -0.0192
 8934SOL    HW238265   4.357   1.642   8.343 -2.9251 -0.5111 -2.2623
 8935SOL     OW38266   0.648   0.746   8.246  0.4009  0.2612 -0.3602
 8935SOL    HW138267   0.563   0.760   8.287  0.6116 -0.4761  0.3342
 8935SOL    HW238268   0.704   0.760   8.323  0.4757 -3.0362  0.2087
 8936SOL     OW38269   4.639   1.223   8.243 -0.0603  0.0078 -0.2509
 8936SOL    HW138270   0.000   1.268   8.257  0.3789 -0.5200 -1.2509
 8936SOL    HW238271   4.612   1.227   8.151  0.4258 -2.6190 -0.5051
 8937SOL     OW38272   1.856   3.491   1.184  0.2638  0.1352 -0.0218
 8937SOL    HW138273   1.861   3.485   1.088  1.0983 -0.8086  0.0807
 8937SOL    HW238274   1.859   3.398   1.204 -0.3247  0.2251  0.4754
 8938SOL     OW38275   3.108   3.401  13.482 -0.0270 -0.4480 -0.1470
 8938SOL    HW138276   3.109   3.420  13.576 -1.3812 -2.0097  0.1815
 8938SOL    HW238277   3.020   3.365  13.472  0.8957 -2.3494 -1.4317
 8939SOL     OW38278   3.608   0.374  14.803 -0.0517 -0.3261  0.0781
 8939SOL    HW138279   3.542   0.395  14.870  1.5934  3.2675  0.5473
 8939SOL    HW238280   3.651   0.459  14.804  2.8112 -1.7612 -1.2801
 8940SOL     OW38281   2.660   3.695   8.162 -0.3991  0.3494 -0.1133
 8940SOL    HW138282   2.577   3.720   8.202 -0.7072  0.3424 -0.7479
 8940SOL    HW238283   2.630   3.622   8.109  0.2692  1.0866 -1.4992
 8941SOL     OW38284   0.665   4.675  10.796 -0.4013  0.0606  0.4590
 8941SOL    HW138285   0.603   0.019  10.765  0.6156 -0.3453 -2.4346
 8941SOL    HW238286   0.723   0.003  10.854  1.1172  0.5943 -1.5193
 8942SOL     OW38287   3.660   0.155   4.549 -0.2956 -0.0841 -0.1634
 8942SOL    HW138288   3.704   0.212   4.613  0.4457  0.6979 -1.3615
 8942SOL    HW238289   3.641   0.217   4.479 -0.0278 -0.6047 -0.7041
 8943SOL     OW38290   0.319   0.398   8.476  0.0238  0.5146  0.3262
 8943SOL    HW138291   0.254   0.403   8.547 -0.5062 -1.0907 -0.0542
 8943SOL    HW238292   0.404   0.382   8.517 -0.1858 -0.4997  0.3584
 8944SOL     OW38293   0.985   4.168   4.978  0.1238  0.0320  0.2997
 8944SOL    HW138294   0.964   4.261   4.989  0.3400  0.0371  0.6669
 8944SOL    HW238295   0.897   4.132   4.971  0.2266 -0.2903  0.6453
 8945SOL     OW38296   0.899   1.439   0.409 -0.7917  0.4540 -0.2816
 8945SOL    HW138297   0.878   1.522   0.365 -1.0651  0.1073 -0.8154
 8945SOL    HW238298   0.964   1.405   0.348 -0.0981 -0.0941  0.7791
 8946SOL     OW38299   1.123   3.718  12.259  0.0349  0.2852 -0.0650
 8946SOL    HW138300   1.190   3.671  12.209  1.1129  0.4450  1.2576
 8946SOL    HW238301   1.173   3.786  12.303  0.1247  0.5698 -0.6121
 8947SOL     OW38302   1.716   3.743   9.419 -0.0169  0.3033 -0.2503
 8947SOL    HW138303   1.691   3.661   9.376  2.1555 -1.3476  1.5776
 8947SOL    HW238304   1.750   3.801   9.350  2.1580 -1.2971 -0.5403
 8948SOL     OW38305   1.860   3.963   7.029  0.1163 -0.1772  0.2777
 8948SOL    HW138306   1.769   3.960   7.058  0.5796 -0.9815  1.6559
 8948SOL    HW238307   1.860   3.886   6.972 -1.3449  1.3299 -1.7609
 8949SOL     OW38308   4.032   4.136  12.297  0.9623  0.0269 -0.3960
 8949SOL    HW138309   4.091   4.124  12.371  1.1607  1.5127 -0.3084
 8949SOL    HW238310   4.052   4.228  12.281  2.1314 -0.4981 -1.9153
 8950SOL     OW38311   3.756   0.701  16.998 -0.0036 -0.0597 -0.3962
 8950SOL    HW138312   3.837   0.684  17.045 -0.3482  2.1299  0.9921
 8950SOL    HW238313   3.750   0.796  17.009 -4.3041 -0.4204  0.1697
 8951SOL     OW38314   3.901   4.421  13.129  0.1057  0.5285 -0.7710
 8951SOL    HW138315   3.962   4.488  13.098  1.5355  0.5249  2.0169
 8951SOL    HW238316   3.865   4.395  13.044  0.8001  0.6148 -1.0919
 8952SOL     OW38317   2.148   1.054   8.463 -0.3385 -0.4431 -0.1026
 8952SOL    HW138318   2.210   1.091   8.526 -1.4431 -0.1220  0.8111
 8952SOL    HW238319   2.173   0.963   8.481 -0.7667 -0.2513  1.4848
 8953SOL     OW38320   0.926   0.278   3.296  0.7966  0.9265  0.2070
 8953SOL    HW138321   0.846   0.330   3.296 -0.5780 -1.1742  0.6258
 8953SOL    HW238322   0.940   0.247   3.386 -0.4384 -3.2044 -1.0395
 8954SOL     OW38323   2.325   0.813   8.499 -0.2319  0.4081  0.1717
 8954SOL    HW138324   2.392   0.779   8.558  1.5147 -0.1872 -2.1334
 8954SOL    HW238325   2.375   0.831   8.419  0.0778 -0.2798  0.2121
 8955SOL     OW38326   1.094   0.722   1.547 -0.0108 -0.8896  0.4206
 8955SOL    HW138327   1.186   0.737   1.525 -0.1217  0.1138  0.6639
 8955SOL    HW238328   1.082   0.631   1.519  0.1085 -1.4963  2.3403
 8956SOL     OW38329   4.651   1.939   3.320  0.0979  0.1561  0.0108
 8956SOL    HW138330   4.563   1.973   3.303  0.2994  0.3287 -0.6930
 8956SOL    HW238331   4.647   1.944   3.416 -1.9010  1.8548 -0.1764
 8957SOL     OW38332   1.930   0.420   5.003  0.0924  0.1805  0.1360
 8957SOL    HW138333   1.976   0.427   5.086  1.6596 -2.0156 -0.5478
 8957SOL    HW238334   1.912   0.513   4.993 -1.0585 -0.2474 -1.9703
 8958SOL     OW38335   2.009   3.249   3.348  0.0312  0.1612  0.4712
 8958SOL    HW138336   2.081   3.305   3.319  0.2748 -0.0442  0.6826
 8958SOL    HW238337   2.036   3.166   3.310 -0.9243  1.0969 -2.2582
 8959SOL     OW38338   0.511   0.007   8.864  0.0056  0.0375  0.1177
 8959SOL    HW138339   0.450   4.700   8.931  0.7354  0.9958  1.1906
 8959SOL    HW238340   0.591   0.033   8.910 -0.4822  0.0015  0.9681
 8960SOL     OW38341   4.647   2.508   4.656  0.1460 -0.2149 -0.6854
 8960SOL    HW138342   4.657   2.537   4.566  2.6267 -0.5839 -0.5408
 8960SOL    HW238343   0.012   2.524   4.694  0.9825 -0.5797 -2.4818
 8961SOL     OW38344   0.634   2.049   3.793  0.1882  1.0609 -0.2075
 8961SOL    HW138345   0.691   2.123   3.817  1.2314 -0.6404  2.5637
 8961SOL    HW238346   0.543   2.079   3.795 -0.3775 -0.5324 -3.1082
 8962SOL     OW38347   3.432   3.444  14.000  0.0094  0.0730 -0.2722
 8962SOL    HW138348   3.473   3.380  14.059 -0.4508 -0.7609 -0.8676
 8962SOL    HW238349   3.462   3.410  13.916 -0.3204 -0.9728  0.0434
 8963SOL     OW38350   1.517   0.299   2.768 -0.0725  0.3062 -0.1017
 8963SOL    HW138351   1.584   0.252   2.719 -1.4303  0.5075 -2.1448
 8963SOL    HW238352   1.438   0.254   2.736 -0.4510  0.6273  0.3624
 8964SOL     OW38353   3.870   3.034   3.342  0.1760  0.8133  0.2854
 8964SOL    HW138354   3.953   2.986   3.339 -1.7647 -2.5533 -0.3460
 8964SOL    HW238355   3.827   2.981   3.274 -2.6000  2.8325  0.4754
 8965SOL     OW38356   4.357   3.204   2.380  0.3560 -0.2821 -0.0825
 8965SOL    HW138357   4.367   3.298   2.369 -1.1680  0.0199  1.1701
 8965SOL    HW238358   4.285   3.196   2.442  0.2201 -0.0275 -0.2077
 8966SOL     OW38359   2.657   0.991   8.435  0.4766 -1.0043  0.1671
 8966SOL    HW138360   2.580   0.955   8.480  1.9626 -1.5456  2.2953
 8966SOL    HW238361   2.709   0.914   8.458  0.7529  0.0076  2.9608
 8967SOL     OW38362   0.603   0.451   5.388 -0.6141  0.2259 -0.0519
 8967SOL    HW138363   0.646   0.368   5.408 -1.1255 -0.4459 -1.8190
 8967SOL    HW238364   0.542   0.458   5.461 -1.3604  1.6105 -0.8001
 8968SOL     OW38365   3.673   3.606   4.302  0.4868 -0.2700  0.2867
 8968SOL    HW138366   3.584   3.636   4.284  0.0037 -0.7604  1.8021
 8968SOL    HW238367   3.695   3.617   4.395 -0.5736 -1.1118  0.6430
 8969SOL     OW38368   2.258   2.777  16.276 -0.2069 -0.1368 -0.6219
 8969SOL    HW138369   2.269   2.766  16.182  0.8869 -1.6414 -0.3154
 8969SOL    HW238370   2.193   2.710  16.296  1.0357 -0.8291  1.1495
 8970SOL     OW38371   1.955   4.217   3.451  0.1901  0.3050  0.1527
 8970SOL    HW138372   1.943   4.201   3.357 -1.6672  2.0805  0.0980
 8970SOL    HW238373   2.032   4.161   3.466  0.6715  0.8230 -0.3682
 8971SOL     OW38374   1.273   4.524   0.492  0.4145  0.3707  0.4544
 8971SOL    HW138375   1.258   4.553   0.582 -0.3270 -1.6993  0.9935
 8971SOL    HW238376   1.240   4.598   0.441  2.6772  0.5732 -0.6903
 8972SOL     OW38377   1.153   2.458   3.553 -0.4771 -0.0212 -0.1427
 8972SOL    HW138378   1.119   2.395   3.489  0.1693  0.8122 -1.3209
 8972SOL    HW238379   1.100   2.444   3.632  1.7503  1.8715  1.6701
 8973SOL     OW38380   3.760   2.038  14.574  0.0466 -0.0548  0.1883
 8973SOL    HW138381   3.793   1.951  14.549 -0.4755  0.2737 -1.6015
 8973SOL    HW238382   3.825   2.102  14.546  1.2258 -0.5139  1.8315
 8974SOL     OW38383   3.364   3.592   4.542 -0.2865 -0.1581 -0.2780
 8974SOL    HW138384   3.355   3.522   4.606 -0.6885 -0.9440 -1.2110
 8974SOL    HW238385   3.458   3.608   4.531 -0.2221 -1.4839 -1.6119
 8975SOL     OW38386   1.955   1.760   7.412 -0.4861 -0.1668 -0.2655
 8975SOL    HW138387   1.915   1.771   7.499 -0.7791  2.2734 -0.7071
 8975SOL    HW238388   2.014   1.835   7.407  0.9457 -1.2016  1.1702
 8976SOL     OW38389   2.022   0.018   6.809  0.5700  0.1216  0.0959
 8976SOL    HW138390   2.020   0.018   6.905 -1.6905 -0.2602  0.0539
 8976SOL    HW238391   1.930   4.721   6.790  0.9666  1.4369 -3.0115
 8977SOL     OW38392   4.316   0.390  10.311  0.6075  0.4041 -0.0118
 8977SOL    HW138393   4.291   0.358  10.224 -1.7871 -1.5053  1.3874
 8977SOL    HW238394   4.240   0.367  10.364  0.7231 -1.0048 -0.4648
 8978SOL     OW38395   3.688   3.309  15.663 -0.7179 -0.8032 -0.2117
 8978SOL    HW138396   3.659   3.245  15.598  0.5087  0.1472 -1.6766
 8978SOL    HW238397   3.702   3.385  15.607  0.1381 -1.5421 -0.9816
 8979SOL     OW38398   3.143   3.800   1.778 -0.0157 -0.2149  0.2275
 8979SOL    HW138399   3.151   3.722   1.833  1.7145 -0.7555 -0.7970
 8979SOL    HW238400   3.145   3.760   1.691  1.7958  0.2744  0.0596
 8980SOL     OW38401   3.344   2.514   6.220 -0.1662  0.0171 -0.0641
 8980SOL    HW138402   3.426   2.535   6.174 -0.6898 -0.5253 -1.2233
 8980SOL    HW238403   3.351   2.422   6.244 -0.0420  0.1973  0.5997
 8981SOL     OW38404   3.142   3.588  13.287 -0.2441 -0.0175  0.4686
 8981SOL    HW138405   3.050   3.613  13.272 -0.4611 -0.9086  0.3010
 8981SOL    HW238406   3.130   3.518  13.351  1.0398  0.1569  0.8975
 8982SOL     OW38407   2.869   3.221   5.411 -0.0583  0.0702 -0.0540
 8982SOL    HW138408   2.947   3.217   5.356 -1.0058  2.0587 -1.5621
 8982SOL    HW238409   2.907   3.216   5.499 -2.8249 -1.6026  1.0441
 8983SOL     OW38410   0.142   0.498  14.946 -0.1052  0.0293 -0.1753
 8983SOL    HW138411   0.237   0.507  14.957 -0.1357 -0.8763  0.7445
 8983SOL    HW238412   0.108   0.519  15.033  1.9770 -2.6790  1.2921
 8984SOL     OW38413   1.284   2.105  12.794 -0.7056 -0.6930  0.2425
 8984SOL    HW138414   1.214   2.154  12.837 -1.9370 -1.1766 -1.1553
 8984SOL    HW238415   1.267   2.138  12.705  0.6572  1.9239  0.9814
 8985SOL     OW38416   0.729   4.251  15.340 -0.4943  0.1127 -0.1812
 8985SOL    HW138417   0.785   4.325  15.318 -0.1625  0.3541  1.4670
 8985SOL    HW238418   0.686   4.235  15.256  2.5303 -1.2940 -1.4326
 8986SOL     OW38419   0.242   0.675   2.915 -0.8596  0.0763  0.4568
 8986SOL    HW138420   0.330   0.702   2.939  0.3667 -1.4048 -2.3199
 8986SOL    HW238421   0.191   0.755   2.902  0.7922  1.2594  1.2420
 8987SOL     OW38422   3.932   4.259  17.035  0.5233  0.0885 -0.5724
 8987SOL    HW138423   3.926   4.297  16.947  0.9449  2.8160  0.5932
 8987SOL    HW238424   4.002   4.196  17.019 -1.2180 -2.7322  2.8810
 8988SOL     OW38425   2.381   2.241  10.793 -0.0190  0.1615 -0.1217
 8988SOL    HW138426   2.464   2.277  10.824 -0.1417  1.0258 -0.8065
 8988SOL    HW238427   2.355   2.210  10.880  3.0059  0.7220  0.9819
 8989SOL     OW38428   1.454   4.388   9.435  0.3626  0.0122 -0.7745
 8989SOL    HW138429   1.532   4.437   9.407  0.7299 -1.0765 -1.6563
 8989SOL    HW238430   1.452   4.412   9.528 -1.0433  4.2448 -1.8749
 8990SOL     OW38431   4.343   0.203   5.655  0.5606 -0.1334  0.2406
 8990SOL    HW138432   4.253   0.197   5.688  0.1836 -0.0881 -0.7993
 8990SOL    HW238433   4.335   0.289   5.614 -0.1349 -0.4885 -0.3528
 8991SOL     OW38434   2.098   4.615   6.099  0.1669 -0.6023  0.0774
 8991SOL    HW138435   2.054   4.671   6.163  0.8376  2.6576 -2.2641
 8991SOL    HW238436   2.192   4.624   6.118  0.1209 -0.4358  0.2319
 8992SOL     OW38437   1.281   1.903  13.077  0.0819 -0.4430 -0.0742
 8992SOL    HW138438   1.311   1.994  13.072 -0.2868 -0.2888  0.5191
 8992SOL    HW238439   1.356   1.866  13.124 -1.5184  0.1617  2.9640
 8993SOL     OW38440   1.363   3.457  15.174  0.0312  0.3853  0.1901
 8993SOL    HW138441   1.418   3.481  15.100 -0.5725  0.7200 -0.1474
 8993SOL    HW238442   1.310   3.536  15.180  0.3134  0.5540  0.4408
 8994SOL     OW38443   4.273   0.904   0.847  0.1578  0.2103 -0.1930
 8994SOL    HW138444   4.287   0.941   0.934 -1.2848  0.5188 -0.0863
 8994SOL    HW238445   4.292   0.984   0.797  2.2926 -1.3020 -1.8107
 8995SOL     OW38446   1.058   4.404   7.300 -0.1692 -0.1134  0.3940
 8995SOL    HW138447   1.135   4.380   7.248 -0.5387  0.2863 -0.3340
 8995SOL    HW238448   1.095   4.492   7.313 -0.9974  0.4568 -1.0492
 8996SOL     OW38449   3.483   4.613   7.400 -0.0775 -0.4100 -0.0831
 8996SOL    HW138450   3.503   4.655   7.484 -3.2698  2.4743 -0.7620
 8996SOL    HW238451   3.425   4.540   7.419  1.7594 -1.3565  1.8587
 8997SOL     OW38452   3.129   1.184  10.365 -0.0174 -0.7266  0.3090
 8997SOL    HW138453   3.098   1.274  10.364 -1.4139 -1.2243 -1.4373
 8997SOL    HW238454   3.221   1.205  10.353 -0.6510  1.4518 -0.6020
 8998SOL     OW38455   1.003   4.455  12.965  0.2353 -0.0677  0.0300
 8998SOL    HW138456   1.000   4.546  12.992  0.7582  0.7593 -2.6624
 8998SOL    HW238457   1.090   4.421  12.985  1.4079  0.5091 -4.0571
 8999SOL     OW38458   1.605   4.135   3.070 -0.6623  0.7221 -0.0470
 8999SOL    HW138459   1.557   4.218   3.066  2.8321  2.7158 -0.8937
 8999SOL    HW238460   1.549   4.074   3.119  1.5820 -1.0415  0.3237
 9000SOL     OW38461   1.134   1.521   8.236  0.6314 -1.0923  0.3273
 9000SOL    HW138462   1.109   1.466   8.311 -0.0661  0.2135  1.0447
 9000SOL    HW238463   1.217   1.560   8.263  0.3171 -1.3796  1.6923
 9001SOL     OW38464   1.570   4.073   5.442 -0.6405  0.1736 -0.0876
 9001SOL    HW138465   1.518   4.126   5.381 -1.5120 -1.1341 -0.4890
 9001SOL    HW238466   1.520   3.992   5.432 -2.5439  1.2776  0.4167
 9002SOL     OW38467   4.604   4.331  11.112 -0.5311 -0.3811  0.2475
 9002SOL    HW138468   4.644   4.249  11.084  2.7571  2.0754 -2.2745
 9002SOL    HW238469   4.650   4.352  11.194  0.6834 -2.0007 -0.0217
 9003SOL     OW38470   3.799   2.173   8.782  0.5767  0.1273 -0.0032
 9003SOL    HW138471   3.765   2.119   8.711  0.3574 -2.0994  1.7921
 9003SOL    HW238472   3.786   2.115   8.856  1.9804 -0.4031 -0.1737
 9004SOL     OW38473   1.899   1.594  13.609  0.7684 -0.4071  0.4741
 9004SOL    HW138474   1.808   1.616  13.592  1.2820  1.0570 -0.3832
 9004SOL    HW238475   1.920   1.535  13.536  3.2469  0.7506  0.2403
 9005SOL     OW38476   2.523   1.501   3.022 -0.6291 -0.1788  0.2956
 9005SOL    HW138477   2.567   1.454   2.950  0.8170  2.1759 -0.3533
 9005SOL    HW238478   2.441   1.527   2.979 -0.2480  3.0184  1.5168
 9006SOL     OW38479   1.443   1.277   7.104  0.6233 -0.5226  0.0948
 9006SOL    HW138480   1.521   1.237   7.143  0.4911 -2.4609 -1.6544
 9006SOL    HW238481   1.457   1.371   7.119  0.5241 -0.8872  2.5808
 9007SOL     OW38482   3.972   0.280   3.890  0.0226 -0.1787 -0.7393
 9007SOL    HW138483   4.052   0.227   3.889  0.3948  0.3594  0.3712
 9007SOL    HW238484   4.002   0.368   3.912 -2.4289  0.1573  1.2661
 9008SOL     OW38485   0.662   2.977  12.254  0.0668 -0.2700  0.1466
 9008SOL    HW138486   0.591   2.957  12.316 -2.1683  1.3682 -1.8584
 9008SOL    HW238487   0.739   2.970  12.310  1.3977  0.4181 -1.6185
 9009SOL     OW38488   0.572   1.571   3.438  0.0786 -0.3336  0.3968
 9009SOL    HW138489   0.538   1.492   3.396  0.8446 -1.5373  2.0535
 9009SOL    HW238490   0.664   1.558   3.460  0.1573 -1.5481 -0.6873
 9010SOL     OW38491   0.629   3.479   6.772 -0.6036  0.3896  0.0101
 9010SOL    HW138492   0.720   3.483   6.742 -0.1476 -1.7258  1.0938
 9010SOL    HW238493   0.651   3.456   6.862 -1.3257 -3.2902 -0.7507
 9011SOL     OW38494   2.927   0.414   7.492  0.2328  0.5918  0.1188
 9011SOL    HW138495   2.970   0.464   7.424 -1.2723 -0.3078 -1.4893
 9011SOL    HW238496   2.919   0.325   7.458 -0.1602  0.6936 -0.0461
 9012SOL     OW38497   3.416   0.873   3.259  1.0039  0.2869  0.0709
 9012SOL    HW138498   3.351   0.885   3.189 -0.9836  1.2692  2.0797
 9012SOL    HW238499   3.441   0.781   3.261 -0.2325 -0.0812 -1.2294
 9013SOL     OW38500   3.133   3.670  15.663 -0.2668  0.1377 -0.3333
 9013SOL    HW138501   3.195   3.710  15.602 -1.0964  0.2977 -1.0773
 9013SOL    HW238502   3.054   3.714  15.632 -1.9361 -4.2187 -2.3841
 9014SOL     OW38503   4.459   2.947   9.451 -0.0545 -0.0166  0.2610
 9014SOL    HW138504   4.523   2.917   9.516  0.0064  1.0906  0.7086
 9014SOL    HW238505   4.418   3.021   9.496  0.5951  0.9693 -0.7658
 9015SOL     OW38506   1.324   0.696   2.418 -0.4577 -0.5470  0.3227
 9015SOL    HW138507   1.345   0.693   2.511  1.9412 -0.5754 -0.2112
 9015SOL    HW238508   1.400   0.746   2.389 -0.9749 -1.4829 -2.7328
 9016SOL     OW38509   3.492   3.175  11.250 -0.1797 -0.8851 -0.4872
 9016SOL    HW138510   3.452   3.149  11.333  2.6233 -0.8504  0.8659
 9016SOL    HW238511   3.575   3.200  11.290 -0.6865 -3.2713  1.9741
 9017SOL     OW38512   1.273   0.611   4.050 -0.0317  0.6226  0.7024
 9017SOL    HW138513   1.242   0.701   4.045 -2.3476 -0.1485  1.1883
 9017SOL    HW238514   1.367   0.630   4.048 -0.2721  1.4553 -1.7368
 9018SOL     OW38515   0.317   0.212  15.972  0.3724 -0.2874  0.7527
 9018SOL    HW138516   0.404   0.173  15.985  0.3139 -0.9920 -1.0068
 9018SOL    HW238517   0.334   0.297  15.931 -0.5337  0.2099  1.4284
 9019SOL     OW38518   1.524   1.845  11.946 -0.7091 -0.2452 -0.1421
 9019SOL    HW138519   1.586   1.912  11.974  2.0772 -2.0627 -1.9415
 9019SOL    HW238520   1.438   1.880  11.969 -0.9591 -1.0584  0.1596
 9020SOL     OW38521   4.281   0.328  12.808 -0.1585 -0.4096 -0.5182
 9020SOL    HW138522   4.302   0.370  12.725 -1.0909  0.6664 -0.2197
 9020SOL    HW238523   4.304   0.397  12.871  2.1360  0.5579 -2.3830
 9021SOL     OW38524   3.532   1.572   8.144  0.2360  0.1453  0.2520
 9021SOL    HW138525   3.494   1.581   8.231 -0.0632 -0.4350  0.1850
 9021SOL    HW238526   3.449   1.583   8.096  0.2219 -1.4082 -0.0875
 9022SOL     OW38527   3.561   2.359   8.781 -0.3983  0.8145 -0.0988
 9022SOL    HW138528   3.530   2.412   8.855  1.7884  0.6788  0.9161
 9022SOL    HW238529   3.624   2.298   8.819 -1.6639 -0.5705 -0.2155
 9023SOL     OW38530   0.577   2.677   9.099 -1.1032 -0.7297  0.6793
 9023SOL    HW138531   0.531   2.600   9.066  0.1027 -0.6062 -1.2826
 9023SOL    HW238532   0.504   2.737   9.116 -0.6841  0.4343 -1.6668
 9024SOL     OW38533   0.993   4.423   9.617  0.0925 -0.2877  0.1010
 9024SOL    HW138534   0.916   4.416   9.560  0.0483  0.7701  0.0238
 9024SOL    HW238535   0.950   4.422   9.702 -0.3770  2.1943 -0.0952
 9025SOL     OW38536   4.509   2.547   5.210 -0.0575 -0.1129 -0.9411
 9025SOL    HW138537   4.470   2.486   5.272  1.3445  1.1464  1.1958
 9025SOL    HW238538   4.516   2.488   5.135 -0.8804 -0.7968 -0.4767
 9026SOL     OW38539   0.915   0.197   5.141  0.3041  0.0253 -0.1690
 9026SOL    HW138540   0.891   0.289   5.137 -0.3589 -0.1574 -0.3464
 9026SOL    HW238541   0.838   0.140   5.138 -0.0280  0.4350  0.6586
 9027SOL     OW38542   3.849   0.897   8.647 -0.4062  0.2148  0.5732
 9027SOL    HW138543   3.806   0.882   8.563  0.2107  1.7782 -0.0292
 9027SOL    HW238544   3.898   0.815   8.657 -1.9706 -1.0106 -1.6491
 9028SOL     OW38545   1.232   3.836  14.362  0.5262  0.1390  0.3627
 9028SOL    HW138546   1.310   3.865  14.315  1.2891 -0.0111  1.5371
 9028SOL    HW238547   1.168   3.816  14.293  2.7883 -0.6068 -1.5288
 9029SOL     OW38548   2.996   1.879   7.213  0.2817  0.3194 -0.3984
 9029SOL    HW138549   3.037   1.793   7.205  1.4685  1.0083 -1.8321
 9029SOL    HW238550   2.949   1.885   7.130 -0.5885 -0.8693  0.0090
 9030SOL     OW38551   3.009   4.080   6.903  0.0488  0.1080 -0.3009
 9030SOL    HW138552   2.920   4.054   6.880  0.4611 -0.9864 -0.6741
 9030SOL    HW238553   3.015   4.031   6.985 -1.6465  0.4204  0.0032
 9031SOL     OW38554   1.043   2.026   5.400 -0.1079  0.1118 -0.0730
 9031SOL    HW138555   1.137   2.036   5.411  0.0848  0.0495 -1.7676
 9031SOL    HW238556   1.030   1.933   5.418  1.1985 -0.4280 -1.9075
 9032SOL     OW38557   4.255   2.841   4.349  0.1024 -0.4908  0.2509
 9032SOL    HW138558   4.220   2.818   4.435  1.6690  1.8812  1.5309
 9032SOL    HW238559   4.335   2.788   4.357  0.5927  0.0046 -1.4003
 9033SOL     OW38560   1.835   3.634   3.654 -0.4020 -0.6840 -0.3977
 9033SOL    HW138561   1.915   3.604   3.697 -0.3848 -2.2319 -1.5086
 9033SOL    HW238562   1.887   3.673   3.583 -1.4390  0.6612 -0.4349
 9034SOL     OW38563   3.659   1.220  11.478 -0.3628  0.8794 -0.2079
 9034SOL    HW138564   3.716   1.197  11.405 -1.2658 -1.2689 -0.2397
 9034SOL    HW238565   3.709   1.228  11.559 -1.2644  0.9880  0.3470
 9035SOL     OW38566   3.454   0.868   7.451  0.0067 -0.1923  0.2134
 9035SOL    HW138567   3.519   0.837   7.515 -0.2066 -1.0625  0.0115
 9035SOL    HW238568   3.389   0.798   7.461 -0.7783  0.3802 -0.8833
 9036SOL     OW38569   0.170   2.728   6.772  0.9928  0.0319  0.2768
 9036SOL    HW138570   0.079   2.752   6.789 -0.2613 -3.2924 -1.8859
 9036SOL    HW238571   0.162   2.669   6.697  0.1642 -1.6881  1.7169
 9037SOL     OW38572   0.858   2.513   6.376 -0.3368 -0.3455  1.1226
 9037SOL    HW138573   0.895   2.519   6.463  2.1718  2.1460 -0.1242
 9037SOL    HW238574   0.935   2.470   6.339  1.3799  3.2593  0.6188
 9038SOL     OW38575   2.473   4.475   6.279 -0.0498 -0.5087 -0.1647
 9038SOL    HW138576   2.414   4.404   6.253 -1.1763  0.5307 -0.4624
 9038SOL    HW238577   2.530   4.417   6.331  1.9300  1.6329  0.0264
 9039SOL     OW38578   2.625   1.033   3.117  0.1212 -0.5112 -0.2482
 9039SOL    HW138579   2.576   0.974   3.059 -0.3214 -0.0856 -0.3070
 9039SOL    HW238580   2.661   1.096   3.056  1.4201  0.1638  1.2247
 9040SOL     OW38581   1.064   0.235  15.366 -0.4822 -0.6489 -0.1143
 9040SOL    HW138582   1.074   0.310  15.425 -0.5933  0.8201 -1.9744
 9040SOL    HW238583   1.103   0.263  15.283 -1.8218  0.8473 -0.2317
 9041SOL     OW38584   3.639   0.965  14.193 -0.4440  0.2682 -0.2936
 9041SOL    HW138585   3.550   0.988  14.220 -0.2716  0.3107  0.2440
 9041SOL    HW238586   3.650   0.884  14.243  1.4124  1.0117  0.4891
 9042SOL     OW38587   3.520   3.493   9.171  0.0105  0.0291  0.7399
 9042SOL    HW138588   3.439   3.442   9.166 -0.1692  0.3713  0.2263
 9042SOL    HW238589   3.580   3.420   9.153 -0.2061  0.3396 -1.1752
 9043SOL     OW38590   2.038   0.024  10.338  0.1383 -0.0333 -0.1287
 9043SOL    HW138591   2.089   4.718  10.262  0.6113  0.5338 -0.0222
 9043SOL    HW238592   2.017   0.112  10.308  0.8767  0.4928  0.9022
 9044SOL     OW38593   2.618   1.301   4.357  0.2027 -0.3914  0.4386
 9044SOL    HW138594   2.536   1.256   4.336 -1.5691  2.6630  0.7882
 9044SOL    HW238595   2.622   1.367   4.289  1.2595 -1.3989 -0.4602
 9045SOL     OW38596   0.453   1.771  15.103 -0.5287 -0.0937 -0.0394
 9045SOL    HW138597   0.393   1.832  15.146 -1.0750 -2.3825  2.4774
 9045SOL    HW238598   0.459   1.804  15.013  1.9896 -1.4842 -0.3550
 9046SOL     OW38599   2.237   2.859   3.530 -0.0374 -0.8069  0.6577
 9046SOL    HW138600   2.251   2.789   3.594 -0.3406 -0.4164  1.1466
 9046SOL    HW238601   2.242   2.808   3.449  0.5767  3.2625 -1.8706
 9047SOL     OW38602   1.369   0.830  17.222  0.0373 -0.3069 -0.3898
 9047SOL    HW138603   1.360   0.923  17.201  2.0885  0.6851  3.0340
 9047SOL    HW238604   1.462   0.812  17.207 -0.2514 -1.0840 -1.2471
 9048SOL     OW38605   3.252   2.383   5.204  0.0303  0.0580 -0.2914
 9048SOL    HW138606   3.231   2.318   5.271 -1.4605 -1.2322 -2.0116
 9048SOL    HW238607   3.211   2.462   5.238 -0.0126  0.0326 -0.2849
 9049SOL     OW38608   4.593   2.000   7.671 -0.1243  0.0463  0.5978
 9049SOL    HW138609   4.534   2.029   7.741  0.3329  1.4105  0.4145
 9049SOL    HW238610   4.558   1.915   7.645 -1.5673  0.4804  1.1226
 9050SOL     OW38611   1.390   0.600  10.033  0.4898  0.1431 -0.0828
 9050SOL    HW138612   1.365   0.619   9.942  0.5493  1.8240  0.2569
 9050SOL    HW238613   1.425   0.684  10.062  0.3014  0.5578 -1.0373
 9051SOL     OW38614   0.053   4.617   4.219 -0.0633  0.3603  0.8244
 9051SOL    HW138615   0.045   4.698   4.269  0.3204  2.0369 -1.8825
 9051SOL    HW238616   0.064   4.560   4.295 -2.3649 -1.4919 -0.2473
 9052SOL     OW38617   2.322   2.607   4.026  0.3630  0.0892 -0.1471
 9052SOL    HW138618   2.341   2.675   4.091 -0.9066 -0.5963  0.9486
 9052SOL    HW238619   2.369   2.529   4.058  1.1527  1.0893  1.1378
 9053SOL     OW38620   0.828   2.512   4.207  0.6560  0.6038  0.0961
 9053SOL    HW138621   0.734   2.500   4.225  1.0562 -0.8283  1.1661
 9053SOL    HW238622   0.838   2.605   4.185  1.3249  0.8580  1.4861
 9054SOL     OW38623   0.929   1.640  13.709  0.3080  0.2095 -0.2133
 9054SOL    HW138624   0.847   1.592  13.708  0.4659  0.0017 -2.8930
 9054SOL    HW238625   0.981   1.588  13.771  1.6411  2.4735  0.5889
 9055SOL     OW38626   1.947   3.280  11.290  0.1917  0.0712 -0.0641
 9055SOL    HW138627   1.983   3.242  11.370 -0.6762  0.7420  0.6523
 9055SOL    HW238628   1.868   3.229  11.274  0.3817  0.6541 -2.8874
 9056SOL     OW38629   1.406   2.156  12.044 -0.1949  0.5867 -0.3724
 9056SOL    HW138630   1.447   2.242  12.052 -0.7341  0.7515  0.6081
 9056SOL    HW238631   1.409   2.143  11.949 -1.0526  0.4596 -0.3793
 9057SOL     OW38632   4.268   0.679   0.344 -0.5818 -0.3323  0.6852
 9057SOL    HW138633   4.251   0.700   0.252  0.3944  1.0735  0.8309
 9057SOL    HW238634   4.256   0.584   0.342  0.2271 -0.4845  3.0049
 9058SOL     OW38635   4.173   0.373   9.365  1.0345  0.2788 -0.0955
 9058SOL    HW138636   4.219   0.454   9.388 -1.0939  1.7346 -0.8493
 9058SOL    HW238637   4.242   0.335   9.311  0.3112  1.2788 -1.7286
 9059SOL     OW38638   1.111   3.341  15.874  0.1977  0.0021 -0.2536
 9059SOL    HW138639   1.134   3.264  15.822  0.9711  0.2487 -0.2870
 9059SOL    HW238640   1.047   3.378  15.814 -0.5561 -2.1123 -0.7381
 9060SOL     OW38641   0.127   3.198   2.411 -0.3063 -0.6116 -0.5505
 9060SOL    HW138642   0.170   3.207   2.326  1.3308  3.1699  0.6770
 9060SOL    HW238643   0.049   3.143   2.399 -0.7467  0.0934 -0.8983
 9061SOL     OW38644   1.267   0.347   3.994 -0.0406 -0.4237  0.7376
 9061SOL    HW138645   1.288   0.440   3.987  0.2212 -0.6167 -1.0966
 9061SOL    HW238646   1.325   0.309   3.928 -0.3091  0.1787  0.1576
 9062SOL     OW38647   1.218   0.547   0.556 -0.1180 -0.3309  0.3661
 9062SOL    HW138648   1.226   0.589   0.641 -0.5544  1.2957 -0.3906
 9062SOL    HW238649   1.308   0.521   0.533 -0.9209 -0.7312 -2.3633
 9063SOL     OW38650   1.789   1.478   7.109  0.0929  0.0010 -0.0895
 9063SOL    HW138651   1.790   1.451   7.201 -0.6778  1.5079  0.3638
 9063SOL    HW238652   1.827   1.395   7.081  0.6269  0.6520 -1.2683
 9064SOL     OW38653   3.192   3.501  11.607  0.3163 -0.0326  0.2450
 9064SOL    HW138654   3.245   3.536  11.536 -1.7269  3.7903  0.6467
 9064SOL    HW238655   3.111   3.550  11.609  0.9327  0.9701  0.8849
 9065SOL     OW38656   1.358   3.674  16.594 -0.5202 -0.2169 -0.0761
 9065SOL    HW138657   1.422   3.690  16.524 -0.7280 -2.3011 -0.7516
 9065SOL    HW238658   1.327   3.763  16.608 -2.1069 -1.0401  1.6243
 9066SOL     OW38659   3.087   0.541   5.288  0.1879  0.1233 -0.3089
 9066SOL    HW138660   3.086   0.469   5.352 -1.2227  0.8299  0.4639
 9066SOL    HW238661   3.177   0.574   5.283  0.1643  0.4938  1.7201
 9067SOL     OW38662   3.147   1.757   1.732 -0.6233 -0.3187  0.0428
 9067SOL    HW138663   3.117   1.829   1.677 -0.0039  0.9343  1.3406
 9067SOL    HW238664   3.191   1.807   1.801 -0.0797 -1.1048  0.2556
 9068SOL     OW38665   2.993   2.000   2.861 -0.0462 -0.1931  0.2121
 9068SOL    HW138666   3.061   2.043   2.913  0.9935 -1.5499 -0.0334
 9068SOL    HW238667   3.009   1.907   2.879 -0.3139 -0.3653 -0.4288
 9069SOL     OW38668   2.092   3.125  15.633 -0.3317  0.1713  0.0298
 9069SOL    HW138669   2.077   3.188  15.703  2.2745  0.8914 -0.0673
 9069SOL    HW238670   2.165   3.075  15.669 -0.7046 -0.2668  0.1774
 9070SOL     OW38671   0.261   2.663  15.408 -1.0544 -0.0478 -0.0998
 9070SOL    HW138672   0.351   2.639  15.385 -0.8475  1.3582 -0.7384
 9070SOL    HW238673   0.234   2.719  15.336 -2.4403 -2.6623 -1.6254
 9071SOL     OW38674   1.058   4.496  14.732 -0.1815  0.3422 -1.3363
 9071SOL    HW138675   1.043   4.418  14.678  1.0418 -1.2875  0.6823
 9071SOL    HW238676   0.973   4.540  14.732 -0.0315  0.6251 -0.4707
 9072SOL     OW38677   4.454   3.833   4.788  0.4705 -0.1514 -0.4574
 9072SOL    HW138678   4.377   3.785   4.758 -0.7843  1.1610  0.6316
 9072SOL    HW238679   4.477   3.785   4.867 -1.0640 -0.3500 -0.1197
 9073SOL     OW38680   0.299   1.982   1.145  0.0884  0.3598  0.2774
 9073SOL    HW138681   0.328   2.073   1.153  1.1304  0.0282  0.1962
 9073SOL    HW238682   0.334   1.946   1.064 -0.7836  1.4548 -0.5930
 9074SOL     OW38683   1.194   3.391   1.330  0.4264 -0.3816 -0.3656
 9074SOL    HW138684   1.155   3.344   1.404  1.2465  0.5330  0.6497
 9074SOL    HW238685   1.266   3.333   1.306 -1.1704 -0.9576 -3.7978
 9075SOL     OW38686   4.132   4.416   8.036 -0.6323  0.0926  0.2087
 9075SOL    HW138687   4.104   4.452   8.120 -0.6610  0.6793 -0.0540
 9075SOL    HW238688   4.223   4.391   8.053 -0.6674 -0.6766 -0.7219
 9076SOL     OW38689   2.439   4.362   9.380  0.4381 -0.3321  0.6573
 9076SOL    HW138690   2.366   4.301   9.387  0.5279 -0.6429 -0.9025
 9076SOL    HW238691   2.514   4.321   9.424  1.0510 -0.3069 -0.3483
 9077SOL     OW38692   2.825   1.984   4.290 -0.0973 -0.1207 -0.2434
 9077SOL    HW138693   2.737   1.996   4.254 -0.4764 -3.2210 -0.3650
 9077SOL    HW238694   2.807   1.972   4.383  2.0305 -3.4282 -0.2438
 9078SOL     OW38695   3.723   1.452  11.283 -0.1187 -0.1366 -0.0075
 9078SOL    HW138696   3.808   1.487  11.311  0.0925 -0.5948 -0.0803
 9078SOL    HW238697   3.739   1.452  11.189 -0.0760 -0.7054 -0.0021
 9079SOL     OW38698   0.554   1.368   5.259 -0.2029  0.2408  0.3263
 9079SOL    HW138699   0.495   1.366   5.183  0.2616 -0.9062  0.0018
 9079SOL    HW238700   0.501   1.392   5.335 -0.3873 -1.0955  0.6268
 9080SOL     OW38701   1.589   0.306  13.171 -0.1734 -0.0644  0.0612
 9080SOL    HW138702   1.662   0.246  13.184  0.5073  0.8854  0.5963
 9080SOL    HW238703   1.543   0.306  13.255  2.5819  1.9343  1.5889
 9081SOL     OW38704   4.136   4.221   6.570  0.1573 -0.7745  0.1485
 9081SOL    HW138705   4.170   4.132   6.562 -2.5532 -1.6418 -1.9364
 9081SOL    HW238706   4.209   4.275   6.598 -1.7958  2.1263 -0.2471
 9082SOL     OW38707   3.867   1.773   2.191 -0.2908  0.1423  0.0870
 9082SOL    HW138708   3.910   1.687   2.192  2.2707  1.3968 -0.3343
 9082SOL    HW238709   3.923   1.823   2.250 -1.6328  1.4063  0.2866
 9083SOL     OW38710   0.271   4.064   7.739 -0.4934  0.0370 -0.3450
 9083SOL    HW138711   0.323   3.989   7.709 -1.8256 -0.9127 -0.2912
 9083SOL    HW238712   0.203   4.017   7.786  0.3006 -1.6415 -0.8539
 9084SOL     OW38713   4.291   1.178  17.686 -0.7851 -0.2468  0.1957
 9084SOL    HW138714   4.358   1.192  17.619 -1.3172 -0.6333 -0.4158
 9084SOL    HW238715   4.312   1.093   0.034 -2.1432 -0.8703 -0.4364
 9085SOL     OW38716   2.461   4.520   7.212  0.1553 -0.1025 -0.1896
 9085SOL    HW138717   2.546   4.503   7.251 -1.7274 -0.9022  3.5991
 9085SOL    HW238718   2.435   4.592   7.269  0.6905 -0.6170  0.6982
 9086SOL     OW38719   0.374   1.525   4.794 -0.0569 -0.4316 -0.2797
 9086SOL    HW138720   0.281   1.510   4.807 -0.1747 -0.2586 -0.9497
 9086SOL    HW238721   0.391   1.487   4.708 -2.2295 -0.1364 -0.8206
 9087SOL     OW38722   1.860   1.774   1.103  0.0359 -0.2814 -0.0767
 9087SOL    HW138723   1.817   1.860   1.105  1.1909  0.2866  0.5214
 9087SOL    HW238724   1.865   1.747   1.195  2.6693 -1.2922 -0.5285
 9088SOL     OW38725   0.595   3.713   8.016  0.2322 -0.3406  0.4455
 9088SOL    HW138726   0.531   3.694   7.948  0.7123  0.7239 -0.2945
 9088SOL    HW238727   0.546   3.782   8.061  0.3641  0.1202 -0.1196
 9089SOL     OW38728   0.415   4.084   3.024 -0.2557 -0.5310  0.0681
 9089SOL    HW138729   0.495   4.138   3.024  0.0161 -0.9320 -0.3061
 9089SOL    HW238730   0.447   3.994   3.027 -1.9213 -1.1493 -0.9160
 9090SOL     OW38731   4.654   0.825  13.474  0.6630 -0.2181 -0.2765
 9090SOL    HW138732   4.720   0.875  13.522 -0.0061  0.9376 -0.5611
 9090SOL    HW238733   4.575   0.878  13.483 -0.8407 -2.4038 -0.5295
 9091SOL     OW38734   3.253   2.717   5.691 -0.0512  0.0188 -0.3028
 9091SOL    HW138735   3.313   2.723   5.765 -0.0390  0.1573 -0.3248
 9091SOL    HW238736   3.172   2.744   5.735  0.1955  1.1755 -0.5594
 9092SOL     OW38737   1.096   4.138   9.867 -0.1683 -0.0035 -0.0147
 9092SOL    HW138738   1.145   4.221   9.872  0.8469 -0.5722 -0.4940
 9092SOL    HW238739   1.048   4.140   9.949 -1.0976  0.2314 -0.5673
 9093SOL     OW38740   1.026   0.104   3.074  1.0418 -0.0568  0.7665
 9093SOL    HW138741   0.987   0.176   3.123  3.3451  2.1350 -0.5974
 9093SOL    HW238742   1.052   0.161   3.001 -2.6107  2.1825  1.2407
 9094SOL     OW38743   1.495   1.060   2.710 -0.1617 -0.2416 -0.0452
 9094SOL    HW138744   1.402   1.058   2.685 -0.7942 -0.0586  2.3087
 9094SOL    HW238745   1.533   1.091   2.628  0.6138  0.7816  0.7050
 9095SOL     OW38746   3.162   2.144   0.563 -0.4317  0.1806  0.0630
 9095SOL    HW138747   3.071   2.121   0.582 -0.8546  1.2075 -0.7482
 9095SOL    HW238748   3.158   2.148   0.467  0.1475 -1.1375 -0.0127
 9096SOL     OW38749   1.241   3.054   5.538 -0.1759 -0.0212 -0.1097
 9096SOL    HW138750   1.169   3.109   5.507 -0.6609 -2.1611 -2.7625
 9096SOL    HW238751   1.194   2.975   5.565  1.6935 -1.4766 -1.1186
 9097SOL     OW38752   0.088   3.070   2.988 -0.2848 -0.7541 -0.4470
 9097SOL    HW138753   0.095   3.131   2.914  2.2896  0.9479  1.2197
 9097SOL    HW238754   0.179   3.064   3.018 -0.8686  2.6933  1.9322
 9098SOL     OW38755   3.989   3.767   4.541 -0.5206 -0.5136 -0.1794
 9098SOL    HW138756   4.029   3.836   4.595 -2.5358  0.2736  0.2894
 9098SOL    HW238757   3.902   3.805   4.534 -0.6722 -0.5069  1.7598
 9099SOL     OW38758   1.014   0.786   9.395 -0.3818 -0.2085 -0.0080
 9099SOL    HW138759   0.970   0.788   9.310  0.6097  2.3357 -0.4678
 9099SOL    HW238760   0.941   0.764   9.453 -1.0243 -3.5417 -2.1315
 9100SOL     OW38761   4.431   2.910  16.058  0.1689  0.1092 -0.5787
 9100SOL    HW138762   4.386   2.993  16.041  1.4147  0.7055 -0.9425
 9100SOL    HW238763   4.507   2.919  16.000 -1.0007  2.8736 -1.7167
 9101SOL     OW38764   4.486   2.193  17.459  0.0675  0.0491 -0.1207
 9101SOL    HW138765   4.393   2.171  17.462 -0.0322  0.5434  0.2741
 9101SOL    HW238766   4.490   2.288  17.444 -2.8620 -0.0325 -1.3577
 9102SOL     OW38767   1.877   4.502   9.638 -0.1883  0.2832  0.5076
 9102SOL    HW138768   1.911   4.434   9.696  2.2439 -0.7475 -2.0897
 9102SOL    HW238769   1.858   4.567   9.705  1.0491  0.1908  0.9509
 9103SOL     OW38770   0.337   0.759   3.624 -0.2638 -0.2070 -0.0622
 9103SOL    HW138771   0.284   0.839   3.615 -0.6477 -0.6821 -1.8762
 9103SOL    HW238772   0.329   0.754   3.719  0.3507 -3.4845 -0.1788
 9104SOL     OW38773   1.238   3.846   8.654  0.1850 -0.1384  0.4836
 9104SOL    HW138774   1.310   3.873   8.597 -1.0246  0.5901 -0.6987
 9104SOL    HW238775   1.276   3.769   8.697 -0.5818 -0.4822  0.5396
 9105SOL     OW38776   3.873   0.288  13.699  0.6533 -0.2937 -0.2384
 9105SOL    HW138777   3.927   0.360  13.667  0.7422 -0.4825 -0.5111
 9105SOL    HW238778   3.934   0.229  13.742  0.4198 -1.5733 -1.6799
 9106SOL     OW38779   1.410   0.670   3.794 -0.9720  0.0928 -0.2385
 9106SOL    HW138780   1.315   0.669   3.805 -0.9047  0.4258  0.4041
 9106SOL    HW238781   1.420   0.629   3.708 -1.5933 -2.8060  1.0911
 9107SOL     OW38782   1.808   2.031   9.304 -0.2920  0.1914 -0.1707
 9107SOL    HW138783   1.813   2.124   9.280 -0.8150  0.3910  0.5087
 9107SOL    HW238784   1.802   2.035   9.399 -0.5922  2.8424 -0.2954
 9108SOL     OW38785   1.838   3.579   5.188  0.3336  0.5488  0.1042
 9108SOL    HW138786   1.875   3.525   5.258  0.9133  0.7519 -0.0418
 9108SOL    HW238787   1.812   3.508   5.129 -1.7380  1.6530 -0.2769
 9109SOL     OW38788   1.930   2.086   7.671 -0.3953  0.4665  0.0580
 9109SOL    HW138789   1.867   2.154   7.645 -2.6721 -2.6130 -2.5940
 9109SOL    HW238790   2.015   2.122   7.645  0.1155  1.4241  3.1668
 9110SOL     OW38791   1.741   3.364  11.562  0.2892  0.1209 -0.7230
 9110SOL    HW138792   1.763   3.271  11.569  0.7988  0.3912  1.1398
 9110SOL    HW238793   1.710   3.353  11.472  1.4782  0.6353 -1.2047
 9111SOL     OW38794   3.647   4.551   3.479 -0.7700 -0.0020  0.0206
 9111SOL    HW138795   3.730   4.514   3.509 -1.2100 -1.7332 -0.9108
 9111SOL    HW238796   3.630   4.602   3.558  1.1872  1.1198 -0.3040
 9112SOL     OW38797   3.335   4.290   9.757  0.4661  0.6808 -0.1888
 9112SOL    HW138798   3.357   4.339   9.837 -3.0438  1.6807  0.1697
 9112SOL    HW238799   3.399   4.219   9.762 -2.2838 -1.7213  0.2721
 9113SOL     OW38800   4.120   3.077   6.629  0.1414 -0.3746 -0.0751
 9113SOL    HW138801   4.058   3.066   6.557 -0.8925  0.1712  0.7173
 9113SOL    HW238802   4.054   3.119   6.686  0.5635  0.4055 -0.1584
 9114SOL     OW38803   1.941   4.090   4.004  0.0024 -0.1289  0.4406
 9114SOL    HW138804   1.988   4.172   3.988  1.3058 -1.6862 -3.6963
 9114SOL    HW238805   1.851   4.116   3.985 -0.6489 -2.1370  0.7853
 9115SOL     OW38806   1.475   3.766  11.559  0.3650  0.0074 -0.6783
 9115SOL    HW138807   1.391   3.723  11.573 -0.2491  1.2988 -0.3526
 9115SOL    HW238808   1.527   3.696  11.522 -0.8118 -1.7305  0.9576
 9116SOL     OW38809   1.199   1.608  14.577 -0.2402 -0.1734 -0.0157
 9116SOL    HW138810   1.194   1.582  14.669  1.8597  0.8326  0.3834
 9116SOL    HW238811   1.187   1.523  14.534 -0.8505  0.2118 -0.5974
 9117SOL     OW38812   4.075   4.430   8.310 -0.3602 -0.3752  0.3463
 9117SOL    HW138813   4.119   4.423   8.395 -1.0823  0.5864  0.7994
 9117SOL    HW238814   4.034   4.344   8.308  0.3017 -0.6324 -1.5055
 9118SOL     OW38815   1.554   2.532   4.310  0.1379  0.1558 -0.6809
 9118SOL    HW138816   1.519   2.588   4.240 -0.0062  1.4705  0.4475
 9118SOL    HW238817   1.519   2.577   4.387  0.2134 -0.2784 -0.3940
 9119SOL     OW38818   0.445   3.423   2.659  0.2502 -0.0836 -0.4570
 9119SOL    HW138819   0.422   3.396   2.571  1.8764  1.7142 -1.4375
 9119SOL    HW238820   0.518   3.362   2.672  0.1827  0.4096  2.3642
 9120SOL     OW38821   2.046   2.414  13.628  0.1118 -0.2913  0.2347
 9120SOL    HW138822   2.005   2.455  13.704  0.3010 -0.1260  0.2473
 9120SOL    HW238823   2.003   2.330  13.643  3.3018 -2.1967 -1.1623
 9121SOL     OW38824   1.584   2.087   2.539 -0.0336 -0.5073 -0.4231
 9121SOL    HW138825   1.670   2.120   2.567  1.2528 -3.0594 -1.3363
 9121SOL    HW238826   1.625   2.021   2.483  1.0604  0.5877 -0.9144
 9122SOL     OW38827   1.713   2.520   2.444 -0.2216 -0.5319  0.6071
 9122SOL    HW138828   1.709   2.610   2.410 -0.7270 -0.6465  0.3643
 9122SOL    HW238829   1.739   2.470   2.367  1.1429  0.3496  0.4946
 9123SOL     OW38830   2.999   1.697   3.816 -0.1337  0.2251 -0.1494
 9123SOL    HW138831   2.937   1.726   3.882 -0.1793  4.6490 -2.1274
 9123SOL    HW238832   3.079   1.682   3.866 -0.4917 -0.4526  0.2143
 9124SOL     OW38833   4.671   2.475   8.969 -0.3718 -0.4638 -0.1244
 9124SOL    HW138834   4.626   2.393   8.951 -1.2875  0.1125 -0.4749
 9124SOL    HW238835   0.014   2.479   8.899  0.6719 -1.5020  0.7902
 9125SOL     OW38836   3.627   3.337   0.332 -0.4340  0.4170 -0.0033
 9125SOL    HW138837   3.640   3.426   0.299 -1.8679  0.4356 -0.5020
 9125SOL    HW238838   3.667   3.284   0.262  0.6265  2.0716 -0.6619
 9126SOL     OW38839   3.917   2.653   6.806 -0.4197 -0.3844 -0.0907
 9126SOL    HW138840   3.843   2.700   6.769  0.2049  1.7207  1.3270
 9126SOL    HW238841   3.926   2.701   6.889  1.7136 -1.1590  0.1208
 9127SOL     OW38842   0.564   2.009   5.072 -0.8889 -0.6613 -0.4380
 9127SOL    HW138843   0.634   1.953   5.037  2.0505  1.8293  1.4000
 9127SOL    HW238844   0.595   2.037   5.158  2.1620 -2.2827 -1.0082
 9128SOL     OW38845   3.082   3.536  17.075 -0.2203 -0.4362  0.2315
 9128SOL    HW138846   3.157   3.494  17.034 -2.2234 -2.4770 -1.3839
 9128SOL    HW238847   3.111   3.617  17.116 -0.8860 -1.0463  1.9190
 9129SOL     OW38848   4.573   2.858   5.065  0.0603 -0.1721 -0.0808
 9129SOL    HW138849   4.657   2.843   5.021 -1.2097  1.6298 -3.1188
 9129SOL    HW238850   4.606   2.938   5.105  1.6446 -1.7691  1.8429
 9130SOL     OW38851   3.890   0.929  15.139  0.4021  0.3925  0.7332
 9130SOL    HW138852   3.810   0.980  15.119  1.3510  1.1886 -1.0233
 9130SOL    HW238853   3.846   0.855  15.182 -1.1153  1.2047  0.5934
 9131SOL     OW38854   3.195   1.403  15.539 -0.0815 -0.2013 -0.0258
 9131SOL    HW138855   3.199   1.314  15.573 -1.8801 -0.3273 -0.1258
 9131SOL    HW238856   3.108   1.399  15.499  0.3180 -0.8068 -0.8182
 9132SOL     OW38857   1.468   1.099   7.499 -0.7583  0.1597  0.1131
 9132SOL    HW138858   1.525   1.098   7.577  0.7713 -2.2986 -1.0245
 9132SOL    HW238859   1.410   1.174   7.514 -2.3116 -0.7981 -1.1967
 9133SOL     OW38860   2.238   1.724   2.726 -0.2333  0.2341  0.1349
 9133SOL    HW138861   2.281   1.683   2.800 -0.1730 -1.2376 -0.7175
 9133SOL    HW238862   2.287   1.805   2.713  1.5335 -0.5297  2.1408
 9134SOL     OW38863   0.566   1.132   0.594  0.5556 -0.5433 -0.4015
 9134SOL    HW138864   0.564   1.201   0.529 -0.4112  1.4644  1.7448
 9134SOL    HW238865   0.480   1.132   0.637  0.1135 -0.5431 -1.2897
 9135SOL     OW38866   3.201   1.132   8.569 -0.2279 -0.0595 -0.4230
 9135SOL    HW138867   3.200   1.082   8.650  0.1094  1.3109  0.4345
 9135SOL    HW238868   3.222   1.077   8.493 -0.1672 -0.0790 -0.3920
 9136SOL     OW38869   1.230   4.458   8.363  0.1687 -0.5334 -0.4127
 9136SOL    HW138870   1.183   4.384   8.402 -0.8493  0.8667  1.0213
 9136SOL    HW238871   1.279   4.483   8.441  0.2117 -0.1250 -0.5726
 9137SOL     OW38872   0.254   2.227  16.616 -0.2106  0.7158 -0.1944
 9137SOL    HW138873   0.282   2.209  16.706 -1.9776 -1.1275 -0.0189
 9137SOL    HW238874   0.337   2.227  16.569  0.6616 -1.5194  1.3361
 9138SOL     OW38875   3.117   1.951   1.568  0.3697 -0.7841  0.4070
 9138SOL    HW138876   3.059   1.989   1.502  1.8639  1.8319  0.5729
 9138SOL    HW238877   3.180   2.024   1.572 -0.4780 -0.1271  1.8843
 9139SOL     OW38878   0.043   1.811   6.762  0.1597  0.0176  0.1608
 9139SOL    HW138879   0.075   1.808   6.853  0.5055 -0.3867  0.0291
 9139SOL    HW238880   0.131   1.825   6.725  0.2572 -1.1569 -0.0330
 9140SOL     OW38881   1.248   2.627  17.439 -0.0315 -0.5352 -0.1801
 9140SOL    HW138882   1.251   2.533  17.424 -3.3315 -0.5561 -0.5967
 9140SOL    HW238883   1.270   2.659  17.351  1.5003  1.8515  1.0425
 9141SOL     OW38884   2.472   1.654   3.520  0.0007  0.4618 -0.1567
 9141SOL    HW138885   2.429   1.576   3.553  0.1215 -1.0350 -3.5367
 9141SOL    HW238886   2.405   1.679   3.457  0.9154 -0.9907 -1.7125
 9142SOL     OW38887   4.042   3.130   1.087 -0.0652  0.1504  0.1509
 9142SOL    HW138888   4.011   3.168   1.005  1.3104 -0.1178 -0.5102
 9142SOL    HW238889   4.078   3.045   1.059 -1.9645 -0.6508  0.1295
 9143SOL     OW38890   0.705   0.283   3.575 -0.6942  0.1605 -0.4996
 9143SOL    HW138891   0.621   0.324   3.596 -0.2886 -0.2477  1.9425
 9143SOL    HW238892   0.767   0.354   3.588  0.4834 -1.5536  3.5277
 9144SOL     OW38893   3.228   1.924   9.294 -0.0706  0.8705  0.0055
 9144SOL    HW138894   3.181   1.997   9.334  1.8747 -0.6029  4.9263
 9144SOL    HW238895   3.235   1.865   9.369 -1.1509 -0.2968 -0.8031
 9145SOL     OW38896   2.324   3.285   4.062  0.0283  0.3887  0.2741
 9145SOL    HW138897   2.313   3.191   4.048 -0.2580  0.3855  0.5007
 9145SOL    HW238898   2.320   3.284   4.158  0.2530  0.8489  0.2864
 9146SOL     OW38899   1.684   0.608   3.047 -0.3355 -0.4969  0.1663
 9146SOL    HW138900   1.637   0.691   3.059 -0.0185 -0.3024  0.0581
 9146SOL    HW238901   1.612   0.565   3.001 -1.3967  0.2653  1.1185
 9147SOL     OW38902   4.610   4.399   9.701  0.1494  0.3997 -0.1401
 9147SOL    HW138903   4.704   4.389   9.687  0.0392  2.3959 -2.3141
 9147SOL    HW238904   4.600   4.429   9.791 -0.8730  0.6449 -0.3344
 9148SOL     OW38905   2.624   2.021   2.139 -0.0847  0.4050  0.4035
 9148SOL    HW138906   2.602   1.997   2.049 -2.1592 -1.7868  1.4890
 9148SOL    HW238907   2.677   1.945   2.164  2.1307  1.9261  0.2665
 9149SOL     OW38908   2.838   1.707  10.167  0.6674 -0.3143 -0.5291
 9149SOL    HW138909   2.822   1.686  10.075 -0.4132  0.0501 -0.4220
 9149SOL    HW238910   2.798   1.634  10.214 -1.3148  1.3797  0.4040
 9150SOL     OW38911   0.924   0.971   2.359  0.5784  0.4626  0.3016
 9150SOL    HW138912   1.017   0.957   2.339 -0.1183 -0.8855 -1.9799
 9150SOL    HW238913   0.887   0.955   2.272  1.9924 -1.4718  0.0613
 9151SOL     OW38914   2.166   1.227   3.251  0.0729 -0.0365  0.8044
 9151SOL    HW138915   2.255   1.240   3.217 -0.4222 -2.4274 -1.3680
 9151SOL    HW238916   2.132   1.183   3.173  0.0269 -0.5716  1.1259
 9152SOL     OW38917   1.453   4.004   4.609  0.1625  1.0476  0.1148
 9152SOL    HW138918   1.482   3.948   4.537 -2.0340 -2.0831  1.6881
 9152SOL    HW238919   1.509   4.080   4.594 -0.2533  1.6537  1.6157
 9153SOL     OW38920   0.905   0.898   6.269 -0.3540 -0.1017 -0.4528
 9153SOL    HW138921   0.903   0.891   6.364  0.9583 -0.5901 -0.4629
 9153SOL    HW238922   0.871   0.987   6.271 -2.4959 -0.8997 -1.1946
 9154SOL     OW38923   2.206   3.503   5.138  0.0419 -0.0882 -0.0938
 9154SOL    HW138924   2.111   3.488   5.133 -0.1299  0.6903  0.7881
 9154SOL    HW238925   2.228   3.455   5.218 -0.1278 -0.4571 -0.2693
 9155SOL     OW38926   0.665   3.985  16.939  0.1497 -0.5739 -0.1145
 9155SOL    HW138927   0.617   4.058  16.977  1.3769 -0.0185  0.3551
 9155SOL    HW238928   0.740   3.984  16.998 -0.6096  0.0131  0.8499
 9156SOL     OW38929   2.568   2.304  11.215  0.0034  0.4394 -0.0559
 9156SOL    HW138930   2.476   2.288  11.194  0.0323  2.8476 -2.0569
 9156SOL    HW238931   2.562   2.396  11.241 -2.1432  0.8141 -1.9030
 9157SOL     OW38932   3.658   0.759   2.662 -0.7750  0.1731 -0.3309
 9157SOL    HW138933   3.674   0.853   2.663  0.2775 -0.0110  1.3006
 9157SOL    HW238934   3.631   0.751   2.571  1.4038  1.9631 -1.1380
 9158SOL     OW38935   3.967   2.340   4.629 -0.1353 -0.1771 -0.0810
 9158SOL    HW138936   3.986   2.322   4.721 -0.3351  0.3210  0.0579
 9158SOL    HW238937   3.897   2.276   4.617 -0.0921 -0.6761  2.3826
 9159SOL     OW38938   0.087   3.406   6.106  0.2775 -0.3376  1.0206
 9159SOL    HW138939   0.105   3.355   6.027  0.9676 -1.1262  1.6980
 9159SOL    HW238940   0.176   3.429   6.130  0.7939 -3.0263  1.6968
 9160SOL     OW38941   3.910   1.847   4.619  0.3103  0.6122 -0.2480
 9160SOL    HW138942   3.882   1.865   4.529 -1.6567 -1.7471 -0.1127
 9160SOL    HW238943   3.998   1.883   4.610  1.0157 -1.0166  0.0991
 9161SOL     OW38944   3.551   2.609   3.490  0.1664  0.3209  0.1685
 9161SOL    HW138945   3.535   2.515   3.482 -0.5898  0.4092  0.7344
 9161SOL    HW238946   3.495   2.638   3.417  0.5602 -0.2723 -0.3720
 9162SOL     OW38947   1.124   1.623   1.169 -0.8569  0.0041 -0.0950
 9162SOL    HW138948   1.139   1.528   1.165 -1.7510 -0.0616 -1.8569
 9162SOL    HW238949   1.150   1.641   1.259  0.6919 -0.1539 -0.5174
 9163SOL     OW38950   3.032   0.995   4.072 -0.4102  0.5230  0.7726
 9163SOL    HW138951   3.093   1.042   4.015 -1.8983  1.3225 -0.1557
 9163SOL    HW238952   3.075   0.910   4.059 -2.4291 -0.4716  0.5327
 9164SOL     OW38953   3.555   2.549   1.838  0.2747  0.4064  0.1635
 9164SOL    HW138954   3.570   2.629   1.787 -0.5601  0.1436 -0.5017
 9164SOL    HW238955   3.545   2.497   1.758 -0.0906  1.0905 -0.2331
 9165SOL     OW38956   2.564   0.526   9.934  0.5842  0.3352  0.1578
 9165SOL    HW138957   2.655   0.551   9.918  0.7908  0.1819  1.0748
 9165SOL    HW238958   2.564   0.554  10.025  1.5098  2.7781 -0.6108
 9166SOL     OW38959   2.210   4.580   9.342 -0.2744  0.1428  0.1965
 9166SOL    HW138960   2.200   4.628   9.425  2.1382  0.7568  0.1128
 9166SOL    HW238961   2.267   4.506   9.363 -1.8508  0.1786  4.7542
 9167SOL     OW38962   4.580   0.773   9.279  0.3400  0.5222 -0.2074
 9167SOL    HW138963   4.570   0.863   9.248  2.7446  0.0405 -2.4741
 9167SOL    HW238964   4.656   0.780   9.337  0.8537  0.0969 -0.8160
 9168SOL     OW38965   1.797   1.896  15.294  0.5471  0.2381 -0.1025
 9168SOL    HW138966   1.746   1.880  15.214 -1.0114  3.0829  0.3549
 9168SOL    HW238967   1.785   1.989  15.309  2.9196  0.3414  1.1352
 9169SOL     OW38968   3.758   3.534   5.691  0.1100  0.4237 -0.2172
 9169SOL    HW138969   3.820   3.467   5.662 -2.7805 -2.6154  0.7384
 9169SOL    HW238970   3.676   3.485   5.695 -0.2925  1.1848  0.9805
 9170SOL     OW38971   3.073   4.231   8.442 -0.3018  0.4708 -0.1286
 9170SOL    HW138972   3.150   4.208   8.391 -0.9842  2.1172 -1.9091
 9170SOL    HW238973   3.015   4.155   8.431 -1.4309  1.3881 -0.4917
 9171SOL     OW38974   2.906   2.340  15.072  0.2280 -0.1356 -0.8196
 9171SOL    HW138975   2.834   2.388  15.113 -0.3386 -0.5553 -1.3299
 9171SOL    HW238976   2.973   2.404  15.098  0.6162 -2.4666  3.9026
 9172SOL     OW38977   4.168   2.852   9.410  0.3295 -0.1229 -0.0811
 9172SOL    HW138978   4.170   2.760   9.436 -0.3980  1.0458  4.0784
 9172SOL    HW238979   4.256   2.857   9.373  0.0867  1.8989 -0.3759
 9173SOL     OW38980   4.399   2.790   5.278  0.2077 -0.3134  0.0842
 9173SOL    HW138981   4.421   2.704   5.243 -1.8443 -1.0578  0.5966
 9173SOL    HW238982   4.456   2.846   5.225 -0.7823 -1.5217 -2.2323
 9174SOL     OW38983   0.659   1.000   3.008  0.5501 -0.2670 -0.4183
 9174SOL    HW138984   0.631   1.089   3.028 -2.5334 -1.4966  0.7898
 9174SOL    HW238985   0.737   1.019   2.956  0.0577  1.0896 -0.6481
 9175SOL     OW38986   1.953   1.563  11.246  0.0128 -0.1003  0.0935
 9175SOL    HW138987   1.994   1.499  11.187  0.0910  1.2930 -1.3456
 9175SOL    HW238988   1.860   1.548  11.232 -0.1405  0.9116  0.0375
 9176SOL     OW38989   3.016   3.298   0.877  0.2382 -0.4645 -0.3259
 9176SOL    HW138990   3.078   3.229   0.851  0.6267  0.9744 -3.1425
 9176SOL    HW238991   3.041   3.369   0.819 -2.8308 -1.3281 -2.7109
 9177SOL     OW38992   3.140   0.188   3.064  0.0388  0.3509 -0.3301
 9177SOL    HW138993   3.189   0.119   3.109  1.8916  0.1406 -2.6591
 9177SOL    HW238994   3.063   0.136   3.042  1.1675 -1.5882  0.3032
 9178SOL     OW38995   0.564   2.357   4.550 -0.6577 -1.0265  0.4743
 9178SOL    HW138996   0.529   2.268   4.561  0.2688 -1.2033  2.0254
 9178SOL    HW238997   0.602   2.345   4.463  0.3962  0.5347  0.7209
 9179SOL     OW38998   3.983   2.534   2.307  0.3263  0.5178 -0.4638
 9179SOL    HW138999   4.016   2.621   2.285 -2.7378  1.9813  0.7352
 9179SOL    HW239000   3.987   2.539   2.403 -1.7210 -1.0359 -0.3004
 9180SOL     OW39001   3.928   2.813   9.592 -0.1532 -0.0589 -0.4557
 9180SOL    HW139002   4.020   2.795   9.612  0.5223  1.9847 -1.7436
 9180SOL    HW239003   3.943   2.888   9.535  0.5967 -0.4251 -0.7256
 9181SOL     OW39004   1.987   0.497   3.451  0.1842 -0.1353  0.7054
 9181SOL    HW139005   1.914   0.528   3.505 -0.6491 -1.9523  0.6245
 9181SOL    HW239006   1.937   0.526   3.375  0.0735 -1.1094  0.4091
 9182SOL     OW39007   2.026   2.719  12.826 -0.6696  0.3586 -1.4551
 9182SOL    HW139008   1.951   2.660  12.833 -0.5148  0.6195  2.3989
 9182SOL    HW239009   2.003   2.758  12.741  1.1946  0.6150 -1.8449
 9183SOL     OW39010   1.898   3.292   5.604  0.4025  0.0383 -0.6643
 9183SOL    HW139011   1.931   3.204   5.624  1.0454  0.6463  0.9349
 9183SOL    HW239012   1.904   3.340   5.686 -0.3057  0.7314 -1.0223
 9184SOL     OW39013   1.345   1.320  12.148  0.3679 -0.0364 -0.5989
 9184SOL    HW139014   1.352   1.385  12.078 -0.1249 -2.1123 -2.5823
 9184SOL    HW239015   1.388   1.368  12.219 -2.6475 -0.5582  1.5441
 9185SOL     OW39016   2.821   0.223   9.027 -0.0664 -0.2049 -0.0048
 9185SOL    HW139017   2.774   0.306   9.037 -0.2503 -0.0749 -1.9949
 9185SOL    HW239018   2.900   0.241   8.977 -0.2769  1.1106  0.1352
 9186SOL     OW39019   2.866   1.496   7.255  0.1262  0.3846 -0.2350
 9186SOL    HW139020   2.936   1.554   7.224 -0.0320  0.3824 -0.6039
 9186SOL    HW239021   2.910   1.413   7.271 -2.1344 -0.8392 -0.3600
 9187SOL     OW39022   1.197   4.392   0.801  0.5497  0.1955  0.0093
 9187SOL    HW139023   1.274   4.335   0.803  1.3563  1.2876  0.0495
 9187SOL    HW239024   1.250   4.467   0.777 -1.4272  1.5226 -0.1967
 9188SOL     OW39025   3.649   2.581   7.602  0.3194 -0.0323 -0.1529
 9188SOL    HW139026   3.626   2.668   7.636 -2.6777 -0.6890 -0.4586
 9188SOL    HW239027   3.628   2.590   7.509 -0.9098  0.2659  0.1464
 9189SOL     OW39028   2.609   4.493   6.677  0.0247 -0.6465 -0.2217
 9189SOL    HW139029   2.689   4.447   6.703  0.5997 -0.8271 -2.2996
 9189SOL    HW239030   2.651   4.558   6.621  0.1717  0.0892  0.7433
 9190SOL     OW39031   0.069   0.235   8.254 -0.1367 -0.0715  0.3882
 9190SOL    HW139032   0.163   0.251   8.246 -0.2897  0.8166  0.4334
 9190SOL    HW239033   0.057   0.173   8.326  0.0270 -0.1499  0.3481
 9191SOL     OW39034   0.802   3.354   6.238 -0.1554 -0.1860 -0.5980
 9191SOL    HW139035   0.800   3.340   6.333  0.7498 -2.1426 -0.8669
 9191SOL    HW239036   0.738   3.425   6.239 -0.5368 -0.5431  0.8599
 9192SOL     OW39037   0.992   4.568   6.459 -0.6224 -0.5088  0.1828
 9192SOL    HW139038   0.900   4.582   6.435 -0.6073 -0.1795  0.3173
 9192SOL    HW239039   1.023   4.603   6.375  2.1712  1.7073  2.1258
 9193SOL     OW39040   3.904   3.426   4.669 -0.0489  0.4560  0.0840
 9193SOL    HW139041   3.936   3.445   4.581  1.6395 -1.1001  0.3746
 9193SOL    HW239042   3.981   3.434   4.725 -1.8422  0.2757  2.5841
 9194SOL     OW39043   4.360   0.563  13.274  0.3193 -0.1839 -0.0659
 9194SOL    HW139044   4.422   0.556  13.347 -0.8566 -3.1553  0.6362
 9194SOL    HW239045   4.277   0.555  13.322 -0.1149  0.2346 -0.7422
 9195SOL     OW39046   3.141   2.334   5.598 -0.0445  0.3436 -0.4400
 9195SOL    HW139047   3.174   2.254   5.558 -0.4890 -0.0754  0.0262
 9195SOL    HW239048   3.207   2.397   5.570  0.3888 -0.0455 -0.2996
 9196SOL     OW39049   1.975   0.425   4.540  0.3992 -0.3469 -0.0559
 9196SOL    HW139050   1.978   0.406   4.447 -2.7239 -0.1813 -0.1783
 9196SOL    HW239051   2.061   0.457   4.569  1.0594 -2.3104  0.1403
 9197SOL     OW39052   3.474   3.488   9.602 -0.8022 -0.1353 -0.0584
 9197SOL    HW139053   3.553   3.500   9.550 -1.4523  3.2364 -0.3047
 9197SOL    HW239054   3.417   3.553   9.561  0.9233  1.0905 -0.5031
 9198SOL     OW39055   2.579   3.786   9.827 -0.2736 -0.0016 -0.6852
 9198SOL    HW139056   2.489   3.763   9.853 -1.1540  2.2182 -1.7510
 9198SOL    HW239057   2.575   3.882   9.826 -2.5416 -0.0788  0.3472
 9199SOL     OW39058   3.165   4.580   2.800  0.4076  0.4938  0.4361
 9199SOL    HW139059   3.115   4.656   2.772 -0.1164 -0.1043 -0.2446
 9199SOL    HW239060   3.254   4.606   2.776 -0.4361  1.3918 -1.7038
 9200SOL     OW39061   2.750   1.505   4.959  0.5004 -0.2413  0.3164
 9200SOL    HW139062   2.837   1.466   4.973  0.7410  0.7748  1.5571
 9200SOL    HW239063   2.707   1.426   4.925 -1.8527  1.4327 -0.5899
 9201SOL     OW39064   0.705   0.307   6.234  0.0778 -0.5578 -0.3232
 9201SOL    HW139065   0.660   0.273   6.311 -1.7320 -1.7249 -1.8880
 9201SOL    HW239066   0.774   0.359   6.274  0.2918 -0.8256 -0.3435
 9202SOL     OW39067   2.711   1.181  10.092 -0.5702 -0.2598  0.0483
 9202SOL    HW139068   2.630   1.139  10.121 -0.7339 -0.4290 -0.6641
 9202SOL    HW239069   2.663   1.237  10.030  0.0126  0.6802  0.4395
 9203SOL     OW39070   4.455   0.274   9.766 -0.0254  0.2088 -0.2717
 9203SOL    HW139071   4.391   0.247   9.700  0.2466 -0.4698 -0.2513
 9203SOL    HW239072   4.431   0.214   9.836 -1.1212 -0.0616 -0.8874
 9204SOL     OW39073   2.757   0.406   3.312  0.6958  0.0992  0.1966
 9204SOL    HW139074   2.696   0.466   3.355  1.6013  0.3363  1.1502
 9204SOL    HW239075   2.769   0.443   3.224 -0.2230 -0.2426 -0.0678
 9205SOL     OW39076   2.804   0.624   9.888 -0.6419  0.2879 -0.6664
 9205SOL    HW139077   2.854   0.600   9.810  1.2525 -1.6672  1.1419
 9205SOL    HW239078   2.830   0.563   9.956 -1.3313  0.8782  0.1265
 9206SOL     OW39079   3.512   2.168   6.835  0.1252 -0.0995 -0.1328
 9206SOL    HW139080   3.544   2.093   6.884 -1.7955 -0.6870  0.2072
 9206SOL    HW239081   3.447   2.132   6.774  0.1039 -1.1491  0.5137
 9207SOL     OW39082   4.602   3.563   7.215 -0.1710 -0.0840 -0.1666
 9207SOL    HW139083   4.550   3.581   7.137  0.8217  0.4800 -0.6840
 9207SOL    HW239084   4.596   3.468   7.228 -0.7958  0.3173  2.5328
 9208SOL     OW39085   0.309   2.794  16.349 -0.2694 -0.2190 -0.1658
 9208SOL    HW139086   0.335   2.882  16.321 -1.6215  0.6031  1.1796
 9208SOL    HW239087   0.330   2.752  16.266  0.5654 -2.0262  0.9576
 9209SOL     OW39088   1.400   0.037   1.508 -0.4811  0.3353  0.3077
 9209SOL    HW139089   1.442   0.113   1.548 -0.0106 -0.2774  0.9631
 9209SOL    HW239090   1.401   4.680   1.563  3.9345 -0.6456 -1.1914
 9210SOL     OW39091   2.150   0.780   5.066 -0.3100 -0.3074  0.2476
 9210SOL    HW139092   2.063   0.745   5.044 -0.5389 -0.5553  1.5205
 9210SOL    HW239093   2.163   0.844   4.997  0.7911  0.3620  1.0895
 9211SOL     OW39094   1.793   3.827   5.480  0.7813  0.1259 -0.2286
 9211SOL    HW139095   1.851   3.755   5.504  0.5407  0.1664  0.4796
 9211SOL    HW239096   1.706   3.795   5.506  0.9406 -0.6118 -0.5986
 9212SOL     OW39097   4.451   1.744   2.210  0.1166 -0.0647  0.3573
 9212SOL    HW139098   4.394   1.742   2.133 -2.9145  1.1350  2.6097
 9212SOL    HW239099   4.532   1.712   2.169 -0.1625  0.0829 -0.3000
 9213SOL     OW39100   1.099   4.613   2.521  0.1262  0.6560  0.1875
 9213SOL    HW139101   1.139   4.641   2.439 -0.9645  2.2682  0.2111
 9213SOL    HW239102   1.025   4.563   2.486  0.7078 -0.1523  0.1257
 9214SOL     OW39103   3.621   3.141   7.843 -0.5505  0.0653  0.1761
 9214SOL    HW139104   3.548   3.196   7.870 -0.0710  1.6454 -1.7719
 9214SOL    HW239105   3.587   3.117   7.757  1.5200 -1.5424 -0.2002
 9215SOL     OW39106   0.398   1.085   3.908  0.3584 -0.5613 -0.0561
 9215SOL    HW139107   0.394   0.992   3.886  3.9840 -0.4156 -1.3047
 9215SOL    HW239108   0.492   1.088   3.922  0.5375  0.7733 -1.5756
 9216SOL     OW39109   3.899   1.135   3.322 -0.1961  0.2518 -0.1182
 9216SOL    HW139110   3.931   1.130   3.412  0.1384  0.9906 -0.1945
 9216SOL    HW239111   3.812   1.096   3.334  0.5787 -1.9048 -1.3377
 9217SOL     OW39112   2.148   1.356   6.975  0.2891 -1.1374  0.1949
 9217SOL    HW139113   2.118   1.392   7.058  1.3597 -1.5200  0.7450
 9217SOL    HW239114   2.070   1.304   6.952 -0.9947  0.9287 -0.1500
 9218SOL     OW39115   1.890   0.360   1.097  0.5520 -0.3126  1.0517
 9218SOL    HW139116   1.848   0.275   1.082 -0.2804  0.1066  0.9709
 9218SOL    HW239117   1.948   0.347   1.172  0.1178  0.4305  1.5171
 9219SOL     OW39118   4.629   2.592   7.815  0.2387 -0.6443  0.0509
 9219SOL    HW139119   4.696   2.645   7.772 -0.7006  1.0695  0.7053
 9219SOL    HW239120   4.666   2.592   7.904  0.4406 -0.3133 -0.0340
 9220SOL     OW39121   3.522   1.135  13.185 -0.3763  0.1549  0.4041
 9220SOL    HW139122   3.570   1.213  13.214 -0.6003 -0.2695  1.9104
 9220SOL    HW239123   3.485   1.107  13.269  0.3457 -1.6317  0.1064
 9221SOL     OW39124   0.564   2.991   8.403 -0.4888  0.0509  1.0037
 9221SOL    HW139125   0.627   3.043   8.354  0.7455 -2.0442  0.3764
 9221SOL    HW239126   0.627   2.949   8.462  0.1969 -2.3501 -1.4471
 9222SOL     OW39127   2.462   0.017  13.808 -0.0187 -0.5829  0.0657
 9222SOL    HW139128   2.453   4.719  13.901 -1.0904 -2.4756 -0.4491
 9222SOL    HW239129   2.545   4.697  13.784  0.1434 -1.0478  1.4156
 9223SOL     OW39130   1.462   0.821   6.544  0.3022 -0.2406  0.0881
 9223SOL    HW139131   1.400   0.749   6.531  0.2631 -0.0835 -0.6219
 9223SOL    HW239132   1.531   0.786   6.600  0.9728  0.7183 -0.1372
 9224SOL     OW39133   1.889   3.716   0.869  0.1614 -0.1496 -0.1509
 9224SOL    HW139134   1.963   3.675   0.913  0.2414  1.6701  1.4044
 9224SOL    HW239135   1.848   3.631   0.853 -2.7318  1.0702  0.8012
 9225SOL     OW39136   1.087   4.311   5.731 -0.5529  0.3964  0.6893
 9225SOL    HW139137   0.996   4.336   5.721 -0.0201  2.2175  0.4464
 9225SOL    HW239138   1.092   4.302   5.827  0.8048  4.7480  1.0070
 9226SOL     OW39139   2.939   3.224   6.758 -0.0428 -0.2482  0.0998
 9226SOL    HW139140   2.898   3.261   6.680 -2.1047  0.3354  1.4654
 9226SOL    HW239141   2.954   3.307   6.804 -1.8353  1.2704 -2.0341
 9227SOL     OW39142   0.120   0.218   3.862  0.2455  0.4200  1.0684
 9227SOL    HW139143   0.139   0.171   3.943 -1.5026 -1.0057  0.6643
 9227SOL    HW239144   0.032   0.183   3.846  1.3476 -2.4303  1.2714
 9228SOL     OW39145   2.907   3.544   5.213  0.0020 -0.1207  0.0659
 9228SOL    HW139146   2.849   3.570   5.285  1.0848 -1.4894  1.4327
 9228SOL    HW239147   2.991   3.527   5.256 -0.3873  0.4776  1.0804
 9229SOL     OW39148   3.924   4.223   8.382 -0.6160  0.5448  0.1439
 9229SOL    HW139149   3.927   4.148   8.322  0.8794  1.1204 -0.5117
 9229SOL    HW239150   3.846   4.207   8.435 -0.6466  0.9743  0.2232
 9230SOL     OW39151   3.340   0.537   7.543  0.1932 -0.1901 -0.3446
 9230SOL    HW139152   3.323   0.443   7.553  0.7356 -0.1479  1.0162
 9230SOL    HW239153   3.398   0.514   7.471  0.6012 -1.0171  0.2423
 9231SOL     OW39154   2.114   1.975   7.273  0.3162 -0.5988  0.2406
 9231SOL    HW139155   2.196   2.024   7.263  1.0559 -2.0981 -1.0931
 9231SOL    HW239156   2.134   1.887   7.241 -0.2594 -0.0937 -1.5383
 9232SOL     OW39157   2.850   1.578   6.041 -0.0522 -0.3333 -0.0327
 9232SOL    HW139158   2.808   1.495   6.064 -1.7215  0.5337  0.0554
 9232SOL    HW239159   2.900   1.563   5.961  1.9795  1.5271  0.8722
 9233SOL     OW39160   3.011   4.035   1.818  0.1694  0.2677 -0.0767
 9233SOL    HW139161   3.048   3.947   1.830 -1.1000 -0.3322 -0.5597
 9233SOL    HW239162   3.023   4.052   1.724  0.9014  0.1061 -0.0157
 9234SOL     OW39163   1.313   2.612   5.277  0.0802 -0.2370 -0.4679
 9234SOL    HW139164   1.228   2.654   5.287 -0.3849 -1.1752 -0.5042
 9234SOL    HW239165   1.300   2.525   5.315  1.0597 -0.1750  0.0122
 9235SOL     OW39166   2.303   4.298   7.059 -0.1302  0.4741 -0.4486
 9235SOL    HW139167   2.377   4.357   7.048  0.5601 -0.3500 -0.1800
 9235SOL    HW239168   2.241   4.332   6.994 -0.6707 -0.0570 -0.2138
 9236SOL     OW39169   3.423   3.165   1.005  0.3422 -0.2203  0.7173
 9236SOL    HW139170   3.477   3.107   1.060  1.3616  0.6983  0.6754
 9236SOL    HW239171   3.407   3.229   1.074 -0.7369  0.9338 -0.6257
 9237SOL     OW39172   0.362   0.431   4.654  0.0107 -1.2597 -0.1951
 9237SOL    HW139173   0.401   0.495   4.594  2.1259 -0.1904  2.2645
 9237SOL    HW239174   0.432   0.432   4.720 -1.7634 -2.1231  1.7078
 9238SOL     OW39175   0.772   0.934   1.921 -0.4065  0.6487  0.0571
 9238SOL    HW139176   0.779   0.960   2.013  1.1351 -1.7801  0.6229
 9238SOL    HW239177   0.689   0.886   1.926  0.7914 -1.5250 -1.0487
 9239SOL     OW39178   4.540   1.275  13.607 -0.1659  0.4038 -0.2555
 9239SOL    HW139179   4.579   1.253  13.691  0.7419  0.8769 -0.5596
 9239SOL    HW239180   4.445   1.261  13.616  1.0065 -6.8435  1.2661
 9240SOL     OW39181   0.027   4.306  16.691  0.3899 -0.2682 -0.0205
 9240SOL    HW139182   0.065   4.245  16.628 -1.9796 -0.1406 -1.5970
 9240SOL    HW239183   0.037   4.396  16.660 -2.4198  0.0500 -0.0127
 9241SOL     OW39184   4.717   3.412   3.133  0.5701 -0.5833 -0.0175
 9241SOL    HW139185   0.041   3.388   3.053  1.6782 -0.6783  0.6397
 9241SOL    HW239186   0.064   3.453   3.187 -0.1642 -1.2453  1.4285
 9242SOL     OW39187   0.005   4.663   9.206 -0.3291  0.9632 -0.1504
 9242SOL    HW139188   4.642   4.628   9.231  0.9948 -3.1928 -1.4502
 9242SOL    HW239189   4.704   0.032   9.185  1.0842  1.9417  2.5886
 9243SOL     OW39190   0.634   4.710   1.233  0.1840 -0.2375  0.2379
 9243SOL    HW139191   0.667   4.678   1.317  1.4695  3.8770  1.3056
 9243SOL    HW239192   0.582   0.063   1.260  0.3580  0.0142 -0.1123
 9244SOL     OW39193   0.381   3.186  10.534 -0.0819 -0.2906  0.1084
 9244SOL    HW139194   0.457   3.196  10.478 -0.4563  2.5037  0.0891
 9244SOL    HW239195   0.409   3.237  10.610  1.1333 -1.4543  0.4217
 9245SOL     OW39196   0.711   2.630   5.645  0.3466 -0.2507  0.1800
 9245SOL    HW139197   0.722   2.725   5.650  1.2629 -0.4123  1.3057
 9245SOL    HW239198   0.680   2.611   5.556  0.6952 -2.7903  0.5898
 9246SOL     OW39199   2.450   2.413   8.005  0.1564  0.1858  0.5157
 9246SOL    HW139200   2.426   2.430   7.914  1.5524 -0.1237  0.0863
 9246SOL    HW239201   2.439   2.318   8.015 -0.9577  0.1435 -1.1668
 9247SOL     OW39202   2.192   1.735  11.594 -0.7496  0.0803 -0.2715
 9247SOL    HW139203   2.161   1.810  11.646  2.0292  1.8693 -1.1919
 9247SOL    HW239204   2.127   1.671  11.622 -0.0620 -0.1019  0.9078
 9248SOL     OW39205   1.354   0.319   6.480  0.0708  0.2723 -0.4234
 9248SOL    HW139206   1.417   0.348   6.414  1.4362 -1.1285  0.2578
 9248SOL    HW239207   1.296   0.256   6.438  0.8148 -1.6458  1.4316
 9249SOL     OW39208   2.574   4.307   7.721 -0.2267 -0.2467 -0.3517
 9249SOL    HW139209   2.520   4.361   7.664  1.9387  1.2368 -1.0002
 9249SOL    HW239210   2.659   4.351   7.716 -0.9401  1.1984  0.2495
 9250SOL     OW39211   1.595   0.950   8.757  0.1573 -0.1617  0.3047
 9250SOL    HW139212   1.550   1.028   8.724 -0.5174 -1.2180 -1.2639
 9250SOL    HW239213   1.533   0.882   8.731  0.7679 -1.3993  2.1358
 9251SOL     OW39214   3.146   4.529   8.012 -0.1121 -0.6299  0.3754
 9251SOL    HW139215   3.199   4.603   8.042  0.4095 -1.0513  0.5003
 9251SOL    HW239216   3.175   4.515   7.922  0.3871 -1.6303  0.6849
 9252SOL     OW39217   2.886   0.223   5.951 -0.3538 -0.6240 -0.1536
 9252SOL    HW139218   2.980   0.240   5.950 -0.2626 -1.0011  1.2585
 9252SOL    HW239219   2.880   0.128   5.945 -0.7877 -0.6390  0.5180
 9253SOL     OW39220   2.572   2.871   3.632  0.3462 -0.0885 -0.4456
 9253SOL    HW139221   2.647   2.835   3.679 -0.5263  0.0025  0.9872
 9253SOL    HW239222   2.493   2.830   3.667  1.4523 -2.7927 -1.1077
 9254SOL     OW39223   4.136   1.768   7.009 -0.1410  0.1106 -0.0829
 9254SOL    HW139224   4.202   1.699   7.019 -0.4705 -0.2324 -0.2683
 9254SOL    HW239225   4.199   1.836   6.984  0.4094  0.0334  1.0858
 9255SOL     OW39226   1.264   2.355   5.395 -0.1853  0.4949  0.6812
 9255SOL    HW139227   1.223   2.354   5.482  1.9018 -0.4380  1.6429
 9255SOL    HW239228   1.201   2.306   5.341  1.6456 -0.7319 -0.3307
 9256SOL     OW39229   1.875   4.133   3.721  0.0656  0.0616 -0.7510
 9256SOL    HW139230   1.860   4.151   3.628  1.3621  0.9372 -0.7891
 9256SOL    HW239231   1.970   4.130   3.729 -0.2175  1.7158  3.1828
 9257SOL     OW39232   4.075   0.002  14.488  0.3643  0.4010 -0.2957
 9257SOL    HW139233   4.019   0.053  14.430  1.5249  0.2126 -1.5677
 9257SOL    HW239234   4.024   0.003  14.569 -1.0119 -1.7006 -1.1096
 9258SOL     OW39235   2.960   0.835   2.401 -0.2853  0.1196 -0.5187
 9258SOL    HW139236   2.920   0.750   2.421  1.2118 -0.3318  0.5093
 9258SOL    HW239237   3.016   0.811   2.327  0.7296  1.3974 -0.1629
 9259SOL     OW39238   0.728   0.734  10.016  0.2246  0.4032  0.1304
 9259SOL    HW139239   0.786   0.808   9.999  0.1432  0.2425 -0.8718
 9259SOL    HW239240   0.648   0.785  10.029  0.1749  0.4052 -0.1824
 9260SOL     OW39241   2.476   2.516   0.453 -0.0434 -0.0604 -0.1897
 9260SOL    HW139242   2.521   2.499   0.370  1.6201  0.4982  0.5945
 9260SOL    HW239243   2.481   2.611   0.463  0.4361  0.0775 -1.5941
 9261SOL     OW39244   0.472   2.640   6.709  0.2782  0.1918 -0.2787
 9261SOL    HW139245   0.425   2.680   6.637 -2.0670 -1.8012  0.1314
 9261SOL    HW239246   0.407   2.657   6.778 -1.7019  2.5371 -2.7475
 9262SOL     OW39247   0.593   0.345   5.690 -0.7551 -0.3369  0.3521
 9262SOL    HW139248   0.556   0.259   5.712 -1.8420 -0.6699 -2.7166
 9262SOL    HW239249   0.509   0.388   5.676 -0.4863  0.5041  1.3668
 9263SOL     OW39250   1.232   0.125  10.111  0.4987 -0.4627  0.2468
 9263SOL    HW139251   1.166   0.117  10.180 -0.2943  0.0643 -0.4453
 9263SOL    HW239252   1.278   0.202  10.143 -0.5065 -0.1654  0.9945
 9264SOL     OW39253   0.612   1.676  17.250  0.1971  0.1682  0.0213
 9264SOL    HW139254   0.660   1.633  17.179  2.2746 -0.9132  2.0798
 9264SOL    HW239255   0.641   1.634  17.332 -3.2107 -1.0669  0.6179
 9265SOL     OW39256   0.918   3.121   2.798 -0.7314 -0.5732  0.5098
 9265SOL    HW139257   0.912   3.217   2.794  0.7287 -0.4767  0.4720
 9265SOL    HW239258   0.869   3.092   2.722  0.4605  0.4217 -0.6258
 9266SOL     OW39259   0.991   2.259   4.877  0.1372 -0.3317 -0.0139
 9266SOL    HW139260   0.926   2.325   4.854 -1.9037 -2.4418 -0.2333
 9266SOL    HW239261   1.062   2.278   4.815  0.8548  1.4965  1.3407
 9267SOL     OW39262   0.226   1.702   4.543 -0.0382  0.1433  0.0381
 9267SOL    HW139263   0.289   1.685   4.473 -0.7442  0.1552 -0.6020
 9267SOL    HW239264   0.157   1.640   4.520  0.9685  0.4909 -3.8996
 9268SOL     OW39265   2.166   2.664   5.483 -0.2739 -0.2264 -0.9292
 9268SOL    HW139266   2.148   2.756   5.465  0.0065  0.0524  0.2057
 9268SOL    HW239267   2.259   2.642   5.474  0.4329  1.1000  2.8651
 9269SOL     OW39268   0.406   1.197   5.631 -0.7005 -0.4751 -0.1649
 9269SOL    HW139269   0.451   1.113   5.628 -1.1704 -0.7286 -0.0588
 9269SOL    HW239270   0.465   1.264   5.596  1.5974 -1.9018  0.8984
 9270SOL     OW39271   0.012   0.486   5.474  0.0204 -0.0285 -0.7828
 9270SOL    HW139272   0.011   0.440   5.391  0.7596  0.7835 -1.2451
 9270SOL    HW239273   4.675   0.560   5.458  2.5413  1.9753 -0.8188
 9271SOL     OW39274   2.006   0.080   4.070 -0.1968 -0.4884 -0.0621
 9271SOL    HW139275   1.947   0.109   4.140  1.2845 -1.0082  1.4072
 9271SOL    HW239276   2.023   0.166   4.032  0.7919  0.1837  1.8689
 9272SOL     OW39277   0.071   0.094   1.962 -0.2746 -0.4899 -0.4761
 9272SOL    HW139278   0.133   0.043   2.014  1.5590  0.9136 -1.3062
 9272SOL    HW239279   0.111   0.109   1.877 -0.3794  2.1866 -0.0508
 9273SOL     OW39280   0.263   1.979   4.027  0.1683 -0.5083  0.1829
 9273SOL    HW139281   0.303   1.946   3.946  0.2731  0.6549 -0.2443
 9273SOL    HW239282   0.182   2.024   4.001  0.0441 -0.9697 -0.2488
 9274SOL     OW39283   3.986   3.529   8.319  0.4234  0.1968  0.2450
 9274SOL    HW139284   4.001   3.517   8.413  0.8646 -1.9719 -0.1248
 9274SOL    HW239285   4.021   3.449   8.280  0.9732  0.9928 -0.8941
 9275SOL     OW39286   1.660   0.023  17.281  0.2676 -0.2292  0.1976
 9275SOL    HW139287   1.659   0.046  17.188 -1.4215 -0.7999  0.0786
 9275SOL    HW239288   1.581   4.694  17.298  0.4928 -0.3902  0.7577
 9276SOL     OW39289   1.286   1.929   7.670 -0.0773 -0.1088  0.4972
 9276SOL    HW139290   1.223   1.872   7.626  1.3184 -0.1109 -1.5050
 9276SOL    HW239291   1.274   2.010   7.619  2.1600 -0.0897  0.0141
 9277SOL     OW39292   0.994   3.392  16.588  0.1918  0.0333  0.4467
 9277SOL    HW139293   0.944   3.375  16.509 -0.0047  2.6327  0.0090
 9277SOL    HW239294   1.077   3.389  16.540  0.9683 -1.6960  1.8678
 9278SOL     OW39295   1.472   1.392   4.107  0.3157 -0.3913  0.1958
 9278SOL    HW139296   1.513   1.425   4.028  0.8928 -0.4110  0.4850
 9278SOL    HW239297   1.456   1.479   4.144  0.4467 -0.3088  0.0576
 9279SOL     OW39298   1.155   0.430   9.461  0.0726  0.1511  0.1065
 9279SOL    HW139299   1.089   0.412   9.527 -0.0923  2.9031  0.6833
 9279SOL    HW239300   1.203   0.508   9.488  0.5112 -0.0291 -0.1516
 9280SOL     OW39301   1.423   0.275   7.057 -0.1187 -0.1750 -0.5331
 9280SOL    HW139302   1.419   0.225   7.139  0.3051  0.8055  0.0859
 9280SOL    HW239303   1.513   0.306   7.054 -0.7980  1.7811 -0.8872
 9281SOL     OW39304   3.592   1.950   7.737  0.1169  1.0403 -0.0613
 9281SOL    HW139305   3.509   1.978   7.776  0.9270  2.7875  0.3884
 9281SOL    HW239306   3.611   2.022   7.677 -3.3204  4.4616  2.9632
 9282SOL     OW39307   4.287   3.443   6.772 -0.4381 -0.7805 -0.2248
 9282SOL    HW139308   4.380   3.462   6.759 -0.1571 -0.2794  2.4390
 9282SOL    HW239309   4.267   3.373   6.711  0.5645 -1.5070  0.2850
 9283SOL     OW39310   0.875   2.660   8.050 -0.3512  0.0786 -0.0695
 9283SOL    HW139311   0.871   2.588   8.113 -1.2391  1.0356  0.9709
 9283SOL    HW239312   0.923   2.732   8.090  0.0425  0.4928 -1.2837
 9284SOL     OW39313   1.024   4.312   9.130 -0.3904  0.4359  0.0305
 9284SOL    HW139314   0.945   4.366   9.123 -0.0228  1.0262  0.4255
 9284SOL    HW239315   1.039   4.312   9.224  1.0918  0.8534 -0.2052
 9285SOL     OW39316   0.314   2.994   3.792  0.7376  0.1652  0.2118
 9285SOL    HW139317   0.219   2.985   3.796  1.1894 -4.6075 -0.8376
 9285SOL    HW239318   0.344   2.906   3.769 -0.6272 -0.5347  1.1261
 9286SOL     OW39319   3.789   0.053   6.747  0.3134 -0.5725  0.2064
 9286SOL    HW139320   3.764   0.140   6.713 -0.7896 -0.2870  1.7549
 9286SOL    HW239321   3.885   0.062   6.751  0.1690  0.7261  0.8647
 9287SOL     OW39322   0.567   3.906   9.932  0.2912  0.2069  0.2945
 9287SOL    HW139323   0.638   3.844   9.949  0.6645  0.2448 -1.1944
 9287SOL    HW239324   0.611   3.974   9.881 -0.2494 -1.3027 -2.1567
 9288SOL     OW39325   0.969   3.164   5.529  0.3533 -0.3323  0.5059
 9288SOL    HW139326   0.930   3.167   5.617  1.7990  0.2000  1.1331
 9288SOL    HW239327   1.029   3.238   5.539  2.2370 -1.8084  0.2358
 9289SOL     OW39328   3.745   4.525   1.794 -0.2606  0.0757  0.1018
 9289SOL    HW139329   3.702   4.481   1.868 -0.2129 -0.0976  0.0263
 9289SOL    HW239330   3.762   4.457   1.730 -0.1431 -0.3832  0.6182
 9290SOL     OW39331   0.175   1.209   4.762 -0.0389 -1.0865 -0.5933
 9290SOL    HW139332   0.205   1.299   4.779 -0.8091 -0.9744  0.1812
 9290SOL    HW239333   0.257   1.165   4.738 -0.4415 -2.2109  0.1312
 9291SOL     OW39334   2.636   1.508   7.529  0.0894 -0.0843  0.1413
 9291SOL    HW139335   2.676   1.466   7.452 -0.1036 -1.3134  0.7075
 9291SOL    HW239336   2.559   1.452   7.543 -0.7448  0.6558 -1.4143
 9292SOL     OW39337   0.460   4.300  12.427 -0.0111 -0.4542  0.0328
 9292SOL    HW139338   0.548   4.264  12.429  1.1388  2.2040 -1.8633
 9292SOL    HW239339   0.456   4.347  12.343  1.3228  1.6714  1.1458
 9293SOL     OW39340   1.875   0.135  15.189  0.5436  0.2759  0.6682
 9293SOL    HW139341   1.864   0.068  15.121 -0.4821  1.3336 -0.2070
 9293SOL    HW239342   1.803   0.190  15.158  0.1406 -0.7159 -0.1837
 9294SOL     OW39343   0.260   2.619   5.390  0.4012  0.1813 -0.1396
 9294SOL    HW139344   0.253   2.531   5.425  0.0655 -0.1256 -0.9798
 9294SOL    HW239345   0.202   2.601   5.316  0.3823 -0.7067  0.0975
 9295SOL     OW39346   3.409   4.080   9.485  0.1216  0.2197  0.1892
 9295SOL    HW139347   3.427   4.168   9.453 -1.2388  0.3485 -0.2080
 9295SOL    HW239348   3.313   4.084   9.481  0.0216  0.3504  2.6662
 9296SOL     OW39349   4.223   3.300  17.379 -0.6250 -0.2773  0.0265
 9296SOL    HW139350   4.216   3.395  17.386  2.5120 -0.1185  1.2262
 9296SOL    HW239351   4.227   3.276  17.472 -0.8639 -1.8205 -0.3682
 9297SOL     OW39352   1.027   0.529   2.491  0.5230  0.2161 -0.3301
 9297SOL    HW139353   1.050   0.459   2.430  1.9784 -1.1748  1.8058
 9297SOL    HW239354   1.091   0.518   2.562  0.8787 -1.0008 -0.8453
 9298SOL     OW39355   0.389   0.834   6.621 -0.2902  0.0956  0.1181
 9298SOL    HW139356   0.297   0.859   6.611 -0.2375  1.2919  2.6980
 9298SOL    HW239357   0.404   0.853   6.713 -0.1082 -0.3304  0.1769
 9299SOL     OW39358   3.706   0.911  12.009 -0.0664  0.3632  0.7794
 9299SOL    HW139359   3.764   0.850  11.963 -1.8864 -1.0526  0.3944
 9299SOL    HW239360   3.738   0.991  11.966 -0.9225  0.4661  0.3385
 9300SOL     OW39361   1.000   1.294   5.085  0.1396  0.3884 -0.4847
 9300SOL    HW139362   1.053   1.352   5.139 -1.2881 -1.4747  2.9394
 9300SOL    HW239363   0.910   1.324   5.096  0.1334  0.3862 -0.5282
 9301SOL     OW39364   4.587   0.428  10.311 -0.7383 -0.5395 -0.0185
 9301SOL    HW139365   4.499   0.390  10.307 -1.7474  1.7977 -0.2631
 9301SOL    HW239366   4.569   0.519  10.336  0.1074 -0.6860  1.1091
 9302SOL     OW39367   2.092   1.511   3.906 -0.5377 -0.1430  0.3173
 9302SOL    HW139368   2.040   1.431   3.917  1.5725 -1.4183  1.0399
 9302SOL    HW239369   2.044   1.590   3.931  1.5394  1.3969 -0.5392
 9303SOL     OW39370   3.763   2.592  13.109 -0.5605 -0.4535 -0.0174
 9303SOL    HW139371   3.695   2.649  13.144 -0.2654 -0.3986  0.4717
 9303SOL    HW239372   3.768   2.528  13.180  0.5507  0.2478  0.5431
 9304SOL     OW39373   3.197   3.701   6.953 -0.9872  0.0048 -0.2490
 9304SOL    HW139374   3.202   3.648   7.033  1.5521  1.8222  0.7516
 9304SOL    HW239375   3.222   3.637   6.886 -1.5249  1.8089 -2.1705
 9305SOL     OW39376   2.999   2.848   4.220 -0.3887 -0.4486  0.3285
 9305SOL    HW139377   2.915   2.807   4.241 -0.9133 -0.3021 -1.4867
 9305SOL    HW239378   3.055   2.770   4.218 -0.7562 -0.6714 -2.0949
 9306SOL     OW39379   1.697   0.469  14.575 -0.6789  0.4811 -0.1623
 9306SOL    HW139380   1.641   0.438  14.646 -3.0761  0.4997 -2.0158
 9306SOL    HW239381   1.631   0.515  14.523 -0.1429  0.7518 -0.6035
 9307SOL     OW39382   0.663   0.539  15.723 -0.1779 -0.4119  0.0214
 9307SOL    HW139383   0.666   0.604  15.794 -1.0033 -1.0467  0.6263
 9307SOL    HW239384   0.742   0.485  15.731  1.1695  0.9557 -3.6915
 9308SOL     OW39385   3.562   0.640   5.609 -0.3098  0.6531  0.6673
 9308SOL    HW139386   3.506   0.681   5.676 -0.4508  1.1366  0.2533
 9308SOL    HW239387   3.641   0.694   5.617 -1.7856  2.7512  1.2291
 9309SOL     OW39388   1.679   3.112  13.324 -0.5280 -0.5146 -0.3926
 9309SOL    HW139389   1.603   3.140  13.272 -0.3080  0.7184 -0.0506
 9309SOL    HW239390   1.639   3.043  13.377  0.8521 -0.5663  0.5794
 9310SOL     OW39391   1.081   0.641   5.847 -0.0484  0.4348  0.1314
 9310SOL    HW139392   1.035   0.673   5.925 -2.4144 -1.4956 -0.4430
 9310SOL    HW239393   1.173   0.632   5.871 -0.0171 -1.4019 -0.6759
 9311SOL     OW39394   0.624   1.165   1.101 -0.3276  0.2265 -0.6119
 9311SOL    HW139395   0.590   1.084   1.062  1.8655 -0.7191 -0.6061
 9311SOL    HW239396   0.677   1.203   1.031 -1.7429 -0.2373 -1.9459
 9312SOL     OW39397   0.117   3.570   7.762 -0.2865 -0.1031  0.2576
 9312SOL    HW139398   0.040   3.558   7.818 -1.1801  0.2967 -0.8742
 9312SOL    HW239399   0.141   3.661   7.779 -0.3588 -0.0195 -0.0676
 9313SOL     OW39400   1.336   3.622   2.858  0.1947  0.7368 -0.0858
 9313SOL    HW139401   1.307   3.660   2.940  0.3833 -0.8676  0.7388
 9313SOL    HW239402   1.324   3.702   2.807 -0.1707 -0.0048 -1.1803
 9314SOL     OW39403   1.674   4.584   5.455 -0.7328 -0.4681  0.8052
 9314SOL    HW139404   1.691   4.618   5.543  0.7423  0.9551 -0.0404
 9314SOL    HW239405   1.765   4.577   5.427 -0.4082 -0.5365  1.8580
 9315SOL     OW39406   0.085   0.933  10.780  0.1323  0.2339 -0.0518
 9315SOL    HW139407   0.033   0.995  10.831  1.3158  1.4455 -0.3282
 9315SOL    HW239408   0.179   0.952  10.784  0.4776 -0.9905 -2.4001
 9316SOL     OW39409   3.035   2.120   9.418 -0.1718  0.0435  0.3250
 9316SOL    HW139410   2.949   2.098   9.453 -1.1775  1.8458 -0.9795
 9316SOL    HW239411   3.027   2.181   9.344  0.5835  0.8585  0.9165
 9317SOL     OW39412   3.968   4.374   5.945 -0.4697  0.5027  0.4082
 9317SOL    HW139413   3.952   4.429   6.022 -3.6333  0.3376 -0.1463
 9317SOL    HW239414   3.878   4.367   5.913 -1.2578  2.5252  2.1801
 9318SOL     OW39415   4.181   3.043  15.992  0.3137  0.2177  0.1739
 9318SOL    HW139416   4.174   3.005  15.905  0.2121 -0.1007  0.3231
 9318SOL    HW239417   4.235   3.119  15.968  0.8706 -1.0058 -2.4091
 9319SOL     OW39418   3.989   2.985   0.359  0.0225  0.9005 -0.7705
 9319SOL    HW139419   4.046   3.059   0.376 -0.7477  1.6649 -1.5119
 9319SOL    HW239420   3.935   3.029   0.293 -3.1432  0.5423  1.5558
 9320SOL     OW39421   4.715   1.704   2.086  0.3990 -0.3070 -0.3271
 9320SOL    HW139422   0.027   1.791   2.066  1.0253 -0.3446  0.5719
 9320SOL    HW239423   0.004   1.660   2.002  0.1187  0.1062 -0.5779
 9321SOL     OW39424   2.464   1.722  17.421 -0.5496  0.0090 -0.3910
 9321SOL    HW139425   2.553   1.704  17.389 -0.6225 -1.5575  0.2773
 9321SOL    HW239426   2.408   1.683  17.354  0.5264  1.5752 -2.2039
 9322SOL     OW39427   3.829   2.805   1.214  0.0104  0.0467 -0.5820
 9322SOL    HW139428   3.846   2.716   1.246  0.3789  0.1394 -0.5213
 9322SOL    HW239429   3.893   2.806   1.142  1.0946 -0.7895  0.3676
 9323SOL     OW39430   1.489   3.213   3.817  0.6575 -0.1947 -0.1768
 9323SOL    HW139431   1.558   3.257   3.866  0.0387  1.3808 -0.6997
 9323SOL    HW239432   1.531   3.189   3.734  0.4647  1.2973 -0.7146
 9324SOL     OW39433   1.159   4.681   2.858  0.7426  0.4730  0.2526
 9324SOL    HW139434   1.139   4.721   2.943  0.7793 -0.6473  0.7857
 9324SOL    HW239435   1.129   4.591   2.869 -1.7490  1.0668 -1.7331
 9325SOL     OW39436   0.600   1.047  17.319 -0.6756 -0.3424 -0.2536
 9325SOL    HW139437   0.620   1.060  17.226  0.5751  0.9685  0.1959
 9325SOL    HW239438   0.507   1.025  17.309 -1.1775  2.1281 -1.1574
 9326SOL     OW39439   3.937   3.968   8.224 -0.1989  0.0037  0.6381
 9326SOL    HW139440   3.886   4.006   8.153  2.5760 -2.5135 -2.7305
 9326SOL    HW239441   3.955   3.880   8.190  0.2664  0.1571  0.4871
 9327SOL     OW39442   3.086   4.203   5.376 -0.1655  0.3709 -0.0183
 9327SOL    HW139443   3.120   4.288   5.404 -0.2925  0.7336 -0.9570
 9327SOL    HW239444   3.009   4.193   5.432 -1.0321  0.5078 -1.1903
 9328SOL     OW39445   2.706   3.957   5.425  0.1751 -0.2286  0.1094
 9328SOL    HW139446   2.791   3.996   5.444 -0.3222  0.8000  0.2162
 9328SOL    HW239447   2.688   3.924   5.513  1.0592  0.7364  0.6549
 9329SOL     OW39448   1.491   3.601   6.197 -0.0906 -0.0998  0.3228
 9329SOL    HW139449   1.427   3.551   6.246 -0.3361 -0.4479 -0.3542
 9329SOL    HW239450   1.461   3.691   6.213  0.1875  0.2205 -0.9317
 9330SOL     OW39451   2.367   1.365   7.477 -0.3287  0.6340 -0.0441
 9330SOL    HW139452   2.290   1.416   7.503 -1.7210 -1.3722 -0.2643
 9330SOL    HW239453   2.329   1.283   7.447 -0.3950  0.2401  1.1529
 9331SOL     OW39454   2.783   3.930   3.213 -0.0072  0.5718  0.6434
 9331SOL    HW139455   2.707   3.987   3.199 -0.4101 -0.4252 -1.3938
 9331SOL    HW239456   2.811   3.967   3.296 -0.9512  2.1942  0.2357
 9332SOL     OW39457   1.031   3.865   4.755  0.0074 -0.3528 -0.0310
 9332SOL    HW139458   1.033   3.826   4.667  2.0695  0.2193 -0.2557
 9332SOL    HW239459   1.040   3.790   4.813 -0.9130  0.6022  1.3468
 9333SOL     OW39460   4.433   1.235   9.289 -1.0488  0.1076 -0.0624
 9333SOL    HW139461   4.438   1.221   9.195 -0.1006 -0.1759  0.0322
 9333SOL    HW239462   4.345   1.201   9.308 -0.2918 -0.8145  1.8540
 9334SOL     OW39463   1.014   0.161   7.927  0.6396  0.0297  0.3689
 9334SOL    HW139464   1.013   0.074   7.967 -1.6632 -1.5513 -3.1254
 9334SOL    HW239465   1.020   0.216   8.006 -1.7288 -1.4948  1.5966
 9335SOL     OW39466   3.574   2.622   8.310 -0.4343  0.3165 -0.0046
 9335SOL    HW139467   3.585   2.527   8.303  0.1883  0.5390 -2.1762
 9335SOL    HW239468   3.524   2.641   8.231  0.6358  0.8332 -0.5612
 9336SOL     OW39469   2.696   2.922   5.992 -0.1854 -0.2418  0.1637
 9336SOL    HW139470   2.692   2.969   6.075 -0.4549  0.9569 -0.5275
 9336SOL    HW239471   2.704   2.832   6.025 -0.2114 -0.2402  0.1734
 9337SOL     OW39472   1.823   2.117   0.738 -0.3457 -0.2363 -0.0063
 9337SOL    HW139473   1.818   2.212   0.728  0.9187 -0.0412  1.2320
 9337SOL    HW239474   1.813   2.103   0.832 -0.1292 -0.5501 -0.0291
 9338SOL     OW39475   3.217   4.132   9.127 -0.0985 -0.0076 -0.1372
 9338SOL    HW139476   3.205   4.121   9.221  3.8365 -0.8495  0.2761
 9338SOL    HW239477   3.262   4.051   9.103  2.2636  1.4461 -0.6579
 9339SOL     OW39478   2.181   3.839  12.659  0.1881 -0.4830 -0.0628
 9339SOL    HW139479   2.141   3.925  12.645 -3.3157 -1.7991  1.9887
 9339SOL    HW239480   2.109   3.799  12.707  0.2425 -1.4324 -0.7795
 9340SOL     OW39481   3.708   3.684   1.300  0.9795  0.1246 -0.1392
 9340SOL    HW139482   3.748   3.763   1.335  0.8703  0.0778  0.0932
 9340SOL    HW239483   3.651   3.707   1.227  0.3985  1.6321  0.7830
 9341SOL     OW39484   3.761   3.173   7.026 -0.1420  0.2718 -0.0412
 9341SOL    HW139485   3.681   3.138   6.986 -0.0346 -2.0003  1.6753
 9341SOL    HW239486   3.769   3.121   7.107  0.1214  1.5852  0.7666
 9342SOL     OW39487   1.442   1.591   3.130  0.1740  0.1059 -0.4109
 9342SOL    HW139488   1.504   1.550   3.070 -0.1381  1.0850 -1.4141
 9342SOL    HW239489   1.389   1.516   3.156  0.8181  0.2358  1.2526
 9343SOL     OW39490   2.649   2.627   3.257 -0.3868 -0.7318  0.4755
 9343SOL    HW139491   2.692   2.581   3.184  0.6727 -0.1750  0.7405
 9343SOL    HW239492   2.639   2.545   3.305 -1.9755  0.0813  1.5133
 9344SOL     OW39493   4.609   0.090   7.622  0.4615 -0.0846 -0.4463
 9344SOL    HW139494   4.546   0.082   7.694  0.2674 -2.8088 -0.8972
 9344SOL    HW239495   4.551   0.063   7.550 -1.3720 -1.0140  1.3814
 9345SOL     OW39496   3.003   1.405   9.085  0.2690 -0.0450  0.1735
 9345SOL    HW139497   3.075   1.453   9.126 -1.4672  2.4595  0.3068
 9345SOL    HW239498   2.951   1.369   9.157  0.7270 -2.6455 -0.8145
 9346SOL     OW39499   2.617   0.550  16.708  0.0011 -0.1267  0.6629
 9346SOL    HW139500   2.652   0.461  16.696 -0.6487 -0.2248 -0.4884
 9346SOL    HW239501   2.594   0.578  16.619 -0.1391 -1.6987  0.1906
 9347SOL     OW39502   2.444   0.526   7.865  0.5951 -0.5853  0.4577
 9347SOL    HW139503   2.422   0.455   7.925 -2.0608 -0.5213 -0.4057
 9347SOL    HW239504   2.519   0.486   7.822  1.5452  1.6154  0.0540
 9348SOL     OW39505   0.982   2.804  14.090  0.2593  0.9393  0.1010
 9348SOL    HW139506   1.052   2.852  14.134  0.2395  2.3655 -1.4486
 9348SOL    HW239507   0.911   2.835  14.147 -1.1113  0.1489 -1.1598
 9349SOL     OW39508   3.503   1.232  12.910  0.0066  0.1320 -0.0594
 9349SOL    HW139509   3.492   1.211  13.003 -1.0162 -2.3325 -0.7377
 9349SOL    HW239510   3.478   1.324  12.907 -0.5543 -0.0851 -2.1123
 9350SOL     OW39511   3.464   3.686   7.698 -0.4752 -0.4509 -0.2529
 9350SOL    HW139512   3.464   3.696   7.793  0.4966 -2.0780 -0.0899
 9350SOL    HW239513   3.516   3.606   7.709  2.7667  1.4366 -1.8541
 9351SOL     OW39514   2.940   1.295   4.711 -0.0088  0.4733 -0.0086
 9351SOL    HW139515   2.927   1.387   4.687 -1.2260  0.1431 -0.6272
 9351SOL    HW239516   2.910   1.245   4.635 -0.1061  0.4713  0.0314
 9352SOL     OW39517   3.223   1.626   6.295 -0.6050 -0.2112 -0.4201
 9352SOL    HW139518   3.171   1.702   6.320 -1.8453 -1.4471  0.7891
 9352SOL    HW239519   3.180   1.560   6.350 -1.2445 -0.2530 -0.9834
 9353SOL     OW39520   4.352   3.340   0.501 -0.0713  0.8701  0.5154
 9353SOL    HW139521   4.442   3.369   0.486 -0.1529  0.9947  0.2813
 9353SOL    HW239522   4.310   3.424   0.515 -2.2307  0.1394 -1.5100
 9354SOL     OW39523   1.417   1.373   8.480 -1.3881 -0.7704 -0.2988
 9354SOL    HW139524   1.372   1.451   8.513 -2.2164 -1.8819  1.1962
 9354SOL    HW239525   1.424   1.395   8.388  1.2394  1.1104  0.3618
 9355SOL     OW39526   3.344   0.287   8.163 -0.4022 -0.1951 -0.0956
 9355SOL    HW139527   3.434   0.285   8.131 -0.0163 -1.2060  1.1005
 9355SOL    HW239528   3.323   0.379   8.148  2.1368  0.3506 -0.2611
 9356SOL     OW39529   3.860   3.076   6.232  0.6010  0.4750 -0.0885
 9356SOL    HW139530   3.841   3.109   6.320 -1.3661  1.5978 -0.9211
 9356SOL    HW239531   3.884   2.986   6.253 -3.0461 -0.4043  0.3543
 9357SOL     OW39532   1.293   3.223  11.397  0.0760  0.0539 -0.4058
 9357SOL    HW139533   1.293   3.184  11.485 -0.1225  2.6422  0.7429
 9357SOL    HW239534   1.252   3.153  11.347 -1.1693  0.9758 -0.6661
 9358SOL     OW39535   1.600   0.468   3.989 -0.2910  0.4981  0.0687
 9358SOL    HW139536   1.672   0.412   4.017 -0.4121  0.3568  0.0954
 9358SOL    HW239537   1.566   0.421   3.913  1.5930 -0.5031 -0.1615
 9359SOL     OW39538   4.641   1.376   2.109  0.0299 -0.6035  0.7047
 9359SOL    HW139539   4.583   1.304   2.134 -0.9778 -0.0084  0.0945
 9359SOL    HW239540   4.580   1.412   2.044  0.7704  0.0419  0.3754
 9360SOL     OW39541   3.724   2.081  13.902 -0.5723 -0.1973 -0.1596
 9360SOL    HW139542   3.774   2.092  13.983 -0.0095 -2.6764 -0.1758
 9360SOL    HW239543   3.788   2.027  13.856 -0.0061 -1.1584  1.7618
 9361SOL     OW39544   1.470   4.328  10.361 -0.2051 -0.2200 -0.5307
 9361SOL    HW139545   1.511   4.307  10.445  0.4209 -0.6927 -0.9562
 9361SOL    HW239546   1.393   4.378  10.390  0.4874 -0.0486  1.0441
 9362SOL     OW39547   3.746   1.021   9.136 -0.2235  0.0474  0.7503
 9362SOL    HW139548   3.820   1.002   9.078 -1.7794 -0.6098 -1.0181
 9362SOL    HW239549   3.766   1.114   9.152  1.6593  0.0109 -1.3300
 9363SOL     OW39550   0.089   2.076   2.435 -0.0476  0.4197 -0.3720
 9363SOL    HW139551   0.018   2.050   2.494 -1.7131 -2.2783 -3.5039
 9363SOL    HW239552   0.143   1.998   2.425  0.7535  0.7535  1.4171
 9364SOL     OW39553   2.349   1.778   1.605  0.1835 -0.3828  0.1900
 9364SOL    HW139554   2.427   1.833   1.614  0.8471 -1.2877 -0.0463
 9364SOL    HW239555   2.310   1.798   1.690  1.4556  1.4046  0.3530
 9365SOL     OW39556   4.382   0.796   1.781 -0.1443  0.0147 -0.0507
 9365SOL    HW139557   4.419   0.728   1.726 -0.0893  0.4841 -0.5892
 9365SOL    HW239558   4.350   0.747   1.857  0.7106  2.3552  1.8474
 9366SOL     OW39559   1.047   3.494   2.220 -0.3792 -0.0748 -0.1485
 9366SOL    HW139560   0.998   3.575   2.233  0.3875  0.6406 -1.7374
 9366SOL    HW239561   1.079   3.520   2.134  1.6205  2.5649  1.3832
 9367SOL     OW39562   0.339   1.340   5.062 -0.1616 -0.1527  0.1702
 9367SOL    HW139563   0.305   1.251   5.071  1.7502 -0.8352  0.5022
 9367SOL    HW239564   0.268   1.379   5.010 -0.4598  0.0758  0.7453
 9368SOL     OW39565   4.244   1.338   3.918  0.6442 -0.2890  0.3418
 9368SOL    HW139566   4.155   1.335   3.883  0.5251  2.6800  0.4101
 9368SOL    HW239567   4.275   1.387   3.842  1.8505 -0.4624  0.7242
 9369SOL     OW39568   0.207   3.182   2.685 -0.1251  0.2446 -0.0856
 9369SOL    HW139569   0.211   3.092   2.651 -1.3455  0.3781 -0.5675
 9369SOL    HW239570   0.176   3.226   2.606  0.7206  1.8892  0.5004
 9370SOL     OW39571   4.397   1.765  16.631  0.4168 -0.3031  0.1462
 9370SOL    HW139572   4.338   1.689  16.624 -0.1579  0.4943 -3.4727
 9370SOL    HW239573   4.431   1.765  16.542  1.2783 -0.5399  0.4790
 9371SOL     OW39574   0.718   3.221   3.738 -0.5700  0.1149 -0.0451
 9371SOL    HW139575   0.760   3.294   3.692  0.4359  0.0848  0.8058
 9371SOL    HW239576   0.775   3.144   3.729 -0.3276 -0.0618  2.9691
 9372SOL     OW39577   2.251   3.378   4.556  0.2968 -0.0550  0.1336
 9372SOL    HW139578   2.317   3.379   4.625  0.3501 -0.8895  0.0958
 9372SOL    HW239579   2.178   3.347   4.610  1.2241 -3.5907 -0.6414
 9373SOL     OW39580   1.559   4.412   1.463 -0.0115  0.1625  0.3655
 9373SOL    HW139581   1.482   4.361   1.489  2.0191 -3.0861  0.0037
 9373SOL    HW239582   1.564   4.480   1.530 -0.3069  1.7705 -1.2133
 9374SOL     OW39583   2.371   3.836  16.260  0.6087 -0.3822 -0.4094
 9374SOL    HW139584   2.288   3.790  16.276 -0.9775  2.0946 -1.4368
 9374SOL    HW239585   2.410   3.787  16.187  2.1109 -1.9537  1.4618
 9375SOL     OW39586   3.161   1.530   9.702 -0.3154 -0.7190 -0.7879
 9375SOL    HW139587   3.214   1.456   9.730  1.7056  0.9198 -0.2348
 9375SOL    HW239588   3.088   1.520   9.764  0.3440  0.3742  0.1771
 9376SOL     OW39589   0.911   1.068   9.770 -0.3906 -0.2384  0.4498
 9376SOL    HW139590   0.907   1.144   9.828  1.6344  0.1292  0.1137
 9376SOL    HW239591   0.999   1.038   9.795  0.1113  0.5891 -0.3288
 9377SOL     OW39592   4.146   1.977   8.550  0.0807 -0.4468 -0.6055
 9377SOL    HW139593   4.143   2.054   8.493 -0.3344  0.6348  0.9019
 9377SOL    HW239594   4.234   1.945   8.530  0.3327  0.5713 -1.1385
 9378SOL     OW39595   0.330   3.063   9.591  0.3354  0.9335 -0.1457
 9378SOL    HW139596   0.407   3.118   9.598 -0.5969  2.2585 -0.3137
 9378SOL    HW239597   0.357   3.000   9.524 -1.2970 -0.0214  0.0747
 9379SOL     OW39598   2.035   2.507   4.608 -0.0478  0.1045 -0.0790
 9379SOL    HW139599   2.060   2.415   4.620  1.3111  0.4121 -0.4951
 9379SOL    HW239600   1.986   2.500   4.526  2.2283 -0.2891 -1.4295
 9380SOL     OW39601   2.372   2.344   5.633 -0.2547 -0.4467 -0.2165
 9380SOL    HW139602   2.415   2.302   5.707 -1.2097 -1.7697 -0.4060
 9380SOL    HW239603   2.444   2.356   5.571  0.6685  1.7846  1.3204
 9381SOL     OW39604   1.854   4.031   2.973  0.0858 -0.5020 -0.0613
 9381SOL    HW139605   1.848   3.990   2.887  1.0307 -0.6481 -0.0583
 9381SOL    HW239606   1.762   4.052   2.989  0.8172  2.0738  0.8294
 9382SOL     OW39607   1.378   0.960   2.938  0.2081 -0.8558 -0.4525
 9382SOL    HW139608   1.440   0.990   2.872  0.5852 -0.8962 -0.1127
 9382SOL    HW239609   1.355   1.047   2.972  1.3806  0.0665 -2.0266
 9383SOL     OW39610   1.660   4.654  16.312  0.7542  0.4860 -0.1492
 9383SOL    HW139611   1.647   4.563  16.337  3.0936  0.1999 -0.0493
 9383SOL    HW239612   1.739   4.684  16.356  2.5713 -1.2779 -2.2400
 9384SOL     OW39613   2.482   2.111   2.986  0.0679 -0.2881  0.1095
 9384SOL    HW139614   2.485   2.184   2.925  1.8812 -0.7012 -0.2935
 9384SOL    HW239615   2.569   2.115   3.026  1.0222 -0.3537 -1.9518
 9385SOL     OW39616   3.901   4.521   3.587 -0.0676 -0.0396 -0.0128
 9385SOL    HW139617   3.879   4.518   3.680 -1.2797 -0.3406 -0.3146
 9385SOL    HW239618   3.947   4.439   3.571 -1.7017 -0.8565 -0.5324
 9386SOL     OW39619   0.880   1.694   6.035  0.2193  0.6788 -0.2350
 9386SOL    HW139620   0.920   1.740   5.961  0.5380 -0.5582 -0.8482
 9386SOL    HW239621   0.867   1.608   5.995 -0.7507  1.0475 -0.7023
 9387SOL     OW39622   0.506   3.353   6.554  0.4256  0.2618 -0.0255
 9387SOL    HW139623   0.518   3.368   6.648  1.9237  0.7114 -0.2972
 9387SOL    HW239624   0.598   3.346   6.531 -0.1701  0.2709 -2.4030
 9388SOL     OW39625   0.650   1.199   3.925 -0.2164  0.1830  0.1894
 9388SOL    HW139626   0.681   1.200   4.015 -2.3343 -0.7339  0.9441
 9388SOL    HW239627   0.706   1.129   3.892 -0.8947  1.1812 -3.1467
 9389SOL     OW39628   2.622   3.392  10.062  0.0541 -0.2551  0.0745
 9389SOL    HW139629   2.669   3.317  10.027 -1.0202 -0.4579 -0.9496
 9389SOL    HW239630   2.624   3.361  10.153 -1.9626 -1.3061 -0.2276
 9390SOL     OW39631   4.667   2.857   2.286  0.7741  0.0417  1.0394
 9390SOL    HW139632   4.675   2.890   2.376 -0.0649 -0.6139  1.3493
 9390SOL    HW239633   0.025   2.805   2.288 -0.1292 -1.3669  0.3514
 9391SOL     OW39634   0.451   4.571  15.958 -0.3515  0.0896 -0.5112
 9391SOL    HW139635   0.404   4.497  15.921  0.2283 -0.1538 -0.7549
 9391SOL    HW239636   0.388   4.606  16.021  0.0241 -0.1794  0.0155
 9392SOL     OW39637   0.014   0.243  11.449  0.0692  0.2753  0.1153
 9392SOL    HW139638   0.068   0.311  11.410 -1.3243  0.7087 -1.0557
 9392SOL    HW239639   4.705   0.196  11.372 -0.7021  0.2698  0.4274
 9393SOL     OW39640   3.281   0.836   3.735 -0.5250  0.5127 -0.0751
 9393SOL    HW139641   3.351   0.901   3.731 -0.2843  0.1710 -1.2499
 9393SOL    HW239642   3.299   0.778   3.661  1.3363 -0.4464  1.1290
 9394SOL     OW39643   0.037   3.582   8.400  0.1033  0.0180 -0.4337
 9394SOL    HW139644   0.019   3.489   8.413  1.0452 -0.1053 -0.0549
 9394SOL    HW239645   0.035   3.584   8.304 -2.0247 -1.9998 -0.4299
 9395SOL     OW39646   3.749   4.105  16.479  0.6887  0.3745  0.6810
 9395SOL    HW139647   3.695   4.165  16.530 -0.6696 -0.4541  0.2143
 9395SOL    HW239648   3.784   4.168  16.416 -0.6443  0.6754  0.2272
 9396SOL     OW39649   3.881   3.412   7.699  0.1004 -0.3555 -0.5609
 9396SOL    HW139650   3.883   3.359   7.779  0.6186  0.3573 -0.1096
 9396SOL    HW239651   3.934   3.351   7.648  1.6825 -0.4892  1.2170
 9397SOL     OW39652   2.768   0.297   7.120  0.1968  0.4341  0.1356
 9397SOL    HW139653   2.819   0.308   7.201 -0.5088 -0.4618  0.6959
 9397SOL    HW239654   2.685   0.284   7.165 -0.7425 -2.3049 -2.4220
 9398SOL     OW39655   1.640   4.706   1.933  0.1213  0.3794 -0.1067
 9398SOL    HW139656   1.598   4.711   2.019 -2.1267  1.3819 -1.2690
 9398SOL    HW239657   1.670   0.075   1.928 -1.8805  1.1241  1.2341
 9399SOL     OW39658   0.924   2.812   2.910  0.1539  0.5406 -0.3947
 9399SOL    HW139659   0.964   2.727   2.891  0.6568  0.6709  0.0623
 9399SOL    HW239660   0.873   2.821   2.830 -1.1483 -0.4044  0.3166
 9400SOL     OW39661   3.735   3.194   2.785  0.0774  0.0497  0.3620
 9400SOL    HW139662   3.792   3.234   2.851  2.2636 -0.8352 -0.9966
 9400SOL    HW239663   3.685   3.273   2.766  2.8325  1.4446 -1.1503
 9401SOL     OW39664   2.162   1.124   5.955  0.0770  0.2256  0.3862
 9401SOL    HW139665   2.202   1.113   5.869  0.1190 -2.3136  0.7156
 9401SOL    HW239666   2.105   1.200   5.950 -0.9969 -0.5228  1.2079
 9402SOL     OW39667   2.286   4.002  15.375  0.0256 -0.8670 -0.0140
 9402SOL    HW139668   2.214   3.941  15.393 -2.2173  1.9044  0.4447
 9402SOL    HW239669   2.234   4.053  15.312 -0.4443 -0.8205  0.4116
 9403SOL     OW39670   3.892   3.616  15.082 -0.4600  0.1494 -0.4542
 9403SOL    HW139671   3.941   3.557  15.025 -1.9294 -0.6841 -0.8500
 9403SOL    HW239672   3.842   3.552  15.133  2.4448 -1.2120  0.7028
 9404SOL     OW39673   1.698   3.708   2.159 -0.2994  0.3275  0.3974
 9404SOL    HW139674   1.643   3.743   2.089  1.4129  3.2549  0.5122
 9404SOL    HW239675   1.679   3.615   2.158  1.2412  0.0283 -0.4698
 9405SOL     OW39676   0.419   2.364   3.963 -0.3176  0.5363  0.3921
 9405SOL    HW139677   0.497   2.309   3.963 -1.7499 -1.5039  0.3789
 9405SOL    HW239678   0.415   2.406   4.050  2.1653  0.0373  0.7527
 9406SOL     OW39679   0.869   4.285   3.170 -0.0583  0.2503 -0.0106
 9406SOL    HW139680   0.861   4.283   3.266  2.2470  1.7256  0.2182
 9406SOL    HW239681   0.943   4.345   3.161 -0.0508  0.4569  1.4455
 9407SOL     OW39682   1.120   0.547  17.633  0.1009  0.5896 -0.1858
 9407SOL    HW139683   1.049   0.591  17.586  0.9506  0.2131 -1.8302
 9407SOL    HW239684   1.155   0.617  17.688  0.7732  1.3135 -1.5336
 9408SOL     OW39685   0.342   2.309   8.619 -1.0610  0.0001 -0.1068
 9408SOL    HW139686   0.427   2.292   8.659 -0.5671  2.5081 -0.0789
 9408SOL    HW239687   0.366   2.379   8.558  0.2279  1.7664  2.4219
 9409SOL     OW39688   2.419   2.581   0.877 -0.3408 -0.0074  0.4918
 9409SOL    HW139689   2.468   2.628   0.809 -0.0383 -0.2373  0.5538
 9409SOL    HW239690   2.479   2.603   0.947 -1.7044  0.3481  1.5584
 9410SOL     OW39691   2.730   3.098   3.527  0.3264 -0.3245 -0.2832
 9410SOL    HW139692   2.679   3.032   3.573  0.7200 -1.0500 -0.8898
 9410SOL    HW239693   2.674   3.139   3.461  0.8148  2.0180  0.7730
 9411SOL     OW39694   1.817   2.522  14.089  0.1178 -0.1835 -0.6102
 9411SOL    HW139695   1.848   2.472  14.164 -0.5661 -0.0685 -0.2481
 9411SOL    HW239696   1.724   2.534  14.109  0.0401  1.4112 -1.9143
 9412SOL     OW39697   3.142   4.030  17.032  0.3781  0.7079 -0.6589
 9412SOL    HW139698   3.220   4.064  17.076 -1.0194  0.7089  1.8184
 9412SOL    HW239699   3.163   3.937  17.047 -0.3962  0.4675 -1.0511
 9413SOL     OW39700   2.587   4.596   5.879 -0.0154  0.3922  0.1610
 9413SOL    HW139701   2.627   4.663   5.825 -0.1662  0.6239  0.3377
 9413SOL    HW239702   2.496   4.581   5.853  0.2718  0.1400 -0.6926
 9414SOL     OW39703   3.271   1.781   5.695 -0.3287  0.1295 -0.3109
 9414SOL    HW139704   3.360   1.807   5.718 -0.0174 -1.2171  0.0316
 9414SOL    HW239705   3.293   1.693   5.663 -0.8984  0.8964 -2.7899
 9415SOL     OW39706   2.583   3.101   6.365  0.4945 -0.7446 -0.7890
 9415SOL    HW139707   2.565   3.019   6.318  2.7157 -1.9597  0.4864
 9415SOL    HW239708   2.560   3.071   6.452 -1.3992  1.0163 -0.6885
 9416SOL     OW39709   1.690   3.211  14.174  0.1363 -0.1933 -0.3180
 9416SOL    HW139710   1.772   3.162  14.177  0.4514  0.5226  2.5990
 9416SOL    HW239711   1.672   3.215  14.080  0.2583 -1.7161 -0.4014
 9417SOL     OW39712   4.285   4.047   1.876  0.8690 -0.3880 -0.4609
 9417SOL    HW139713   4.260   4.140   1.871  0.5795 -0.3553  1.4819
 9417SOL    HW239714   4.375   4.066   1.852  0.8044  3.2330  2.0831
 9418SOL     OW39715   3.044   0.265   6.474  0.2344  0.4152 -0.1794
 9418SOL    HW139716   3.015   0.224   6.393 -2.1162  1.1452  0.2721
 9418SOL    HW239717   2.986   0.340   6.488  0.4253  0.7677 -1.3307
 9419SOL     OW39718   3.489   3.040   7.612  0.1618  0.2758  0.6335
 9419SOL    HW139719   3.482   3.116   7.553  0.2506 -0.3045 -0.1259
 9419SOL    HW239720   3.397   3.016   7.623 -0.2206  1.3228 -0.1835
 9420SOL     OW39721   2.231   4.612   2.862 -0.5077 -1.0370  0.3906
 9420SOL    HW139722   2.238   4.705   2.884 -0.5202 -0.5994 -1.4100
 9420SOL    HW239723   2.302   4.576   2.915  1.7693  2.3959 -0.3185
 9421SOL     OW39724   3.615   0.362   6.645 -0.8246 -0.2507 -0.5151
 9421SOL    HW139725   3.546   0.304   6.676 -1.0837 -0.2802 -1.1578
 9421SOL    HW239726   3.559   0.432   6.612  0.4216  0.8243 -0.3267
 9422SOL     OW39727   1.965   3.063   7.216  0.1982 -0.0782 -0.7093
 9422SOL    HW139728   2.039   3.118   7.242  0.9823 -0.4164 -2.2264
 9422SOL    HW239729   2.011   2.980   7.205 -0.5645 -0.5914 -0.0164
 9423SOL     OW39730   4.355   4.327   8.206  0.6769  0.5187 -0.1143
 9423SOL    HW139731   4.290   4.303   8.272  0.3881  2.4191  0.3027
 9423SOL    HW239732   4.433   4.277   8.230  1.9789  2.6198  0.0150
 9424SOL     OW39733   1.212   0.857   3.939 -0.2396 -0.0813 -0.3288
 9424SOL    HW139734   1.199   0.890   3.851 -0.8177  1.0548  0.1769
 9424SOL    HW239735   1.176   0.928   3.993  0.6398  0.5398 -0.5641
 9425SOL     OW39736   0.020   2.893   3.664  0.5175  0.3428 -0.4846
 9425SOL    HW139737   0.018   2.871   3.571  3.6232 -0.6143 -0.3239
 9425SOL    HW239738   0.014   2.802   3.693  3.3798  0.5576  0.6707
 9426SOL     OW39739   3.298   1.731  16.138  0.3030 -0.1307  0.1368
 9426SOL    HW139740   3.211   1.710  16.104  0.4152  1.9292 -1.4981
 9426SOL    HW239741   3.345   1.692  16.065 -0.7544  2.5877 -2.0189
 9427SOL     OW39742   3.690   3.020  14.096  0.2407  0.5602 -0.6066
 9427SOL    HW139743   3.689   3.029  14.000 -0.0693 -3.5189 -1.0035
 9427SOL    HW239744   3.748   2.944  14.104  1.1609  0.9896 -3.1090
 9428SOL     OW39745   4.593   2.857  16.976 -0.0920  0.3529 -0.4503
 9428SOL    HW139746   4.645   2.923  17.021  1.0454 -1.1517  0.4797
 9428SOL    HW239747   4.510   2.899  16.956  0.9655  1.9575 -1.4102
 9429SOL     OW39748   3.309   2.804   4.386 -0.4792 -0.9646 -0.2405
 9429SOL    HW139749   3.346   2.723   4.421  0.3816  0.8219  3.0365
 9429SOL    HW239750   3.332   2.788   4.295  0.5505 -0.8476 -0.0071
 9430SOL     OW39751   0.761   0.430   9.465 -0.5718 -0.3359  0.3147
 9430SOL    HW139752   0.833   0.491   9.446 -1.2054  0.1567 -0.4987
 9430SOL    HW239753   0.764   0.431   9.561 -3.8460 -1.5822  0.4112
 9431SOL     OW39754   1.868   2.759   1.864  0.1294 -0.0218 -0.3757
 9431SOL    HW139755   1.943   2.701   1.873 -0.2977 -0.2037  1.9210
 9431SOL    HW239756   1.896   2.815   1.791  2.1378  0.9481  1.1685
 9432SOL     OW39757   3.462   2.638   6.842 -0.2025 -0.4489  0.3893
 9432SOL    HW139758   3.379   2.613   6.881  0.7411 -0.5065  2.4168
 9432SOL    HW239759   3.439   2.632   6.750  1.4655 -1.1756  0.0175
 9433SOL     OW39760   3.275   1.181   4.461  0.0973  0.3914 -0.4774
 9433SOL    HW139761   3.201   1.217   4.412  0.5472  1.9734  0.0041
 9433SOL    HW239762   3.333   1.251   4.491  0.4164  0.0665 -0.3393
 9434SOL     OW39763   3.133   1.386   3.849 -0.8831  0.2244 -0.2405
 9434SOL    HW139764   3.178   1.459   3.890  0.2798 -0.6828  0.0839
 9434SOL    HW239765   3.176   1.313   3.893 -0.9043 -0.0123 -0.6123
 9435SOL     OW39766   4.187   3.887   5.983  0.1064  0.3480 -0.1288
 9435SOL    HW139767   4.243   3.820   6.022 -1.7381 -1.4612 -0.5858
 9435SOL    HW239768   4.145   3.927   6.059 -0.5423 -1.3252  0.3966
 9436SOL     OW39769   4.122   1.609   9.504 -0.6099  0.0488  0.4863
 9436SOL    HW139770   4.214   1.600   9.529 -1.0622  0.6881  2.4008
 9436SOL    HW239771   4.071   1.583   9.581 -1.5006 -1.1658 -0.5298
 9437SOL     OW39772   3.965   3.893   4.005 -0.8081 -0.6933 -0.2062
 9437SOL    HW139773   4.014   3.904   4.087  1.6466  0.0127 -1.7529
 9437SOL    HW239774   4.033   3.903   3.939 -0.5018 -0.1365  0.1922
 9438SOL     OW39775   1.306   0.606  13.930 -0.9296 -0.0150  0.1670
 9438SOL    HW139776   1.277   0.693  13.905  1.2222  0.4159 -0.7808
 9438SOL    HW239777   1.260   0.586  14.012  2.0899 -0.9651  1.6287
 9439SOL     OW39778   2.348   3.653  15.446  0.7735  0.8567  0.1462
 9439SOL    HW139779   2.394   3.734  15.425  0.6706  1.2431  1.3832
 9439SOL    HW239780   2.406   3.595  15.396 -1.3917 -1.2083  0.0347
 9440SOL     OW39781   3.957   0.370  15.973  0.0883 -0.1061  0.3888
 9440SOL    HW139782   3.910   0.449  15.945 -2.1419 -1.2784  0.8252
 9440SOL    HW239783   3.904   0.360  16.052 -1.0499  0.0311 -0.3626
 9441SOL     OW39784   1.027   1.465   2.985  0.0364  0.1115 -0.4990
 9441SOL    HW139785   0.950   1.473   2.928 -1.6122 -2.0123  1.4322
 9441SOL    HW239786   1.105   1.481   2.932 -1.2583  2.8987 -1.5524
 9442SOL     OW39787   0.747   4.299   4.717  0.0824  0.4447 -0.5105
 9442SOL    HW139788   0.782   4.216   4.747  0.0292  0.8605  0.7115
 9442SOL    HW239789   0.802   4.355   4.772  2.0053 -1.0296 -0.9441
 9443SOL     OW39790   0.637   0.153   5.146 -0.7900  0.2838  0.0914
 9443SOL    HW139791   0.661   0.174   5.056 -0.8186  0.2179  0.0679
 9443SOL    HW239792   0.580   0.078   5.127 -1.0628  0.5560 -0.1582
 9444SOL     OW39793   1.523   0.873  14.227  0.0564 -0.4142 -0.3970
 9444SOL    HW139794   1.448   0.820  14.250 -1.8856  2.0282 -1.0573
 9444SOL    HW239795   1.539   0.928  14.303  0.8143  1.2333 -1.7270
 9445SOL     OW39796   3.207   4.277   6.656  0.4939  0.2594 -0.3756
 9445SOL    HW139797   3.204   4.291   6.561  0.8919  0.4619 -0.3569
 9445SOL    HW239798   3.285   4.223   6.668 -0.2819 -0.1533  2.6849
 9446SOL     OW39799   3.710   2.947   9.672  0.3367 -0.3239  0.5145
 9446SOL    HW139800   3.643   2.934   9.605  0.2277 -0.4118  0.6397
 9446SOL    HW239801   3.708   3.042   9.686 -0.3995 -0.2588 -0.0219
 9447SOL     OW39802   2.251   3.845  11.582  0.3669 -0.3522  0.2724
 9447SOL    HW139803   2.258   3.940  11.579 -1.1480 -0.2760 -0.9583
 9447SOL    HW239804   2.221   3.831  11.672  0.7478  0.6146  0.5448
 9448SOL     OW39805   4.571   1.581  10.866 -0.2736  0.2289 -0.2894
 9448SOL    HW139806   4.476   1.593  10.873 -0.4712  0.0386 -2.3598
 9448SOL    HW239807   4.582   1.506  10.924  0.1148 -0.6625 -1.4959
 9449SOL     OW39808   3.016   3.473   9.809 -0.4699  0.0372 -0.0512
 9449SOL    HW139809   3.095   3.461   9.860 -1.1175  0.2034  0.9874
 9449SOL    HW239810   2.963   3.535   9.860 -0.8935 -1.2161  1.0179
 9450SOL     OW39811   2.070   3.510   4.273 -0.0280 -0.0272  0.1335
 9450SOL    HW139812   2.066   3.502   4.368  0.2899  1.4400  0.2719
 9450SOL    HW239813   2.164   3.523   4.258  0.5570 -2.6239  1.5930
 9451SOL     OW39814   2.225   2.521   8.122 -0.0014  0.6511  0.0113
 9451SOL    HW139815   2.199   2.495   8.210 -0.1538  1.9612  0.3534
 9451SOL    HW239816   2.309   2.486   8.091 -1.2567 -0.4651 -2.1170
 9452SOL     OW39817   4.349   0.497  14.582  0.0893 -0.6695 -0.1772
 9452SOL    HW139818   4.427   0.529  14.535 -0.4353 -0.7023 -1.0653
 9452SOL    HW239819   4.353   0.406  14.553  2.3486  0.4531 -3.4147
 9453SOL     OW39820   4.659   0.743   3.107  1.0430 -0.0447 -0.3507
 9453SOL    HW139821   4.703   0.700   3.034 -0.0607 -1.3218 -0.2467
 9453SOL    HW239822   4.568   0.726   3.086  0.8799  2.5156 -1.6355
 9454SOL     OW39823   3.919   2.361   3.510  0.5441  0.2336  0.0457
 9454SOL    HW139824   4.008   2.329   3.498  0.3571 -1.0343  2.1591
 9454SOL    HW239825   3.901   2.335   3.600  3.0783 -0.9161  0.2302
 9455SOL     OW39826   1.086   1.035   3.198 -0.5477 -0.1762 -0.0474
 9455SOL    HW139827   1.006   0.984   3.214 -1.8764  2.0647  0.3457
 9455SOL    HW239828   1.064   1.077   3.115 -2.8983 -0.2891  0.5032
 9456SOL     OW39829   1.131   1.507  11.935 -0.2448 -0.4278 -0.2183
 9456SOL    HW139830   1.073   1.481  11.863  1.7080 -2.5385 -1.0266
 9456SOL    HW239831   1.220   1.487  11.904  0.7964  1.8698  1.3257
 9457SOL     OW39832   3.847   2.612   8.254 -0.3378  0.0527  1.1103
 9457SOL    HW139833   3.891   2.696   8.265 -0.2580  0.1012  0.4253
 9457SOL    HW239834   3.755   2.631   8.272 -0.7472 -1.1942  0.3630
 9458SOL     OW39835   2.028   3.052   5.677 -0.4158  0.3760 -0.6836
 9458SOL    HW139836   1.996   3.057   5.767 -1.8110  0.0406 -1.1560
 9458SOL    HW239837   2.123   3.066   5.681 -0.0698 -1.1720 -3.4205
 9459SOL     OW39838   4.058   4.408   4.297 -0.0440  0.0709  0.4219
 9459SOL    HW139839   4.148   4.402   4.327 -0.0444  1.3802  0.6699
 9459SOL    HW239840   4.006   4.455   4.362 -0.2710 -0.9390  0.9660
 9460SOL     OW39841   2.195   2.402  10.062 -0.0636 -0.3231 -0.0657
 9460SOL    HW139842   2.211   2.496  10.066  0.1279 -0.3671  0.2717
 9460SOL    HW239843   2.234   2.372  10.145 -3.1185 -0.4843  1.3059
 9461SOL     OW39844   0.994   4.174   6.932  0.3213 -0.0014  0.4857
 9461SOL    HW139845   1.061   4.242   6.936 -0.8357  1.1096  1.2843
 9461SOL    HW239846   0.969   4.181   7.025 -0.0116 -3.4113  0.6512
 9462SOL     OW39847   1.902   0.123  10.912 -0.5968  0.0637 -0.1872
 9462SOL    HW139848   1.990   0.108  10.946 -0.7727  0.1233  0.2911
 9462SOL    HW239849   1.912   0.108  10.818  0.4295 -1.1447  0.1085
 9463SOL     OW39850   3.167   4.696   7.134 -0.1265  0.2012 -0.0659
 9463SOL    HW139851   3.221   4.617   7.136  0.0788  0.2748 -2.7749
 9463SOL    HW239852   3.217   0.027   7.197 -1.5127  1.8617 -0.3787
 9464SOL     OW39853   3.382   4.377   3.110 -0.2415 -0.8859  0.4291
 9464SOL    HW139854   3.470   4.407   3.087 -0.5514 -0.2216  0.1144
 9464SOL    HW239855   3.398   4.365   3.204  1.3262  0.0555  0.2757
 9465SOL     OW39856   0.072   4.195  16.972 -0.0194 -0.0276  0.4703
 9465SOL    HW139857   0.052   4.280  17.011  0.7544  0.1630  0.4415
 9465SOL    HW239858   0.091   4.220  16.882 -0.0100  0.0994  0.5066
 9466SOL     OW39859   0.465   4.507   4.109 -0.4042  0.0816 -0.1569
 9466SOL    HW139860   0.429   4.454   4.037 -0.5792 -0.5628  0.4020
 9466SOL    HW239861   0.558   4.488   4.102 -0.3067  1.0076 -1.3319
 9467SOL     OW39862   0.542   1.653   7.272  0.1839  0.3316  0.2014
 9467SOL    HW139863   0.474   1.644   7.206 -1.0689  2.4119  1.2195
 9467SOL    HW239864   0.587   1.721   7.222 -0.5744  0.1762 -0.6800
 9468SOL     OW39865   3.654   3.951   3.058 -0.4403  0.1648 -0.1241
 9468SOL    HW139866   3.559   3.956   3.054 -0.3772  1.9252  0.6242
 9468SOL    HW239867   3.652   3.861   3.090 -0.3727 -0.3655 -1.6127
 9469SOL     OW39868   0.572   2.898  15.249  0.0862 -0.4734 -0.2466
 9469SOL    HW139869   0.516   2.909  15.172 -0.7407  0.1125  0.4344
 9469SOL    HW239870   0.604   2.988  15.261  1.1417 -0.5544 -2.5657
 9470SOL     OW39871   2.151   4.150   2.002 -0.0433 -0.3686  0.4447
 9470SOL    HW139872   2.105   4.084   1.952 -0.2321  0.3891 -0.3889
 9470SOL    HW239873   2.111   4.134   2.087  1.1610  0.1896  1.1195
 9471SOL     OW39874   2.089   0.899   4.333 -0.0032 -0.2518  0.1150
 9471SOL    HW139875   2.064   0.883   4.423  2.8860 -1.0472  0.7901
 9471SOL    HW239876   2.129   0.814   4.312 -1.3101 -0.7094 -0.5213
 9472SOL     OW39877   2.548   3.841   7.382  0.6860  0.0383 -0.0658
 9472SOL    HW139878   2.476   3.814   7.324  0.9519 -0.9549  0.0677
 9472SOL    HW239879   2.557   3.771   7.447  0.8410 -0.6952 -0.8802
 9473SOL     OW39880   3.322   4.543   3.649  0.2773  0.3883 -0.2888
 9473SOL    HW139881   3.405   4.580   3.680  0.7619  0.5574 -1.8025
 9473SOL    HW239882   3.354   4.474   3.592 -2.3640 -0.4629 -0.7405
 9474SOL     OW39883   3.654   2.436   6.832  0.4558 -0.8685  0.1446
 9474SOL    HW139884   3.602   2.359   6.853 -0.6529 -0.0751  0.3227
 9474SOL    HW239885   3.598   2.497   6.881 -1.6253 -1.1832 -1.8372
 9475SOL     OW39886   0.914   4.405  16.091 -0.0856 -0.6248 -0.3737
 9475SOL    HW139887   0.846   4.433  16.030 -0.3159  0.5465  0.4267
 9475SOL    HW239888   0.959   4.339  16.038 -2.5204 -1.9992 -0.7345
 9476SOL     OW39889   4.411   2.074   3.155 -0.1305  0.8748 -0.3250
 9476SOL    HW139890   4.334   2.073   3.097 -0.3924  0.6341  0.0280
 9476SOL    HW239891   4.480   2.128   3.117  1.9864  1.0338  3.7338
 9477SOL     OW39892   1.119   0.151   6.895 -0.0969  0.2687  0.0235
 9477SOL    HW139893   1.124   0.151   6.800 -0.1073  1.9959  0.0231
 9477SOL    HW239894   1.131   0.245   6.911  1.6600  0.0478 -0.0317
 9478SOL     OW39895   0.607   1.450   6.083  0.0380 -0.8311 -0.3888
 9478SOL    HW139896   0.535   1.512   6.090 -0.7813 -1.6467 -1.5731
 9478SOL    HW239897   0.615   1.414   6.171  1.7143  1.8194  0.5253
 9479SOL     OW39898   3.083   3.336  13.840  0.2063 -0.6692 -0.4004
 9479SOL    HW139899   3.087   3.423  13.878 -0.9900 -1.8903  2.5352
 9479SOL    HW239900   3.161   3.340  13.785  0.1167  0.8398 -0.4164
 9480SOL     OW39901   0.708   3.871  16.697  0.1678 -0.1010 -0.0379
 9480SOL    HW139902   0.749   3.958  16.689 -0.2530  0.2238  1.2557
 9480SOL    HW239903   0.678   3.887  16.787 -1.6058  1.1522 -0.8450
 9481SOL     OW39904   1.565   3.153  16.502  0.1353 -0.2501  0.5149
 9481SOL    HW139905   1.653   3.117  16.487  0.2556  1.3686 -2.5470
 9481SOL    HW239906   1.568   3.240  16.462  3.3481 -0.7907 -0.4503
 9482SOL     OW39907   4.207   2.071  14.460 -0.6708  0.0558 -0.5508
 9482SOL    HW139908   4.124   2.065  14.414 -0.3097 -1.8275 -0.9649
 9482SOL    HW239909   4.231   2.162  14.442 -1.0755 -0.0210 -1.4512
 9483SOL     OW39910   4.324   3.166   4.560  0.0236 -0.0028 -0.0293
 9483SOL    HW139911   4.379   3.154   4.483  2.7167  2.4912  1.5280
 9483SOL    HW239912   4.238   3.162   4.517  0.2900 -0.0659 -0.5580
 9484SOL     OW39913   1.874   1.165  11.176 -0.7610  0.5387 -0.2851
 9484SOL    HW139914   1.848   1.246  11.132 -2.4158 -2.3571 -4.6701
 9484SOL    HW239915   1.790   1.126  11.202 -0.4890  0.4756  0.5246
 9485SOL     OW39916   2.361   0.560   3.736 -0.0452 -0.5712  0.2862
 9485SOL    HW139917   2.295   0.532   3.673  1.3034 -0.0902 -1.3440
 9485SOL    HW239918   2.414   0.604   3.669 -0.4699  1.4256  1.2591
 9486SOL     OW39919   2.860   1.732   9.041 -0.0554 -0.4520  0.0478
 9486SOL    HW139920   2.779   1.710   9.088 -0.6274 -2.6559 -1.9507
 9486SOL    HW239921   2.904   1.792   9.101 -1.2830  1.4113 -0.9016
 9487SOL     OW39922   4.103   4.211   8.679  0.1103 -0.4953 -0.1368
 9487SOL    HW139923   4.038   4.243   8.742  1.9108 -1.3433  2.1494
 9487SOL    HW239924   4.115   4.122   8.713  0.7389  0.5806  2.4207
 9488SOL     OW39925   1.817   3.563   4.677 -0.0254 -0.6668  0.3779
 9488SOL    HW139926   1.736   3.596   4.714 -0.2587 -1.2294  0.3693
 9488SOL    HW239927   1.839   3.628   4.609 -2.7877  0.0189  0.1606
 9489SOL     OW39928   2.643   0.860   2.418 -0.1004  0.2622  0.4255
 9489SOL    HW139929   2.719   0.875   2.362  0.9387 -2.6113  1.0755
 9489SOL    HW239930   2.592   0.794   2.371  1.5595  0.5256 -1.6995
 9490SOL     OW39931   2.368   1.587  11.464  0.0095 -0.2012 -0.6631
 9490SOL    HW139932   2.359   1.510  11.520  0.3114  0.7844  0.7393
 9490SOL    HW239933   2.316   1.654  11.508  2.8347  0.3988  1.7556
 9491SOL     OW39934   2.521   3.234   6.910  0.5521  0.9905 -0.1362
 9491SOL    HW139935   2.511   3.299   6.979 -0.8227  1.4717 -0.7927
 9491SOL    HW239936   2.498   3.298   6.844  0.1186  0.3492 -0.6087
 9492SOL     OW39937   2.597   4.333   4.766 -0.1156  0.0902  0.6050
 9492SOL    HW139938   2.629   4.244   4.776  1.1974  0.6894  1.7705
 9492SOL    HW239939   2.657   4.361   4.696 -1.8290 -1.3808 -1.4672
 9493SOL     OW39940   0.239   4.212   9.950 -0.3171  0.4631 -0.4920
 9493SOL    HW139941   0.249   4.129   9.904 -1.7218  0.4309 -0.7343
 9493SOL    HW239942   0.244   4.175  10.038  1.5890 -1.4266 -1.3901
 9494SOL     OW39943   0.100   0.955   6.625  0.0788 -0.4471  1.0810
 9494SOL    HW139944   0.095   1.029   6.686  0.6283  1.7345 -1.5633
 9494SOL    HW239945   0.062   0.986   6.543 -0.2928 -1.5164  0.8477
 9495SOL     OW39946   1.822   2.805  10.557 -0.6246  0.8334  0.5064
 9495SOL    HW139947   1.896   2.766  10.604 -0.4353  0.0147 -0.4757
 9495SOL    HW239948   1.765   2.829  10.630  0.3438  0.9482  1.2290
 9496SOL     OW39949   2.274   1.462   1.302 -0.5907  0.0030  0.1891
 9496SOL    HW139950   2.200   1.425   1.255 -1.0148 -0.1346  0.9667
 9496SOL    HW239951   2.338   1.395   1.278  0.8850  1.7360 -0.7904
 9497SOL     OW39952   0.595   0.390  13.704 -0.5064 -0.1321 -0.6262
 9497SOL    HW139953   0.555   0.475  13.721 -0.1806 -0.2824  0.9143
 9497SOL    HW239954   0.539   0.349  13.639  0.7496 -1.0791 -1.1259
 9498SOL     OW39955   1.876   0.984   4.881 -0.3983 -0.3213  0.5005
 9498SOL    HW139956   1.824   0.916   4.837 -0.4558  1.6803 -2.5245
 9498SOL    HW239957   1.821   1.001   4.957 -2.5626  1.1385 -1.3785
 9499SOL     OW39958   4.257   0.677  10.406 -0.3777  0.1641  0.6524
 9499SOL    HW139959   4.348   0.700  10.425 -0.3703 -1.2006  2.2541
 9499SOL    HW239960   4.275   0.586  10.383 -1.4048  0.0758  0.1666
 9500SOL     OW39961   3.859   3.854  16.386  0.4493 -0.1029  0.5107
 9500SOL    HW139962   3.798   3.924  16.409  0.8759  0.3724  0.1841
 9500SOL    HW239963   3.827   3.781  16.440 -1.0333  0.3825  0.2944
 9501SOL     OW39964   0.129   2.905   2.714 -0.0325  0.4357  0.6027
 9501SOL    HW139965   0.051   2.902   2.769  0.2787 -3.8649  0.8277
 9501SOL    HW239966   0.190   2.859   2.771 -2.6005  0.2574  3.1954
 9502SOL     OW39967   4.060   2.471   1.831 -0.3675 -0.2312 -0.1270
 9502SOL    HW139968   4.084   2.392   1.880 -0.0348  0.6593  1.1471
 9502SOL    HW239969   3.973   2.446   1.800  0.5611 -1.0980 -2.0068
 9503SOL     OW39970   3.900   0.533  10.447  0.0665 -0.5234 -0.3693
 9503SOL    HW139971   3.829   0.584  10.409  0.4237  0.1785 -0.0949
 9503SOL    HW239972   3.928   0.586  10.522  0.9503 -1.9993  0.3453
 9504SOL     OW39973   1.201   2.720   3.852 -0.3475 -0.1459 -0.1815
 9504SOL    HW139974   1.233   2.775   3.924 -0.4212 -1.6822  1.0252
 9504SOL    HW239975   1.268   2.654   3.838  0.1974  0.8223 -2.1501
 9505SOL     OW39976   2.001   0.159   4.624 -0.7001 -0.3593 -0.7053
 9505SOL    HW139977   1.977   0.242   4.584 -1.9807 -0.6817 -0.6026
 9505SOL    HW239978   2.096   0.171   4.615 -0.9377  2.1109  0.1988
 9506SOL     OW39979   4.447   0.836   6.603 -0.6088  0.7382 -0.1963
 9506SOL    HW139980   4.465   0.903   6.668  1.4418 -0.9726  1.0369
 9506SOL    HW239981   4.485   0.756   6.640  0.9524  2.0681  1.0504
 9507SOL     OW39982   3.113   0.713   7.614 -0.6819  0.6849  0.2868
 9507SOL    HW139983   3.176   0.640   7.617 -1.0143  0.3794 -0.2303
 9507SOL    HW239984   3.135   0.740   7.524 -0.6442 -0.9901 -0.2059
 9508SOL     OW39985   1.554   1.115   2.443 -0.1504  0.3982  0.3244
 9508SOL    HW139986   1.460   1.126   2.428 -0.1154  0.0648 -0.1241
 9508SOL    HW239987   1.594   1.181   2.387 -1.2716 -0.8818 -1.9588
 9509SOL     OW39988   0.925   1.761   2.895 -0.3323 -0.2746  0.0410
 9509SOL    HW139989   0.838   1.723   2.910 -1.0310  2.7697  3.8976
 9509SOL    HW239990   0.943   1.746   2.803 -0.3358 -1.9056  0.2957
 9510SOL     OW39991   4.565   0.528   9.962 -0.1239  0.2651  0.6500
 9510SOL    HW139992   4.546   0.588  10.035 -3.4841  2.0437 -1.6765
 9510SOL    HW239993   4.503   0.565   9.900 -1.7852 -1.0499  1.5064
 9511SOL     OW39994   0.676   0.908   4.864 -0.0830 -0.0651  0.6966
 9511SOL    HW139995   0.662   0.969   4.792 -2.1817  0.3522  1.4554
 9511SOL    HW239996   0.621   0.951   4.930 -0.4637 -2.0486  1.6695
 9512SOL     OW39997   1.614   4.473   9.064 -0.6906 -0.1042 -0.8268
 9512SOL    HW139998   1.709   4.474   9.065 -0.6995  0.5258 -0.7491
 9512SOL    HW239999   1.583   4.394   9.019  1.0967 -0.9204 -0.6290
 9513SOL     OW40000   3.394   3.956   2.694 -0.0126 -0.4062  0.0481
 9513SOL    HW140001   3.478   3.986   2.728 -0.0334 -0.0944 -0.1727
 9513SOL    HW240002   3.349   4.039   2.710 -0.9506 -0.7183 -0.9487
 9514SOL     OW40003   4.160   3.163   2.616  0.0900  0.0418  0.2081
 9514SOL    HW140004   4.143   3.076   2.654  1.4693 -1.8978 -3.5682
 9514SOL    HW240005   4.221   3.214   2.669 -0.1778  1.3273 -0.7373
 9515SOL     OW40006   1.047   3.591  13.986 -0.3511 -0.1888 -0.1083
 9515SOL    HW140007   1.041   3.604  13.891  0.0346 -0.2619 -0.1433
 9515SOL    HW240008   1.119   3.651  14.004 -0.7983  0.8345 -1.7016
 9516SOL     OW40009   2.735   2.223   5.329  0.1834  0.2634  0.5986
 9516SOL    HW140010   2.768   2.215   5.239 -4.7456  1.5561 -1.3548
 9516SOL    HW240011   2.810   2.257   5.378 -1.3568  2.0224  1.7450
 9517SOL     OW40012   0.091   3.364   3.875 -0.3258  0.2310  0.1653
 9517SOL    HW140013   0.095   3.317   3.792  2.0693 -0.8738  0.9149
 9517SOL    HW240014   0.057   3.450   3.851 -0.4014  0.4909  1.2051
 9518SOL     OW40015   2.583   3.689   5.431  0.3709 -0.4951 -0.1506
 9518SOL    HW140016   2.499   3.643   5.434  0.1614  0.1068  4.1048
 9518SOL    HW240017   2.641   3.623   5.467 -2.9389 -2.9662  0.6767
 9519SOL     OW40018   2.275   1.850  16.822  0.5011  0.3002 -0.1222
 9519SOL    HW140019   2.188   1.844  16.783 -0.1276 -0.3674  1.3987
 9519SOL    HW240020   2.329   1.823  16.748 -0.6480 -1.7463 -0.1984
 9520SOL     OW40021   0.468   4.050   0.633 -0.8565  0.5651 -0.1471
 9520SOL    HW140022   0.487   4.034   0.725  4.6434  2.7640 -0.9001
 9520SOL    HW240023   0.414   3.975   0.608  0.6935  0.0898 -2.1285
 9521SOL     OW40024   1.649   3.020   3.240  0.5463 -0.1633  0.4412
 9521SOL    HW140025   1.682   3.025   3.150  2.3190 -3.6635  0.8997
 9521SOL    HW240026   1.573   3.078   3.233 -0.7752 -1.8250  0.9469
 9522SOL     OW40027   0.838   3.509   5.512  0.4493  0.1539  0.2152
 9522SOL    HW140028   0.884   3.562   5.577  0.5870  0.3788 -0.0607
 9522SOL    HW240029   0.896   3.516   5.436 -0.8761 -1.7699 -0.9684
 9523SOL     OW40030   0.464   2.049   1.525 -0.1560 -0.3123 -0.0585
 9523SOL    HW140031   0.487   2.099   1.447  0.1359 -2.4776 -1.3742
 9523SOL    HW240032   0.515   2.100   1.589 -2.2908  0.1321  1.3055
 9524SOL     OW40033   2.669   1.882  10.552  0.0656  0.2253 -0.6336
 9524SOL    HW140034   2.692   1.802  10.504 -0.2099  0.8427 -1.7900
 9524SOL    HW240035   2.617   1.835  10.618  1.0326  1.6631  1.1621
 9525SOL     OW40036   4.678   3.284  12.204 -0.4423  0.1073  0.5677
 9525SOL    HW140037   4.696   3.221  12.133 -1.3592  1.5367 -0.9334
 9525SOL    HW240038   4.700   3.368  12.164 -0.3801 -1.1944 -2.1411
 9526SOL     OW40039   1.431   3.877   6.185  0.5686  0.0158  0.2513
 9526SOL    HW140040   1.335   3.878   6.177  0.5074 -1.2209  0.9120
 9526SOL    HW240041   1.450   3.912   6.098  1.5912 -4.2984 -1.2304
 9527SOL     OW40042   3.130   4.481   3.367 -0.3156  0.4197 -0.6195
 9527SOL    HW140043   3.100   4.394   3.341  1.7421  0.2054 -2.2857
 9527SOL    HW240044   3.163   4.453   3.452  0.0788 -0.2813 -0.9992
 9528SOL     OW40045   4.027   4.337   2.882  0.1307 -0.2494 -0.3150
 9528SOL    HW140046   3.998   4.252   2.913 -0.4213  0.3811  0.9209
 9528SOL    HW240047   4.085   4.317   2.809  0.6497 -0.7979  0.2442
 9529SOL     OW40048   0.039   3.165   3.698 -0.1034  0.2370  0.0641
 9529SOL    HW140049   0.000   3.080   3.681  1.7545 -0.4968 -0.5146
 9529SOL    HW240050   4.681   3.214   3.681 -0.5670 -0.2082  0.9763
 9530SOL     OW40051   0.795   2.998  17.020  0.1501 -0.4388 -0.4067
 9530SOL    HW140052   0.722   3.056  17.001 -1.0088 -2.0066 -0.7212
 9530SOL    HW240053   0.760   2.942  17.089  0.5672  0.1759  0.3056
 9531SOL     OW40054   3.110   3.069   2.342 -0.2197  0.7701 -0.6340
 9531SOL    HW140055   3.169   3.142   2.326  1.4556 -1.0295 -2.6096
 9531SOL    HW240056   3.053   3.069   2.265 -0.5084  0.6796 -0.4206
 9532SOL     OW40057   2.718   0.707   0.340 -0.0985  0.2467 -0.0844
 9532SOL    HW140058   2.721   0.803   0.332 -0.5698  0.2208 -0.5873
 9532SOL    HW240059   2.663   0.710   0.262  0.0292  1.4993 -0.1374
 9533SOL     OW40060   4.194   2.907   1.359  0.1662 -0.5214  0.3876
 9533SOL    HW140061   4.219   2.981   1.303  2.1106 -1.1798  0.3744
 9533SOL    HW240062   4.271   2.850   1.370 -0.7523 -1.3791  2.4627
 9534SOL     OW40063   2.836   0.025   5.099  0.2510 -0.1867 -0.1291
 9534SOL    HW140064   2.829   0.115   5.131  0.1819  0.0358 -0.7614
 9534SOL    HW240065   2.788   4.701   5.168 -0.8785 -1.6318 -1.8729
 9535SOL     OW40066   3.716   1.623   3.807 -0.9338 -0.3750  0.4501
 9535SOL    HW140067   3.674   1.537   3.822 -1.5924 -0.2838 -0.9212
 9535SOL    HW240068   3.689   1.661   3.891  2.1593  0.1617  1.1731
 9536SOL     OW40069   0.475   0.263   3.221  0.4616  0.4647 -0.2448
 9536SOL    HW140070   0.451   0.241   3.311  0.2480 -1.5070 -0.7858
 9536SOL    HW240071   0.416   0.338   3.209  0.3313  0.2843 -0.7199
 9537SOL     OW40072   1.998   1.903   2.372 -0.0218 -0.1726  0.3685
 9537SOL    HW140073   2.090   1.879   2.378 -0.2034 -1.0011 -0.1937
 9537SOL    HW240074   1.973   1.942   2.456 -0.8747  0.4348 -0.1656
 9538SOL     OW40075   3.107   3.721  10.185  0.0289 -0.3809  0.6368
 9538SOL    HW140076   3.012   3.727  10.172 -0.0996 -0.0386  1.7093
 9538SOL    HW240077   3.120   3.634  10.148 -0.1059  0.5074 -1.4812
 9539SOL     OW40078   4.642   4.498  13.852 -0.3527  0.3133 -0.0909
 9539SOL    HW140079   4.549   4.475  13.849 -0.0673 -0.7657 -0.7736
 9539SOL    HW240080   4.663   4.460  13.766 -0.9033 -0.5960  0.1788
 9540SOL     OW40081   2.614   3.579   2.549  0.3730 -0.6252  0.1424
 9540SOL    HW140082   2.559   3.583   2.471  1.4047  2.5936 -0.4263
 9540SOL    HW240083   2.618   3.488   2.577  0.3767 -0.2502  1.3779
 9541SOL     OW40084   3.488   4.413   1.268 -0.1506  0.0131  0.5206
 9541SOL    HW140085   3.468   4.359   1.191  0.0243  1.0911 -0.2823
 9541SOL    HW240086   3.435   4.493   1.258  0.3286  0.1420 -1.0508
 9542SOL     OW40087   0.376   0.904   8.684 -0.0968 -0.4266  0.5959
 9542SOL    HW140088   0.307   0.887   8.747 -0.0733 -2.1388  0.1592
 9542SOL    HW240089   0.443   0.933   8.746 -0.3484 -0.2508  0.7870
 9543SOL     OW40090   0.856   2.848   7.122  0.3373  0.5355 -0.7597
 9543SOL    HW140091   0.762   2.860   7.137 -0.0233 -1.2281 -1.6279
 9543SOL    HW240092   0.865   2.896   7.039  1.3231 -0.0923 -1.0166
 9544SOL     OW40093   4.593   1.110  13.335  0.0094 -0.2933 -0.1558
 9544SOL    HW140094   4.554   1.156  13.408  0.3000 -2.0026  1.0892
 9544SOL    HW240095   4.515   1.073  13.294 -1.0144  1.5498  0.1494
 9545SOL     OW40096   1.061   2.678   2.192  0.8029  0.1608 -0.1047
 9545SOL    HW140097   1.096   2.689   2.103  2.6878 -2.3344  0.3119
 9545SOL    HW240098   1.087   2.588   2.209  1.4137  0.4447  0.4790
 9546SOL     OW40099   1.487   0.058   2.162  0.6254 -0.3114 -0.5045
 9546SOL    HW140100   1.401   0.027   2.135 -0.8789  3.1922  0.2270
 9546SOL    HW240101   1.474   0.153   2.160 -1.4037 -0.6063 -1.2574
 9547SOL     OW40102   3.650   0.321   7.020 -0.0597  0.1851 -0.7700
 9547SOL    HW140103   3.577   0.335   6.960 -0.9329 -0.4117  0.1666
 9547SOL    HW240104   3.620   0.253   7.080  1.6313 -0.1380 -0.2901
 9548SOL     OW40105   2.908   2.389  11.363 -0.3922  0.6683 -0.4716
 9548SOL    HW140106   2.987   2.344  11.394 -1.4534 -0.0725  1.1449
 9548SOL    HW240107   2.848   2.316  11.348  0.9511 -1.0222  2.4058
 9549SOL     OW40108   1.823   4.254   0.873 -0.2154 -0.5507 -0.2847
 9549SOL    HW140109   1.835   4.168   0.834  0.4339 -0.8190  0.4959
 9549SOL    HW240110   1.825   4.313   0.798 -1.4621 -0.7957 -0.5114
 9550SOL     OW40111   2.140   0.195   6.200  0.7870 -0.0672  0.1835
 9550SOL    HW140112   2.166   0.214   6.291 -1.3794 -1.8038  1.1666
 9550SOL    HW240113   2.178   0.270   6.154 -2.0781  2.5318  2.0515
 9551SOL     OW40114   1.595   1.563  17.488  0.2670 -0.1866 -0.8015
 9551SOL    HW140115   1.560   1.486  17.532 -1.0149  1.9553  1.9279
 9551SOL    HW240116   1.512   1.603  17.465  0.4829  0.9602  0.3764
 9552SOL     OW40117   4.153   4.510   0.698  0.3963  0.3729  0.1530
 9552SOL    HW140118   4.171   4.572   0.769  0.4963 -1.8689  2.0801
 9552SOL    HW240119   4.060   4.524   0.682  0.0194 -1.3760  0.8350
 9553SOL     OW40120   4.081   2.792   2.188  0.1245 -0.7876 -0.1912
 9553SOL    HW140121   4.065   2.772   2.096 -1.0718  2.0076 -0.6073
 9553SOL    HW240122   4.003   2.840   2.216 -1.6386 -3.1983 -1.0028
 9554SOL     OW40123   4.261   3.790   3.262 -0.4301 -0.1607 -0.2140
 9554SOL    HW140124   4.171   3.800   3.294 -0.0561  0.8925  0.5166
 9554SOL    HW240125   4.301   3.837   3.335 -0.7520 -1.9901  1.1362
 9555SOL     OW40126   0.183   1.692   9.274 -0.3337  0.1684  0.1128
 9555SOL    HW140127   0.261   1.637   9.267 -0.8479 -0.2294 -2.1662
 9555SOL    HW240128   0.110   1.633   9.259  1.0090 -0.7756 -2.5633
 9556SOL     OW40129   0.100   4.324   8.083 -1.2633 -0.1701  0.1257
 9556SOL    HW140130   0.062   4.395   8.033  1.5077  1.3611  0.1718
 9556SOL    HW240131   0.059   4.329   8.170  1.4248  1.0711  1.3297
 9557SOL     OW40132   2.884   2.530   2.709 -0.0971  0.0166 -0.1234
 9557SOL    HW140133   2.875   2.436   2.726 -0.2096  0.4305  2.1611
 9557SOL    HW240134   2.964   2.527   2.658 -0.6605  1.9570 -1.1340
 9558SOL     OW40135   3.871   4.679  11.481  1.1768  0.2023 -0.3359
 9558SOL    HW140136   3.881   4.674  11.577 -0.6719  2.1706 -0.0489
 9558SOL    HW240137   3.861   0.051  11.466 -0.1727  0.1642  0.3600
 9559SOL     OW40138   2.944   2.977   3.831  0.3838  0.3322  0.6725
 9559SOL    HW140139   3.008   2.941   3.892  0.2373 -0.0695  0.5883
 9559SOL    HW240140   2.975   3.066   3.816  0.2830  0.1995 -0.3317
 9560SOL     OW40141   4.105   2.574   1.191 -0.3951 -0.3350 -1.0683
 9560SOL    HW140142   4.054   2.513   1.138 -0.1559 -1.0172 -0.5157
 9560SOL    HW240143   4.040   2.604   1.255  0.8621 -0.3911  0.2416
 9561SOL     OW40144   0.254   3.743   5.706  0.1418  0.1648 -0.5323
 9561SOL    HW140145   0.180   3.729   5.767  0.9049 -0.5723  0.2248
 9561SOL    HW240146   0.271   3.656   5.670 -0.3507 -0.1256 -0.0718
 9562SOL     OW40147   4.393   2.966   8.756 -0.5580  0.1824 -0.0773
 9562SOL    HW140148   4.298   2.962   8.765 -0.4318 -1.1584  0.6729
 9562SOL    HW240149   4.390   3.061   8.765  0.0723  0.1525  0.4217
 9563SOL     OW40150   3.608   0.124  14.722  0.0135  0.0629 -0.0462
 9563SOL    HW140151   3.548   0.091  14.789 -0.2908 -0.8619 -0.7709
 9563SOL    HW240152   3.626   0.213  14.752  1.0197 -0.3599  0.6031
 9564SOL     OW40153   1.121   3.883   9.803 -0.0785  0.0393 -0.1819
 9564SOL    HW140154   1.128   3.973   9.836  1.7765 -0.1617 -0.0439
 9564SOL    HW240155   1.195   3.878   9.742  0.8761  0.3707  0.9425
 9565SOL     OW40156   3.846   4.224   8.769 -0.7377 -0.0939  0.2695
 9565SOL    HW140157   3.790   4.282   8.821 -1.1480 -1.0594  0.8854
 9565SOL    HW240158   3.794   4.226   8.689 -2.6675 -3.6140  1.4592
 9566SOL     OW40159   2.589   4.668  17.219 -0.1498 -0.2089  0.0612
 9566SOL    HW140160   2.655   4.607  17.185 -1.3125  0.6024 -3.7114
 9566SOL    HW240161   2.625   0.028  17.185  1.5682 -1.8572 -2.0730
 9567SOL     OW40162   1.983   2.729  14.728 -0.1389  0.0210  0.1033
 9567SOL    HW140163   1.909   2.763  14.778 -2.4567 -1.2745 -2.4895
 9567SOL    HW240164   1.942   2.677  14.659 -2.7906  0.2692  1.4946
 9568SOL     OW40165   2.794   2.527   1.772  0.2905  0.3990  0.0867
 9568SOL    HW140166   2.854   2.591   1.732  1.5091  0.2209  1.6355
 9568SOL    HW240167   2.848   2.449   1.777 -1.9561 -1.0712  1.4251
   4.72190   4.72190  17.68979
